                         Program Version 6.0.0  -   RELEASE  -
|  1> ! pbe def2-sv(p) def2/J RI DEFGRID1 loosescf d4 GCP(DFT/SV(P)) printgap
|  2> %output
|  3>     printlevel normal
|  4> end
|  5> * xyz 0 1
|  6> C 5.2928910226 -0.0780740302 -2.3824528869
|  7> C 3.8435098146 -0.4733463062 -2.1825602624
|  8> O 3.5711560986 -0.4715446517 -0.7669752222
|  9> P 2.1083720255 -0.2793628108 -0.181344127
| 10> S 1.1032690137 1.167599262 -1.0485737167
| 11> O 2.3711847075 -0.1526141497 1.3710352159
| 12> C 2.6093203819 1.1103431114 2.0246546324
| 13> C 3.8742178958 1.7746290339 1.5266517017
| 14> S 1.3704508386 -2.2532743656 -0.2681188867
| 15> C -0.2779242977 -2.047600399 0.4583157918
| 16> S -1.4672166047 -1.2664732541 -0.6767464563
| 17> P -2.2130520677 0.2178417992 0.6610738625
| 18> S -0.9471025769 0.9354259508 1.9684423085
| 19> O -3.3963975263 -0.4911422412 1.4231104156
| 20> C -4.5204469414 -1.1235348469 0.7610828051
| 21> C -5.6955233085 -0.1728548511 0.6616551896
| 22> O -2.9731105844 1.2597506472 -0.2578557397
| 23> C -2.3358670911 2.2233899415 -1.1193626998
| 24> C -2.2700328508 1.7130582217 -2.5445803673
| 25> H 5.9403909308 -0.7654013163 -1.8459422577
| 26> H 5.5276239852 -0.1136581683 -3.4411347143
| 27> H 5.463259677 0.9287489648 -2.0114641748
| 28> H 3.6483288591 -1.4796796428 -2.5616450214
| 29> H 3.1634840395 0.2333062376 -2.6708076899
| 30> H 1.7359632512 1.7515103161 1.8674158458
| 31> H 2.6729171885 0.8440562422 3.0804962008
| 32> H 4.7154143717 1.0919467568 1.614917306
| 33> H 3.7550519495 2.0572875744 0.4811814228
| 34> H 4.0651240855 2.6673108728 2.1139421543
| 35> H -0.2035504761 -1.4346736181 1.3600814607
| 36> H -0.6231236086 -3.0528003729 0.6847639523
| 37> H -4.2006348238 -1.4666970546 -0.226933827
| 38> H -4.7566907249 -1.9810808127 1.3935961162
| 39> H -5.9650256687 0.1897340734 1.6498900773
| 40> H -5.4426966552 0.6775254308 0.0345731883
| 41> H -6.5409236143 -0.6991670238 0.2295807669
| 42> H -2.9635683632 3.1132554718 -1.0441401977
| 43> H -1.3364374883 2.4504755237 -0.7376131928
| 44> H -3.2600568575 1.427517766 -2.8880019587
| 45> H -1.877727721 2.5001190293 -3.180099414
| 46> H -1.6072974786 0.8532457831 -2.6095667158
| 47> *
| 48>
| 49>                          ****END OF INPUT****

CARTESIAN COORDINATES (ANGSTROEM)
---------------------------------
  C      5.292891   -0.078074   -2.382453
  C      3.843510   -0.473346   -2.182560
  O      3.571156   -0.471545   -0.766975
  P      2.108372   -0.279363   -0.181344
  S      1.103269    1.167599   -1.048574
  O      2.371185   -0.152614    1.371035
  C      2.609320    1.110343    2.024655
  C      3.874218    1.774629    1.526652
  S      1.370451   -2.253274   -0.268119
  C     -0.277924   -2.047600    0.458316
  S     -1.467217   -1.266473   -0.676746
  P     -2.213052    0.217842    0.661074
  S     -0.947103    0.935426    1.968442
  O     -3.396398   -0.491142    1.423110
  C     -4.520447   -1.123535    0.761083
  C     -5.695523   -0.172855    0.661655
  O     -2.973111    1.259751   -0.257856
  C     -2.335867    2.223390   -1.119363
  C     -2.270033    1.713058   -2.544580
  H      5.940391   -0.765401   -1.845942
  H      5.527624   -0.113658   -3.441135
  H      5.463260    0.928749   -2.011464
  H      3.648329   -1.479680   -2.561645
  H      3.163484    0.233306   -2.670808
  H      1.735963    1.751510    1.867416
  H      2.672917    0.844056    3.080496
  H      4.715414    1.091947    1.614917
  H      3.755052    2.057288    0.481181
  H      4.065124    2.667311    2.113942
  H     -0.203550   -1.434674    1.360081
  H     -0.623124   -3.052800    0.684764
  H     -4.200635   -1.466697   -0.226934
  H     -4.756691   -1.981081    1.393596
  H     -5.965026    0.189734    1.649890
  H     -5.442697    0.677525    0.034573
  H     -6.540924   -0.699167    0.229581
  H     -2.963568    3.113255   -1.044140
  H     -1.336437    2.450476   -0.737613
  H     -3.260057    1.427518   -2.888002
  H     -1.877728    2.500119   -3.180099
  H     -1.607297    0.853246   -2.609567

 Total Charge           Charge          ....    0
 Multiplicity           Mult            ....    1
 Number of Electrons    NEL             ....  202
 Basis Dimension        Dim             ....  334

ORBITAL ENERGIES
----------------

  NO   OCC          E(Eh)            E(eV)
   0   2.0000     -88.039940     -2395.6885
   1   2.0000     -88.038517     -2395.6498
   2   2.0000     -87.981733     -2394.1047
   3   2.0000     -87.979275     -2394.0378
   4   2.0000     -76.422930     -2079.5737
   5   2.0000     -76.422921     -2079.5734
   6   2.0000     -18.794650      -511.4284
   7   2.0000     -18.790386      -511.3124
   8   2.0000     -18.786422      -511.2045
   9   2.0000     -18.785906      -511.1905
  10   2.0000      -9.953726      -270.8547
  11   2.0000      -9.953366      -270.8449
  12   2.0000      -9.951222      -270.7865
  13   2.0000      -9.949531      -270.7405
  14   2.0000      -9.943058      -270.5644
  15   2.0000      -9.887593      -269.0551
  16   2.0000      -9.884413      -268.9685
  17   2.0000      -9.880132      -268.8521
  18   2.0000      -9.878428      -268.8057
  19   2.0000      -7.685646      -209.1371
  20   2.0000      -7.683310      -209.0735
  21   2.0000      -7.626511      -207.5279
  22   2.0000      -7.624476      -207.4725
  23   2.0000      -6.420525      -174.7114
  24   2.0000      -6.420496      -174.7106
  25   2.0000      -5.713477      -155.4716
  26   2.0000      -5.711151      -155.4083
  27   2.0000      -5.710190      -155.3822
  28   2.0000      -5.707876      -155.3192
  29   2.0000      -5.702526      -155.1736
  30   2.0000      -5.700297      -155.1130
  31   2.0000      -5.655233      -153.8867
  32   2.0000      -5.653524      -153.8402
  33   2.0000      -5.647174      -153.6674
  34   2.0000      -5.646813      -153.6576
  35   2.0000      -5.645237      -153.6147
  36   2.0000      -5.644281      -153.5887
  37   2.0000      -4.643383      -126.3529
  38   2.0000      -4.642964      -126.3415
  39   2.0000      -4.642341      -126.3245
  40   2.0000      -4.642299      -126.3234
  41   2.0000      -4.640984      -126.2876
  42   2.0000      -4.640696      -126.2797
  43   2.0000      -0.986505       -26.8442
  44   2.0000      -0.983657       -26.7667
  45   2.0000      -0.943052       -25.6618
  46   2.0000      -0.942847       -25.6562
  47   2.0000      -0.759180       -20.6583
  48   2.0000      -0.720231       -19.5985
  49   2.0000      -0.708746       -19.2860
  50   2.0000      -0.688445       -18.7335
  51   2.0000      -0.685621       -18.6567
  52   2.0000      -0.670315       -18.2402
  53   2.0000      -0.648096       -17.6356
  54   2.0000      -0.632281       -17.2052
  55   2.0000      -0.596098       -16.2206
  56   2.0000      -0.588497       -16.0138
  57   2.0000      -0.571754       -15.5582
  58   2.0000      -0.563928       -15.3453
  59   2.0000      -0.559556       -15.2263
  60   2.0000      -0.503847       -13.7104
  61   2.0000      -0.497273       -13.5315
  62   2.0000      -0.477844       -13.0028
  63   2.0000      -0.472304       -12.8521
  64   2.0000      -0.450163       -12.2496
  65   2.0000      -0.444359       -12.0916
  66   2.0000      -0.439538       -11.9604
  67   2.0000      -0.434854       -11.8330
  68   2.0000      -0.426741       -11.6122
  69   2.0000      -0.414688       -11.2842
  70   2.0000      -0.406182       -11.0528
  71   2.0000      -0.393049       -10.6954
  72   2.0000      -0.390866       -10.6360
  73   2.0000      -0.384838       -10.4720
  74   2.0000      -0.378476       -10.2989
  75   2.0000      -0.371914       -10.1203
  76   2.0000      -0.363004        -9.8778
  77   2.0000      -0.355820        -9.6824
  78   2.0000      -0.354544        -9.6476
  79   2.0000      -0.350432        -9.5357
  80   2.0000      -0.345165        -9.3924
  81   2.0000      -0.343345        -9.3429
  82   2.0000      -0.339977        -9.2512
  83   2.0000      -0.332718        -9.0537
  84   2.0000      -0.330337        -8.9889
  85   2.0000      -0.315800        -8.5934
  86   2.0000      -0.312679        -8.5084
  87   2.0000      -0.297334        -8.0909
  88   2.0000      -0.291562        -7.9338
  89   2.0000      -0.288416        -7.8482
  90   2.0000      -0.280786        -7.6406
  91   2.0000      -0.271981        -7.4010
  92   2.0000      -0.267501        -7.2791
  93   2.0000      -0.261948        -7.1280
  94   2.0000      -0.258342        -7.0298
  95   2.0000      -0.240823        -6.5531
  96   2.0000      -0.223381        -6.0785
  97   2.0000      -0.204208        -5.5568
  98   2.0000      -0.199888        -5.4392
  99   2.0000      -0.191905        -5.2220
 100   2.0000      -0.182267        -4.9597
 101   0.0000      -0.037142        -1.0107
 102   0.0000      -0.029563        -0.8045
 103   0.0000      -0.010140        -0.2759
 104   0.0000       0.005592         0.1522
 105   0.0000       0.021931         0.5968

MULLIKEN ATOMIC CHARGES
-----------------------
   0 C :   -0.284486
   1 C :   -0.011044
   2 O :   -0.377963
   3 P :    0.630189
   4 S :   -0.336090
   5 O :   -0.363878
   6 C :   -0.010002
   7 C :   -0.311129
   8 S :   -0.094949
   9 C :   -0.347655
  10 S :   -0.099898
  11 P :    0.606896
  12 S :   -0.308594
  13 O :   -0.356536
  14 C :   -0.011841
  15 C :   -0.289886
  16 O :   -0.380966
  17 C :   -0.011573
  18 C :   -0.309807
  19 H :    0.117580
  20 H :    0.111438
  21 H :    0.120758
  22 H :    0.102759
  23 H :    0.105018
  24 H :    0.130800
  25 H :    0.105000
  26 H :    0.115324
  27 H :    0.121744
  28 H :    0.111188
  29 H :    0.196020
  30 H :    0.182110
  31 H :    0.098507
  32 H :    0.106844
  33 H :    0.119685
  34 H :    0.122044
  35 H :    0.107791
  36 H :    0.104999
  37 H :    0.128420
  38 H :    0.107639
  39 H :    0.111675
  40 H :    0.141868
Sum of atomic charges:   -0.0000000

LOEWDIN ATOMIC CHARGES
----------------------
   0 C :   -0.350906
   1 C :   -0.121107
   2 O :   -0.246543
   3 P :    0.571183
   4 S :   -0.317430
   5 O :   -0.234454
   6 C :   -0.117800
   7 C :   -0.367487
   8 S :    0.079601
   9 C :   -0.479150
  10 S :    0.069316
  11 P :    0.570544
  12 S :   -0.299173
  13 O :   -0.240175
  14 C :   -0.116987
  15 C :   -0.360106
  16 O :   -0.239671
  17 C :   -0.114975
  18 C :   -0.365292
  19 H :    0.127199
  20 H :    0.130623
  21 H :    0.128085
  22 H :    0.111327
  23 H :    0.106444
  24 H :    0.110889
  25 H :    0.119958
  26 H :    0.125014
  27 H :    0.119984
  28 H :    0.130304
  29 H :    0.124683
  30 H :    0.136363
  31 H :    0.101088
  32 H :    0.119821
  33 H :    0.128769
  34 H :    0.125596
  35 H :    0.128433
  36 H :    0.118437
  37 H :    0.110920
  38 H :    0.121749
  39 H :    0.132035
  40 H :    0.122890

  Mayer bond orders larger than 0.100000
B(  0-C ,  1-C ) :   1.1606 B(  0-C , 19-H ) :   0.9503 B(  0-C , 20-H ) :   0.9418
B(  0-C , 21-H ) :   0.9512 B(  1-C ,  2-O ) :   0.9054 B(  1-C , 22-H ) :   0.9312
B(  1-C , 23-H ) :   0.9038 B(  2-O ,  3-P ) :   1.1004 B(  3-P ,  4-S ) :   1.6166
B(  3-P ,  5-O ) :   1.1407 B(  3-P ,  8-S ) :   0.9680 B(  4-S ,  8-S ) :   0.1161
B(  5-O ,  6-C ) :   0.8967 B(  6-C ,  7-C ) :   1.1631 B(  6-C , 24-H ) :   0.9100
B(  6-C , 25-H ) :   0.9359 B(  7-C , 26-H ) :   0.9447 B(  7-C , 27-H ) :   0.9331
B(  7-C , 28-H ) :   0.9383 B(  8-S ,  9-C ) :   1.0035 B(  9-C , 10-S ) :   0.9860
B(  9-C , 29-H ) :   0.8536 B(  9-C , 30-H ) :   0.9118 B( 10-S , 11-P ) :   0.9512
B( 10-S , 12-S ) :   0.1138 B( 11-P , 12-S ) :   1.6350 B( 11-P , 13-O ) :   1.1298
B( 11-P , 16-O ) :   1.1048 B( 12-S , 29-H ) :   0.1021 B( 13-O , 14-C ) :   0.9000
B( 14-C , 15-C ) :   1.1636 B( 14-C , 31-H ) :   0.9096 B( 14-C , 32-H ) :   0.9368
B( 15-C , 33-H ) :   0.9471 B( 15-C , 34-H ) :   0.9414 B( 15-C , 35-H ) :   0.9398
B( 16-O , 17-C ) :   0.8896 B( 17-C , 18-C ) :   1.1726 B( 17-C , 36-H ) :   0.9342
B( 17-C , 37-H ) :   0.9036 B( 18-C , 38-H ) :   0.9477 B( 18-C , 39-H ) :   0.9398
B( 18-C , 40-H ) :   0.9303

Dispersion correction           -0.065396730
FINAL SINGLE POINT ENERGY     -2929.518171269576

DIPOLE MOMENT
-------------

Method             : SCF
Type of density    : Electron Density
Multiplicity       :   1
Irrep              :   0
Energy             : -2929.6371855290003623 Eh
Relativity type    :
Basis              : AO
                                X                 Y                 Z
Electronic contribution:     -2.036415308      -9.517127325       7.816194559
Nuclear contribution   :      1.877230043       9.285524666      -8.570291725
                        -----------------------------------------
Total Dipole Moment    :     -0.159185265      -0.231602660      -0.754097165
                        -----------------------------------------
Magnitude (a.u.)       :      0.804762248
Magnitude (Debye)      :      2.045543072

Rotational constants in cm-1:             0.013807             0.004625             0.004585
Rotational constants in MHz :           413.911418           138.648263           137.455036

                             ****ORCA TERMINATED NORMALLY****
TOTAL RUN TIME: 0 days 0 hours 0 minutes 21 seconds 61 msec
