                         Program Version 6.0.0  -   RELEASE  -
|  1> ! pbe def2-sv(p) def2/J RI DEFGRID1 loosescf d4 GCP(DFT/SV(P)) printgap
|  2> %output
|  3>     printlevel normal
|  4> end
|  5> * xyz 0 1
|  6> C 3.5249879162 1.9672430352 -0.6577768904
|  7> C 2.9155037706 2.2623685901 0.6960149155
|  8> O 1.6900267633 1.5235608675 0.927115502
|  9> P 1.6022514852 -0.0492563651 1.0499887122
| 10> S 0.1607130932 -0.65697414 2.2277335626
| 11> O 3.0615774897 -0.3878835147 1.6019056386
| 12> C 3.3718671609 -1.6172140064 2.2753385041
| 13> C 3.2517668446 -2.8252866017 1.3683626447
| 14> S 1.6041683504 -0.8297397755 -0.9414412335
| 15> C 0.1185662885 -1.8622231001 -0.9153082755
| 16> S -1.1878152035 -1.3192302853 -2.07023716
| 17> P -2.0537284531 0.2267993255 -0.9556923178
| 18> S -3.5478572157 1.2143400939 -1.7477950677
| 19> O -0.8374789197 1.1665893913 -0.4809851117
| 20> C -0.5383447875 2.371032949 -1.211393603
| 21> C -0.0307600596 2.0773403065 -2.6091994936
| 22> O -2.4037790598 -0.5832244211 0.3586068766
| 23> C -3.1691765017 0.0102524304 1.4294450566
| 24> C -3.6494335538 -1.110814077 2.3255591678
| 25> H 3.7932087162 0.9142997281 -0.727329912
| 26> H 2.8258851844 2.2046008432 -1.4546416644
| 27> H 4.4204345396 2.5688303159 -0.7798114544
| 28> H 2.6014721573 3.3042102358 0.7799721926
| 29> H 3.6154775149 2.0229943442 1.4985052383
| 30> H 4.3980406285 -1.4731523382 2.6166427254
| 31> H 2.7044625757 -1.7174000432 3.1371507475
| 32> H 2.2066934991 -2.9988392543 1.1158491027
| 33> H 3.8180926446 -2.6724365366 0.4532793956
| 34> H 3.6342015635 -3.6987191861 1.8868045279
| 35> H -0.2838963583 -1.8829375863 0.1000539219
| 36> H 0.3942041218 -2.8550470492 -1.2602665962
| 37> H -1.4494157305 2.9759579091 -1.2568866991
| 38> H 0.2091658446 2.8713922369 -0.5956069541
| 39> H 0.8224796005 1.4033838095 -2.5785649548
| 40> H -0.8222252269 1.6096008351 -3.1954957161
| 41> H 0.2568526489 3.0077262674 -3.0884638272
| 42> H -2.5164148692 0.699349618 1.9720414727
| 43> H -4.001836612 0.5694681211 0.989300544
| 44> H -2.7926411429 -1.6323138791 2.7448109915
| 45> H -4.2448612141 -0.6922663098 3.1300960636
| 46> H -4.2511579692 -1.8125448537 1.7551533572
| 47> *
| 48>
| 49>                          ****END OF INPUT****

CARTESIAN COORDINATES (ANGSTROEM)
---------------------------------
  C      3.524988    1.967243   -0.657777
  C      2.915504    2.262369    0.696015
  O      1.690027    1.523561    0.927116
  P      1.602251   -0.049256    1.049989
  S      0.160713   -0.656974    2.227734
  O      3.061577   -0.387884    1.601906
  C      3.371867   -1.617214    2.275339
  C      3.251767   -2.825287    1.368363
  S      1.604168   -0.829740   -0.941441
  C      0.118566   -1.862223   -0.915308
  S     -1.187815   -1.319230   -2.070237
  P     -2.053728    0.226799   -0.955692
  S     -3.547857    1.214340   -1.747795
  O     -0.837479    1.166589   -0.480985
  C     -0.538345    2.371033   -1.211394
  C     -0.030760    2.077340   -2.609199
  O     -2.403779   -0.583224    0.358607
  C     -3.169177    0.010252    1.429445
  C     -3.649434   -1.110814    2.325559
  H      3.793209    0.914300   -0.727330
  H      2.825885    2.204601   -1.454642
  H      4.420435    2.568830   -0.779811
  H      2.601472    3.304210    0.779972
  H      3.615478    2.022994    1.498505
  H      4.398041   -1.473152    2.616643
  H      2.704463   -1.717400    3.137151
  H      2.206693   -2.998839    1.115849
  H      3.818093   -2.672437    0.453279
  H      3.634202   -3.698719    1.886805
  H     -0.283896   -1.882938    0.100054
  H      0.394204   -2.855047   -1.260267
  H     -1.449416    2.975958   -1.256887
  H      0.209166    2.871392   -0.595607
  H      0.822480    1.403384   -2.578565
  H     -0.822225    1.609601   -3.195496
  H      0.256853    3.007726   -3.088464
  H     -2.516415    0.699350    1.972041
  H     -4.001837    0.569468    0.989301
  H     -2.792641   -1.632314    2.744811
  H     -4.244861   -0.692266    3.130096
  H     -4.251158   -1.812545    1.755153

 Total Charge           Charge          ....    0
 Multiplicity           Mult            ....    1
 Number of Electrons    NEL             ....  202
 Basis Dimension        Dim             ....  334

ORBITAL ENERGIES
----------------

  NO   OCC          E(Eh)            E(eV)
   0   2.0000     -88.047513     -2395.8946
   1   2.0000     -88.040586     -2395.7061
   2   2.0000     -87.993268     -2394.4186
   3   2.0000     -87.980282     -2394.0652
   4   2.0000     -76.434086     -2079.8772
   5   2.0000     -76.418287     -2079.4473
   6   2.0000     -18.799112      -511.5498
   7   2.0000     -18.798224      -511.5257
   8   2.0000     -18.781760      -511.0777
   9   2.0000     -18.781488      -511.0703
  10   2.0000      -9.965027      -271.1622
  11   2.0000      -9.959320      -271.0069
  12   2.0000      -9.957443      -270.9558
  13   2.0000      -9.940592      -270.4973
  14   2.0000      -9.939589      -270.4700
  15   2.0000      -9.898215      -269.3441
  16   2.0000      -9.890935      -269.1460
  17   2.0000      -9.876809      -268.7616
  18   2.0000      -9.874545      -268.7000
  19   2.0000      -7.691932      -209.3081
  20   2.0000      -7.686281      -209.1543
  21   2.0000      -7.638152      -207.8447
  22   2.0000      -7.625486      -207.5000
  23   2.0000      -6.431126      -174.9998
  24   2.0000      -6.416301      -174.5964
  25   2.0000      -5.719901      -155.6464
  26   2.0000      -5.716437      -155.5522
  27   2.0000      -5.714477      -155.4988
  28   2.0000      -5.710544      -155.3918
  29   2.0000      -5.708884      -155.3466
  30   2.0000      -5.703075      -155.1886
  31   2.0000      -5.667086      -154.2092
  32   2.0000      -5.658738      -153.9821
  33   2.0000      -5.658256      -153.9690
  34   2.0000      -5.654462      -153.8657
  35   2.0000      -5.646171      -153.6401
  36   2.0000      -5.645506      -153.6220
  37   2.0000      -4.654133      -126.6454
  38   2.0000      -4.652556      -126.6025
  39   2.0000      -4.651570      -126.5757
  40   2.0000      -4.638703      -126.2255
  41   2.0000      -4.638211      -126.2121
  42   2.0000      -4.636744      -126.1722
  43   2.0000      -0.995407       -27.0864
  44   2.0000      -0.975339       -26.5403
  45   2.0000      -0.950078       -25.8529
  46   2.0000      -0.934804       -25.4373
  47   2.0000      -0.762511       -20.7490
  48   2.0000      -0.724806       -19.7230
  49   2.0000      -0.708219       -19.2716
  50   2.0000      -0.698211       -18.9993
  51   2.0000      -0.678355       -18.4590
  52   2.0000      -0.675980       -18.3944
  53   2.0000      -0.653383       -17.7795
  54   2.0000      -0.637435       -17.3455
  55   2.0000      -0.604546       -16.4505
  56   2.0000      -0.587821       -15.9954
  57   2.0000      -0.584946       -15.9172
  58   2.0000      -0.563158       -15.3243
  59   2.0000      -0.557346       -15.1662
  60   2.0000      -0.503690       -13.7061
  61   2.0000      -0.494621       -13.4593
  62   2.0000      -0.477442       -12.9918
  63   2.0000      -0.465023       -12.6539
  64   2.0000      -0.458913       -12.4876
  65   2.0000      -0.453868       -12.3504
  66   2.0000      -0.439977       -11.9724
  67   2.0000      -0.435518       -11.8510
  68   2.0000      -0.430167       -11.7054
  69   2.0000      -0.419486       -11.4148
  70   2.0000      -0.409521       -11.1436
  71   2.0000      -0.406724       -11.0675
  72   2.0000      -0.392845       -10.6898
  73   2.0000      -0.385040       -10.4775
  74   2.0000      -0.383085       -10.4243
  75   2.0000      -0.376305       -10.2398
  76   2.0000      -0.367837       -10.0093
  77   2.0000      -0.360288        -9.8039
  78   2.0000      -0.356449        -9.6995
  79   2.0000      -0.351277        -9.5587
  80   2.0000      -0.345773        -9.4090
  81   2.0000      -0.344344        -9.3701
  82   2.0000      -0.342689        -9.3250
  83   2.0000      -0.330160        -8.9841
  84   2.0000      -0.324767        -8.8374
  85   2.0000      -0.315929        -8.5969
  86   2.0000      -0.314867        -8.5680
  87   2.0000      -0.304454        -8.2846
  88   2.0000      -0.301829        -8.2132
  89   2.0000      -0.289638        -7.8814
  90   2.0000      -0.285158        -7.7595
  91   2.0000      -0.279303        -7.6002
  92   2.0000      -0.267362        -7.2753
  93   2.0000      -0.262759        -7.1500
  94   2.0000      -0.257669        -7.0115
  95   2.0000      -0.227170        -6.1816
  96   2.0000      -0.218283        -5.9398
  97   2.0000      -0.210067        -5.7162
  98   2.0000      -0.207822        -5.6551
  99   2.0000      -0.201442        -5.4815
 100   2.0000      -0.196112        -5.3365
 101   0.0000      -0.045848        -1.2476
 102   0.0000      -0.031621        -0.8604
 103   0.0000      -0.017606        -0.4791
 104   0.0000       0.001692         0.0461
 105   0.0000       0.003009         0.0819

MULLIKEN ATOMIC CHARGES
-----------------------
   0 C :   -0.341079
   1 C :    0.002249
   2 O :   -0.369250
   3 P :    0.633904
   4 S :   -0.304441
   5 O :   -0.388874
   6 C :    0.002424
   7 C :   -0.317791
   8 S :   -0.105507
   9 C :   -0.364786
  10 S :   -0.066069
  11 P :    0.618072
  12 S :   -0.326469
  13 O :   -0.386218
  14 C :   -0.013044
  15 C :   -0.336295
  16 O :   -0.373111
  17 C :   -0.004686
  18 C :   -0.282300
  19 H :    0.130379
  20 H :    0.135309
  21 H :    0.118594
  22 H :    0.114672
  23 H :    0.114876
  24 H :    0.104030
  25 H :    0.113139
  26 H :    0.122444
  27 H :    0.119552
  28 H :    0.115006
  29 H :    0.213013
  30 H :    0.184067
  31 H :    0.110961
  32 H :    0.107076
  33 H :    0.139630
  34 H :    0.122525
  35 H :    0.104989
  36 H :    0.106068
  37 H :    0.104273
  38 H :    0.119686
  39 H :    0.107481
  40 H :    0.115498
Sum of atomic charges:   -0.0000000

LOEWDIN ATOMIC CHARGES
----------------------
   0 C :   -0.369134
   1 C :   -0.110603
   2 O :   -0.232052
   3 P :    0.583906
   4 S :   -0.280565
   5 O :   -0.251485
   6 C :   -0.117619
   7 C :   -0.370186
   8 S :    0.086045
   9 C :   -0.482842
  10 S :    0.092039
  11 P :    0.571038
  12 S :   -0.320173
  13 O :   -0.252005
  14 C :   -0.127724
  15 C :   -0.377674
  16 O :   -0.242502
  17 C :   -0.121355
  18 C :   -0.351070
  19 H :    0.119177
  20 H :    0.129909
  21 H :    0.135124
  22 H :    0.121670
  23 H :    0.116481
  24 H :    0.118349
  25 H :    0.111700
  26 H :    0.119748
  27 H :    0.124149
  28 H :    0.131788
  29 H :    0.127376
  30 H :    0.138410
  31 H :    0.108375
  32 H :    0.112493
  33 H :    0.115106
  34 H :    0.120485
  35 H :    0.127165
  36 H :    0.109435
  37 H :    0.106742
  38 H :    0.124322
  39 H :    0.129090
  40 H :    0.126866

  Mayer bond orders larger than 0.100000
B(  0-C ,  1-C ) :   1.1725 B(  0-C , 19-H ) :   0.9311 B(  0-C , 20-H ) :   0.9383
B(  0-C , 21-H ) :   0.9346 B(  1-C ,  2-O ) :   0.8946 B(  1-C , 22-H ) :   0.9290
B(  1-C , 23-H ) :   0.9238 B(  2-O ,  3-P ) :   1.1208 B(  3-P ,  4-S ) :   1.6255
B(  3-P ,  5-O ) :   1.0566 B(  3-P ,  8-S ) :   0.9416 B(  4-S ,  8-S ) :   0.1186
B(  5-O ,  6-C ) :   0.9133 B(  6-C ,  7-C ) :   1.1656 B(  6-C , 24-H ) :   0.9340
B(  6-C , 25-H ) :   0.9165 B(  7-C , 26-H ) :   0.9380 B(  7-C , 27-H ) :   0.9421
B(  7-C , 28-H ) :   0.9367 B(  8-S ,  9-C ) :   1.0024 B(  9-C , 10-S ) :   0.9855
B(  9-C , 29-H ) :   0.8451 B(  9-C , 30-H ) :   0.9085 B( 10-S , 11-P ) :   0.9864
B( 11-P , 12-S ) :   1.6423 B( 11-P , 13-O ) :   1.0631 B( 11-P , 16-O ) :   1.1224
B( 13-O , 14-C ) :   0.9077 B( 14-C , 15-C ) :   1.1659 B( 14-C , 31-H ) :   0.9128
B( 14-C , 32-H ) :   0.9206 B( 15-C , 33-H ) :   0.9226 B( 15-C , 34-H ) :   0.9279
B( 15-C , 35-H ) :   0.9387 B( 16-O , 17-C ) :   0.8914 B( 17-C , 18-C ) :   1.1668
B( 17-C , 36-H ) :   0.9185 B( 17-C , 37-H ) :   0.9126 B( 18-C , 38-H ) :   0.9491
B( 18-C , 39-H ) :   0.9418 B( 18-C , 40-H ) :   0.9499

Dispersion correction           -0.069523479
FINAL SINGLE POINT ENERGY     -2929.515681916754

DIPOLE MOMENT
-------------

Method             : SCF
Type of density    : Electron Density
Multiplicity       :   1
Irrep              :   0
Energy             : -2929.6359119243638816 Eh
Relativity type    :
Basis              : AO
                                X                 Y                 Z
Electronic contribution:    -12.710154425      -2.475945984      -6.134059773
Nuclear contribution   :     14.901649173       2.461118561       6.819471344
                        -----------------------------------------
Total Dipole Moment    :      2.191494748      -0.014827422       0.685411571
                        -----------------------------------------
Magnitude (a.u.)       :      2.296226928
Magnitude (Debye)      :      5.836545013

Rotational constants in cm-1:             0.011369             0.006159             0.005338
Rotational constants in MHz :           340.834641           184.640752           160.039207

                             ****ORCA TERMINATED NORMALLY****
TOTAL RUN TIME: 0 days 0 hours 0 minutes 22 seconds 731 msec
