                         Program Version 6.0.0  -   RELEASE  -
|  1> ! pbe def2-sv(p) def2/J RI DEFGRID1 loosescf d4 GCP(DFT/SV(P)) printgap
|  2> %output
|  3>     printlevel normal
|  4> end
|  5> * xyz 0 1
|  6> C 2.0548523525 2.5166001864 -0.8767577879
|  7> C 1.9441987296 1.2023202827 -1.624411558
|  8> O 2.7721161561 0.1744906959 -1.0586587655
|  9> P 2.5727780399 -0.5068273579 0.3555816372
| 10> S 3.0426348249 0.5208194469 1.9632012721
| 11> O 3.521752044 -1.7338993268 0.0548932687
| 12> C 4.1158485217 -2.5095199757 1.110828588
| 13> C 3.0942175911 -3.3674993011 1.8306486638
| 14> S 0.5994364527 -1.3272265483 0.3435443936
| 15> C -0.1563250304 -0.2953149536 1.6262576031
| 16> S -0.9047689593 1.2365523627 0.9963624244
| 17> P -2.2519106752 0.418477549 -0.4206626027
| 18> S -1.6082342881 -0.0320683361 -2.2245296032
| 19> O -3.4609102337 1.4512655307 -0.4239327513
| 20> C -3.4941195413 2.5828359191 -1.3082137718
| 21> C -2.4174720467 3.5922702636 -0.9656443957
| 22> O -2.8268470929 -0.7794972153 0.4385400609
| 23> C -3.4536028571 -1.925069996 -0.1753809685
| 24> C -4.7955814304 -1.5697120478 -0.7792774201
| 25> H 1.623647833 2.4326140017 0.1196538582
| 26> H 3.0991600598 2.8034923833 -0.7814534176
| 27> H 1.5207932134 3.2852994352 -1.4265076297
| 28> H 2.3157775512 1.295661183 -2.6466225474
| 29> H 0.907484252 0.8501854919 -1.6584190139
| 30> H 4.8631888928 -3.1174551406 0.5992168847
| 31> H 4.6085987118 -1.8273799099 1.811472301
| 32> H 3.6052534835 -4.0291604396 2.5226315954
| 33> H 2.4049860239 -2.7359982897 2.3894316599
| 34> H 2.5288112008 -3.9592166208 1.1150602249
| 35> H 0.6156682174 0.0231324746 2.3316621077
| 36> H -0.9207864583 -0.8933796234 2.1132915761
| 37> H -3.371081955 2.2237009695 -2.3354949703
| 38> H -4.4950717621 2.9947652095 -1.1746421238
| 39> H -1.4345082831 3.1493152774 -1.1282971089
| 40> H -2.5216459297 4.4653573832 -1.6016218806
| 41> H -2.4948184073 3.8904636065 0.0767524634
| 42> H -2.7763189547 -2.3239301479 -0.9375800185
| 43> H -3.5524776391 -2.6400327564 0.6423538781
| 44> H -5.2783316206 -2.4720505313 -1.141230704
| 45> H -5.4275338153 -1.0922266491 -0.0351504875
| 46> H -4.6551707971 -0.8840547441 -1.613999211
| 47> *
| 48>
| 49>                          ****END OF INPUT****

CARTESIAN COORDINATES (ANGSTROEM)
---------------------------------
  C      2.054852    2.516600   -0.876758
  C      1.944199    1.202320   -1.624412
  O      2.772116    0.174491   -1.058659
  P      2.572778   -0.506827    0.355582
  S      3.042635    0.520819    1.963201
  O      3.521752   -1.733899    0.054893
  C      4.115849   -2.509520    1.110829
  C      3.094218   -3.367499    1.830649
  S      0.599436   -1.327227    0.343544
  C     -0.156325   -0.295315    1.626258
  S     -0.904769    1.236552    0.996362
  P     -2.251911    0.418478   -0.420663
  S     -1.608234   -0.032068   -2.224530
  O     -3.460910    1.451266   -0.423933
  C     -3.494120    2.582836   -1.308214
  C     -2.417472    3.592270   -0.965644
  O     -2.826847   -0.779497    0.438540
  C     -3.453603   -1.925070   -0.175381
  C     -4.795581   -1.569712   -0.779277
  H      1.623648    2.432614    0.119654
  H      3.099160    2.803492   -0.781453
  H      1.520793    3.285299   -1.426508
  H      2.315778    1.295661   -2.646623
  H      0.907484    0.850185   -1.658419
  H      4.863189   -3.117455    0.599217
  H      4.608599   -1.827380    1.811472
  H      3.605253   -4.029160    2.522632
  H      2.404986   -2.735998    2.389432
  H      2.528811   -3.959217    1.115060
  H      0.615668    0.023132    2.331662
  H     -0.920786   -0.893380    2.113292
  H     -3.371082    2.223701   -2.335495
  H     -4.495072    2.994765   -1.174642
  H     -1.434508    3.149315   -1.128297
  H     -2.521646    4.465357   -1.601622
  H     -2.494818    3.890464    0.076752
  H     -2.776319   -2.323930   -0.937580
  H     -3.552478   -2.640033    0.642354
  H     -5.278332   -2.472051   -1.141231
  H     -5.427534   -1.092227   -0.035150
  H     -4.655171   -0.884055   -1.613999

 Total Charge           Charge          ....    0
 Multiplicity           Mult            ....    1
 Number of Electrons    NEL             ....  202
 Basis Dimension        Dim             ....  334

ORBITAL ENERGIES
----------------

  NO   OCC          E(Eh)            E(eV)
   0   2.0000     -88.044908     -2395.8238
   1   2.0000     -88.043227     -2395.7780
   2   2.0000     -87.992531     -2394.3985
   3   2.0000     -87.989795     -2394.3241
   4   2.0000     -76.432337     -2079.8296
   5   2.0000     -76.425722     -2079.6496
   6   2.0000     -18.801065      -511.6030
   7   2.0000     -18.797290      -511.5003
   8   2.0000     -18.788423      -511.2590
   9   2.0000     -18.784248      -511.1454
  10   2.0000      -9.958175      -270.9757
  11   2.0000      -9.957355      -270.9534
  12   2.0000      -9.955822      -270.9117
  13   2.0000      -9.949708      -270.7453
  14   2.0000      -9.940496      -270.4947
  15   2.0000      -9.891352      -269.1574
  16   2.0000      -9.888577      -269.0819
  17   2.0000      -9.882464      -268.9155
  18   2.0000      -9.871627      -268.6206
  19   2.0000      -7.689850      -209.2515
  20   2.0000      -7.687869      -209.1976
  21   2.0000      -7.636979      -207.8128
  22   2.0000      -7.634654      -207.7495
  23   2.0000      -6.429851      -174.9651
  24   2.0000      -6.422985      -174.7783
  25   2.0000      -5.717889      -155.5917
  26   2.0000      -5.715713      -155.5325
  27   2.0000      -5.714396      -155.4966
  28   2.0000      -5.712373      -155.4416
  29   2.0000      -5.706636      -155.2855
  30   2.0000      -5.704935      -155.2392
  31   2.0000      -5.665775      -154.1736
  32   2.0000      -5.663419      -154.1095
  33   2.0000      -5.657702      -153.9539
  34   2.0000      -5.657251      -153.9416
  35   2.0000      -5.655326      -153.8893
  36   2.0000      -5.654937      -153.8787
  37   2.0000      -4.652486      -126.6006
  38   2.0000      -4.651621      -126.5770
  39   2.0000      -4.650239      -126.5394
  40   2.0000      -4.645196      -126.4022
  41   2.0000      -4.645019      -126.3974
  42   2.0000      -4.643521      -126.3566
  43   2.0000      -0.994387       -27.0586
  44   2.0000      -0.985588       -26.8192
  45   2.0000      -0.954537       -25.9743
  46   2.0000      -0.940144       -25.5826
  47   2.0000      -0.763806       -20.7842
  48   2.0000      -0.722289       -19.6545
  49   2.0000      -0.709229       -19.2991
  50   2.0000      -0.693189       -18.8626
  51   2.0000      -0.679706       -18.4957
  52   2.0000      -0.673701       -18.3323
  53   2.0000      -0.656425       -17.8622
  54   2.0000      -0.641105       -17.4454
  55   2.0000      -0.605140       -16.4667
  56   2.0000      -0.595682       -16.2093
  57   2.0000      -0.579125       -15.7588
  58   2.0000      -0.565534       -15.3889
  59   2.0000      -0.561739       -15.2857
  60   2.0000      -0.500810       -13.6277
  61   2.0000      -0.490261       -13.3407
  62   2.0000      -0.480268       -13.0687
  63   2.0000      -0.466005       -12.6806
  64   2.0000      -0.458414       -12.4741
  65   2.0000      -0.445973       -12.1355
  66   2.0000      -0.444461       -12.0944
  67   2.0000      -0.432095       -11.7579
  68   2.0000      -0.421595       -11.4722
  69   2.0000      -0.415861       -11.3161
  70   2.0000      -0.412811       -11.2332
  71   2.0000      -0.403780       -10.9874
  72   2.0000      -0.399044       -10.8585
  73   2.0000      -0.394117       -10.7245
  74   2.0000      -0.382645       -10.4123
  75   2.0000      -0.376759       -10.2521
  76   2.0000      -0.369566       -10.0564
  77   2.0000      -0.362429        -9.8622
  78   2.0000      -0.357260        -9.7215
  79   2.0000      -0.353895        -9.6300
  80   2.0000      -0.349109        -9.4997
  81   2.0000      -0.342986        -9.3331
  82   2.0000      -0.337993        -9.1973
  83   2.0000      -0.336382        -9.1534
  84   2.0000      -0.331281        -9.0146
  85   2.0000      -0.319213        -8.6862
  86   2.0000      -0.308947        -8.4069
  87   2.0000      -0.301905        -8.2152
  88   2.0000      -0.294787        -8.0216
  89   2.0000      -0.291033        -7.9194
  90   2.0000      -0.284119        -7.7313
  91   2.0000      -0.279495        -7.6054
  92   2.0000      -0.268733        -7.3126
  93   2.0000      -0.266235        -7.2446
  94   2.0000      -0.257032        -6.9942
  95   2.0000      -0.243371        -6.6225
  96   2.0000      -0.222028        -6.0417
  97   2.0000      -0.210442        -5.7264
  98   2.0000      -0.208848        -5.6831
  99   2.0000      -0.203614        -5.5406
 100   2.0000      -0.197145        -5.3646
 101   0.0000      -0.051146        -1.3918
 102   0.0000      -0.027010        -0.7350
 103   0.0000      -0.022524        -0.6129
 104   0.0000      -0.001538        -0.0418
 105   0.0000       0.011665         0.3174

MULLIKEN ATOMIC CHARGES
-----------------------
   0 C :   -0.314636
   1 C :   -0.034396
   2 O :   -0.350722
   3 P :    0.608564
   4 S :   -0.331185
   5 O :   -0.356063
   6 C :   -0.003949
   7 C :   -0.309256
   8 S :   -0.096114
   9 C :   -0.344676
  10 S :   -0.095484
  11 P :    0.611310
  12 S :   -0.313117
  13 O :   -0.366578
  14 C :   -0.002532
  15 C :   -0.338318
  16 O :   -0.374167
  17 C :   -0.007718
  18 C :   -0.305647
  19 H :    0.129865
  20 H :    0.114721
  21 H :    0.109664
  22 H :    0.102809
  23 H :    0.135310
  24 H :    0.107301
  25 H :    0.113915
  26 H :    0.111390
  27 H :    0.118079
  28 H :    0.117688
  29 H :    0.191671
  30 H :    0.190111
  31 H :    0.110891
  32 H :    0.108606
  33 H :    0.136086
  34 H :    0.119016
  35 H :    0.126590
  36 H :    0.117528
  37 H :    0.106091
  38 H :    0.114778
  39 H :    0.119074
  40 H :    0.123499
Sum of atomic charges:   -0.0000000

LOEWDIN ATOMIC CHARGES
----------------------
   0 C :   -0.370864
   1 C :   -0.123901
   2 O :   -0.228456
   3 P :    0.574509
   4 S :   -0.309147
   5 O :   -0.232704
   6 C :   -0.118890
   7 C :   -0.368173
   8 S :    0.083806
   9 C :   -0.483559
  10 S :    0.093195
  11 P :    0.571694
  12 S :   -0.306436
  13 O :   -0.241718
  14 C :   -0.120849
  15 C :   -0.371586
  16 O :   -0.239465
  17 C :   -0.117613
  18 C :   -0.364026
  19 H :    0.112654
  20 H :    0.125505
  21 H :    0.126774
  22 H :    0.119617
  23 H :    0.098817
  24 H :    0.119873
  25 H :    0.110361
  26 H :    0.129863
  27 H :    0.118331
  28 H :    0.124876
  29 H :    0.125796
  30 H :    0.134150
  31 H :    0.109641
  32 H :    0.120512
  33 H :    0.120634
  34 H :    0.134214
  35 H :    0.127691
  36 H :    0.113035
  37 H :    0.118890
  38 H :    0.131990
  39 H :    0.127752
  40 H :    0.123207

  Mayer bond orders larger than 0.100000
B(  0-C ,  1-C ) :   1.1637 B(  0-C , 19-H ) :   0.9288 B(  0-C , 20-H ) :   0.9427
B(  0-C , 21-H ) :   0.9346 B(  1-C ,  2-O ) :   0.9089 B(  1-C , 22-H ) :   0.9350
B(  1-C , 23-H ) :   0.8951 B(  2-O ,  3-P ) :   1.1479 B(  3-P ,  4-S ) :   1.5891
B(  3-P ,  5-O ) :   1.1335 B(  3-P ,  8-S ) :   0.9300 B(  4-S ,  8-S ) :   0.1210
B(  4-S , 29-H ) :   0.1116 B(  5-O ,  6-C ) :   0.9125 B(  6-C ,  7-C ) :   1.1636
B(  6-C , 24-H ) :   0.9340 B(  6-C , 25-H ) :   0.9144 B(  7-C , 26-H ) :   0.9387
B(  7-C , 27-H ) :   0.9387 B(  7-C , 28-H ) :   0.9448 B(  8-S ,  9-C ) :   1.0174
B(  9-C , 10-S ) :   0.9966 B(  9-C , 29-H ) :   0.8565 B(  9-C , 30-H ) :   0.8978
B( 10-S , 11-P ) :   0.9648 B( 10-S , 12-S ) :   0.1049 B( 11-P , 12-S ) :   1.6013
B( 11-P , 13-O ) :   1.1056 B( 11-P , 16-O ) :   1.1152 B( 13-O , 14-C ) :   0.9095
B( 14-C , 15-C ) :   1.1626 B( 14-C , 31-H ) :   0.9135 B( 14-C , 32-H ) :   0.9322
B( 15-C , 33-H ) :   0.9291 B( 15-C , 34-H ) :   0.9379 B( 15-C , 35-H ) :   0.9428
B( 16-O , 17-C ) :   0.8980 B( 17-C , 18-C ) :   1.1657 B( 17-C , 36-H ) :   0.9155
B( 17-C , 37-H ) :   0.9337 B( 18-C , 38-H ) :   0.9386 B( 18-C , 39-H ) :   0.9457
B( 18-C , 40-H ) :   0.9360

Dispersion correction           -0.066372531
FINAL SINGLE POINT ENERGY     -2929.523271395899

DIPOLE MOMENT
-------------

Method             : SCF
Type of density    : Electron Density
Multiplicity       :   1
Irrep              :   0
Energy             : -2929.6417690439438957 Eh
Relativity type    :
Basis              : AO
                                X                 Y                 Z
Electronic contribution:      7.463255824      -1.732025935       2.597481911
Nuclear contribution   :     -8.607452174       1.404397128      -2.576599499
                        -----------------------------------------
Total Dipole Moment    :     -1.144196349      -0.327628807       0.020882412
                        -----------------------------------------
Magnitude (a.u.)       :      1.190362128
Magnitude (Debye)      :      3.025660076

Rotational constants in cm-1:             0.012861             0.004997             0.004347
Rotational constants in MHz :           385.560249           149.806982           130.326079

                             ****ORCA TERMINATED NORMALLY****
TOTAL RUN TIME: 0 days 0 hours 0 minutes 21 seconds 75 msec
