                         Program Version 6.0.0  -   RELEASE  -
|  1> ! pbe def2-sv(p) def2/J RI DEFGRID1 loosescf d4 GCP(DFT/SV(P)) printgap
|  2> %output
|  3>     printlevel normal
|  4> end
|  5> * xyz 0 1
|  6> C 4.3118550038 -2.3557609034 -1.5070802774
|  7> C 4.8666650213 -0.9482535883 -1.4308641833
|  8> O 4.2083319907 -0.1499804387 -0.4297699668
|  9> P 2.6755732048 0.2672299564 -0.5243882683
| 10> S 2.0281224568 0.7555097575 -2.3038424854
| 11> O 2.6119148706 1.4832151331 0.4767178766
| 12> C 3.142883419 1.4579828325 1.8292194213
| 13> C 2.0239444147 1.3233618399 2.8423873528
| 14> S 1.6555778624 -1.3538475313 0.4128707881
| 15> C 0.0265170321 -0.9515265078 -0.2304908298
| 16> S -0.5794713774 0.6171546001 0.500251214
| 17> P -2.630587506 0.2746816609 0.1767610297
| 18> S -3.8752203667 1.6759683293 0.7429569087
| 19> O -2.923995967 -1.1723656157 0.7866253178
| 20> C -3.3587549786 -1.3477942824 2.1457444097
| 21> C -2.2498154645 -1.0557269314 3.1369236527
| 22> O -2.5722944361 -0.0492724235 -1.3763748611
| 23> C -3.7425089155 0.0280468971 -2.216365965
| 24> C -4.760972503 -1.0371126441 -1.8687555063
| 25> H 4.9328242543 -2.9471721084 -2.1722680327
| 26> H 4.2995146145 -2.8130922466 -0.5210494597
| 27> H 3.2965515773 -2.3355930101 -1.8994929554
| 28> H 4.7654867687 -0.4413918069 -2.3953657698
| 29> H 5.9114018363 -0.942709857 -1.1166586391
| 30> H 3.8631125757 0.6424050125 1.9146692325
| 31> H 3.6559663407 2.4154079543 1.9330200675
| 32> H 1.5523846525 0.3468462949 2.7708355402
| 33> H 2.4346378204 1.4482613922 3.8392583356
| 34> H 1.2688309338 2.0848888524 2.6649273621
| 35> H -0.6456739532 -1.760440511 0.0438694252
| 36> H 0.0891964962 -0.8266287674 -1.3120534704
| 37> H -4.2142983988 -0.6881548226 2.3224544227
| 38> H -3.6766290364 -2.3904487918 2.1888919173
| 39> H -1.3738241552 -1.6629916308 2.92197983
| 40> H -1.9725624879 -0.0032841303 3.0823391228
| 41> H -2.5995987284 -1.2749718977 4.1405560374
| 42> H -4.1770393338 1.0272856276 -2.1119912617
| 43> H -3.3460453329 -0.0994780212 -3.2247092393
| 44> H -4.2977846843 -2.020132906 -1.881968906
| 45> H -5.1671006592 -0.8493026878 -0.8757368273
| 46> H -5.5701958355 -1.0080993564 -2.591694728
| 47> *
| 48>
| 49>                          ****END OF INPUT****

CARTESIAN COORDINATES (ANGSTROEM)
---------------------------------
  C      4.311855   -2.355761   -1.507080
  C      4.866665   -0.948254   -1.430864
  O      4.208332   -0.149980   -0.429770
  P      2.675573    0.267230   -0.524388
  S      2.028122    0.755510   -2.303842
  O      2.611915    1.483215    0.476718
  C      3.142883    1.457983    1.829219
  C      2.023944    1.323362    2.842387
  S      1.655578   -1.353848    0.412871
  C      0.026517   -0.951527   -0.230491
  S     -0.579471    0.617155    0.500251
  P     -2.630588    0.274682    0.176761
  S     -3.875220    1.675968    0.742957
  O     -2.923996   -1.172366    0.786625
  C     -3.358755   -1.347794    2.145744
  C     -2.249815   -1.055727    3.136924
  O     -2.572294   -0.049272   -1.376375
  C     -3.742509    0.028047   -2.216366
  C     -4.760973   -1.037113   -1.868756
  H      4.932824   -2.947172   -2.172268
  H      4.299515   -2.813092   -0.521049
  H      3.296552   -2.335593   -1.899493
  H      4.765487   -0.441392   -2.395366
  H      5.911402   -0.942710   -1.116659
  H      3.863113    0.642405    1.914669
  H      3.655966    2.415408    1.933020
  H      1.552385    0.346846    2.770836
  H      2.434638    1.448261    3.839258
  H      1.268831    2.084889    2.664927
  H     -0.645674   -1.760441    0.043869
  H      0.089196   -0.826629   -1.312053
  H     -4.214298   -0.688155    2.322454
  H     -3.676629   -2.390449    2.188892
  H     -1.373824   -1.662992    2.921980
  H     -1.972562   -0.003284    3.082339
  H     -2.599599   -1.274972    4.140556
  H     -4.177039    1.027286   -2.111991
  H     -3.346045   -0.099478   -3.224709
  H     -4.297785   -2.020133   -1.881969
  H     -5.167101   -0.849303   -0.875737
  H     -5.570196   -1.008099   -2.591695

 Total Charge           Charge          ....    0
 Multiplicity           Mult            ....    1
 Number of Electrons    NEL             ....  202
 Basis Dimension        Dim             ....  334

ORBITAL ENERGIES
----------------

  NO   OCC          E(Eh)            E(eV)
   0   2.0000     -88.050415     -2395.9736
   1   2.0000     -88.038203     -2395.6413
   2   2.0000     -87.987470     -2394.2608
   3   2.0000     -87.987006     -2394.2481
   4   2.0000     -76.428939     -2079.7372
   5   2.0000     -76.424286     -2079.6106
   6   2.0000     -18.797423      -511.5039
   7   2.0000     -18.793110      -511.3865
   8   2.0000     -18.792420      -511.3677
   9   2.0000     -18.788730      -511.2673
  10   2.0000      -9.957404      -270.9548
  11   2.0000      -9.957047      -270.9450
  12   2.0000      -9.953771      -270.8559
  13   2.0000      -9.953616      -270.8517
  14   2.0000      -9.950578      -270.7690
  15   2.0000      -9.888140      -269.0700
  16   2.0000      -9.886179      -269.0166
  17   2.0000      -9.883556      -268.9452
  18   2.0000      -9.883163      -268.9345
  19   2.0000      -7.695231      -209.3979
  20   2.0000      -7.683224      -209.0712
  21   2.0000      -7.632598      -207.6935
  22   2.0000      -7.632207      -207.6829
  23   2.0000      -6.426400      -174.8712
  24   2.0000      -6.422157      -174.7558
  25   2.0000      -5.722836      -155.7263
  26   2.0000      -5.719906      -155.6466
  27   2.0000      -5.712340      -155.4407
  28   2.0000      -5.711497      -155.4177
  29   2.0000      -5.707719      -155.3149
  30   2.0000      -5.699817      -155.0999
  31   2.0000      -5.661550      -154.0586
  32   2.0000      -5.661281      -154.0513
  33   2.0000      -5.653256      -153.8329
  34   2.0000      -5.652709      -153.8180
  35   2.0000      -5.652656      -153.8166
  36   2.0000      -5.652373      -153.8089
  37   2.0000      -4.649259      -126.5128
  38   2.0000      -4.648058      -126.4801
  39   2.0000      -4.646697      -126.4431
  40   2.0000      -4.644539      -126.3843
  41   2.0000      -4.644108      -126.3726
  42   2.0000      -4.642595      -126.3314
  43   2.0000      -0.990629       -26.9564
  44   2.0000      -0.985996       -26.8303
  45   2.0000      -0.946697       -25.7609
  46   2.0000      -0.945039       -25.7158
  47   2.0000      -0.765578       -20.8324
  48   2.0000      -0.722866       -19.6702
  49   2.0000      -0.710770       -19.3410
  50   2.0000      -0.691890       -18.8273
  51   2.0000      -0.688096       -18.7240
  52   2.0000      -0.675488       -18.3810
  53   2.0000      -0.654067       -17.7981
  54   2.0000      -0.638850       -17.3840
  55   2.0000      -0.599537       -16.3142
  56   2.0000      -0.594067       -16.1654
  57   2.0000      -0.577833       -15.7236
  58   2.0000      -0.572225       -15.5710
  59   2.0000      -0.560163       -15.2428
  60   2.0000      -0.503949       -13.7132
  61   2.0000      -0.493837       -13.4380
  62   2.0000      -0.474614       -12.9149
  63   2.0000      -0.472994       -12.8708
  64   2.0000      -0.453709       -12.3460
  65   2.0000      -0.448251       -12.1975
  66   2.0000      -0.446025       -12.1370
  67   2.0000      -0.440731       -11.9929
  68   2.0000      -0.433245       -11.7892
  69   2.0000      -0.422546       -11.4981
  70   2.0000      -0.409658       -11.1474
  71   2.0000      -0.399004       -10.8575
  72   2.0000      -0.393097       -10.6967
  73   2.0000      -0.391964       -10.6659
  74   2.0000      -0.384440       -10.4611
  75   2.0000      -0.371731       -10.1153
  76   2.0000      -0.367625       -10.0036
  77   2.0000      -0.357336        -9.7236
  78   2.0000      -0.356601        -9.7036
  79   2.0000      -0.353499        -9.6192
  80   2.0000      -0.349088        -9.4992
  81   2.0000      -0.345608        -9.4045
  82   2.0000      -0.343660        -9.3515
  83   2.0000      -0.339108        -9.2276
  84   2.0000      -0.330762        -9.0005
  85   2.0000      -0.320380        -8.7180
  86   2.0000      -0.316190        -8.6040
  87   2.0000      -0.302621        -8.2347
  88   2.0000      -0.298080        -8.1112
  89   2.0000      -0.293790        -7.9944
  90   2.0000      -0.286785        -7.8038
  91   2.0000      -0.274574        -7.4715
  92   2.0000      -0.270883        -7.3711
  93   2.0000      -0.264398        -7.1946
  94   2.0000      -0.262116        -7.1325
  95   2.0000      -0.231857        -6.3091
  96   2.0000      -0.220632        -6.0037
  97   2.0000      -0.208215        -5.6658
  98   2.0000      -0.206327        -5.6144
  99   2.0000      -0.205051        -5.5797
 100   2.0000      -0.198559        -5.4031
 101   0.0000      -0.043366        -1.1801
 102   0.0000      -0.028417        -0.7733
 103   0.0000      -0.017417        -0.4739
 104   0.0000       0.003608         0.0982
 105   0.0000       0.014523         0.3952

MULLIKEN ATOMIC CHARGES
-----------------------
   0 C :   -0.319711
   1 C :    0.001606
   2 O :   -0.383291
   3 P :    0.601327
   4 S :   -0.297363
   5 O :   -0.351617
   6 C :   -0.017660
   7 C :   -0.297423
   8 S :   -0.107980
   9 C :   -0.355478
  10 S :   -0.065208
  11 P :    0.610431
  12 S :   -0.318090
  13 O :   -0.382772
  14 C :   -0.007695
  15 C :   -0.313976
  16 O :   -0.380902
  17 C :   -0.003406
  18 C :   -0.308376
  19 H :    0.115592
  20 H :    0.116901
  21 H :    0.129230
  22 H :    0.114398
  23 H :    0.106075
  24 H :    0.106512
  25 H :    0.113358
  26 H :    0.127042
  27 H :    0.108116
  28 H :    0.129762
  29 H :    0.183581
  30 H :    0.200210
  31 H :    0.111904
  32 H :    0.104101
  33 H :    0.113635
  34 H :    0.130791
  35 H :    0.112920
  36 H :    0.114714
  37 H :    0.108868
  38 H :    0.114582
  39 H :    0.122687
  40 H :    0.112605
Sum of atomic charges:    0.0000000

LOEWDIN ATOMIC CHARGES
----------------------
   0 C :   -0.371391
   1 C :   -0.114742
   2 O :   -0.249194
   3 P :    0.566769
   4 S :   -0.297533
   5 O :   -0.235190
   6 C :   -0.110533
   7 C :   -0.366497
   8 S :    0.084196
   9 C :   -0.479106
  10 S :    0.100744
  11 P :    0.566467
  12 S :   -0.320032
  13 O :   -0.248765
  14 C :   -0.121724
  15 C :   -0.367897
  16 O :   -0.245349
  17 C :   -0.114599
  18 C :   -0.365918
  19 H :    0.132380
  20 H :    0.122769
  21 H :    0.121991
  22 H :    0.114289
  23 H :    0.119259
  24 H :    0.109738
  25 H :    0.123604
  26 H :    0.115579
  27 H :    0.128790
  28 H :    0.129891
  29 H :    0.130072
  30 H :    0.125281
  31 H :    0.110254
  32 H :    0.117571
  33 H :    0.122566
  34 H :    0.122753
  35 H :    0.130835
  36 H :    0.113446
  37 H :    0.120782
  38 H :    0.125340
  39 H :    0.122447
  40 H :    0.130655

  Mayer bond orders larger than 0.100000
B(  0-C ,  1-C ) :   1.1665 B(  0-C , 19-H ) :   0.9370 B(  0-C , 20-H ) :   0.9437
B(  0-C , 21-H ) :   0.9348 B(  1-C ,  2-O ) :   0.9044 B(  1-C , 22-H ) :   0.9188
B(  1-C , 23-H ) :   0.9345 B(  2-O ,  3-P ) :   1.0902 B(  3-P ,  4-S ) :   1.6479
B(  3-P ,  5-O ) :   1.1429 B(  3-P ,  8-S ) :   0.9257 B(  4-S ,  8-S ) :   0.1111
B(  5-O ,  6-C ) :   0.8900 B(  6-C ,  7-C ) :   1.1666 B(  6-C , 24-H ) :   0.9195
B(  6-C , 25-H ) :   0.9343 B(  7-C , 26-H ) :   0.9318 B(  7-C , 27-H ) :   0.9371
B(  7-C , 28-H ) :   0.9425 B(  8-S ,  9-C ) :   1.0161 B(  9-C , 10-S ) :   0.9645
B(  9-C , 29-H ) :   0.8875 B(  9-C , 30-H ) :   0.8683 B( 10-S , 11-P ) :   0.9939
B( 11-P , 12-S ) :   1.6374 B( 11-P , 13-O ) :   1.0584 B( 11-P , 16-O ) :   1.0964
B( 13-O , 14-C ) :   0.9101 B( 14-C , 15-C ) :   1.1644 B( 14-C , 31-H ) :   0.9130
B( 14-C , 32-H ) :   0.9343 B( 15-C , 33-H ) :   0.9461 B( 15-C , 34-H ) :   0.9353
B( 15-C , 35-H ) :   0.9382 B( 16-O , 17-C ) :   0.9082 B( 17-C , 18-C ) :   1.1622
B( 17-C , 36-H ) :   0.9196 B( 17-C , 37-H ) :   0.9353 B( 18-C , 38-H ) :   0.9461
B( 18-C , 39-H ) :   0.9362 B( 18-C , 40-H ) :   0.9383

Dispersion correction           -0.063581001
FINAL SINGLE POINT ENERGY     -2929.516721442535

DIPOLE MOMENT
-------------

Method             : SCF
Type of density    : Electron Density
Multiplicity       :   1
Irrep              :   0
Energy             : -2929.6385676475701985 Eh
Relativity type    :
Basis              : AO
                                X                 Y                 Z
Electronic contribution:      1.597945008      12.125994569      -6.888288091
Nuclear contribution   :     -0.909087949     -13.758701531       7.563828708
                        -----------------------------------------
Total Dipole Moment    :      0.688857058      -1.632706962       0.675540617
                        -----------------------------------------
Magnitude (a.u.)       :      1.896473358
Magnitude (Debye)      :      4.820452188

Rotational constants in cm-1:             0.012954             0.004333             0.003955
Rotational constants in MHz :           388.360782           129.890671           118.577153

                             ****ORCA TERMINATED NORMALLY****
TOTAL RUN TIME: 0 days 0 hours 0 minutes 20 seconds 570 msec
