                         Program Version 6.0.0  -   RELEASE  -
|  1> ! pbe def2-sv(p) def2/J RI DEFGRID1 loosescf d4 GCP(DFT/SV(P)) printgap
|  2> %output
|  3>     printlevel normal
|  4> end
|  5> * xyz 0 1
|  6> C 4.5411952846 -1.5010971709 -0.9591704054
|  7> C 4.6715145368 -0.1346583427 -0.3180397937
|  8> O 3.562259132 0.162259235 0.545020994
|  9> P 2.0875062395 0.4004603442 -0.0088679245
| 10> S 2.0619423238 1.338251207 -1.7375752684
| 11> O 1.4079549445 1.0313646427 1.2732636582
| 12> C 1.9016615096 2.1973248849 1.9686511866
| 13> C 1.681747661 3.467582322 1.1723424741
| 14> S 1.1445504715 -1.4949109048 0.0499745496
| 15> C 0.3579324003 -1.5223114095 -1.5960362701
| 16> S -1.389352586 -2.001271738 -1.5365815188
| 17> P -2.1474979644 -0.4627084577 -0.3024516811
| 18> S -1.3361074067 1.3230834899 -0.3979516193
| 19> O -2.238597227 -1.0821918521 1.1605961331
| 20> C -1.3803659066 -0.7801246797 2.2727011477
| 21> C -2.233432353 -0.641950702 3.5186800756
| 22> O -3.6379713728 -0.5870682951 -0.8138843848
| 23> C -4.6032087941 0.4739282251 -0.6609749503
| 24> C -4.9239545115 0.7504180557 0.7930627578
| 25> H 4.3639139008 -2.2596423004 -0.2010696052
| 26> H 3.7074891268 -1.5002157573 -1.660481218
| 27> H 5.4534498863 -1.7338844784 -1.4987879257
| 28> H 4.7309626039 0.6441750188 -1.0850422132
| 29> H 5.5391883872 -0.0780743022 0.3405101839
| 30> H 1.3211439065 2.2047092964 2.8929027129
| 31> H 2.9598753806 2.0471781254 2.1945918535
| 32> H 0.6405651597 3.5358137738 0.8626483201
| 33> H 1.9344345967 4.3277974928 1.7837763022
| 34> H 2.3031548199 3.4704332276 0.2785346576
| 35> H 0.8430815918 -2.2816085253 -2.2043487349
| 36> H 0.4667933269 -0.5301638561 -2.0447084503
| 37> H -0.6681109675 -1.6038391367 2.3695060202
| 38> H -0.831079815 0.1430100931 2.057841278
| 39> H -1.5848520293 -0.4990785861 4.3767884805
| 40> H -2.90295753 0.2092576146 3.4304775535
| 41> H -2.8240494897 -1.5423019759 3.6605328998
| 42> H -4.2080191539 1.3721258307 -1.146188507
| 43> H -5.4744645534 0.1102820042 -1.2074544624
| 44> H -4.0466306564 1.1646670964 1.2885560711
| 45> H -5.7349671612 1.4696089584 0.8525438397
| 46> H -5.214872035 -0.168965968 1.2944585501
| 47> *
| 48>
| 49>                          ****END OF INPUT****

CARTESIAN COORDINATES (ANGSTROEM)
---------------------------------
  C      4.541195   -1.501097   -0.959170
  C      4.671515   -0.134658   -0.318040
  O      3.562259    0.162259    0.545021
  P      2.087506    0.400460   -0.008868
  S      2.061942    1.338251   -1.737575
  O      1.407955    1.031365    1.273264
  C      1.901662    2.197325    1.968651
  C      1.681748    3.467582    1.172342
  S      1.144550   -1.494911    0.049975
  C      0.357932   -1.522311   -1.596036
  S     -1.389353   -2.001272   -1.536582
  P     -2.147498   -0.462708   -0.302452
  S     -1.336107    1.323083   -0.397952
  O     -2.238597   -1.082192    1.160596
  C     -1.380366   -0.780125    2.272701
  C     -2.233432   -0.641951    3.518680
  O     -3.637971   -0.587068   -0.813884
  C     -4.603209    0.473928   -0.660975
  C     -4.923955    0.750418    0.793063
  H      4.363914   -2.259642   -0.201070
  H      3.707489   -1.500216   -1.660481
  H      5.453450   -1.733884   -1.498788
  H      4.730963    0.644175   -1.085042
  H      5.539188   -0.078074    0.340510
  H      1.321144    2.204709    2.892903
  H      2.959875    2.047178    2.194592
  H      0.640565    3.535814    0.862648
  H      1.934435    4.327797    1.783776
  H      2.303155    3.470433    0.278535
  H      0.843082   -2.281609   -2.204349
  H      0.466793   -0.530164   -2.044708
  H     -0.668111   -1.603839    2.369506
  H     -0.831080    0.143010    2.057841
  H     -1.584852   -0.499079    4.376788
  H     -2.902958    0.209258    3.430478
  H     -2.824049   -1.542302    3.660533
  H     -4.208019    1.372126   -1.146189
  H     -5.474465    0.110282   -1.207454
  H     -4.046631    1.164667    1.288556
  H     -5.734967    1.469609    0.852544
  H     -5.214872   -0.168966    1.294459

 Total Charge           Charge          ....    0
 Multiplicity           Mult            ....    1
 Number of Electrons    NEL             ....  202
 Basis Dimension        Dim             ....  334

ORBITAL ENERGIES
----------------

  NO   OCC          E(Eh)            E(eV)
   0   2.0000     -88.043753     -2395.7923
   1   2.0000     -88.036129     -2395.5849
   2   2.0000     -87.987999     -2394.2752
   3   2.0000     -87.981648     -2394.1023
   4   2.0000     -76.427647     -2079.7020
   5   2.0000     -76.421149     -2079.5252
   6   2.0000     -18.792755      -511.3769
   7   2.0000     -18.791171      -511.3338
   8   2.0000     -18.785785      -511.1872
   9   2.0000     -18.782895      -511.1086
  10   2.0000      -9.954655      -270.8799
  11   2.0000      -9.952319      -270.8164
  12   2.0000      -9.951496      -270.7940
  13   2.0000      -9.950673      -270.7716
  14   2.0000      -9.942119      -270.5388
  15   2.0000      -9.885174      -268.9893
  16   2.0000      -9.882994      -268.9299
  17   2.0000      -9.882737      -268.9230
  18   2.0000      -9.879112      -268.8243
  19   2.0000      -7.688190      -209.2063
  20   2.0000      -7.681881      -209.0346
  21   2.0000      -7.632856      -207.7006
  22   2.0000      -7.626300      -207.5222
  23   2.0000      -6.424806      -174.8279
  24   2.0000      -6.418520      -174.6568
  25   2.0000      -5.716039      -155.5413
  26   2.0000      -5.712787      -155.4528
  27   2.0000      -5.709979      -155.3764
  28   2.0000      -5.706390      -155.2788
  29   2.0000      -5.705161      -155.2453
  30   2.0000      -5.698529      -155.0649
  31   2.0000      -5.661689      -154.0624
  32   2.0000      -5.655109      -153.8833
  33   2.0000      -5.653752      -153.8464
  34   2.0000      -5.652820      -153.8211
  35   2.0000      -5.647183      -153.6677
  36   2.0000      -5.646328      -153.6444
  37   2.0000      -4.647466      -126.4640
  38   2.0000      -4.646320      -126.4328
  39   2.0000      -4.645464      -126.4095
  40   2.0000      -4.640864      -126.2843
  41   2.0000      -4.640330      -126.2698
  42   2.0000      -4.639178      -126.2385
  43   2.0000      -0.988535       -26.8994
  44   2.0000      -0.979570       -26.6555
  45   2.0000      -0.944084       -25.6898
  46   2.0000      -0.938187       -25.5294
  47   2.0000      -0.759438       -20.6654
  48   2.0000      -0.721244       -19.6260
  49   2.0000      -0.706949       -19.2371
  50   2.0000      -0.687361       -18.7040
  51   2.0000      -0.684399       -18.6234
  52   2.0000      -0.671608       -18.2754
  53   2.0000      -0.649876       -17.6840
  54   2.0000      -0.633931       -17.2501
  55   2.0000      -0.600532       -16.3413
  56   2.0000      -0.591725       -16.1017
  57   2.0000      -0.577552       -15.7160
  58   2.0000      -0.563564       -15.3354
  59   2.0000      -0.556788       -15.1510
  60   2.0000      -0.499461       -13.5910
  61   2.0000      -0.491785       -13.3822
  62   2.0000      -0.472916       -12.8687
  63   2.0000      -0.468898       -12.7594
  64   2.0000      -0.454987       -12.3808
  65   2.0000      -0.444712       -12.1012
  66   2.0000      -0.434091       -11.8122
  67   2.0000      -0.428032       -11.6473
  68   2.0000      -0.425955       -11.5908
  69   2.0000      -0.417724       -11.3669
  70   2.0000      -0.407884       -11.0991
  71   2.0000      -0.402315       -10.9475
  72   2.0000      -0.392104       -10.6697
  73   2.0000      -0.383882       -10.4459
  74   2.0000      -0.375355       -10.2139
  75   2.0000      -0.371499       -10.1090
  76   2.0000      -0.370144       -10.0721
  77   2.0000      -0.354575        -9.6485
  78   2.0000      -0.352604        -9.5948
  79   2.0000      -0.347356        -9.4520
  80   2.0000      -0.345869        -9.4116
  81   2.0000      -0.341550        -9.2940
  82   2.0000      -0.338694        -9.2163
  83   2.0000      -0.335610        -9.1324
  84   2.0000      -0.332771        -9.0551
  85   2.0000      -0.314061        -8.5460
  86   2.0000      -0.310515        -8.4495
  87   2.0000      -0.296333        -8.0636
  88   2.0000      -0.293824        -7.9954
  89   2.0000      -0.284446        -7.7402
  90   2.0000      -0.281040        -7.6475
  91   2.0000      -0.274429        -7.4676
  92   2.0000      -0.271159        -7.3786
  93   2.0000      -0.264361        -7.1936
  94   2.0000      -0.255466        -6.9516
  95   2.0000      -0.233371        -6.3504
  96   2.0000      -0.218556        -5.9472
  97   2.0000      -0.213848        -5.8191
  98   2.0000      -0.199753        -5.4356
  99   2.0000      -0.196028        -5.3342
 100   2.0000      -0.187463        -5.1011
 101   0.0000      -0.042543        -1.1576
 102   0.0000      -0.035836        -0.9752
 103   0.0000      -0.002518        -0.0685
 104   0.0000       0.011910         0.3241
 105   0.0000       0.012427         0.3382

MULLIKEN ATOMIC CHARGES
-----------------------
   0 C :   -0.311755
   1 C :   -0.001771
   2 O :   -0.379478
   3 P :    0.637161
   4 S :   -0.307278
   5 O :   -0.361814
   6 C :    0.000323
   7 C :   -0.316416
   8 S :   -0.108500
   9 C :   -0.357392
  10 S :   -0.088011
  11 P :    0.625984
  12 S :   -0.323297
  13 O :   -0.376496
  14 C :   -0.035361
  15 C :   -0.281713
  16 O :   -0.378720
  17 C :    0.004648
  18 C :   -0.321366
  19 H :    0.119055
  20 H :    0.118242
  21 H :    0.112919
  22 H :    0.110288
  23 H :    0.102529
  24 H :    0.103808
  25 H :    0.106669
  26 H :    0.132744
  27 H :    0.107075
  28 H :    0.127789
  29 H :    0.180269
  30 H :    0.211727
  31 H :    0.104499
  32 H :    0.129783
  33 H :    0.105682
  34 H :    0.116573
  35 H :    0.114447
  36 H :    0.111881
  37 H :    0.106213
  38 H :    0.127751
  39 H :    0.111495
  40 H :    0.119816
Sum of atomic charges:    0.0000000

LOEWDIN ATOMIC CHARGES
----------------------
   0 C :   -0.368013
   1 C :   -0.121242
   2 O :   -0.248389
   3 P :    0.574211
   4 S :   -0.290443
   5 O :   -0.233196
   6 C :   -0.109317
   7 C :   -0.367356
   8 S :    0.087482
   9 C :   -0.480355
  10 S :    0.084360
  11 P :    0.563975
  12 S :   -0.308730
  13 O :   -0.246632
  14 C :   -0.126834
  15 C :   -0.352905
  16 O :   -0.247606
  17 C :   -0.111795
  18 C :   -0.367342
  19 H :    0.125020
  20 H :    0.118805
  21 H :    0.130654
  22 H :    0.109085
  23 H :    0.117257
  24 H :    0.117632
  25 H :    0.111056
  26 H :    0.131179
  27 H :    0.127782
  28 H :    0.122191
  29 H :    0.133712
  30 H :    0.124401
  31 H :    0.106698
  32 H :    0.107589
  33 H :    0.127798
  34 H :    0.123618
  35 H :    0.125602
  36 H :    0.112599
  37 H :    0.119778
  38 H :    0.120445
  39 H :    0.130255
  40 H :    0.126974

  Mayer bond orders larger than 0.100000
B(  0-C ,  1-C ) :   1.1650 B(  0-C , 19-H ) :   0.9440 B(  0-C , 20-H ) :   0.9372
B(  0-C , 21-H ) :   0.9382 B(  1-C ,  2-O ) :   0.9145 B(  1-C , 22-H ) :   0.9131
B(  1-C , 23-H ) :   0.9331 B(  2-O ,  3-P ) :   1.0847 B(  3-P ,  4-S ) :   1.6038
B(  3-P ,  5-O ) :   1.1266 B(  3-P ,  8-S ) :   0.9494 B(  4-S ,  8-S ) :   0.1235
B(  5-O ,  6-C ) :   0.9028 B(  6-C ,  7-C ) :   1.1662 B(  6-C , 24-H ) :   0.9342
B(  6-C , 25-H ) :   0.9272 B(  7-C , 26-H ) :   0.9426 B(  7-C , 27-H ) :   0.9373
B(  7-C , 28-H ) :   0.9356 B(  8-S ,  9-C ) :   0.9846 B(  9-C , 10-S ) :   1.0138
B(  9-C , 29-H ) :   0.9105 B(  9-C , 30-H ) :   0.8490 B( 10-S , 11-P ) :   0.9409
B( 10-S , 12-S ) :   0.1082 B( 11-P , 12-S ) :   1.6200 B( 11-P , 13-O ) :   1.1043
B( 11-P , 16-O ) :   1.1263 B( 13-O , 14-C ) :   0.9034 B( 14-C , 15-C ) :   1.1544
B( 14-C , 31-H ) :   0.9270 B( 14-C , 32-H ) :   0.8996 B( 15-C , 33-H ) :   0.9421
B( 15-C , 34-H ) :   0.9471 B( 15-C , 35-H ) :   0.9489 B( 16-O , 17-C ) :   0.9105
B( 17-C , 18-C ) :   1.1622 B( 17-C , 36-H ) :   0.9194 B( 17-C , 37-H ) :   0.9355
B( 18-C , 38-H ) :   0.9296 B( 18-C , 39-H ) :   0.9368 B( 18-C , 40-H ) :   0.9454

Dispersion correction           -0.066964406
FINAL SINGLE POINT ENERGY     -2929.519515710175

DIPOLE MOMENT
-------------

Method             : SCF
Type of density    : Electron Density
Multiplicity       :   1
Irrep              :   0
Energy             : -2929.6376445292744393 Eh
Relativity type    :
Basis              : AO
                                X                 Y                 Z
Electronic contribution:     -0.309086346      -8.068377367     -14.869516085
Nuclear contribution   :      0.752446334       8.048405905      16.022119665
                        -----------------------------------------
Total Dipole Moment    :      0.443359988      -0.019971462       1.152603580
                        -----------------------------------------
Magnitude (a.u.)       :      1.235095928
Magnitude (Debye)      :      3.139364360

Rotational constants in cm-1:             0.012356             0.005347             0.004853
Rotational constants in MHz :           370.417799           160.303687           145.493141

                             ****ORCA TERMINATED NORMALLY****
TOTAL RUN TIME: 0 days 0 hours 0 minutes 21 seconds 558 msec
