                         Program Version 6.0.0  -   RELEASE  -
|  1> ! pbe def2-sv(p) def2/J RI DEFGRID1 loosescf d4 GCP(DFT/SV(P)) printgap
|  2> %output
|  3>     printlevel normal
|  4> end
|  5> * xyz 0 1
|  6> C 4.6259260972 -1.2859498838 -1.0572180306
|  7> C 4.6473071037 0.1458172851 -0.5626323677
|  8> O 3.5328959148 0.4400165305 0.2963895135
|  9> P 2.0276848355 0.4652901749 -0.2293781596
| 10> S 1.8516542168 1.2369323911 -2.0284004755
| 11> O 1.3332777508 1.2318877391 0.9713221604
| 12> C 1.5800655818 2.6475826213 1.1483997003
| 13> C 0.4919316394 3.2184112261 2.0323668045
| 14> S 1.3151878921 -1.4904907506 0.0848209158
| 15> C 0.2860235391 -1.6952768654 -1.408179317
| 16> S -1.4006330687 -2.2380535065 -1.0319022948
| 17> P -2.0486675535 -0.5749714945 0.0738519226
| 18> S -1.5185219939 1.2046560084 -0.5741761679
| 19> O -1.5690853822 -0.9729358757 1.5233673511
| 20> C -1.6164415865 -0.0659278952 2.6488606752
| 21> C -0.4374196847 -0.3695464619 3.5501641831
| 22> O -3.6187047247 -0.8035910001 0.1881606905
| 23> C -4.5298540291 -0.4604239977 -0.8770897822
| 24> C -5.2133552192 0.8606994264 -0.5820631736
| 25> H 4.531271052 -1.974128713 -0.22115067
| 26> H 3.7824889873 -1.4306146689 -1.7312420841
| 27> H 5.5452947659 -1.4932138571 -1.5952244126
| 28> H 4.6241305054 0.8431836964 -1.4061095164
| 29> H 5.5185093872 0.3451206352 0.0626983919
| 30> H 2.5687070786 2.7594882327 1.6003432059
| 31> H 1.577188577 3.1250464831 0.1620880781
| 32> H -0.4739131274 3.1048746017 1.5460575158
| 33> H 0.4762685248 2.7027695936 2.9879342291
| 34> H 0.685223022 4.2741189645 2.1924015868
| 35> H 0.7147711338 -2.4857840215 -2.0190276588
| 36> H 0.2660001874 -0.7456085427 -1.9509626326
| 37> H -1.5804783878 0.9619013539 2.2737034229
| 38> H -2.5675810551 -0.2331411643 3.1587635451
| 39> H -0.4527029533 -1.4169520769 3.837192211
| 40> H 0.4941108378 -0.1642841499 3.028113837
| 41> H -0.4983147462 0.2501964354 4.4390617779
| 42> H -3.9820362473 -0.4138645567 -1.8222472602
| 43> H -5.2452049872 -1.2838609178 -0.910757681
| 44> H -4.4790598997 1.6632294402 -0.5570343121
| 45> H -5.9394561585 1.0697490944 -1.3609402186
| 46> H -5.7176525162 0.8139954846 0.3789050069
| 47> *
| 48>
| 49>                          ****END OF INPUT****

CARTESIAN COORDINATES (ANGSTROEM)
---------------------------------
  C      4.625926   -1.285950   -1.057218
  C      4.647307    0.145817   -0.562632
  O      3.532896    0.440017    0.296390
  P      2.027685    0.465290   -0.229378
  S      1.851654    1.236932   -2.028400
  O      1.333278    1.231888    0.971322
  C      1.580066    2.647583    1.148400
  C      0.491932    3.218411    2.032367
  S      1.315188   -1.490491    0.084821
  C      0.286024   -1.695277   -1.408179
  S     -1.400633   -2.238054   -1.031902
  P     -2.048668   -0.574971    0.073852
  S     -1.518522    1.204656   -0.574176
  O     -1.569085   -0.972936    1.523367
  C     -1.616442   -0.065928    2.648861
  C     -0.437420   -0.369546    3.550164
  O     -3.618705   -0.803591    0.188161
  C     -4.529854   -0.460424   -0.877090
  C     -5.213355    0.860699   -0.582063
  H      4.531271   -1.974129   -0.221151
  H      3.782489   -1.430615   -1.731242
  H      5.545295   -1.493214   -1.595224
  H      4.624131    0.843184   -1.406110
  H      5.518509    0.345121    0.062698
  H      2.568707    2.759488    1.600343
  H      1.577189    3.125046    0.162088
  H     -0.473913    3.104875    1.546058
  H      0.476269    2.702770    2.987934
  H      0.685223    4.274119    2.192402
  H      0.714771   -2.485784   -2.019028
  H      0.266000   -0.745609   -1.950963
  H     -1.580478    0.961901    2.273703
  H     -2.567581   -0.233141    3.158764
  H     -0.452703   -1.416952    3.837192
  H      0.494111   -0.164284    3.028114
  H     -0.498315    0.250196    4.439062
  H     -3.982036   -0.413865   -1.822247
  H     -5.245205   -1.283861   -0.910758
  H     -4.479060    1.663229   -0.557034
  H     -5.939456    1.069749   -1.360940
  H     -5.717653    0.813995    0.378905

 Total Charge           Charge          ....    0
 Multiplicity           Mult            ....    1
 Number of Electrons    NEL             ....  202
 Basis Dimension        Dim             ....  334

ORBITAL ENERGIES
----------------

  NO   OCC          E(Eh)            E(eV)
   0   2.0000     -88.043567     -2395.7873
   1   2.0000     -88.042931     -2395.7699
   2   2.0000     -87.984494     -2394.1798
   3   2.0000     -87.981761     -2394.1054
   4   2.0000     -76.423387     -2079.5861
   5   2.0000     -76.423149     -2079.5796
   6   2.0000     -18.789492      -511.2881
   7   2.0000     -18.788982      -511.2742
   8   2.0000     -18.787421      -511.2317
   9   2.0000     -18.785238      -511.1723
  10   2.0000      -9.954690      -270.8809
  11   2.0000      -9.952313      -270.8162
  12   2.0000      -9.949349      -270.7356
  13   2.0000      -9.947786      -270.6930
  14   2.0000      -9.947568      -270.6871
  15   2.0000      -9.882556      -268.9180
  16   2.0000      -9.882334      -268.9120
  17   2.0000      -9.880263      -268.8556
  18   2.0000      -9.878580      -268.8098
  19   2.0000      -7.688749      -209.2215
  20   2.0000      -7.688485      -209.2143
  21   2.0000      -7.629459      -207.6081
  22   2.0000      -7.626521      -207.5282
  23   2.0000      -6.421076      -174.7264
  24   2.0000      -6.420734      -174.7171
  25   2.0000      -5.716737      -155.5603
  26   2.0000      -5.716396      -155.5510
  27   2.0000      -5.713089      -155.4610
  28   2.0000      -5.713070      -155.4605
  29   2.0000      -5.705690      -155.2597
  30   2.0000      -5.705294      -155.2489
  31   2.0000      -5.658277      -153.9696
  32   2.0000      -5.655297      -153.8885
  33   2.0000      -5.650314      -153.7529
  34   2.0000      -5.649463      -153.7297
  35   2.0000      -5.647217      -153.6686
  36   2.0000      -5.646739      -153.6556
  37   2.0000      -4.643472      -126.3553
  38   2.0000      -4.643262      -126.3496
  39   2.0000      -4.642688      -126.3340
  40   2.0000      -4.642520      -126.3294
  41   2.0000      -4.641795      -126.3097
  42   2.0000      -4.641216      -126.2939
  43   2.0000      -0.984219       -26.7819
  44   2.0000      -0.982741       -26.7417
  45   2.0000      -0.940882       -25.6027
  46   2.0000      -0.940158       -25.5830
  47   2.0000      -0.763093       -20.7648
  48   2.0000      -0.720728       -19.6120
  49   2.0000      -0.707012       -19.2388
  50   2.0000      -0.684762       -18.6333
  51   2.0000      -0.683672       -18.6037
  52   2.0000      -0.673785       -18.3346
  53   2.0000      -0.648052       -17.6344
  54   2.0000      -0.632832       -17.2202
  55   2.0000      -0.597611       -16.2618
  56   2.0000      -0.585285       -15.9264
  57   2.0000      -0.571593       -15.5538
  58   2.0000      -0.566658       -15.4196
  59   2.0000      -0.553720       -15.0675
  60   2.0000      -0.504593       -13.7307
  61   2.0000      -0.499671       -13.5967
  62   2.0000      -0.477506       -12.9936
  63   2.0000      -0.469211       -12.7679
  64   2.0000      -0.445012       -12.1094
  65   2.0000      -0.441020       -12.0008
  66   2.0000      -0.437216       -11.8972
  67   2.0000      -0.434801       -11.8315
  68   2.0000      -0.425950       -11.5907
  69   2.0000      -0.424472       -11.5505
  70   2.0000      -0.405801       -11.0424
  71   2.0000      -0.392979       -10.6935
  72   2.0000      -0.389298       -10.5933
  73   2.0000      -0.386656       -10.5215
  74   2.0000      -0.377636       -10.2760
  75   2.0000      -0.372240       -10.1292
  76   2.0000      -0.363372        -9.8879
  77   2.0000      -0.353620        -9.6225
  78   2.0000      -0.351102        -9.5540
  79   2.0000      -0.349442        -9.5088
  80   2.0000      -0.347101        -9.4451
  81   2.0000      -0.339096        -9.2273
  82   2.0000      -0.334508        -9.1024
  83   2.0000      -0.332963        -9.0604
  84   2.0000      -0.329556        -8.9677
  85   2.0000      -0.312106        -8.4928
  86   2.0000      -0.309826        -8.4308
  87   2.0000      -0.296038        -8.0556
  88   2.0000      -0.293491        -7.9863
  89   2.0000      -0.290404        -7.9023
  90   2.0000      -0.286217        -7.7884
  91   2.0000      -0.271114        -7.3774
  92   2.0000      -0.269702        -7.3390
  93   2.0000      -0.261943        -7.1278
  94   2.0000      -0.259738        -7.0678
  95   2.0000      -0.234825        -6.3899
  96   2.0000      -0.220383        -5.9969
  97   2.0000      -0.213392        -5.8067
  98   2.0000      -0.203411        -5.5351
  99   2.0000      -0.194805        -5.3009
 100   2.0000      -0.186547        -5.0762
 101   0.0000      -0.041447        -1.1278
 102   0.0000      -0.033963        -0.9242
 103   0.0000      -0.009426        -0.2565
 104   0.0000       0.015430         0.4199
 105   0.0000       0.020110         0.5472

MULLIKEN ATOMIC CHARGES
-----------------------
   0 C :   -0.311366
   1 C :   -0.000727
   2 O :   -0.383590
   3 P :    0.620514
   4 S :   -0.315445
   5 O :   -0.361650
   6 C :   -0.008317
   7 C :   -0.299812
   8 S :   -0.079228
   9 C :   -0.364616
  10 S :   -0.083683
  11 P :    0.601766
  12 S :   -0.318486
  13 O :   -0.359721
  14 C :   -0.010831
  15 C :   -0.293217
  16 O :   -0.379322
  17 C :   -0.006671
  18 C :   -0.287896
  19 H :    0.118189
  20 H :    0.118048
  21 H :    0.111658
  22 H :    0.109123
  23 H :    0.102255
  24 H :    0.101377
  25 H :    0.106679
  26 H :    0.145762
  27 H :    0.114975
  28 H :    0.108408
  29 H :    0.181805
  30 H :    0.212450
  31 H :    0.109215
  32 H :    0.101071
  33 H :    0.114331
  34 H :    0.131098
  35 H :    0.104232
  36 H :    0.103325
  37 H :    0.106192
  38 H :    0.124403
  39 H :    0.107508
  40 H :    0.110193
Sum of atomic charges:    0.0000000

LOEWDIN ATOMIC CHARGES
----------------------
   0 C :   -0.369030
   1 C :   -0.120399
   2 O :   -0.251063
   3 P :    0.572753
   4 S :   -0.305296
   5 O :   -0.238275
   6 C :   -0.116405
   7 C :   -0.356025
   8 S :    0.096992
   9 C :   -0.479079
  10 S :    0.084528
  11 P :    0.558984
  12 S :   -0.307642
  13 O :   -0.238378
  14 C :   -0.111744
  15 C :   -0.357042
  16 O :   -0.252502
  17 C :   -0.115999
  18 C :   -0.360650
  19 H :    0.124164
  20 H :    0.118447
  21 H :    0.129959
  22 H :    0.109282
  23 H :    0.117250
  24 H :    0.110874
  25 H :    0.110520
  26 H :    0.127568
  27 H :    0.123894
  28 H :    0.130019
  29 H :    0.135333
  30 H :    0.126282
  31 H :    0.108102
  32 H :    0.112929
  33 H :    0.126641
  34 H :    0.124816
  35 H :    0.125810
  36 H :    0.108951
  37 H :    0.117739
  38 H :    0.124874
  39 H :    0.128691
  40 H :    0.124127

  Mayer bond orders larger than 0.100000
B(  0-C ,  1-C ) :   1.1655 B(  0-C , 19-H ) :   0.9439 B(  0-C , 20-H ) :   0.9372
B(  0-C , 21-H ) :   0.9381 B(  1-C ,  2-O ) :   0.9159 B(  1-C , 22-H ) :   0.9142
B(  1-C , 23-H ) :   0.9338 B(  2-O ,  3-P ) :   1.0870 B(  3-P ,  4-S ) :   1.6027
B(  3-P ,  5-O ) :   1.1234 B(  3-P ,  8-S ) :   0.9734 B(  4-S ,  8-S ) :   0.1209
B(  5-O ,  6-C ) :   0.8923 B(  6-C ,  7-C ) :   1.1668 B(  6-C , 24-H ) :   0.9312
B(  6-C , 25-H ) :   0.9092 B(  7-C , 26-H ) :   0.9310 B(  7-C , 27-H ) :   0.9461
B(  7-C , 28-H ) :   0.9381 B(  8-S ,  9-C ) :   0.9967 B(  9-C , 10-S ) :   1.0017
B(  9-C , 29-H ) :   0.9105 B(  9-C , 30-H ) :   0.8478 B( 10-S , 11-P ) :   0.9667
B( 10-S , 12-S ) :   0.1111 B( 11-P , 12-S ) :   1.6233 B( 11-P , 13-O ) :   1.1419
B( 11-P , 16-O ) :   1.1038 B( 13-O , 14-C ) :   0.8954 B( 14-C , 15-C ) :   1.1694
B( 14-C , 31-H ) :   0.9028 B( 14-C , 32-H ) :   0.9329 B( 15-C , 33-H ) :   0.9472
B( 15-C , 34-H ) :   0.9357 B( 15-C , 35-H ) :   0.9385 B( 16-O , 17-C ) :   0.9010
B( 17-C , 18-C ) :   1.1672 B( 17-C , 36-H ) :   0.9142 B( 17-C , 37-H ) :   0.9354
B( 18-C , 38-H ) :   0.9353 B( 18-C , 39-H ) :   0.9402 B( 18-C , 40-H ) :   0.9480

Dispersion correction           -0.066921861
FINAL SINGLE POINT ENERGY     -2929.523868548304

DIPOLE MOMENT
-------------

Method             : SCF
Type of density    : Electron Density
Multiplicity       :   1
Irrep              :   0
Energy             : -2929.6415946986962808 Eh
Relativity type    :
Basis              : AO
                                X                 Y                 Z
Electronic contribution:      0.239591569      -9.836789027     -10.912457938
Nuclear contribution   :     -0.136196086       9.770813546      11.630744128
                        -----------------------------------------
Total Dipole Moment    :      0.103395483      -0.065975481       0.718286189
                        -----------------------------------------
Magnitude (a.u.)       :      0.728682674
Magnitude (Debye)      :      1.852164164

Rotational constants in cm-1:             0.011957             0.005524             0.005034
Rotational constants in MHz :           358.452497           165.590479           150.918651

                             ****ORCA TERMINATED NORMALLY****
TOTAL RUN TIME: 0 days 0 hours 0 minutes 21 seconds 623 msec
