                         Program Version 6.0.0  -   RELEASE  -
|  1> ! r2scan-3c def2/J RI DEFGRID2 scfconv6 printgap
|  2> %output
|  3>     printlevel normal
|  4> end
|  5> * xyz 0 1
|  6> C 3.9519133584 -1.1860623724 -2.7122456636
|  7> C 4.2585521699 -1.5642065089 -1.277559279
|  8> O 3.0638968417 -1.701813957 -0.4887992576
|  9> P 2.1535007531 -0.4576261025 -0.0894401459
| 10> S 3.172774574 1.1572919449 0.3699790624
| 11> O 1.2658496744 -1.1048222325 1.0524045203
| 12> C 1.6844933475 -1.1399033972 2.4348220932
| 13> C 0.9350670379 -0.0935541701 3.2358333117
| 14> S 0.7211276275 -0.3289683352 -1.6265664642
| 15> C 0.1789689354 1.3719267159 -1.2975856081
| 16> S -0.4754837399 1.6050498113 0.3731206344
| 17> P -2.1923027584 0.3913065299 0.182752493
| 18> S -3.0489852071 0.3003339358 -1.5825852437
| 19> O -3.0995440034 0.8713453141 1.3992600994
| 20> C -3.4846132117 2.2292313833 1.6842840872
| 21> C -4.078249011 2.9428353531 0.4874672202
| 22> O -1.7182913436 -1.0068870611 0.7582099957
| 23> C -2.2846700838 -2.2738807326 0.3607392263
| 24> C -1.3628662752 -3.0021928853 -0.597399413
| 25> H 3.2308370331 -1.8780837653 -3.1399262754
| 26> H 3.5372910397 -0.1796452492 -2.7515980852
| 27> H 4.867517163 -1.21235198 -3.2942787747
| 28> H 4.8966063639 -0.8083978797 -0.8081201355
| 29> H 4.7315902903 -2.5447228004 -1.2100950691
| 30> H 1.4483031967 -2.1491747471 2.7760372469
| 31> H 2.7647349188 -0.9765627979 2.4902888833
| 32> H 1.2154025086 0.9047622903 2.9056551867
| 33> H -0.1362849468 -0.2184863323 3.0960859284
| 34> H 1.1784019915 -0.2033345692 4.2877038487
| 35> H -0.5958895594 1.589521269 -2.0324697384
| 36> H 1.0232263705 2.0536594832 -1.3900166362
| 37> H -4.2153480973 2.1237391251 2.4882868826
| 38> H -2.6026824416 2.7605355427 2.0529285597
| 39> H -4.9072076427 2.371376369 0.0764647569
| 40> H -4.4332320144 3.9217539022 0.7932686655
| 41> H -3.325271289 3.0658741636 -0.2896730623
| 42> H -2.4079252669 -2.8264588832 1.2936443874
| 43> H -3.2627190996 -2.1032185258 -0.0983482301
| 44> H -0.3583002202 -3.0521737416 -0.1841981413
| 45> H -1.7382405537 -4.007731737 -0.7578463458
| 46> H -1.3215622663 -2.4805233614 -1.5512920822
| 47> *
| 48>
| 49>                          ****END OF INPUT****

CARTESIAN COORDINATES (ANGSTROEM)
---------------------------------
  C      3.951913   -1.186062   -2.712246
  C      4.258552   -1.564207   -1.277559
  O      3.063897   -1.701814   -0.488799
  P      2.153501   -0.457626   -0.089440
  S      3.172775    1.157292    0.369979
  O      1.265850   -1.104822    1.052405
  C      1.684493   -1.139903    2.434822
  C      0.935067   -0.093554    3.235833
  S      0.721128   -0.328968   -1.626566
  C      0.178969    1.371927   -1.297586
  S     -0.475484    1.605050    0.373121
  P     -2.192303    0.391307    0.182752
  S     -3.048985    0.300334   -1.582585
  O     -3.099544    0.871345    1.399260
  C     -3.484613    2.229231    1.684284
  C     -4.078249    2.942835    0.487467
  O     -1.718291   -1.006887    0.758210
  C     -2.284670   -2.273881    0.360739
  C     -1.362866   -3.002193   -0.597399
  H      3.230837   -1.878084   -3.139926
  H      3.537291   -0.179645   -2.751598
  H      4.867517   -1.212352   -3.294279
  H      4.896606   -0.808398   -0.808120
  H      4.731590   -2.544723   -1.210095
  H      1.448303   -2.149175    2.776037
  H      2.764735   -0.976563    2.490289
  H      1.215403    0.904762    2.905655
  H     -0.136285   -0.218486    3.096086
  H      1.178402   -0.203335    4.287704
  H     -0.595890    1.589521   -2.032470
  H      1.023226    2.053659   -1.390017
  H     -4.215348    2.123739    2.488287
  H     -2.602682    2.760536    2.052929
  H     -4.907208    2.371376    0.076465
  H     -4.433232    3.921754    0.793269
  H     -3.325271    3.065874   -0.289673
  H     -2.407925   -2.826459    1.293644
  H     -3.262719   -2.103219   -0.098348
  H     -0.358300   -3.052174   -0.184198
  H     -1.738241   -4.007732   -0.757846
  H     -1.321562   -2.480523   -1.551292

 Total Charge           Charge          ....    0
 Multiplicity           Mult            ....    1
 Number of Electrons    NEL             ....  202
 Basis Dimension        Dim             ....  539

ORBITAL ENERGIES
----------------

  NO   OCC          E(Eh)            E(eV)
   0   2.0000     -88.577689     -2410.3214
   1   2.0000     -88.576426     -2410.2871
   2   2.0000     -88.521963     -2408.8051
   3   2.0000     -88.517565     -2408.6854
   4   2.0000     -76.914039     -2092.9374
   5   2.0000     -76.913078     -2092.9112
   6   2.0000     -18.992130      -516.8021
   7   2.0000     -18.989345      -516.7263
   8   2.0000     -18.985222      -516.6142
   9   2.0000     -18.982333      -516.5355
  10   2.0000     -10.108745      -275.0729
  11   2.0000     -10.102063      -274.8911
  12   2.0000     -10.097744      -274.7736
  13   2.0000     -10.096558      -274.7413
  14   2.0000     -10.092506      -274.6310
  15   2.0000     -10.028727      -272.8955
  16   2.0000     -10.026443      -272.8334
  17   2.0000     -10.022044      -272.7137
  18   2.0000     -10.018244      -272.6103
  19   2.0000      -7.872139      -214.2118
  20   2.0000      -7.870946      -214.1793
  21   2.0000      -7.816719      -212.7037
  22   2.0000      -7.812430      -212.5870
  23   2.0000      -6.592513      -179.3914
  24   2.0000      -6.591183      -179.3552
  25   2.0000      -5.819004      -158.3432
  26   2.0000      -5.817871      -158.3123
  27   2.0000      -5.815903      -158.2588
  28   2.0000      -5.814872      -158.2307
  29   2.0000      -5.809317      -158.0796
  30   2.0000      -5.807889      -158.0407
  31   2.0000      -5.764352      -156.8560
  32   2.0000      -5.760123      -156.7409
  33   2.0000      -5.757107      -156.6588
  34   2.0000      -5.756642      -156.6462
  35   2.0000      -5.752828      -156.5424
  36   2.0000      -5.752270      -156.5272
  37   2.0000      -4.737961      -128.9265
  38   2.0000      -4.737362      -128.9102
  39   2.0000      -4.736701      -128.8922
  40   2.0000      -4.736387      -128.8837
  41   2.0000      -4.736224      -128.8792
  42   2.0000      -4.734842      -128.8416
  43   2.0000      -1.047943       -28.5160
  44   2.0000      -1.044854       -28.4319
  45   2.0000      -1.007819       -27.4242
  46   2.0000      -1.004234       -27.3266
  47   2.0000      -0.804748       -21.8983
  48   2.0000      -0.757239       -20.6055
  49   2.0000      -0.747374       -20.3371
  50   2.0000      -0.728892       -19.8342
  51   2.0000      -0.726152       -19.7596
  52   2.0000      -0.709953       -19.3188
  53   2.0000      -0.685882       -18.6638
  54   2.0000      -0.670965       -18.2579
  55   2.0000      -0.631258       -17.1774
  56   2.0000      -0.620968       -16.8974
  57   2.0000      -0.607654       -16.5351
  58   2.0000      -0.602939       -16.4068
  59   2.0000      -0.587922       -15.9982
  60   2.0000      -0.525467       -14.2987
  61   2.0000      -0.521526       -14.1914
  62   2.0000      -0.489334       -13.3154
  63   2.0000      -0.484980       -13.1970
  64   2.0000      -0.476889       -12.9768
  65   2.0000      -0.457554       -12.4507
  66   2.0000      -0.456078       -12.4105
  67   2.0000      -0.450527       -12.2595
  68   2.0000      -0.446083       -12.1385
  69   2.0000      -0.434847       -11.8328
  70   2.0000      -0.428581       -11.6623
  71   2.0000      -0.413263       -11.2454
  72   2.0000      -0.409485       -11.1427
  73   2.0000      -0.398509       -10.8440
  74   2.0000      -0.395522       -10.7627
  75   2.0000      -0.387880       -10.5547
  76   2.0000      -0.383460       -10.4345
  77   2.0000      -0.369687       -10.0597
  78   2.0000      -0.366380        -9.9697
  79   2.0000      -0.362244        -9.8571
  80   2.0000      -0.359322        -9.7776
  81   2.0000      -0.355830        -9.6826
  82   2.0000      -0.353267        -9.6129
  83   2.0000      -0.350857        -9.5473
  84   2.0000      -0.350662        -9.5420
  85   2.0000      -0.330141        -8.9836
  86   2.0000      -0.314385        -8.5549
  87   2.0000      -0.311792        -8.4843
  88   2.0000      -0.310115        -8.4387
  89   2.0000      -0.304261        -8.2794
  90   2.0000      -0.293856        -7.9962
  91   2.0000      -0.292693        -7.9646
  92   2.0000      -0.284833        -7.7507
  93   2.0000      -0.279040        -7.5931
  94   2.0000      -0.271048        -7.3756
  95   2.0000      -0.243869        -6.6360
  96   2.0000      -0.231198        -6.2912
  97   2.0000      -0.226677        -6.1682
  98   2.0000      -0.219257        -5.9663
  99   2.0000      -0.212491        -5.7822
 100   2.0000      -0.211151        -5.7457
 101   0.0000      -0.049491        -1.3467
 102   0.0000      -0.027346        -0.7441
 103   0.0000      -0.002979        -0.0811
 104   0.0000      -0.001167        -0.0318
 105   0.0000       0.008447         0.2298

MULLIKEN ATOMIC CHARGES
-----------------------
   0 C :   -0.447250
   1 C :   -0.155175
   2 O :   -0.296573
   3 P :    0.671743
   4 S :   -0.476878
   5 O :   -0.256385
   6 C :   -0.121556
   7 C :   -0.477527
   8 S :   -0.102285
   9 C :   -0.256471
  10 S :   -0.121765
  11 P :    0.654665
  12 S :   -0.467609
  13 O :   -0.282146
  14 C :   -0.157449
  15 C :   -0.427004
  16 O :   -0.255817
  17 C :   -0.126456
  18 C :   -0.472302
  19 H :    0.155799
  20 H :    0.173467
  21 H :    0.148100
  22 H :    0.173238
  23 H :    0.147763
  24 H :    0.147737
  25 H :    0.155133
  26 H :    0.177134
  27 H :    0.166666
  28 H :    0.141432
  29 H :    0.208359
  30 H :    0.210608
  31 H :    0.149276
  32 H :    0.152603
  33 H :    0.166214
  34 H :    0.146492
  35 H :    0.166247
  36 H :    0.145738
  37 H :    0.162715
  38 H :    0.163860
  39 H :    0.140090
  40 H :    0.175568
Sum of atomic charges:   -0.0000000

LOEWDIN ATOMIC CHARGES
----------------------
   0 C :   -0.406611
   1 C :    0.018400
   2 O :   -0.661138
   3 P :    0.376028
   4 S :   -0.129128
   5 O :   -0.673598
   6 C :    0.027260
   7 C :   -0.403015
   8 S :    0.184062
   9 C :   -0.417993
  10 S :    0.176930
  11 P :    0.382930
  12 S :   -0.130092
  13 O :   -0.659143
  14 C :    0.022650
  15 C :   -0.408106
  16 O :   -0.662840
  17 C :    0.024622
  18 C :   -0.405918
  19 H :    0.160382
  20 H :    0.164429
  21 H :    0.159219
  22 H :    0.179785
  23 H :    0.179213
  24 H :    0.176996
  25 H :    0.176555
  26 H :    0.166171
  27 H :    0.164476
  28 H :    0.155801
  29 H :    0.191731
  30 H :    0.188651
  31 H :    0.181263
  32 H :    0.171458
  33 H :    0.165815
  34 H :    0.157737
  35 H :    0.164917
  36 H :    0.175829
  37 H :    0.178818
  38 H :    0.164605
  39 H :    0.155251
  40 H :    0.165595

  Mayer bond orders larger than 0.100000
B(  0-C ,  1-C ) :   0.9224 B(  0-C , 19-H ) :   0.9683 B(  0-C , 20-H ) :   0.9633
B(  0-C , 21-H ) :   0.9593 B(  1-C ,  2-O ) :   0.8179 B(  1-C , 22-H ) :   0.9674
B(  1-C , 23-H ) :   0.9584 B(  2-O ,  3-P ) :   1.0614 B(  3-P ,  4-S ) :   1.7495
B(  3-P ,  5-O ) :   1.1510 B(  3-P ,  8-S ) :   1.0988 B(  5-O ,  6-C ) :   0.7603
B(  6-C ,  7-C ) :   0.9433 B(  6-C , 24-H ) :   0.9608 B(  6-C , 25-H ) :   0.9640
B(  7-C , 26-H ) :   0.9637 B(  7-C , 27-H ) :   0.9688 B(  7-C , 28-H ) :   0.9633
B(  8-S ,  9-C ) :   0.9000 B(  9-C , 10-S ) :   0.9028 B(  9-C , 29-H ) :   0.9095
B(  9-C , 30-H ) :   0.9131 B( 10-S , 11-P ) :   1.0599 B( 11-P , 12-S ) :   1.7715
B( 11-P , 13-O ) :   1.0893 B( 11-P , 16-O ) :   1.1424 B( 13-O , 14-C ) :   0.8112
B( 14-C , 15-C ) :   0.9378 B( 14-C , 31-H ) :   0.9586 B( 14-C , 32-H ) :   0.9646
B( 15-C , 33-H ) :   0.9655 B( 15-C , 34-H ) :   0.9618 B( 15-C , 35-H ) :   0.9556
B( 16-O , 17-C ) :   0.7649 B( 17-C , 18-C ) :   0.9437 B( 17-C , 36-H ) :   0.9600
B( 17-C , 37-H ) :   0.9652 B( 18-C , 38-H ) :   0.9679 B( 18-C , 39-H ) :   0.9636
B( 18-C , 40-H ) :   0.9639

Dispersion correction           -0.022468811
FINAL SINGLE POINT ENERGY     -2932.459996922295

DIPOLE MOMENT
-------------

Method             : SCF
Type of density    : Electron Density
Multiplicity       :   1
Irrep              :   0
Energy             : -2932.4839023798072049 Eh
Relativity type    :
Basis              : AO
                                X                 Y                 Z
Electronic contribution:      0.529859824       5.079331043      -3.864163527
Nuclear contribution   :     -0.368609369      -5.551421847       4.486973138
                        -----------------------------------------
Total Dipole Moment    :      0.161250455      -0.472090804       0.622809612
                        -----------------------------------------
Magnitude (a.u.)       :      0.797974467
Magnitude (Debye)      :      2.028289903

Rotational constants in cm-1:             0.012760             0.005364             0.005109
Rotational constants in MHz :           382.525752           160.811289           153.158234

                             ****ORCA TERMINATED NORMALLY****
TOTAL RUN TIME: 0 days 0 hours 1 minutes 27 seconds 283 msec
