                         Program Version 6.0.0  -   RELEASE  -
|  1> ! r2scan-3c def2/J RI DEFGRID2 scfconv6 printgap
|  2> %output
|  3>     printlevel normal
|  4> end
|  5> %cpcm
|  6>     smd true
|  7>     smdsolvent "water"
|  8> end
|  9> * xyz 0 1
| 10> C 3.9519133584 -1.1860623724 -2.7122456636
| 11> C 4.2585521699 -1.5642065089 -1.277559279
| 12> O 3.0638968417 -1.701813957 -0.4887992576
| 13> P 2.1535007531 -0.4576261025 -0.0894401459
| 14> S 3.172774574 1.1572919449 0.3699790624
| 15> O 1.2658496744 -1.1048222325 1.0524045203
| 16> C 1.6844933475 -1.1399033972 2.4348220932
| 17> C 0.9350670379 -0.0935541701 3.2358333117
| 18> S 0.7211276275 -0.3289683352 -1.6265664642
| 19> C 0.1789689354 1.3719267159 -1.2975856081
| 20> S -0.4754837399 1.6050498113 0.3731206344
| 21> P -2.1923027584 0.3913065299 0.182752493
| 22> S -3.0489852071 0.3003339358 -1.5825852437
| 23> O -3.0995440034 0.8713453141 1.3992600994
| 24> C -3.4846132117 2.2292313833 1.6842840872
| 25> C -4.078249011 2.9428353531 0.4874672202
| 26> O -1.7182913436 -1.0068870611 0.7582099957
| 27> C -2.2846700838 -2.2738807326 0.3607392263
| 28> C -1.3628662752 -3.0021928853 -0.597399413
| 29> H 3.2308370331 -1.8780837653 -3.1399262754
| 30> H 3.5372910397 -0.1796452492 -2.7515980852
| 31> H 4.867517163 -1.21235198 -3.2942787747
| 32> H 4.8966063639 -0.8083978797 -0.8081201355
| 33> H 4.7315902903 -2.5447228004 -1.2100950691
| 34> H 1.4483031967 -2.1491747471 2.7760372469
| 35> H 2.7647349188 -0.9765627979 2.4902888833
| 36> H 1.2154025086 0.9047622903 2.9056551867
| 37> H -0.1362849468 -0.2184863323 3.0960859284
| 38> H 1.1784019915 -0.2033345692 4.2877038487
| 39> H -0.5958895594 1.589521269 -2.0324697384
| 40> H 1.0232263705 2.0536594832 -1.3900166362
| 41> H -4.2153480973 2.1237391251 2.4882868826
| 42> H -2.6026824416 2.7605355427 2.0529285597
| 43> H -4.9072076427 2.371376369 0.0764647569
| 44> H -4.4332320144 3.9217539022 0.7932686655
| 45> H -3.325271289 3.0658741636 -0.2896730623
| 46> H -2.4079252669 -2.8264588832 1.2936443874
| 47> H -3.2627190996 -2.1032185258 -0.0983482301
| 48> H -0.3583002202 -3.0521737416 -0.1841981413
| 49> H -1.7382405537 -4.007731737 -0.7578463458
| 50> H -1.3215622663 -2.4805233614 -1.5512920822
| 51> *
| 52>
| 53>                          ****END OF INPUT****

CARTESIAN COORDINATES (ANGSTROEM)
---------------------------------
  C      3.951913   -1.186062   -2.712246
  C      4.258552   -1.564207   -1.277559
  O      3.063897   -1.701814   -0.488799
  P      2.153501   -0.457626   -0.089440
  S      3.172775    1.157292    0.369979
  O      1.265850   -1.104822    1.052405
  C      1.684493   -1.139903    2.434822
  C      0.935067   -0.093554    3.235833
  S      0.721128   -0.328968   -1.626566
  C      0.178969    1.371927   -1.297586
  S     -0.475484    1.605050    0.373121
  P     -2.192303    0.391307    0.182752
  S     -3.048985    0.300334   -1.582585
  O     -3.099544    0.871345    1.399260
  C     -3.484613    2.229231    1.684284
  C     -4.078249    2.942835    0.487467
  O     -1.718291   -1.006887    0.758210
  C     -2.284670   -2.273881    0.360739
  C     -1.362866   -3.002193   -0.597399
  H      3.230837   -1.878084   -3.139926
  H      3.537291   -0.179645   -2.751598
  H      4.867517   -1.212352   -3.294279
  H      4.896606   -0.808398   -0.808120
  H      4.731590   -2.544723   -1.210095
  H      1.448303   -2.149175    2.776037
  H      2.764735   -0.976563    2.490289
  H      1.215403    0.904762    2.905655
  H     -0.136285   -0.218486    3.096086
  H      1.178402   -0.203335    4.287704
  H     -0.595890    1.589521   -2.032470
  H      1.023226    2.053659   -1.390017
  H     -4.215348    2.123739    2.488287
  H     -2.602682    2.760536    2.052929
  H     -4.907208    2.371376    0.076465
  H     -4.433232    3.921754    0.793269
  H     -3.325271    3.065874   -0.289673
  H     -2.407925   -2.826459    1.293644
  H     -3.262719   -2.103219   -0.098348
  H     -0.358300   -3.052174   -0.184198
  H     -1.738241   -4.007732   -0.757846
  H     -1.321562   -2.480523   -1.551292

 Total Charge           Charge          ....    0
 Multiplicity           Mult            ....    1
 Number of Electrons    NEL             ....  202
 Basis Dimension        Dim             ....  539

ORBITAL ENERGIES
----------------

  NO   OCC          E(Eh)            E(eV)
   0   2.0000     -88.580225     -2410.3905
   1   2.0000     -88.578721     -2410.3495
   2   2.0000     -88.527739     -2408.9622
   3   2.0000     -88.525014     -2408.8881
   4   2.0000     -76.918779     -2093.0664
   5   2.0000     -76.918387     -2093.0557
   6   2.0000     -18.994213      -516.8588
   7   2.0000     -18.992566      -516.8140
   8   2.0000     -18.988906      -516.7144
   9   2.0000     -18.988261      -516.6969
  10   2.0000     -10.106460      -275.0108
  11   2.0000     -10.091781      -274.6113
  12   2.0000     -10.089164      -274.5401
  13   2.0000     -10.088516      -274.5225
  14   2.0000     -10.087892      -274.5055
  15   2.0000     -10.018179      -272.6085
  16   2.0000     -10.017910      -272.6012
  17   2.0000     -10.015704      -272.5412
  18   2.0000     -10.014357      -272.5045
  19   2.0000      -7.874655      -214.2802
  20   2.0000      -7.873262      -214.2424
  21   2.0000      -7.822769      -212.8684
  22   2.0000      -7.820172      -212.7977
  23   2.0000      -6.596947      -179.5120
  24   2.0000      -6.596893      -179.5106
  25   2.0000      -5.821534      -158.4120
  26   2.0000      -5.820185      -158.3753
  27   2.0000      -5.818412      -158.3270
  28   2.0000      -5.817177      -158.2934
  29   2.0000      -5.811834      -158.1480
  30   2.0000      -5.810224      -158.1042
  31   2.0000      -5.770355      -157.0193
  32   2.0000      -5.767806      -156.9500
  33   2.0000      -5.763146      -156.8232
  34   2.0000      -5.762699      -156.8110
  35   2.0000      -5.760561      -156.7528
  36   2.0000      -5.760025      -156.7382
  37   2.0000      -4.742429      -129.0480
  38   2.0000      -4.742304      -129.0447
  39   2.0000      -4.742003      -129.0365
  40   2.0000      -4.741757      -129.0298
  41   2.0000      -4.740810      -129.0040
  42   2.0000      -4.740646      -128.9995
  43   2.0000      -1.050530       -28.5864
  44   2.0000      -1.048883       -28.5416
  45   2.0000      -1.009966       -27.4826
  46   2.0000      -1.007891       -27.4261
  47   2.0000      -0.805604       -21.9216
  48   2.0000      -0.755585       -20.5605
  49   2.0000      -0.742959       -20.2169
  50   2.0000      -0.721862       -19.6429
  51   2.0000      -0.720467       -19.6049
  52   2.0000      -0.709685       -19.3115
  53   2.0000      -0.689240       -18.7552
  54   2.0000      -0.675752       -18.3882
  55   2.0000      -0.631093       -17.1729
  56   2.0000      -0.618892       -16.8409
  57   2.0000      -0.603193       -16.4137
  58   2.0000      -0.598710       -16.2917
  59   2.0000      -0.585795       -15.9403
  60   2.0000      -0.522020       -14.2049
  61   2.0000      -0.519130       -14.1262
  62   2.0000      -0.487004       -13.2521
  63   2.0000      -0.483626       -13.1601
  64   2.0000      -0.475843       -12.9484
  65   2.0000      -0.454493       -12.3674
  66   2.0000      -0.453080       -12.3289
  67   2.0000      -0.449256       -12.2249
  68   2.0000      -0.442566       -12.0428
  69   2.0000      -0.432142       -11.7592
  70   2.0000      -0.424977       -11.5642
  71   2.0000      -0.412152       -11.2152
  72   2.0000      -0.406940       -11.0734
  73   2.0000      -0.397540       -10.8176
  74   2.0000      -0.392896       -10.6913
  75   2.0000      -0.387860       -10.5542
  76   2.0000      -0.382086       -10.3971
  77   2.0000      -0.367372        -9.9967
  78   2.0000      -0.362638        -9.8679
  79   2.0000      -0.356688        -9.7060
  80   2.0000      -0.353688        -9.6243
  81   2.0000      -0.350392        -9.5347
  82   2.0000      -0.349291        -9.5047
  83   2.0000      -0.347985        -9.4692
  84   2.0000      -0.346239        -9.4216
  85   2.0000      -0.329605        -8.9690
  86   2.0000      -0.312613        -8.5066
  87   2.0000      -0.309751        -8.4288
  88   2.0000      -0.305599        -8.3158
  89   2.0000      -0.303686        -8.2637
  90   2.0000      -0.293473        -7.9858
  91   2.0000      -0.293089        -7.9753
  92   2.0000      -0.285960        -7.7814
  93   2.0000      -0.279376        -7.6022
  94   2.0000      -0.272831        -7.4241
  95   2.0000      -0.246251        -6.7008
  96   2.0000      -0.235145        -6.3986
  97   2.0000      -0.233468        -6.3530
  98   2.0000      -0.225174        -6.1273
  99   2.0000      -0.219256        -5.9663
 100   2.0000      -0.218432        -5.9438
 101   0.0000      -0.052885        -1.4391
 102   0.0000      -0.032442        -0.8828
 103   0.0000      -0.006121        -0.1666
 104   0.0000      -0.004985        -0.1356
 105   0.0000       0.008258         0.2247

MULLIKEN ATOMIC CHARGES
-----------------------
   0 C :   -0.483660
   1 C :   -0.155079
   2 O :   -0.325800
   3 P :    0.707295
   4 S :   -0.520021
   5 O :   -0.285328
   6 C :   -0.130287
   7 C :   -0.498684
   8 S :   -0.112554
   9 C :   -0.268000
  10 S :   -0.126558
  11 P :    0.691690
  12 S :   -0.513342
  13 O :   -0.317809
  14 C :   -0.158649
  15 C :   -0.466195
  16 O :   -0.289060
  17 C :   -0.127973
  18 C :   -0.496972
  19 H :    0.168835
  20 H :    0.171299
  21 H :    0.172497
  22 H :    0.177739
  23 H :    0.174171
  24 H :    0.174890
  25 H :    0.168863
  26 H :    0.171292
  27 H :    0.165845
  28 H :    0.167151
  29 H :    0.229062
  30 H :    0.235840
  31 H :    0.175390
  32 H :    0.172496
  33 H :    0.169826
  34 H :    0.172498
  35 H :    0.165968
  36 H :    0.172830
  37 H :    0.169829
  38 H :    0.164648
  39 H :    0.165540
  40 H :    0.170478
Sum of atomic charges:   -0.0000000

LOEWDIN ATOMIC CHARGES
----------------------
   0 C :   -0.409872
   1 C :    0.023511
   2 O :   -0.673679
   3 P :    0.381384
   4 S :   -0.155331
   5 O :   -0.690737
   6 C :    0.030769
   7 C :   -0.405017
   8 S :    0.179366
   9 C :   -0.410491
  10 S :    0.177285
  11 P :    0.387479
  12 S :   -0.159193
  13 O :   -0.674311
  14 C :    0.028548
  15 C :   -0.411647
  16 O :   -0.680861
  17 C :    0.028315
  18 C :   -0.408428
  19 H :    0.163487
  20 H :    0.161189
  21 H :    0.168114
  22 H :    0.181240
  23 H :    0.190315
  24 H :    0.188013
  25 H :    0.181219
  26 H :    0.162335
  27 H :    0.163200
  28 H :    0.165117
  29 H :    0.198420
  30 H :    0.196842
  31 H :    0.192242
  32 H :    0.179143
  33 H :    0.164105
  34 H :    0.167588
  35 H :    0.161690
  36 H :    0.187040
  37 H :    0.181523
  38 H :    0.163769
  39 H :    0.164496
  40 H :    0.161826

  Mayer bond orders larger than 0.100000
B(  0-C ,  1-C ) :   0.9110 B(  0-C , 19-H ) :   0.9658 B(  0-C , 20-H ) :   0.9637
B(  0-C , 21-H ) :   0.9540 B(  1-C ,  2-O ) :   0.8061 B(  1-C , 22-H ) :   0.9654
B(  1-C , 23-H ) :   0.9489 B(  2-O ,  3-P ) :   1.0683 B(  3-P ,  4-S ) :   1.7121
B(  3-P ,  5-O ) :   1.1543 B(  3-P ,  8-S ) :   1.1094 B(  5-O ,  6-C ) :   0.7470
B(  6-C ,  7-C ) :   0.9336 B(  6-C , 24-H ) :   0.9507 B(  6-C , 25-H ) :   0.9602
B(  7-C , 26-H ) :   0.9658 B(  7-C , 27-H ) :   0.9671 B(  7-C , 28-H ) :   0.9592
B(  8-S ,  9-C ) :   0.8909 B(  9-C , 10-S ) :   0.8927 B(  9-C , 29-H ) :   0.9041
B(  9-C , 30-H ) :   0.9057 B( 10-S , 11-P ) :   1.0759 B( 11-P , 12-S ) :   1.7339
B( 11-P , 13-O ) :   1.0950 B( 11-P , 16-O ) :   1.1416 B( 13-O , 14-C ) :   0.8020
B( 14-C , 15-C ) :   0.9202 B( 14-C , 31-H ) :   0.9490 B( 14-C , 32-H ) :   0.9594
B( 15-C , 33-H ) :   0.9663 B( 15-C , 34-H ) :   0.9559 B( 15-C , 35-H ) :   0.9575
B( 16-O , 17-C ) :   0.7544 B( 17-C , 18-C ) :   0.9353 B( 17-C , 36-H ) :   0.9501
B( 17-C , 37-H ) :   0.9623 B( 18-C , 38-H ) :   0.9662 B( 18-C , 39-H ) :   0.9593
B( 18-C , 40-H ) :   0.9655

Dispersion correction           -0.022468811
FINAL SINGLE POINT ENERGY     -2932.467515506170

DIPOLE MOMENT
-------------

Method             : SCF
Type of density    : Electron Density
Multiplicity       :   1
Irrep              :   0
Energy             : -2932.4914209636831401 Eh
Relativity type    :
Basis              : AO
                                X                 Y                 Z
Electronic contribution:      0.644323867       5.020027964      -3.677886975
Nuclear contribution   :     -0.368609369      -5.551421847       4.486973138
                        -----------------------------------------
Total Dipole Moment    :      0.275714498      -0.531393883       0.809086164
                        -----------------------------------------
Magnitude (a.u.)       :      1.006488134
Magnitude (Debye)      :      2.558289526

Rotational constants in cm-1:             0.012760             0.005364             0.005109
Rotational constants in MHz :           382.525752           160.811289           153.158234

                             ****ORCA TERMINATED NORMALLY****
TOTAL RUN TIME: 0 days 0 hours 2 minutes 0 seconds 728 msec
