                         Program Version 6.0.0  -   RELEASE  -
|  1> ! pbe def2-sv(p) def2/J RI DEFGRID1 loosescf d4 GCP(DFT/SV(P)) printgap
|  2> %output
|  3>     printlevel normal
|  4> end
|  5> * xyz 0 1
|  6> C 1.8144621102 0.0816076944 3.3412867086
|  7> C 1.1949259223 -0.7049310857 2.2038231875
|  8> O 1.8794055572 -0.336078036 0.9939224675
|  9> P 1.9569321753 -1.2697248141 -0.2920517133
| 10> S 2.1188010257 -3.184130464 0.0814190229
| 11> O 3.1279280654 -0.5859553161 -1.1115843904
| 12> C 4.5022678232 -1.000737673 -0.956992974
| 13> C 5.0349983007 -0.6895446856 0.4253562299
| 14> S 0.3278157184 -0.7123572634 -1.5207019354
| 15> C 0.5238156156 1.0950920973 -1.467790951
| 16> S -0.0775648585 1.8479915357 0.0689351759
| 17> P -2.0509503611 1.1104451625 -0.0444257932
| 18> S -2.8375737069 0.9980741826 -1.8419556709
| 19> O -2.8150758755 1.9951632101 1.0304801223
| 20> C -3.0532411653 3.4085960326 0.866047406
| 21> C -4.3612511082 3.6668794331 0.1436426229
| 22> O -1.9717217568 -0.2528769788 0.7607208645
| 23> C -2.7300005257 -1.4343195786 0.4228693934
| 24> C -1.9530277403 -2.652532483 0.8778317251
| 25> H 1.7295112353 1.1457333233 3.1389542594
| 26> H 1.2903673578 -0.1530704346 4.2618379401
| 27> H 2.8641200185 -0.1759855777 3.4505732325
| 28> H 0.1348586272 -0.4608358218 2.089805544
| 29> H 1.300887398 -1.7854712598 2.3494990504
| 30> H 4.5630865339 -2.0738780276 -1.162379628
| 31> H 5.0293051228 -0.4434820836 -1.7325644441
| 32> H 4.8780204016 0.3593890935 0.6628609825
| 33> H 4.5196508134 -1.3017723315 1.1642537112
| 34> H 6.0963587929 -0.9146935937 0.4604266422
| 35> H -0.0633239166 1.4728240471 -2.3041113613
| 36> H 1.5739365442 1.3553056266 -1.5649526358
| 37> H -3.0804632503 3.7954056748 1.8864367387
| 38> H -2.2113056486 3.8547867197 0.3292068564
| 39> H -5.1817629656 3.1933849901 0.675570831
| 40> H -4.5360500694 4.7367081404 0.0925899793
| 41> H -4.3229391468 3.2647420624 -0.8662363693
| 42> H -3.6920409509 -1.3659965586 0.9355277536
| 43> H -2.8979384348 -1.4472174965 -0.6594027354
| 44> H -2.5300053311 -3.543697391 0.6539397081
| 45> H -0.9984027791 -2.7162760064 0.3586753054
| 46> H -1.76880759 -2.6033471163 1.9472660893
| 47> *
| 48>
| 49>                          ****END OF INPUT****

CARTESIAN COORDINATES (ANGSTROEM)
---------------------------------
  C      1.814462    0.081608    3.341287
  C      1.194926   -0.704931    2.203823
  O      1.879406   -0.336078    0.993922
  P      1.956932   -1.269725   -0.292052
  S      2.118801   -3.184130    0.081419
  O      3.127928   -0.585955   -1.111584
  C      4.502268   -1.000738   -0.956993
  C      5.034998   -0.689545    0.425356
  S      0.327816   -0.712357   -1.520702
  C      0.523816    1.095092   -1.467791
  S     -0.077565    1.847992    0.068935
  P     -2.050950    1.110445   -0.044426
  S     -2.837574    0.998074   -1.841956
  O     -2.815076    1.995163    1.030480
  C     -3.053241    3.408596    0.866047
  C     -4.361251    3.666879    0.143643
  O     -1.971722   -0.252877    0.760721
  C     -2.730001   -1.434320    0.422869
  C     -1.953028   -2.652532    0.877832
  H      1.729511    1.145733    3.138954
  H      1.290367   -0.153070    4.261838
  H      2.864120   -0.175986    3.450573
  H      0.134859   -0.460836    2.089806
  H      1.300887   -1.785471    2.349499
  H      4.563087   -2.073878   -1.162380
  H      5.029305   -0.443482   -1.732564
  H      4.878020    0.359389    0.662861
  H      4.519651   -1.301772    1.164254
  H      6.096359   -0.914694    0.460427
  H     -0.063324    1.472824   -2.304111
  H      1.573937    1.355306   -1.564953
  H     -3.080463    3.795406    1.886437
  H     -2.211306    3.854787    0.329207
  H     -5.181763    3.193385    0.675571
  H     -4.536050    4.736708    0.092590
  H     -4.322939    3.264742   -0.866236
  H     -3.692041   -1.365997    0.935528
  H     -2.897938   -1.447217   -0.659403
  H     -2.530005   -3.543697    0.653940
  H     -0.998403   -2.716276    0.358675
  H     -1.768808   -2.603347    1.947266

 Total Charge           Charge          ....    0
 Multiplicity           Mult            ....    1
 Number of Electrons    NEL             ....  202
 Basis Dimension        Dim             ....  334

ORBITAL ENERGIES
----------------

  NO   OCC          E(Eh)            E(eV)
   0   2.0000     -88.046402     -2395.8644
   1   2.0000     -88.042429     -2395.7563
   2   2.0000     -87.991158     -2394.3611
   3   2.0000     -87.990882     -2394.3536
   4   2.0000     -76.430372     -2079.7762
   5   2.0000     -76.427113     -2079.6875
   6   2.0000     -18.795533      -511.4525
   7   2.0000     -18.795492      -511.4513
   8   2.0000     -18.791518      -511.3432
   9   2.0000     -18.791222      -511.3351
  10   2.0000      -9.959290      -271.0061
  11   2.0000      -9.957819      -270.9660
  12   2.0000      -9.956177      -270.9214
  13   2.0000      -9.947541      -270.6863
  14   2.0000      -9.945024      -270.6179
  15   2.0000      -9.887589      -269.0550
  16   2.0000      -9.884408      -268.9684
  17   2.0000      -9.882871      -268.9266
  18   2.0000      -9.877735      -268.7868
  19   2.0000      -7.691565      -209.2981
  20   2.0000      -7.687226      -209.1800
  21   2.0000      -7.636054      -207.7876
  22   2.0000      -7.635900      -207.7834
  23   2.0000      -6.427576      -174.9032
  24   2.0000      -6.424953      -174.8318
  25   2.0000      -5.719346      -155.6313
  26   2.0000      -5.716010      -155.5405
  27   2.0000      -5.715469      -155.5258
  28   2.0000      -5.711576      -155.4199
  29   2.0000      -5.708628      -155.3397
  30   2.0000      -5.704022      -155.2143
  31   2.0000      -5.664857      -154.1486
  32   2.0000      -5.664750      -154.1457
  33   2.0000      -5.656626      -153.9246
  34   2.0000      -5.656570      -153.9231
  35   2.0000      -5.656460      -153.9201
  36   2.0000      -5.656036      -153.9086
  37   2.0000      -4.649927      -126.5310
  38   2.0000      -4.649462      -126.5183
  39   2.0000      -4.648168      -126.4831
  40   2.0000      -4.647300      -126.4595
  41   2.0000      -4.646934      -126.4495
  42   2.0000      -4.645407      -126.4079
  43   2.0000      -0.988608       -26.9014
  44   2.0000      -0.987989       -26.8846
  45   2.0000      -0.946594       -25.7581
  46   2.0000      -0.945682       -25.7333
  47   2.0000      -0.766708       -20.8632
  48   2.0000      -0.725119       -19.7315
  49   2.0000      -0.710451       -19.3324
  50   2.0000      -0.688909       -18.7462
  51   2.0000      -0.685151       -18.6439
  52   2.0000      -0.673321       -18.3220
  53   2.0000      -0.654841       -17.8191
  54   2.0000      -0.641277       -17.4500
  55   2.0000      -0.599717       -16.3191
  56   2.0000      -0.593986       -16.1632
  57   2.0000      -0.574436       -15.6312
  58   2.0000      -0.564909       -15.3720
  59   2.0000      -0.559063       -15.2129
  60   2.0000      -0.508318       -13.8320
  61   2.0000      -0.499938       -13.6040
  62   2.0000      -0.479868       -13.0579
  63   2.0000      -0.479313       -13.0428
  64   2.0000      -0.462514       -12.5857
  65   2.0000      -0.443485       -12.0678
  66   2.0000      -0.435111       -11.8400
  67   2.0000      -0.432648       -11.7730
  68   2.0000      -0.426329       -11.6010
  69   2.0000      -0.416650       -11.3376
  70   2.0000      -0.411844       -11.2068
  71   2.0000      -0.402519       -10.9531
  72   2.0000      -0.400322       -10.8933
  73   2.0000      -0.385886       -10.5005
  74   2.0000      -0.380451       -10.3526
  75   2.0000      -0.372880       -10.1466
  76   2.0000      -0.365848        -9.9552
  77   2.0000      -0.356380        -9.6976
  78   2.0000      -0.353117        -9.6088
  79   2.0000      -0.352145        -9.5824
  80   2.0000      -0.349409        -9.5079
  81   2.0000      -0.344238        -9.3672
  82   2.0000      -0.340632        -9.2691
  83   2.0000      -0.335836        -9.1386
  84   2.0000      -0.331771        -9.0279
  85   2.0000      -0.322853        -8.7853
  86   2.0000      -0.314653        -8.5622
  87   2.0000      -0.300216        -8.1693
  88   2.0000      -0.296558        -8.0698
  89   2.0000      -0.292255        -7.9527
  90   2.0000      -0.288079        -7.8390
  91   2.0000      -0.278737        -7.5848
  92   2.0000      -0.274274        -7.4634
  93   2.0000      -0.268438        -7.3046
  94   2.0000      -0.256886        -6.9902
  95   2.0000      -0.233683        -6.3588
  96   2.0000      -0.219302        -5.9675
  97   2.0000      -0.211438        -5.7535
  98   2.0000      -0.209060        -5.6888
  99   2.0000      -0.205768        -5.5992
 100   2.0000      -0.203907        -5.5486
 101   0.0000      -0.044983        -1.2241
 102   0.0000      -0.020558        -0.5594
 103   0.0000      -0.011763        -0.3201
 104   0.0000       0.000186         0.0051
 105   0.0000       0.007254         0.1974

MULLIKEN ATOMIC CHARGES
-----------------------
   0 C :   -0.282062
   1 C :   -0.035638
   2 O :   -0.377416
   3 P :    0.614786
   4 S :   -0.316692
   5 O :   -0.380288
   6 C :   -0.003383
   7 C :   -0.313447
   8 S :   -0.064495
   9 C :   -0.357635
  10 S :   -0.083441
  11 P :    0.609824
  12 S :   -0.330287
  13 O :   -0.366583
  14 C :   -0.012479
  15 C :   -0.294377
  16 O :   -0.364202
  17 C :   -0.006364
  18 C :   -0.299187
  19 H :    0.113544
  20 H :    0.109388
  21 H :    0.113495
  22 H :    0.125248
  23 H :    0.107392
  24 H :    0.115051
  25 H :    0.106814
  26 H :    0.117456
  27 H :    0.127040
  28 H :    0.113837
  29 H :    0.196383
  30 H :    0.188429
  31 H :    0.108101
  32 H :    0.102109
  33 H :    0.114200
  34 H :    0.107868
  35 H :    0.131115
  36 H :    0.101017
  37 H :    0.117026
  38 H :    0.110419
  39 H :    0.125909
  40 H :    0.111524
Sum of atomic charges:    0.0000000

LOEWDIN ATOMIC CHARGES
----------------------
   0 C :   -0.350144
   1 C :   -0.130348
   2 O :   -0.243898
   3 P :    0.566555
   4 S :   -0.314655
   5 O :   -0.247759
   6 C :   -0.114318
   7 C :   -0.366563
   8 S :    0.101342
   9 C :   -0.476961
  10 S :    0.089108
  11 P :    0.565368
  12 S :   -0.314289
  13 O :   -0.244669
  14 C :   -0.116269
  15 C :   -0.364131
  16 O :   -0.239191
  17 C :   -0.116434
  18 C :   -0.356983
  19 H :    0.125008
  20 H :    0.129814
  21 H :    0.123747
  22 H :    0.109198
  23 H :    0.105499
  24 H :    0.113774
  25 H :    0.119545
  26 H :    0.126284
  27 H :    0.122406
  28 H :    0.131355
  29 H :    0.134900
  30 H :    0.135335
  31 H :    0.119355
  32 H :    0.105486
  33 H :    0.126462
  34 H :    0.128907
  35 H :    0.124523
  36 H :    0.112208
  37 H :    0.108791
  38 H :    0.131058
  39 H :    0.117861
  40 H :    0.122725

  Mayer bond orders larger than 0.100000
B(  0-C ,  1-C ) :   1.1613 B(  0-C , 19-H ) :   0.9493 B(  0-C , 20-H ) :   0.9423
B(  0-C , 21-H ) :   0.9509 B(  1-C ,  2-O ) :   0.8928 B(  1-C , 22-H ) :   0.9056
B(  1-C , 23-H ) :   0.9093 B(  2-O ,  3-P ) :   1.0986 B(  3-P ,  4-S ) :   1.6326
B(  3-P ,  5-O ) :   1.1029 B(  3-P ,  8-S ) :   0.9698 B(  5-O ,  6-C ) :   0.9047
B(  6-C ,  7-C ) :   1.1629 B(  6-C , 24-H ) :   0.9196 B(  6-C , 25-H ) :   0.9357
B(  7-C , 26-H ) :   0.9456 B(  7-C , 27-H ) :   0.9330 B(  7-C , 28-H ) :   0.9371
B(  8-S ,  9-C ) :   0.9885 B(  9-C , 10-S ) :   0.9941 B(  9-C , 29-H ) :   0.8865
B(  9-C , 30-H ) :   0.8953 B( 10-S , 11-P ) :   0.9713 B( 10-S , 12-S ) :   0.1116
B( 11-P , 12-S ) :   1.6061 B( 11-P , 13-O ) :   1.1267 B( 11-P , 16-O ) :   1.1153
B( 13-O , 14-C ) :   0.9060 B( 14-C , 15-C ) :   1.1670 B( 14-C , 31-H ) :   0.9362
B( 14-C , 32-H ) :   0.9157 B( 15-C , 33-H ) :   0.9476 B( 15-C , 34-H ) :   0.9390
B( 15-C , 35-H ) :   0.9313 B( 16-O , 17-C ) :   0.8934 B( 17-C , 18-C ) :   1.1608
B( 17-C , 36-H ) :   0.9332 B( 17-C , 37-H ) :   0.9076 B( 18-C , 38-H ) :   0.9401
B( 18-C , 39-H ) :   0.9330 B( 18-C , 40-H ) :   0.9477

Dispersion correction           -0.065731957
FINAL SINGLE POINT ENERGY     -2929.527033483033

DIPOLE MOMENT
-------------

Method             : SCF
Type of density    : Electron Density
Multiplicity       :   1
Irrep              :   0
Energy             : -2929.6467451265634736 Eh
Relativity type    :
Basis              : AO
                                X                 Y                 Z
Electronic contribution:     -2.182665997      -3.042392025     -14.688236353
Nuclear contribution   :      2.631142513       4.118209854      15.586570011
                        -----------------------------------------
Total Dipole Moment    :      0.448476516       1.075817829       0.898333659
                        -----------------------------------------
Magnitude (a.u.)       :      1.471570097
Magnitude (Debye)      :      3.740433928

Rotational constants in cm-1:             0.013486             0.004804             0.004665
Rotational constants in MHz :           404.309193           144.025922           139.838625

                             ****ORCA TERMINATED NORMALLY****
TOTAL RUN TIME: 0 days 0 hours 0 minutes 21 seconds 656 msec
