                         Program Version 6.0.0  -   RELEASE  -
|  1> ! pbe def2-sv(p) def2/J RI DEFGRID1 loosescf d4 GCP(DFT/SV(P)) printgap
|  2> %output
|  3>     printlevel normal
|  4> end
|  5> * xyz 0 1
|  6> C 5.4855343202 -1.5269784987 -1.5308772307
|  7> C 4.8924925669 -0.2617963081 -0.9443987172
|  8> O 3.6773429532 -0.6070233649 -0.2408333771
|  9> P 2.3507244614 0.2436294419 -0.375316123
| 10> S 1.90407305 0.7962587372 -2.2073263963
| 11> O 2.665922043 1.4390997499 0.6269294716
| 12> C 1.8454652219 2.6094910528 0.7863837798
| 13> C 0.9809751533 2.4922239045 2.0257611037
| 14> S 1.0577839716 -1.0687284512 0.6326891332
| 15> C 0.0739269183 -1.6520349316 -0.7979487237
| 16> S -1.6323761866 -1.978847591 -0.3373913862
| 17> P -2.1568803707 -0.0010315336 0.2809279673
| 18> S -1.3488668436 1.4785549539 -0.7141519014
| 19> O -1.7605058027 0.1217854015 1.8007830692
| 20> C -2.2076647829 -0.8014383951 2.8249390219
| 21> C -3.3573218315 -0.2029077339 3.6091510174
| 22> O -3.7411086319 -0.078743656 0.3565977618
| 23> C -4.6017278857 -0.5762026183 -0.6856268504
| 24> C -4.3552970455 0.094484525 -2.0204815029
| 25> H 5.6456647175 -2.2590250264 -0.7447020526
| 26> H 4.8105052 -1.9464315011 -2.272294358
| 27> H 6.4331035144 -1.2906401648 -2.0039287989
| 28> H 4.6542632225 0.4646880916 -1.7283365664
| 29> H 5.5627023811 0.197489627 -0.2152757928
| 30> H 2.5535890384 3.4356280626 0.8749946085
| 31> H 1.2337823153 2.7491281497 -0.111341399
| 32> H 0.4646585081 3.4330963292 2.1867875908
| 33> H 0.2386430568 1.7062076163 1.9001115396
| 34> H 1.5986179079 2.2617784006 2.8892175749
| 35> H 0.4803243779 -2.5944768455 -1.1563349206
| 36> H 0.1102248036 -0.8812633782 -1.5736439252
| 37> H -2.4952326518 -1.7449475239 2.3530851682
| 38> H -1.3300099024 -0.9598743831 3.4544085518
| 39> H -3.0576702932 0.7470829645 4.042936814
| 40> H -4.2104052686 -0.0353597005 2.9569568314
| 41> H -3.639788189 -0.8872393199 4.4029474174
| 42> H -4.4523392863 -1.6565397716 -0.7623545629
| 43> H -5.6054704803 -0.3635505451 -0.3135809609
| 44> H -4.4392881254 1.1747145012 -1.9251525696
| 45> H -3.354303296 -0.1398003919 -2.3810348067
| 46> H -5.0822945759 -0.2605398151 -2.7437490209
| 47> *
| 48>
| 49>                          ****END OF INPUT****

CARTESIAN COORDINATES (ANGSTROEM)
---------------------------------
  C      5.485534   -1.526978   -1.530877
  C      4.892493   -0.261796   -0.944399
  O      3.677343   -0.607023   -0.240833
  P      2.350724    0.243629   -0.375316
  S      1.904073    0.796259   -2.207326
  O      2.665922    1.439100    0.626929
  C      1.845465    2.609491    0.786384
  C      0.980975    2.492224    2.025761
  S      1.057784   -1.068728    0.632689
  C      0.073927   -1.652035   -0.797949
  S     -1.632376   -1.978848   -0.337391
  P     -2.156880   -0.001032    0.280928
  S     -1.348867    1.478555   -0.714152
  O     -1.760506    0.121785    1.800783
  C     -2.207665   -0.801438    2.824939
  C     -3.357322   -0.202908    3.609151
  O     -3.741109   -0.078744    0.356598
  C     -4.601728   -0.576203   -0.685627
  C     -4.355297    0.094485   -2.020482
  H      5.645665   -2.259025   -0.744702
  H      4.810505   -1.946432   -2.272294
  H      6.433104   -1.290640   -2.003929
  H      4.654263    0.464688   -1.728337
  H      5.562702    0.197490   -0.215276
  H      2.553589    3.435628    0.874995
  H      1.233782    2.749128   -0.111341
  H      0.464659    3.433096    2.186788
  H      0.238643    1.706208    1.900112
  H      1.598618    2.261778    2.889218
  H      0.480324   -2.594477   -1.156335
  H      0.110225   -0.881263   -1.573644
  H     -2.495233   -1.744948    2.353085
  H     -1.330010   -0.959874    3.454409
  H     -3.057670    0.747083    4.042937
  H     -4.210405   -0.035360    2.956957
  H     -3.639788   -0.887239    4.402947
  H     -4.452339   -1.656540   -0.762355
  H     -5.605470   -0.363551   -0.313581
  H     -4.439288    1.174715   -1.925153
  H     -3.354303   -0.139800   -2.381035
  H     -5.082295   -0.260540   -2.743749

 Total Charge           Charge          ....    0
 Multiplicity           Mult            ....    1
 Number of Electrons    NEL             ....  202
 Basis Dimension        Dim             ....  334

ORBITAL ENERGIES
----------------

  NO   OCC          E(Eh)            E(eV)
   0   2.0000     -88.049593     -2395.9512
   1   2.0000     -88.038623     -2395.6527
   2   2.0000     -87.981295     -2394.0928
   3   2.0000     -87.980068     -2394.0594
   4   2.0000     -76.428174     -2079.7163
   5   2.0000     -76.418626     -2079.4565
   6   2.0000     -18.799022      -511.5474
   7   2.0000     -18.793044      -511.3847
   8   2.0000     -18.782819      -511.1065
   9   2.0000     -18.780799      -511.0515
  10   2.0000      -9.962443      -271.0918
  11   2.0000      -9.956584      -270.9324
  12   2.0000      -9.953850      -270.8580
  13   2.0000      -9.945488      -270.6305
  14   2.0000      -9.937935      -270.4250
  15   2.0000      -9.888084      -269.0684
  16   2.0000      -9.884940      -268.9829
  17   2.0000      -9.881619      -268.8925
  18   2.0000      -9.867137      -268.4985
  19   2.0000      -7.694418      -209.3758
  20   2.0000      -7.683842      -209.0880
  21   2.0000      -7.626210      -207.5197
  22   2.0000      -7.625056      -207.4883
  23   2.0000      -6.425154      -174.8373
  24   2.0000      -6.416509      -174.6021
  25   2.0000      -5.722222      -155.7096
  26   2.0000      -5.718704      -155.6138
  27   2.0000      -5.711768      -155.4251
  28   2.0000      -5.711743      -155.4244
  29   2.0000      -5.708537      -155.3372
  30   2.0000      -5.700534      -155.1194
  31   2.0000      -5.655370      -153.8905
  32   2.0000      -5.653890      -153.8502
  33   2.0000      -5.646632      -153.6527
  34   2.0000      -5.646315      -153.6440
  35   2.0000      -5.645823      -153.6307
  36   2.0000      -5.645138      -153.6120
  37   2.0000      -4.647987      -126.4781
  38   2.0000      -4.647270      -126.4586
  39   2.0000      -4.645104      -126.3997
  40   2.0000      -4.638902      -126.2310
  41   2.0000      -4.638167      -126.2109
  42   2.0000      -4.637181      -126.1841
  43   2.0000      -0.992216       -26.9996
  44   2.0000      -0.977340       -26.5948
  45   2.0000      -0.948659       -25.8143
  46   2.0000      -0.934571       -25.4310
  47   2.0000      -0.763620       -20.7791
  48   2.0000      -0.721177       -19.6242
  49   2.0000      -0.709388       -19.3034
  50   2.0000      -0.693718       -18.8770
  51   2.0000      -0.676813       -18.4170
  52   2.0000      -0.673154       -18.3175
  53   2.0000      -0.649527       -17.6745
  54   2.0000      -0.630779       -17.1644
  55   2.0000      -0.592764       -16.1299
  56   2.0000      -0.588014       -16.0007
  57   2.0000      -0.576971       -15.7002
  58   2.0000      -0.562606       -15.3093
  59   2.0000      -0.560528       -15.2527
  60   2.0000      -0.504939       -13.7401
  61   2.0000      -0.495259       -13.4767
  62   2.0000      -0.477437       -12.9917
  63   2.0000      -0.468203       -12.7405
  64   2.0000      -0.454557       -12.3691
  65   2.0000      -0.442560       -12.0427
  66   2.0000      -0.439534       -11.9603
  67   2.0000      -0.432456       -11.7677
  68   2.0000      -0.431711       -11.7474
  69   2.0000      -0.413592       -11.2544
  70   2.0000      -0.410961       -11.1828
  71   2.0000      -0.399979       -10.8840
  72   2.0000      -0.387613       -10.5475
  73   2.0000      -0.384159       -10.4535
  74   2.0000      -0.376392       -10.2422
  75   2.0000      -0.369587       -10.0570
  76   2.0000      -0.359131        -9.7724
  77   2.0000      -0.357939        -9.7400
  78   2.0000      -0.352038        -9.5794
  79   2.0000      -0.349070        -9.4987
  80   2.0000      -0.346031        -9.4160
  81   2.0000      -0.342259        -9.3133
  82   2.0000      -0.338473        -9.2103
  83   2.0000      -0.333424        -9.0729
  84   2.0000      -0.323651        -8.8070
  85   2.0000      -0.321945        -8.7606
  86   2.0000      -0.304392        -8.2829
  87   2.0000      -0.299946        -8.1619
  88   2.0000      -0.293418        -7.9843
  89   2.0000      -0.285241        -7.7618
  90   2.0000      -0.281771        -7.6674
  91   2.0000      -0.279002        -7.5920
  92   2.0000      -0.266994        -7.2653
  93   2.0000      -0.264792        -7.2053
  94   2.0000      -0.256876        -6.9899
  95   2.0000      -0.234470        -6.3803
  96   2.0000      -0.221898        -6.0382
  97   2.0000      -0.209789        -5.7086
  98   2.0000      -0.197043        -5.3618
  99   2.0000      -0.194039        -5.2801
 100   2.0000      -0.185476        -5.0471
 101   0.0000      -0.044498        -1.2109
 102   0.0000      -0.031701        -0.8626
 103   0.0000      -0.013315        -0.3623
 104   0.0000       0.011511         0.3132
 105   0.0000       0.018970         0.5162

MULLIKEN ATOMIC CHARGES
-----------------------
   0 C :   -0.280900
   1 C :   -0.004675
   2 O :   -0.372039
   3 P :    0.623552
   4 S :   -0.320331
   5 O :   -0.378580
   6 C :   -0.009012
   7 C :   -0.314094
   8 S :   -0.100480
   9 C :   -0.347027
  10 S :   -0.121686
  11 P :    0.590125
  12 S :   -0.291767
  13 O :   -0.342943
  14 C :   -0.007980
  15 C :   -0.286813
  16 O :   -0.377148
  17 C :   -0.012044
  18 C :   -0.310848
  19 H :    0.115590
  20 H :    0.116133
  21 H :    0.108259
  22 H :    0.103656
  23 H :    0.103209
  24 H :    0.097263
  25 H :    0.119019
  26 H :    0.103980
  27 H :    0.147197
  28 H :    0.101427
  29 H :    0.181597
  30 H :    0.213299
  31 H :    0.097168
  32 H :    0.111650
  33 H :    0.120694
  34 H :    0.119540
  35 H :    0.109493
  36 H :    0.113517
  37 H :    0.110038
  38 H :    0.128983
  39 H :    0.130675
  40 H :    0.112308
Sum of atomic charges:   -0.0000000

LOEWDIN ATOMIC CHARGES
----------------------
   0 C :   -0.352212
   1 C :   -0.117052
   2 O :   -0.250292
   3 P :    0.567106
   4 S :   -0.306654
   5 O :   -0.246549
   6 C :   -0.117297
   7 C :   -0.368299
   8 S :    0.080032
   9 C :   -0.477686
  10 S :    0.066164
  11 P :    0.563405
  12 S :   -0.286247
  13 O :   -0.227421
  14 C :   -0.116319
  15 C :   -0.357850
  16 O :   -0.245266
  17 C :   -0.115261
  18 C :   -0.369010
  19 H :    0.126300
  20 H :    0.127192
  21 H :    0.128803
  22 H :    0.106475
  23 H :    0.114595
  24 H :    0.114242
  25 H :    0.107616
  26 H :    0.128506
  27 H :    0.122424
  28 H :    0.119413
  29 H :    0.134835
  30 H :    0.124174
  31 H :    0.101972
  32 H :    0.120850
  33 H :    0.129168
  34 H :    0.126087
  35 H :    0.129176
  36 H :    0.108185
  37 H :    0.121458
  38 H :    0.131543
  39 H :    0.123024
  40 H :    0.130670

  Mayer bond orders larger than 0.100000
B(  0-C ,  1-C ) :   1.1653 B(  0-C , 19-H ) :   0.9502 B(  0-C , 20-H ) :   0.9500
B(  0-C , 21-H ) :   0.9419 B(  1-C ,  2-O ) :   0.8988 B(  1-C , 22-H ) :   0.9042
B(  1-C , 23-H ) :   0.9333 B(  2-O ,  3-P ) :   1.1288 B(  3-P ,  4-S ) :   1.6169
B(  3-P ,  5-O ) :   1.1194 B(  3-P ,  8-S ) :   0.9622 B(  4-S ,  8-S ) :   0.1187
B(  5-O ,  6-C ) :   0.9006 B(  6-C ,  7-C ) :   1.1711 B(  6-C , 24-H ) :   0.9348
B(  6-C , 25-H ) :   0.9047 B(  7-C , 26-H ) :   0.9403 B(  7-C , 27-H ) :   0.9233
B(  7-C , 28-H ) :   0.9461 B(  8-S ,  9-C ) :   0.9918 B(  9-C , 10-S ) :   1.0078
B(  9-C , 29-H ) :   0.9088 B(  9-C , 30-H ) :   0.8459 B( 10-S , 11-P ) :   0.9301
B( 10-S , 12-S ) :   0.1098 B( 11-P , 12-S ) :   1.6628 B( 11-P , 13-O ) :   1.1189
B( 11-P , 16-O ) :   1.0819 B( 13-O , 14-C ) :   0.8887 B( 14-C , 15-C ) :   1.1649
B( 14-C , 31-H ) :   0.9123 B( 14-C , 32-H ) :   0.9341 B( 15-C , 33-H ) :   0.9475
B( 15-C , 34-H ) :   0.9434 B( 15-C , 35-H ) :   0.9406 B( 16-O , 17-C ) :   0.9104
B( 17-C , 18-C ) :   1.1672 B( 17-C , 36-H ) :   0.9265 B( 17-C , 37-H ) :   0.9328
B( 18-C , 38-H ) :   0.9425 B( 18-C , 39-H ) :   0.9320 B( 18-C , 40-H ) :   0.9345

Dispersion correction           -0.065125425
FINAL SINGLE POINT ENERGY     -2929.518715564869

DIPOLE MOMENT
-------------

Method             : SCF
Type of density    : Electron Density
Multiplicity       :   1
Irrep              :   0
Energy             : -2929.6378210021161976 Eh
Relativity type    :
Basis              : AO
                                X                 Y                 Z
Electronic contribution:      3.134158919      -1.752652835      -6.088417346
Nuclear contribution   :     -3.800959535       0.897582690       6.886925206
                        -----------------------------------------
Total Dipole Moment    :     -0.666800616      -0.855070145       0.798507859
                        -----------------------------------------
Magnitude (a.u.)       :      1.346619031
Magnitude (Debye)      :      3.422833561

Rotational constants in cm-1:             0.013045             0.004754             0.004518
Rotational constants in MHz :           391.064656           142.535046           135.435384

                             ****ORCA TERMINATED NORMALLY****
TOTAL RUN TIME: 0 days 0 hours 0 minutes 20 seconds 924 msec
