                         Program Version 6.0.0  -   RELEASE  -
|  1> ! r2scan-3c def2/J RI DEFGRID2 scfconv6 printgap
|  2> %output
|  3>     printlevel normal
|  4> end
|  5> * xyz 0 1
|  6> C 5.3664963547 -0.0316638622 -0.7265142487
|  7> C 4.3947580238 -0.743092454 0.1951906492
|  8> O 3.3304318079 0.1394396703 0.6013670231
|  9> P 1.9282350204 0.1865934183 -0.1500735754
| 10> S 1.9947130623 0.4466928822 -2.0966858803
| 11> O 1.1811605736 1.2838766385 0.7075958574
| 12> C 1.2084489418 2.6805574687 0.3587188491
| 13> C 2.5935457926 3.2700693955 0.5113936173
| 14> S 1.0565353104 -1.6109658624 0.5086598702
| 15> C -0.1029365392 -1.9639106724 -0.8556428131
| 16> S -1.8214924723 -2.0521249151 -0.3089527984
| 17> P -2.109723098 0.0185974754 0.077725546
| 18> S -1.4771529193 1.2480740931 -1.3057973176
| 19> O -1.4445341186 0.2923182534 1.4802406349
| 20> C -1.8360704204 -0.4218947523 2.6839394824
| 21> C -0.6788767001 -0.3656860455 3.6587040621
| 22> O -3.6564177467 0.1176678374 0.4312324881
| 23> C -4.6813434004 0.2970388207 -0.5635023112
| 24> C -4.8025376461 -0.8948458886 -1.4902629854
| 25> H 6.1830291735 -0.702956846 -0.9716791446
| 26> H 4.8643130909 0.2650098424 -1.6449079383
| 27> H 5.763284105 0.8549165265 -0.2398384583
| 28> H 4.8761663914 -1.04062935 1.1285325709
| 29> H 3.96799409 -1.624572395 -0.29203583
| 30> H 0.845666214 2.7898203519 -0.669283382
| 31> H 0.4887448607 3.1327774277 1.0429611158
| 32> H 3.2664331741 2.8175916865 -0.2161809008
| 33> H 2.5495176645 4.3402730693 0.3351197513
| 34> H 2.9738831995 3.0784086035 1.5113063706
| 35> H 0.1374224239 -2.945926866 -1.2545478367
| 36> H 0.0107455982 -1.189316536 -1.61971646
| 37> H -2.7249136376 0.0721247933 3.0802154979
| 38> H -2.0836830744 -1.4530526751 2.4148727887
| 39> H -0.4180290946 0.6676866997 3.8687949417
| 40> H -0.9678232111 -0.8605766996 4.5802260058
| 41> H 0.1910136917 -0.8657786233 3.2400032358
| 42> H -5.5874814892 0.4433440578 0.0261492349
| 43> H -4.4547707359 1.2049169066 -1.1308273315
| 44> H -4.9018373567 -1.8129463924 -0.9166849685
| 45> H -5.6751005608 -0.7673629429 -2.1228720751
| 46> H -3.9186974441 -0.9684566812 -2.121960182
| 47> *
| 48>
| 49>                          ****END OF INPUT****

CARTESIAN COORDINATES (ANGSTROEM)
---------------------------------
  C      5.366496   -0.031664   -0.726514
  C      4.394758   -0.743092    0.195191
  O      3.330432    0.139440    0.601367
  P      1.928235    0.186593   -0.150074
  S      1.994713    0.446693   -2.096686
  O      1.181161    1.283877    0.707596
  C      1.208449    2.680557    0.358719
  C      2.593546    3.270069    0.511394
  S      1.056535   -1.610966    0.508660
  C     -0.102937   -1.963911   -0.855643
  S     -1.821492   -2.052125   -0.308953
  P     -2.109723    0.018597    0.077726
  S     -1.477153    1.248074   -1.305797
  O     -1.444534    0.292318    1.480241
  C     -1.836070   -0.421895    2.683939
  C     -0.678877   -0.365686    3.658704
  O     -3.656418    0.117668    0.431232
  C     -4.681343    0.297039   -0.563502
  C     -4.802538   -0.894846   -1.490263
  H      6.183029   -0.702957   -0.971679
  H      4.864313    0.265010   -1.644908
  H      5.763284    0.854917   -0.239838
  H      4.876166   -1.040629    1.128533
  H      3.967994   -1.624572   -0.292036
  H      0.845666    2.789820   -0.669283
  H      0.488745    3.132777    1.042961
  H      3.266433    2.817592   -0.216181
  H      2.549518    4.340273    0.335120
  H      2.973883    3.078409    1.511306
  H      0.137422   -2.945927   -1.254548
  H      0.010746   -1.189317   -1.619716
  H     -2.724914    0.072125    3.080215
  H     -2.083683   -1.453053    2.414873
  H     -0.418029    0.667687    3.868795
  H     -0.967823   -0.860577    4.580226
  H      0.191014   -0.865779    3.240003
  H     -5.587481    0.443344    0.026149
  H     -4.454771    1.204917   -1.130827
  H     -4.901837   -1.812946   -0.916685
  H     -5.675101   -0.767363   -2.122872
  H     -3.918697   -0.968457   -2.121960

 Total Charge           Charge          ....    0
 Multiplicity           Mult            ....    1
 Number of Electrons    NEL             ....  202
 Basis Dimension        Dim             ....  539

ORBITAL ENERGIES
----------------

  NO   OCC          E(Eh)            E(eV)
   0   2.0000     -88.575238     -2410.2548
   1   2.0000     -88.572954     -2410.1926
   2   2.0000     -88.514893     -2408.6127
   3   2.0000     -88.513509     -2408.5750
   4   2.0000     -76.910826     -2092.8500
   5   2.0000     -76.908583     -2092.7889
   6   2.0000     -18.992377      -516.8089
   7   2.0000     -18.986436      -516.6472
   8   2.0000     -18.986356      -516.6450
   9   2.0000     -18.979907      -516.4695
  10   2.0000     -10.105099      -274.9737
  11   2.0000     -10.099350      -274.8173
  12   2.0000     -10.097654      -274.7711
  13   2.0000     -10.096240      -274.7327
  14   2.0000     -10.084995      -274.4267
  15   2.0000     -10.029117      -272.9061
  16   2.0000     -10.027371      -272.8586
  17   2.0000     -10.022582      -272.7283
  18   2.0000     -10.020048      -272.6594
  19   2.0000      -7.869800      -214.1482
  20   2.0000      -7.867615      -214.0887
  21   2.0000      -7.809687      -212.5124
  22   2.0000      -7.808270      -212.4738
  23   2.0000      -6.589295      -179.3038
  24   2.0000      -6.586905      -179.2388
  25   2.0000      -5.816673      -158.2797
  26   2.0000      -5.814411      -158.2182
  27   2.0000      -5.813451      -158.1921
  28   2.0000      -5.811395      -158.1361
  29   2.0000      -5.807063      -158.0182
  30   2.0000      -5.804804      -157.9567
  31   2.0000      -5.757458      -156.6684
  32   2.0000      -5.755923      -156.6266
  33   2.0000      -5.749827      -156.4608
  34   2.0000      -5.749709      -156.4575
  35   2.0000      -5.748726      -156.4308
  36   2.0000      -5.748103      -156.4138
  37   2.0000      -4.735191      -128.8511
  38   2.0000      -4.734231      -128.8250
  39   2.0000      -4.732668      -128.7824
  40   2.0000      -4.732300      -128.7724
  41   2.0000      -4.731782      -128.7583
  42   2.0000      -4.730809      -128.7319
  43   2.0000      -1.049064       -28.5465
  44   2.0000      -1.043170       -28.3861
  45   2.0000      -1.007241       -27.4084
  46   2.0000      -1.002713       -27.2852
  47   2.0000      -0.798672       -21.7330
  48   2.0000      -0.755873       -20.5683
  49   2.0000      -0.745899       -20.2969
  50   2.0000      -0.732532       -19.9332
  51   2.0000      -0.724273       -19.7085
  52   2.0000      -0.708938       -19.2912
  53   2.0000      -0.683416       -18.5967
  54   2.0000      -0.662913       -18.0388
  55   2.0000      -0.627616       -17.0783
  56   2.0000      -0.619261       -16.8509
  57   2.0000      -0.601616       -16.3708
  58   2.0000      -0.597589       -16.2612
  59   2.0000      -0.590014       -16.0551
  60   2.0000      -0.528643       -14.3851
  61   2.0000      -0.517970       -14.0947
  62   2.0000      -0.492706       -13.4072
  63   2.0000      -0.486151       -13.2288
  64   2.0000      -0.468155       -12.7392
  65   2.0000      -0.460740       -12.5374
  66   2.0000      -0.454372       -12.3641
  67   2.0000      -0.451916       -12.2973
  68   2.0000      -0.447110       -12.1665
  69   2.0000      -0.431416       -11.7394
  70   2.0000      -0.423195       -11.5157
  71   2.0000      -0.412696       -11.2300
  72   2.0000      -0.405121       -11.0239
  73   2.0000      -0.399552       -10.8724
  74   2.0000      -0.393380       -10.7044
  75   2.0000      -0.383701       -10.4410
  76   2.0000      -0.378526       -10.3002
  77   2.0000      -0.372856       -10.1459
  78   2.0000      -0.367603       -10.0030
  79   2.0000      -0.362694        -9.8694
  80   2.0000      -0.356689        -9.7060
  81   2.0000      -0.355217        -9.6659
  82   2.0000      -0.350251        -9.5308
  83   2.0000      -0.347626        -9.4594
  84   2.0000      -0.343461        -9.3461
  85   2.0000      -0.326213        -8.8767
  86   2.0000      -0.321276        -8.7424
  87   2.0000      -0.316270        -8.6061
  88   2.0000      -0.308681        -8.3996
  89   2.0000      -0.305814        -8.3216
  90   2.0000      -0.292192        -7.9509
  91   2.0000      -0.282981        -7.7003
  92   2.0000      -0.278249        -7.5715
  93   2.0000      -0.275513        -7.4971
  94   2.0000      -0.271730        -7.3942
  95   2.0000      -0.247954        -6.7472
  96   2.0000      -0.232945        -6.3388
  97   2.0000      -0.226557        -6.1649
  98   2.0000      -0.215742        -5.8706
  99   2.0000      -0.205482        -5.5914
 100   2.0000      -0.197488        -5.3739
 101   0.0000      -0.040359        -1.0982
 102   0.0000      -0.029532        -0.8036
 103   0.0000      -0.008299        -0.2258
 104   0.0000       0.014241         0.3875
 105   0.0000       0.021371         0.5815

MULLIKEN ATOMIC CHARGES
-----------------------
   0 C :   -0.461160
   1 C :   -0.130761
   2 O :   -0.289718
   3 P :    0.635310
   4 S :   -0.457312
   5 O :   -0.256903
   6 C :   -0.151959
   7 C :   -0.452987
   8 S :   -0.144345
   9 C :   -0.220624
  10 S :   -0.153532
  11 P :    0.649261
  12 S :   -0.414006
  13 O :   -0.256833
  14 C :   -0.106682
  15 C :   -0.456085
  16 O :   -0.300525
  17 C :   -0.160857
  18 C :   -0.460863
  19 H :    0.143682
  20 H :    0.184696
  21 H :    0.150649
  22 H :    0.148851
  23 H :    0.153239
  24 H :    0.181422
  25 H :    0.156162
  26 H :    0.166886
  27 H :    0.146129
  28 H :    0.155568
  29 H :    0.196777
  30 H :    0.218711
  31 H :    0.154481
  32 H :    0.157456
  33 H :    0.155044
  34 H :    0.142699
  35 H :    0.168671
  36 H :    0.147117
  37 H :    0.174821
  38 H :    0.154168
  39 H :    0.149049
  40 H :    0.184301
Sum of atomic charges:    0.0000000

LOEWDIN ATOMIC CHARGES
----------------------
   0 C :   -0.403373
   1 C :    0.018555
   2 O :   -0.666944
   3 P :    0.369700
   4 S :   -0.126613
   5 O :   -0.660380
   6 C :    0.012642
   7 C :   -0.401006
   8 S :    0.163824
   9 C :   -0.414770
  10 S :    0.126324
  11 P :    0.377132
  12 S :   -0.071213
  13 O :   -0.655726
  14 C :    0.021595
  15 C :   -0.390810
  16 O :   -0.665971
  17 C :    0.021962
  18 C :   -0.409230
  19 H :    0.157437
  20 H :    0.169401
  21 H :    0.157214
  22 H :    0.177610
  23 H :    0.175922
  24 H :    0.184644
  25 H :    0.182753
  26 H :    0.164761
  27 H :    0.158713
  28 H :    0.160184
  29 H :    0.180656
  30 H :    0.202753
  31 H :    0.174608
  32 H :    0.176039
  33 H :    0.161826
  34 H :    0.157695
  35 H :    0.165519
  36 H :    0.179344
  37 H :    0.180532
  38 H :    0.159380
  39 H :    0.159868
  40 H :    0.167443

  Mayer bond orders larger than 0.100000
B(  0-C ,  1-C ) :   0.9493 B(  0-C , 19-H ) :   0.9646 B(  0-C , 20-H ) :   0.9582
B(  0-C , 21-H ) :   0.9744 B(  1-C ,  2-O ) :   0.7854 B(  1-C , 22-H ) :   0.9647
B(  1-C , 23-H ) :   0.9647 B(  2-O ,  3-P ) :   1.0486 B(  3-P ,  4-S ) :   1.7640
B(  3-P ,  5-O ) :   1.1699 B(  3-P ,  8-S ) :   1.1268 B(  5-O ,  6-C ) :   0.7969
B(  6-C ,  7-C ) :   0.9093 B(  6-C , 24-H ) :   0.9608 B(  6-C , 25-H ) :   0.9630
B(  7-C , 26-H ) :   0.9610 B(  7-C , 27-H ) :   0.9619 B(  7-C , 28-H ) :   0.9735
B(  8-S ,  9-C ) :   0.8879 B(  9-C , 10-S ) :   0.9107 B(  9-C , 29-H ) :   0.9136
B(  9-C , 30-H ) :   0.9052 B( 10-S , 11-P ) :   1.0136 B( 11-P , 12-S ) :   1.8390
B( 11-P , 13-O ) :   1.1316 B( 11-P , 16-O ) :   1.0420 B( 13-O , 14-C ) :   0.7488
B( 14-C , 15-C ) :   0.9563 B( 14-C , 31-H ) :   0.9445 B( 14-C , 32-H ) :   0.9523
B( 15-C , 33-H ) :   0.9703 B( 15-C , 34-H ) :   0.9651 B( 15-C , 35-H ) :   0.9648
B( 16-O , 17-C ) :   0.8253 B( 17-C , 18-C ) :   0.9134 B( 17-C , 36-H ) :   0.9607
B( 17-C , 37-H ) :   0.9692 B( 18-C , 38-H ) :   0.9680 B( 18-C , 39-H ) :   0.9568
B( 18-C , 40-H ) :   0.9626

Dispersion correction           -0.022317705
FINAL SINGLE POINT ENERGY     -2932.460289366207

DIPOLE MOMENT
-------------

Method             : SCF
Type of density    : Electron Density
Multiplicity       :   1
Irrep              :   0
Energy             : -2932.4845939810620621 Eh
Relativity type    :
Basis              : AO
                                X                 Y                 Z
Electronic contribution:     -5.561403368      -5.524070758      -6.571836543
Nuclear contribution   :      5.213471354       5.000029456       7.736362198
                        -----------------------------------------
Total Dipole Moment    :     -0.347932013      -0.524041303       1.164525655
                        -----------------------------------------
Magnitude (a.u.)       :      1.323554296
Magnitude (Debye)      :      3.364207662

Rotational constants in cm-1:             0.013188             0.005176             0.005123
Rotational constants in MHz :           395.351844           155.181635           153.595325

                             ****ORCA TERMINATED NORMALLY****
TOTAL RUN TIME: 0 days 0 hours 1 minutes 25 seconds 533 msec
