                         Program Version 6.0.0  -   RELEASE  -
|  1> ! r2scan-3c def2/J RI DEFGRID2 scfconv6 printgap
|  2> %output
|  3>     printlevel normal
|  4> end
|  5> %cpcm
|  6>     smd true
|  7>     smdsolvent "water"
|  8> end
|  9> * xyz 0 1
| 10> C 5.3664963547 -0.0316638622 -0.7265142487
| 11> C 4.3947580238 -0.743092454 0.1951906492
| 12> O 3.3304318079 0.1394396703 0.6013670231
| 13> P 1.9282350204 0.1865934183 -0.1500735754
| 14> S 1.9947130623 0.4466928822 -2.0966858803
| 15> O 1.1811605736 1.2838766385 0.7075958574
| 16> C 1.2084489418 2.6805574687 0.3587188491
| 17> C 2.5935457926 3.2700693955 0.5113936173
| 18> S 1.0565353104 -1.6109658624 0.5086598702
| 19> C -0.1029365392 -1.9639106724 -0.8556428131
| 20> S -1.8214924723 -2.0521249151 -0.3089527984
| 21> P -2.109723098 0.0185974754 0.077725546
| 22> S -1.4771529193 1.2480740931 -1.3057973176
| 23> O -1.4445341186 0.2923182534 1.4802406349
| 24> C -1.8360704204 -0.4218947523 2.6839394824
| 25> C -0.6788767001 -0.3656860455 3.6587040621
| 26> O -3.6564177467 0.1176678374 0.4312324881
| 27> C -4.6813434004 0.2970388207 -0.5635023112
| 28> C -4.8025376461 -0.8948458886 -1.4902629854
| 29> H 6.1830291735 -0.702956846 -0.9716791446
| 30> H 4.8643130909 0.2650098424 -1.6449079383
| 31> H 5.763284105 0.8549165265 -0.2398384583
| 32> H 4.8761663914 -1.04062935 1.1285325709
| 33> H 3.96799409 -1.624572395 -0.29203583
| 34> H 0.845666214 2.7898203519 -0.669283382
| 35> H 0.4887448607 3.1327774277 1.0429611158
| 36> H 3.2664331741 2.8175916865 -0.2161809008
| 37> H 2.5495176645 4.3402730693 0.3351197513
| 38> H 2.9738831995 3.0784086035 1.5113063706
| 39> H 0.1374224239 -2.945926866 -1.2545478367
| 40> H 0.0107455982 -1.189316536 -1.61971646
| 41> H -2.7249136376 0.0721247933 3.0802154979
| 42> H -2.0836830744 -1.4530526751 2.4148727887
| 43> H -0.4180290946 0.6676866997 3.8687949417
| 44> H -0.9678232111 -0.8605766996 4.5802260058
| 45> H 0.1910136917 -0.8657786233 3.2400032358
| 46> H -5.5874814892 0.4433440578 0.0261492349
| 47> H -4.4547707359 1.2049169066 -1.1308273315
| 48> H -4.9018373567 -1.8129463924 -0.9166849685
| 49> H -5.6751005608 -0.7673629429 -2.1228720751
| 50> H -3.9186974441 -0.9684566812 -2.121960182
| 51> *
| 52>
| 53>                          ****END OF INPUT****

CARTESIAN COORDINATES (ANGSTROEM)
---------------------------------
  C      5.366496   -0.031664   -0.726514
  C      4.394758   -0.743092    0.195191
  O      3.330432    0.139440    0.601367
  P      1.928235    0.186593   -0.150074
  S      1.994713    0.446693   -2.096686
  O      1.181161    1.283877    0.707596
  C      1.208449    2.680557    0.358719
  C      2.593546    3.270069    0.511394
  S      1.056535   -1.610966    0.508660
  C     -0.102937   -1.963911   -0.855643
  S     -1.821492   -2.052125   -0.308953
  P     -2.109723    0.018597    0.077726
  S     -1.477153    1.248074   -1.305797
  O     -1.444534    0.292318    1.480241
  C     -1.836070   -0.421895    2.683939
  C     -0.678877   -0.365686    3.658704
  O     -3.656418    0.117668    0.431232
  C     -4.681343    0.297039   -0.563502
  C     -4.802538   -0.894846   -1.490263
  H      6.183029   -0.702957   -0.971679
  H      4.864313    0.265010   -1.644908
  H      5.763284    0.854917   -0.239838
  H      4.876166   -1.040629    1.128533
  H      3.967994   -1.624572   -0.292036
  H      0.845666    2.789820   -0.669283
  H      0.488745    3.132777    1.042961
  H      3.266433    2.817592   -0.216181
  H      2.549518    4.340273    0.335120
  H      2.973883    3.078409    1.511306
  H      0.137422   -2.945927   -1.254548
  H      0.010746   -1.189317   -1.619716
  H     -2.724914    0.072125    3.080215
  H     -2.083683   -1.453053    2.414873
  H     -0.418029    0.667687    3.868795
  H     -0.967823   -0.860577    4.580226
  H      0.191014   -0.865779    3.240003
  H     -5.587481    0.443344    0.026149
  H     -4.454771    1.204917   -1.130827
  H     -4.901837   -1.812946   -0.916685
  H     -5.675101   -0.767363   -2.122872
  H     -3.918697   -0.968457   -2.121960

 Total Charge           Charge          ....    0
 Multiplicity           Mult            ....    1
 Number of Electrons    NEL             ....  202
 Basis Dimension        Dim             ....  539

ORBITAL ENERGIES
----------------

  NO   OCC          E(Eh)            E(eV)
   0   2.0000     -88.578295     -2410.3379
   1   2.0000     -88.577708     -2410.3220
   2   2.0000     -88.524836     -2408.8833
   3   2.0000     -88.524482     -2408.8736
   4   2.0000     -76.917663     -2093.0360
   5   2.0000     -76.917328     -2093.0269
   6   2.0000     -18.994601      -516.8694
   7   2.0000     -18.992400      -516.8095
   8   2.0000     -18.991924      -516.7965
   9   2.0000     -18.990257      -516.7512
  10   2.0000     -10.104459      -274.9563
  11   2.0000     -10.090729      -274.5827
  12   2.0000     -10.090194      -274.5681
  13   2.0000     -10.089742      -274.5558
  14   2.0000     -10.086624      -274.4710
  15   2.0000     -10.018811      -272.6257
  16   2.0000     -10.018641      -272.6211
  17   2.0000     -10.017510      -272.5903
  18   2.0000     -10.015936      -272.5475
  19   2.0000      -7.872769      -214.2289
  20   2.0000      -7.872305      -214.2163
  21   2.0000      -7.819959      -212.7919
  22   2.0000      -7.819559      -212.7810
  23   2.0000      -6.596034      -179.4872
  24   2.0000      -6.595845      -179.4821
  25   2.0000      -5.819666      -158.3612
  26   2.0000      -5.819116      -158.3462
  27   2.0000      -5.816440      -158.2734
  28   2.0000      -5.816094      -158.2640
  29   2.0000      -5.810005      -158.0983
  30   2.0000      -5.809486      -158.0841
  31   2.0000      -5.767629      -156.9452
  32   2.0000      -5.767147      -156.9320
  33   2.0000      -5.760113      -156.7407
  34   2.0000      -5.760010      -156.7378
  35   2.0000      -5.760005      -156.7377
  36   2.0000      -5.759400      -156.7212
  37   2.0000      -4.741700      -129.0282
  38   2.0000      -4.741395      -129.0199
  39   2.0000      -4.740922      -129.0070
  40   2.0000      -4.740742      -129.0021
  41   2.0000      -4.739987      -128.9816
  42   2.0000      -4.739325      -128.9636
  43   2.0000      -1.052803       -28.6482
  44   2.0000      -1.050783       -28.5933
  45   2.0000      -1.011055       -27.5122
  46   2.0000      -1.009577       -27.4720
  47   2.0000      -0.800928       -21.7944
  48   2.0000      -0.755613       -20.5613
  49   2.0000      -0.744300       -20.2534
  50   2.0000      -0.725011       -19.7286
  51   2.0000      -0.721887       -19.6436
  52   2.0000      -0.710496       -19.3336
  53   2.0000      -0.689208       -18.7543
  54   2.0000      -0.670399       -18.2425
  55   2.0000      -0.629659       -17.1339
  56   2.0000      -0.618333       -16.8257
  57   2.0000      -0.598015       -16.2728
  58   2.0000      -0.595533       -16.2053
  59   2.0000      -0.590334       -16.0638
  60   2.0000      -0.526947       -14.3390
  61   2.0000      -0.518598       -14.1118
  62   2.0000      -0.491596       -13.3770
  63   2.0000      -0.488221       -13.2852
  64   2.0000      -0.469938       -12.7877
  65   2.0000      -0.463253       -12.6058
  66   2.0000      -0.452102       -12.3023
  67   2.0000      -0.449894       -12.2422
  68   2.0000      -0.444887       -12.1060
  69   2.0000      -0.429837       -11.6965
  70   2.0000      -0.422580       -11.4990
  71   2.0000      -0.414054       -11.2670
  72   2.0000      -0.405075       -11.0226
  73   2.0000      -0.401566       -10.9272
  74   2.0000      -0.390714       -10.6319
  75   2.0000      -0.385132       -10.4800
  76   2.0000      -0.377117       -10.2619
  77   2.0000      -0.370263       -10.0754
  78   2.0000      -0.363093        -9.8803
  79   2.0000      -0.357143        -9.7184
  80   2.0000      -0.354102        -9.6356
  81   2.0000      -0.352178        -9.5833
  82   2.0000      -0.348279        -9.4772
  83   2.0000      -0.345063        -9.3896
  84   2.0000      -0.342847        -9.3293
  85   2.0000      -0.326469        -8.8837
  86   2.0000      -0.321132        -8.7384
  87   2.0000      -0.316016        -8.5992
  88   2.0000      -0.305469        -8.3122
  89   2.0000      -0.304111        -8.2753
  90   2.0000      -0.296964        -8.0808
  91   2.0000      -0.287196        -7.8150
  92   2.0000      -0.280029        -7.6200
  93   2.0000      -0.278852        -7.5879
  94   2.0000      -0.275589        -7.4992
  95   2.0000      -0.251979        -6.8567
  96   2.0000      -0.240667        -6.5489
  97   2.0000      -0.236467        -6.4346
  98   2.0000      -0.226542        -6.1645
  99   2.0000      -0.214418        -5.8346
 100   2.0000      -0.208623        -5.6769
 101   0.0000      -0.045106        -1.2274
 102   0.0000      -0.036021        -0.9802
 103   0.0000      -0.012309        -0.3349
 104   0.0000       0.008043         0.2188
 105   0.0000       0.013942         0.3794

MULLIKEN ATOMIC CHARGES
-----------------------
   0 C :   -0.496072
   1 C :   -0.128135
   2 O :   -0.317591
   3 P :    0.666185
   4 S :   -0.510226
   5 O :   -0.287169
   6 C :   -0.149180
   7 C :   -0.496220
   8 S :   -0.140361
   9 C :   -0.222138
  10 S :   -0.151193
  11 P :    0.661912
  12 S :   -0.465149
  13 O :   -0.288198
  14 C :   -0.095428
  15 C :   -0.507613
  16 O :   -0.322577
  17 C :   -0.155857
  18 C :   -0.494934
  19 H :    0.168971
  20 H :    0.173047
  21 H :    0.166124
  22 H :    0.175727
  23 H :    0.164471
  24 H :    0.180328
  25 H :    0.178489
  26 H :    0.168453
  27 H :    0.171569
  28 H :    0.170932
  29 H :    0.238200
  30 H :    0.212152
  31 H :    0.175649
  32 H :    0.171924
  33 H :    0.169523
  34 H :    0.170193
  35 H :    0.170163
  36 H :    0.174832
  37 H :    0.178936
  38 H :    0.170017
  39 H :    0.173668
  40 H :    0.176574
Sum of atomic charges:   -0.0000000

LOEWDIN ATOMIC CHARGES
----------------------
   0 C :   -0.406932
   1 C :    0.024079
   2 O :   -0.680243
   3 P :    0.373508
   4 S :   -0.159515
   5 O :   -0.680784
   6 C :    0.013345
   7 C :   -0.403151
   8 S :    0.169428
   9 C :   -0.409490
  10 S :    0.135671
  11 P :    0.379044
  12 S :   -0.108010
  13 O :   -0.677593
  14 C :    0.027887
  15 C :   -0.395365
  16 O :   -0.673984
  17 C :    0.027146
  18 C :   -0.411585
  19 H :    0.166912
  20 H :    0.162945
  21 H :    0.161689
  22 H :    0.189184
  23 H :    0.180026
  24 H :    0.183465
  25 H :    0.190497
  26 H :    0.163149
  27 H :    0.168416
  28 H :    0.164316
  29 H :    0.197109
  30 H :    0.199787
  31 H :    0.183921
  32 H :    0.181726
  33 H :    0.164143
  34 H :    0.168870
  35 H :    0.163045
  36 H :    0.191160
  37 H :    0.181409
  38 H :    0.163751
  39 H :    0.168867
  40 H :    0.162154

  Mayer bond orders larger than 0.100000
B(  0-C ,  1-C ) :   0.9405 B(  0-C , 19-H ) :   0.9593 B(  0-C , 20-H ) :   0.9627
B(  0-C , 21-H ) :   0.9713 B(  1-C ,  2-O ) :   0.7718 B(  1-C , 22-H ) :   0.9541
B(  1-C , 23-H ) :   0.9580 B(  2-O ,  3-P ) :   1.0557 B(  3-P ,  4-S ) :   1.7147
B(  3-P ,  5-O ) :   1.1669 B(  3-P ,  8-S ) :   1.1530 B(  5-O ,  6-C ) :   0.7817
B(  6-C ,  7-C ) :   0.9058 B(  6-C , 24-H ) :   0.9571 B(  6-C , 25-H ) :   0.9513
B(  7-C , 26-H ) :   0.9604 B(  7-C , 27-H ) :   0.9551 B(  7-C , 28-H ) :   0.9717
B(  8-S ,  9-C ) :   0.8813 B(  9-C , 10-S ) :   0.9047 B(  9-C , 29-H ) :   0.8974
B(  9-C , 30-H ) :   0.9097 B( 10-S , 11-P ) :   1.0314 B( 11-P , 12-S ) :   1.8139
B( 11-P , 13-O ) :   1.1325 B( 11-P , 16-O ) :   1.0513 B( 13-O , 14-C ) :   0.7417
B( 14-C , 15-C ) :   0.9394 B( 14-C , 31-H ) :   0.9347 B( 14-C , 32-H ) :   0.9457
B( 15-C , 33-H ) :   0.9689 B( 15-C , 34-H ) :   0.9581 B( 15-C , 35-H ) :   0.9663
B( 16-O , 17-C ) :   0.8138 B( 17-C , 18-C ) :   0.9013 B( 17-C , 36-H ) :   0.9504
B( 17-C , 37-H ) :   0.9676 B( 18-C , 38-H ) :   0.9647 B( 18-C , 39-H ) :   0.9514
B( 18-C , 40-H ) :   0.9649

Dispersion correction           -0.022317705
FINAL SINGLE POINT ENERGY     -2932.469165996651

DIPOLE MOMENT
-------------

Method             : SCF
Type of density    : Electron Density
Multiplicity       :   1
Irrep              :   0
Energy             : -2932.4934706115059271 Eh
Relativity type    :
Basis              : AO
                                X                 Y                 Z
Electronic contribution:     -5.726061869      -6.007216014      -6.154151906
Nuclear contribution   :      5.213471354       5.000029456       7.736362198
                        -----------------------------------------
Total Dipole Moment    :     -0.512590515      -1.007186558       1.582210292
                        -----------------------------------------
Magnitude (a.u.)       :      1.944367046
Magnitude (Debye)      :      4.942188268

Rotational constants in cm-1:             0.013188             0.005176             0.005123
Rotational constants in MHz :           395.351844           155.181635           153.595325

                             ****ORCA TERMINATED NORMALLY****
TOTAL RUN TIME: 0 days 0 hours 1 minutes 51 seconds 588 msec
