                         Program Version 6.0.0  -   RELEASE  -
|  1> ! pbe def2-sv(p) def2/J RI DEFGRID1 loosescf d4 GCP(DFT/SV(P)) printgap
|  2> %output
|  3>     printlevel normal
|  4> end
|  5> * xyz 0 1
|  6> C 4.1399510071 -1.4078663253 -2.2537498724
|  7> C 4.3202993696 -1.0280990455 -0.7977611099
|  8> O 3.0615116445 -0.764741219 -0.1552046242
|  9> P 2.2326306025 0.5728095549 -0.4426873398
| 10> S 3.3461751019 2.1616794764 -0.6953047695
| 11> O 1.2394138551 0.5749214407 0.7938461665
| 12> C 1.6730200323 1.0482248881 2.0887715296
| 13> C 1.1174077523 2.4338323643 2.3429273512
| 14> S 0.8733018161 0.1200919725 -1.9719422503
| 15> C 0.1928170409 -1.469424509 -1.3524729665
| 16> S -1.6089353358 -1.4484168284 -1.3143064394
| 17> P -1.8633018117 -0.5328046627 0.5944673809
| 18> S -0.8820763111 -1.3821712357 2.0561090629
| 19> O -3.4440152099 -0.5488272346 0.7462824178
| 20> C -4.1544294224 -1.7839055096 0.9710284415
| 21> C -5.5608229124 -1.4372725725 1.4150217806
| 22> O -1.545600659 1.000268921 0.4271369296
| 23> C -2.176246963 1.8416064717 -0.5698590795
| 24> C -3.3444270607 2.5979103364 0.0269715691
| 25> H 5.1067280001 -1.6545993324 -2.6805872499
| 26> H 3.4789324638 -2.2658759675 -2.3440548434
| 27> H 3.7140366732 -0.5706627098 -2.8061415841
| 28> H 4.9471834297 -0.1349264348 -0.7080011834
| 29> H 4.7495183969 -1.8443320413 -0.2151772378
| 30> H 1.2795712295 0.3199321648 2.8010039977
| 31> H 2.7659689701 1.0451121253 2.1248664183
| 32> H 0.0345733319 2.4140306418 2.2487012161
| 33> H 1.3880646568 2.7506977729 3.3448709206
| 34> H 1.5245671065 3.1382862006 1.6203216709
| 35> H 0.5757716491 -1.6608156412 -0.349875927
| 36> H 0.4793824573 -2.249395511 -2.0522771069
| 37> H -4.1571770589 -2.3499636571 0.0358825093
| 38> H -3.6206933576 -2.3574631331 1.7356885917
| 39> H -5.5308540802 -0.8589429382 2.3342144907
| 40> H -6.0613708559 -0.8551530401 0.646780548
| 41> H -6.1146536709 -2.354084712 1.5876366157
| 42> H -1.3837564159 2.5182889673 -0.8980753929
| 43> H -2.4953401436 1.2201789463 -1.411537569
| 44> H -4.1098791877 1.9029214065 0.3613343152
| 45> H -3.0135266012 3.1911362048 0.8751263517
| 46> H -3.76101029 3.2564313061 -0.7287723766
| 47> *
| 48>
| 49>                          ****END OF INPUT****

CARTESIAN COORDINATES (ANGSTROEM)
---------------------------------
  C      4.139951   -1.407866   -2.253750
  C      4.320299   -1.028099   -0.797761
  O      3.061512   -0.764741   -0.155205
  P      2.232631    0.572810   -0.442687
  S      3.346175    2.161679   -0.695305
  O      1.239414    0.574921    0.793846
  C      1.673020    1.048225    2.088772
  C      1.117408    2.433832    2.342927
  S      0.873302    0.120092   -1.971942
  C      0.192817   -1.469425   -1.352473
  S     -1.608935   -1.448417   -1.314306
  P     -1.863302   -0.532805    0.594467
  S     -0.882076   -1.382171    2.056109
  O     -3.444015   -0.548827    0.746282
  C     -4.154429   -1.783906    0.971028
  C     -5.560823   -1.437273    1.415022
  O     -1.545601    1.000269    0.427137
  C     -2.176247    1.841606   -0.569859
  C     -3.344427    2.597910    0.026972
  H      5.106728   -1.654599   -2.680587
  H      3.478932   -2.265876   -2.344055
  H      3.714037   -0.570663   -2.806142
  H      4.947183   -0.134926   -0.708001
  H      4.749518   -1.844332   -0.215177
  H      1.279571    0.319932    2.801004
  H      2.765969    1.045112    2.124866
  H      0.034573    2.414031    2.248701
  H      1.388065    2.750698    3.344871
  H      1.524567    3.138286    1.620322
  H      0.575772   -1.660816   -0.349876
  H      0.479382   -2.249396   -2.052277
  H     -4.157177   -2.349964    0.035883
  H     -3.620693   -2.357463    1.735689
  H     -5.530854   -0.858943    2.334214
  H     -6.061371   -0.855153    0.646781
  H     -6.114654   -2.354085    1.587637
  H     -1.383756    2.518289   -0.898075
  H     -2.495340    1.220179   -1.411538
  H     -4.109879    1.902921    0.361334
  H     -3.013527    3.191136    0.875126
  H     -3.761010    3.256431   -0.728772

 Total Charge           Charge          ....    0
 Multiplicity           Mult            ....    1
 Number of Electrons    NEL             ....  202
 Basis Dimension        Dim             ....  334

ORBITAL ENERGIES
----------------

  NO   OCC          E(Eh)            E(eV)
   0   2.0000     -88.048872     -2395.9316
   1   2.0000     -88.043038     -2395.7728
   2   2.0000     -87.986895     -2394.2451
   3   2.0000     -87.984364     -2394.1763
   4   2.0000     -76.429592     -2079.7549
   5   2.0000     -76.421283     -2079.5288
   6   2.0000     -18.801574      -511.6168
   7   2.0000     -18.794869      -511.4344
   8   2.0000     -18.789169      -511.2793
   9   2.0000     -18.778680      -510.9939
  10   2.0000      -9.961045      -271.0538
  11   2.0000      -9.959469      -271.0109
  12   2.0000      -9.954323      -270.8709
  13   2.0000      -9.948812      -270.7209
  14   2.0000      -9.938373      -270.4369
  15   2.0000      -9.894335      -269.2385
  16   2.0000      -9.886609      -269.0283
  17   2.0000      -9.884188      -268.9624
  18   2.0000      -9.869261      -268.5562
  19   2.0000      -7.694110      -209.3674
  20   2.0000      -7.688382      -209.2115
  21   2.0000      -7.631984      -207.6768
  22   2.0000      -7.629572      -207.6112
  23   2.0000      -6.427262      -174.8947
  24   2.0000      -6.419276      -174.6774
  25   2.0000      -5.721837      -155.6991
  26   2.0000      -5.718512      -155.6086
  27   2.0000      -5.716719      -155.5598
  28   2.0000      -5.712626      -155.4485
  29   2.0000      -5.711320      -155.4129
  30   2.0000      -5.705104      -155.2438
  31   2.0000      -5.661052      -154.0451
  32   2.0000      -5.658575      -153.9777
  33   2.0000      -5.652488      -153.8120
  34   2.0000      -5.652063      -153.8004
  35   2.0000      -5.650227      -153.7505
  36   2.0000      -5.649607      -153.7336
  37   2.0000      -4.650145      -126.5369
  38   2.0000      -4.649117      -126.5089
  39   2.0000      -4.647303      -126.4596
  40   2.0000      -4.641629      -126.3051
  41   2.0000      -4.641218      -126.2940
  42   2.0000      -4.639758      -126.2542
  43   2.0000      -0.994262       -27.0553
  44   2.0000      -0.979812       -26.6620
  45   2.0000      -0.950972       -25.8773
  46   2.0000      -0.936999       -25.4970
  47   2.0000      -0.765391       -20.8273
  48   2.0000      -0.724086       -19.7034
  49   2.0000      -0.708668       -19.2838
  50   2.0000      -0.695726       -18.9317
  51   2.0000      -0.682817       -18.5804
  52   2.0000      -0.671017       -18.2593
  53   2.0000      -0.651343       -17.7240
  54   2.0000      -0.638701       -17.3799
  55   2.0000      -0.593119       -16.1396
  56   2.0000      -0.588122       -16.0036
  57   2.0000      -0.574468       -15.6321
  58   2.0000      -0.570404       -15.5215
  59   2.0000      -0.560135       -15.2420
  60   2.0000      -0.512565       -13.9476
  61   2.0000      -0.495329       -13.4786
  62   2.0000      -0.485412       -13.2087
  63   2.0000      -0.464374       -12.6363
  64   2.0000      -0.456913       -12.4332
  65   2.0000      -0.449228       -12.2241
  66   2.0000      -0.441086       -12.0026
  67   2.0000      -0.436399       -11.8750
  68   2.0000      -0.430814       -11.7230
  69   2.0000      -0.418493       -11.3878
  70   2.0000      -0.411266       -11.1911
  71   2.0000      -0.393217       -10.7000
  72   2.0000      -0.392811       -10.6889
  73   2.0000      -0.386879       -10.5275
  74   2.0000      -0.376859       -10.2548
  75   2.0000      -0.371605       -10.1119
  76   2.0000      -0.367317        -9.9952
  77   2.0000      -0.360053        -9.7975
  78   2.0000      -0.357026        -9.7152
  79   2.0000      -0.348700        -9.4886
  80   2.0000      -0.347150        -9.4464
  81   2.0000      -0.346165        -9.4196
  82   2.0000      -0.341350        -9.2886
  83   2.0000      -0.332804        -9.0561
  84   2.0000      -0.328044        -8.9265
  85   2.0000      -0.322409        -8.7732
  86   2.0000      -0.308723        -8.4008
  87   2.0000      -0.305893        -8.3238
  88   2.0000      -0.297133        -8.0854
  89   2.0000      -0.291430        -7.9302
  90   2.0000      -0.281203        -7.6519
  91   2.0000      -0.272631        -7.4187
  92   2.0000      -0.267224        -7.2715
  93   2.0000      -0.263594        -7.1728
  94   2.0000      -0.261943        -7.1278
  95   2.0000      -0.242329        -6.5941
  96   2.0000      -0.220551        -6.0015
  97   2.0000      -0.209845        -5.7102
  98   2.0000      -0.205392        -5.5890
  99   2.0000      -0.200034        -5.4432
 100   2.0000      -0.196231        -5.3397
 101   0.0000      -0.042871        -1.1666
 102   0.0000      -0.027157        -0.7390
 103   0.0000      -0.020332        -0.5533
 104   0.0000       0.006336         0.1724
 105   0.0000       0.017022         0.4632

MULLIKEN ATOMIC CHARGES
-----------------------
   0 C :   -0.315124
   1 C :   -0.006850
   2 O :   -0.380927
   3 P :    0.598636
   4 S :   -0.325318
   5 O :   -0.362570
   6 C :    0.000250
   7 C :   -0.295050
   8 S :   -0.077648
   9 C :   -0.359245
  10 S :   -0.106759
  11 P :    0.616463
  12 S :   -0.308576
  13 O :   -0.382863
  14 C :   -0.017216
  15 C :   -0.283316
  16 O :   -0.345522
  17 C :   -0.012086
  18 C :   -0.292305
  19 H :    0.112963
  20 H :    0.111195
  21 H :    0.127965
  22 H :    0.112049
  23 H :    0.104785
  24 H :    0.113863
  25 H :    0.096452
  26 H :    0.120503
  27 H :    0.102507
  28 H :    0.115449
  29 H :    0.205611
  30 H :    0.188377
  31 H :    0.106787
  32 H :    0.109207
  33 H :    0.123897
  34 H :    0.117640
  35 H :    0.115299
  36 H :    0.117288
  37 H :    0.102162
  38 H :    0.120695
  39 H :    0.120295
  40 H :    0.111039
Sum of atomic charges:   -0.0000000

LOEWDIN ATOMIC CHARGES
----------------------
   0 C :   -0.367137
   1 C :   -0.122648
   2 O :   -0.251457
   3 P :    0.562119
   4 S :   -0.322430
   5 O :   -0.238136
   6 C :   -0.117452
   7 C :   -0.360911
   8 S :    0.082344
   9 C :   -0.473437
  10 S :    0.069771
  11 P :    0.577182
  12 S :   -0.299033
  13 O :   -0.248418
  14 C :   -0.121297
  15 C :   -0.350521
  16 O :   -0.220637
  17 C :   -0.117200
  18 C :   -0.360040
  19 H :    0.131042
  20 H :    0.121500
  21 H :    0.122140
  22 H :    0.109264
  23 H :    0.118133
  24 H :    0.112944
  25 H :    0.105245
  26 H :    0.125065
  27 H :    0.126249
  28 H :    0.122010
  29 H :    0.131000
  30 H :    0.136225
  31 H :    0.109157
  32 H :    0.111195
  33 H :    0.130375
  34 H :    0.126377
  35 H :    0.132669
  36 H :    0.122344
  37 H :    0.103145
  38 H :    0.124721
  39 H :    0.128017
  40 H :    0.130521

  Mayer bond orders larger than 0.100000
B(  0-C ,  1-C ) :   1.1622 B(  0-C , 19-H ) :   0.9393 B(  0-C , 20-H ) :   0.9467
B(  0-C , 21-H ) :   0.9361 B(  1-C ,  2-O ) :   0.9166 B(  1-C , 22-H ) :   0.9106
B(  1-C , 23-H ) :   0.9335 B(  2-O ,  3-P ) :   1.0594 B(  3-P ,  4-S ) :   1.6300
B(  3-P ,  5-O ) :   1.1329 B(  3-P ,  8-S ) :   0.9887 B(  5-O ,  6-C ) :   0.8829
B(  6-C ,  7-C ) :   1.1735 B(  6-C , 24-H ) :   0.9154 B(  6-C , 25-H ) :   0.9131
B(  7-C , 26-H ) :   0.9413 B(  7-C , 27-H ) :   0.9409 B(  7-C , 28-H ) :   0.9399
B(  8-S ,  9-C ) :   0.9568 B(  9-C , 10-S ) :   1.0131 B(  9-C , 29-H ) :   0.8621
B(  9-C , 30-H ) :   0.9083 B( 10-S , 11-P ) :   0.9471 B( 10-S , 12-S ) :   0.1055
B( 11-P , 12-S ) :   1.6463 B( 11-P , 13-O ) :   1.0796 B( 11-P , 16-O ) :   1.1479
B( 13-O , 14-C ) :   0.9035 B( 14-C , 15-C ) :   1.1601 B( 14-C , 31-H ) :   0.9279
B( 14-C , 32-H ) :   0.9100 B( 15-C , 33-H ) :   0.9506 B( 15-C , 34-H ) :   0.9506
B( 15-C , 35-H ) :   0.9415 B( 16-O , 17-C ) :   0.8829 B( 17-C , 18-C ) :   1.1617
B( 17-C , 36-H ) :   0.9316 B( 17-C , 37-H ) :   0.9103 B( 18-C , 38-H ) :   0.9408
B( 18-C , 39-H ) :   0.9481 B( 18-C , 40-H ) :   0.9398

Dispersion correction           -0.065317662
FINAL SINGLE POINT ENERGY     -2929.520783140379

DIPOLE MOMENT
-------------

Method             : SCF
Type of density    : Electron Density
Multiplicity       :   1
Irrep              :   0
Energy             : -2929.6423104995355970 Eh
Relativity type    :
Basis              : AO
                                X                 Y                 Z
Electronic contribution:      8.873881342      -3.153543440      -5.413350356
Nuclear contribution   :     -9.963301683       2.424014651       5.127473279
                        -----------------------------------------
Total Dipole Moment    :     -1.089420340      -0.729528789      -0.285877077
                        -----------------------------------------
Magnitude (a.u.)       :      1.341929445
Magnitude (Debye)      :      3.410913578

Rotational constants in cm-1:             0.013108             0.004992             0.004622
Rotational constants in MHz :           392.963301           149.656567           138.573393

                             ****ORCA TERMINATED NORMALLY****
TOTAL RUN TIME: 0 days 0 hours 0 minutes 21 seconds 219 msec
