                         Program Version 6.0.0  -   RELEASE  -
|  1> ! pbe def2-sv(p) def2/J RI DEFGRID1 loosescf d4 GCP(DFT/SV(P)) printgap
|  2> %output
|  3>     printlevel normal
|  4> end
|  5> * xyz 0 1
|  6> C 4.5894451064 1.1110794686 -1.8035175944
|  7> C 4.597566624 0.8554310637 -0.310384088
|  8> O 3.6798686483 -0.1873774354 0.057992199
|  9> P 2.1034076162 -0.0041763297 -0.0368430542
| 10> S 1.4994794418 1.7775224504 0.527407058
| 11> O 1.5562250532 -1.2272169587 0.8086862811
| 12> C 1.3461123341 -1.1477846322 2.2316437626
| 13> C 2.6444957417 -0.9837173223 2.9903123864
| 14> S 1.6916390807 -0.71096073 -1.9792687983
| 15> C -0.0758025501 -1.1084884918 -1.8967349462
| 16> S -1.1583944176 0.3169157077 -1.5931006114
| 17> P -2.0311621128 -0.2592264174 0.2727276367
| 18> S -1.6922832032 -2.1019997228 0.8312347103
| 19> O -3.5687914971 0.1105768775 0.1047351455
| 20> C -4.4866807051 -0.7159924301 -0.637578764
| 21> C -4.6869991395 -0.1926945445 -2.046572636
| 22> O -1.5623250384 0.7947928511 1.3431448845
| 23> C -1.8465899319 2.2126290135 1.2197938261
| 24> C -3.0449997449 2.5906589691 2.0629864977
| 25> H 4.7659050345 0.1859373096 -2.346322973
| 26> H 3.6221649864 1.5127162016 -2.1050731545
| 27> H 5.363049954 1.8307262988 -2.051255723
| 28> H 4.3274935304 1.7647263871 0.2371011558
| 29> H 5.5652378425 0.4874622255 0.0327604479
| 30> H 0.6644535817 -0.3139915438 2.434792323
| 31> H 0.8456241406 -2.0878775878 2.4711739281
| 32> H 2.446205248 -1.0516465803 4.0553878315
| 33> H 3.3465316049 -1.7610135848 2.7001919908
| 34> H 3.082171518 -0.0104653514 2.7716911869
| 35> H -0.2541187043 -1.8554653654 -1.1182185729
| 36> H -0.3152933669 -1.5014137053 -2.8820531619
| 37> H -4.1142525123 -1.74550598 -0.6386308978
| 38> H -5.4163694641 -0.6724209375 -0.066868337
| 39> H -5.4424624253 -0.795028176 -2.5408013762
| 40> H -5.0181169461 0.8414850294 -2.0154558521
| 41> H -3.7618092857 -0.2457105762 -2.6145569476
| 42> H -0.9356573928 2.7065084247 1.5649629638
| 43> H -2.0041572896 2.4509899137 0.1646493236
| 44> H -3.9372934655 2.0892745859 1.6981671722
| 45> H -2.8765697233 2.3031942454 3.0971690609
| 46> H -3.1869830199 3.6653180466 2.0078594676
| 47> *
| 48>
| 49>                          ****END OF INPUT****

CARTESIAN COORDINATES (ANGSTROEM)
---------------------------------
  C      4.589445    1.111079   -1.803518
  C      4.597567    0.855431   -0.310384
  O      3.679869   -0.187377    0.057992
  P      2.103408   -0.004176   -0.036843
  S      1.499479    1.777522    0.527407
  O      1.556225   -1.227217    0.808686
  C      1.346112   -1.147785    2.231644
  C      2.644496   -0.983717    2.990312
  S      1.691639   -0.710961   -1.979269
  C     -0.075803   -1.108488   -1.896735
  S     -1.158394    0.316916   -1.593101
  P     -2.031162   -0.259226    0.272728
  S     -1.692283   -2.102000    0.831235
  O     -3.568791    0.110577    0.104735
  C     -4.486681   -0.715992   -0.637579
  C     -4.686999   -0.192695   -2.046573
  O     -1.562325    0.794793    1.343145
  C     -1.846590    2.212629    1.219794
  C     -3.045000    2.590659    2.062986
  H      4.765905    0.185937   -2.346323
  H      3.622165    1.512716   -2.105073
  H      5.363050    1.830726   -2.051256
  H      4.327494    1.764726    0.237101
  H      5.565238    0.487462    0.032760
  H      0.664454   -0.313992    2.434792
  H      0.845624   -2.087878    2.471174
  H      2.446205   -1.051647    4.055388
  H      3.346532   -1.761014    2.700192
  H      3.082172   -0.010465    2.771691
  H     -0.254119   -1.855465   -1.118219
  H     -0.315293   -1.501414   -2.882053
  H     -4.114253   -1.745506   -0.638631
  H     -5.416369   -0.672421   -0.066868
  H     -5.442462   -0.795028   -2.540801
  H     -5.018117    0.841485   -2.015456
  H     -3.761809   -0.245711   -2.614557
  H     -0.935657    2.706508    1.564963
  H     -2.004157    2.450990    0.164649
  H     -3.937293    2.089275    1.698167
  H     -2.876570    2.303194    3.097169
  H     -3.186983    3.665318    2.007859

 Total Charge           Charge          ....    0
 Multiplicity           Mult            ....    1
 Number of Electrons    NEL             ....  202
 Basis Dimension        Dim             ....  334

ORBITAL ENERGIES
----------------

  NO   OCC          E(Eh)            E(eV)
   0   2.0000     -88.042683     -2395.7632
   1   2.0000     -88.038851     -2395.6589
   2   2.0000     -87.989531     -2394.3169
   3   2.0000     -87.981908     -2394.1094
   4   2.0000     -76.427374     -2079.6946
   5   2.0000     -76.421856     -2079.5444
   6   2.0000     -18.795529      -511.4523
   7   2.0000     -18.791438      -511.3410
   8   2.0000     -18.788962      -511.2736
   9   2.0000     -18.783427      -511.1230
  10   2.0000      -9.955329      -270.8983
  11   2.0000      -9.953750      -270.8553
  12   2.0000      -9.951646      -270.7980
  13   2.0000      -9.949870      -270.7497
  14   2.0000      -9.937018      -270.4000
  15   2.0000      -9.886481      -269.0248
  16   2.0000      -9.883721      -268.9497
  17   2.0000      -9.883691      -268.9489
  18   2.0000      -9.874874      -268.7090
  19   2.0000      -7.687324      -209.1827
  20   2.0000      -7.684488      -209.1055
  21   2.0000      -7.634523      -207.7459
  22   2.0000      -7.626792      -207.5356
  23   2.0000      -6.425153      -174.8373
  24   2.0000      -6.419487      -174.6831
  25   2.0000      -5.715161      -155.5174
  26   2.0000      -5.712559      -155.4466
  27   2.0000      -5.711861      -155.4276
  28   2.0000      -5.708847      -155.3456
  29   2.0000      -5.704348      -155.2232
  30   2.0000      -5.701307      -155.1404
  31   2.0000      -5.663463      -154.1107
  32   2.0000      -5.655529      -153.8948
  33   2.0000      -5.654962      -153.8793
  34   2.0000      -5.654751      -153.8736
  35   2.0000      -5.647388      -153.6732
  36   2.0000      -5.647168      -153.6673
  37   2.0000      -4.647868      -126.4749
  38   2.0000      -4.646754      -126.4446
  39   2.0000      -4.645608      -126.4134
  40   2.0000      -4.642044      -126.3164
  41   2.0000      -4.641285      -126.2958
  42   2.0000      -4.639942      -126.2592
  43   2.0000      -0.990049       -26.9406
  44   2.0000      -0.981636       -26.7117
  45   2.0000      -0.945506       -25.7285
  46   2.0000      -0.941039       -25.6070
  47   2.0000      -0.759405       -20.6645
  48   2.0000      -0.719876       -19.5888
  49   2.0000      -0.705871       -19.2077
  50   2.0000      -0.691192       -18.8083
  51   2.0000      -0.683293       -18.5934
  52   2.0000      -0.671132       -18.2624
  53   2.0000      -0.649781       -17.6814
  54   2.0000      -0.637971       -17.3601
  55   2.0000      -0.599513       -16.3136
  56   2.0000      -0.590226       -16.0609
  57   2.0000      -0.572089       -15.5673
  58   2.0000      -0.566811       -15.4237
  59   2.0000      -0.560534       -15.2529
  60   2.0000      -0.504819       -13.7368
  61   2.0000      -0.486153       -13.2289
  62   2.0000      -0.480174       -13.0662
  63   2.0000      -0.466757       -12.7011
  64   2.0000      -0.451931       -12.2977
  65   2.0000      -0.446169       -12.1409
  66   2.0000      -0.438283       -11.9263
  67   2.0000      -0.433985       -11.8093
  68   2.0000      -0.426825       -11.6145
  69   2.0000      -0.414885       -11.2896
  70   2.0000      -0.409429       -11.1411
  71   2.0000      -0.391740       -10.6598
  72   2.0000      -0.389849       -10.6083
  73   2.0000      -0.384678       -10.4676
  74   2.0000      -0.381688       -10.3862
  75   2.0000      -0.373870       -10.1735
  76   2.0000      -0.367899       -10.0110
  77   2.0000      -0.356356        -9.6969
  78   2.0000      -0.355933        -9.6854
  79   2.0000      -0.351710        -9.5705
  80   2.0000      -0.346722        -9.4348
  81   2.0000      -0.343561        -9.3488
  82   2.0000      -0.338908        -9.2222
  83   2.0000      -0.333966        -9.0877
  84   2.0000      -0.328137        -8.9291
  85   2.0000      -0.317422        -8.6375
  86   2.0000      -0.308418        -8.3925
  87   2.0000      -0.296839        -8.0774
  88   2.0000      -0.294364        -8.0101
  89   2.0000      -0.291869        -7.9422
  90   2.0000      -0.276661        -7.5283
  91   2.0000      -0.272954        -7.4275
  92   2.0000      -0.266374        -7.2484
  93   2.0000      -0.262516        -7.1434
  94   2.0000      -0.258335        -7.0297
  95   2.0000      -0.238848        -6.4994
  96   2.0000      -0.221471        -6.0265
  97   2.0000      -0.206924        -5.6307
  98   2.0000      -0.205074        -5.5803
  99   2.0000      -0.196091        -5.3359
 100   2.0000      -0.193261        -5.2589
 101   0.0000      -0.041314        -1.1242
 102   0.0000      -0.031868        -0.8672
 103   0.0000      -0.014969        -0.4073
 104   0.0000       0.000239         0.0065
 105   0.0000       0.012756         0.3471

MULLIKEN ATOMIC CHARGES
-----------------------
   0 C :   -0.324970
   1 C :   -0.003719
   2 O :   -0.370909
   3 P :    0.618715
   4 S :   -0.337969
   5 O :   -0.365784
   6 C :   -0.019634
   7 C :   -0.297116
   8 S :   -0.095519
   9 C :   -0.347083
  10 S :   -0.099916
  11 P :    0.605549
  12 S :   -0.301975
  13 O :   -0.380858
  14 C :   -0.004646
  15 C :   -0.297715
  16 O :   -0.347149
  17 C :   -0.018831
  18 C :   -0.280821
  19 H :    0.121800
  20 H :    0.130433
  21 H :    0.114941
  22 H :    0.110269
  23 H :    0.105426
  24 H :    0.120059
  25 H :    0.111560
  26 H :    0.109346
  27 H :    0.113916
  28 H :    0.115949
  29 H :    0.207919
  30 H :    0.179310
  31 H :    0.102888
  32 H :    0.108490
  33 H :    0.110625
  34 H :    0.112301
  35 H :    0.122215
  36 H :    0.123394
  37 H :    0.103540
  38 H :    0.118376
  39 H :    0.118345
  40 H :    0.109247
Sum of atomic charges:    0.0000000

LOEWDIN ATOMIC CHARGES
----------------------
   0 C :   -0.371587
   1 C :   -0.121679
   2 O :   -0.241595
   3 P :    0.568067
   4 S :   -0.319023
   5 O :   -0.235148
   6 C :   -0.125513
   7 C :   -0.365799
   8 S :    0.086298
   9 C :   -0.482662
  10 S :    0.075301
  11 P :    0.571020
  12 S :   -0.284487
  13 O :   -0.247419
  14 C :   -0.117788
  15 C :   -0.365359
  16 O :   -0.226226
  17 C :   -0.115089
  18 C :   -0.358647
  19 H :    0.125391
  20 H :    0.122306
  21 H :    0.132212
  22 H :    0.109050
  23 H :    0.118899
  24 H :    0.110773
  25 H :    0.116902
  26 H :    0.129347
  27 H :    0.125102
  28 H :    0.119467
  29 H :    0.124455
  30 H :    0.137197
  31 H :    0.107183
  32 H :    0.119924
  33 H :    0.130229
  34 H :    0.125039
  35 H :    0.117670
  36 H :    0.117076
  37 H :    0.106368
  38 H :    0.124545
  39 H :    0.128488
  40 H :    0.129715

  Mayer bond orders larger than 0.100000
B(  0-C ,  1-C ) :   1.1657 B(  0-C , 19-H ) :   0.9436 B(  0-C , 20-H ) :   0.9330
B(  0-C , 21-H ) :   0.9382 B(  1-C ,  2-O ) :   0.9103 B(  1-C , 22-H ) :   0.9125
B(  1-C , 23-H ) :   0.9326 B(  2-O ,  3-P ) :   1.0970 B(  3-P ,  4-S ) :   1.6118
B(  3-P ,  5-O ) :   1.1362 B(  3-P ,  8-S ) :   0.9661 B(  4-S ,  8-S ) :   0.1105
B(  5-O ,  6-C ) :   0.8923 B(  6-C ,  7-C ) :   1.1586 B(  6-C , 24-H ) :   0.9150
B(  6-C , 25-H ) :   0.9279 B(  7-C , 26-H ) :   0.9397 B(  7-C , 27-H ) :   0.9448
B(  7-C , 28-H ) :   0.9361 B(  8-S ,  9-C ) :   0.9977 B(  9-C , 10-S ) :   1.0058
B(  9-C , 29-H ) :   0.8447 B(  9-C , 30-H ) :   0.9119 B( 10-S , 11-P ) :   0.9537
B( 10-S , 12-S ) :   0.1187 B( 11-P , 12-S ) :   1.6296 B( 11-P , 13-O ) :   1.0764
B( 11-P , 16-O ) :   1.1463 B( 12-S , 29-H ) :   0.1151 B( 13-O , 14-C ) :   0.9025
B( 14-C , 15-C ) :   1.1662 B( 14-C , 31-H ) :   0.9058 B( 14-C , 32-H ) :   0.9356
B( 15-C , 33-H ) :   0.9395 B( 15-C , 34-H ) :   0.9484 B( 15-C , 35-H ) :   0.9330
B( 16-O , 17-C ) :   0.8818 B( 17-C , 18-C ) :   1.1630 B( 17-C , 36-H ) :   0.9217
B( 17-C , 37-H ) :   0.9196 B( 18-C , 38-H ) :   0.9414 B( 18-C , 39-H ) :   0.9469
B( 18-C , 40-H ) :   0.9400

Dispersion correction           -0.067177838
FINAL SINGLE POINT ENERGY     -2929.520107552778

DIPOLE MOMENT
-------------

Method             : SCF
Type of density    : Electron Density
Multiplicity       :   1
Irrep              :   0
Energy             : -2929.6395430804159332 Eh
Relativity type    :
Basis              : AO
                                X                 Y                 Z
Electronic contribution:      2.719762587      -7.155655258      -4.760913260
Nuclear contribution   :     -3.107130338       7.564284745       4.443986928
                        -----------------------------------------
Total Dipole Moment    :     -0.387367751       0.408629487      -0.316926333
                        -----------------------------------------
Magnitude (a.u.)       :      0.646122382
Magnitude (Debye)      :      1.642312578

Rotational constants in cm-1:             0.012635             0.005277             0.004950
Rotational constants in MHz :           378.790343           158.187612           148.410253

                             ****ORCA TERMINATED NORMALLY****
TOTAL RUN TIME: 0 days 0 hours 0 minutes 21 seconds 2 msec
