                         Program Version 6.0.0  -   RELEASE  -
|  1> ! wb97x-v def2-tzvp def2/J RIJCOSX DEFGRID2 scfconv7 GCP(DFT/TZ) printgap
|  2> %output
|  3>     printlevel normal
|  4> end
|  5> * xyz 0 1
|  6> C -2.9218173667068448 -0.007988645534089006 -0.0012378039664468832
|  7> C -1.4187124753489415 0.004939928684617387 0.003053587414362482
|  8> C -0.6977275253153102 1.1995875307279436 0.0017239761049028812
|  9> C 0.6977493742480544 1.1995759279198623 -0.001783380629128741
| 10> C 1.4187107107440102 0.004917386888684032 -0.0033021404094829812
| 11> C 0.6947038782531543 -1.194446289599171 -0.0019677538105894086
| 12> C -0.6947210219877111 -1.194437345137631 0.0017935146115307468
| 13> C 2.9218100642252183 -0.00799260433953135 0.0011031486716229567
| 14> H -3.3140550879650363 -0.5873423696053723 0.8416133137792153
| 15> H -3.3266897601446703 1.0052136485858367 0.06211522529070815
| 16> H -3.308680659223983 -0.47206270216931906 -0.9155566100117034
| 17> H -1.233017704860798 2.1456871988135764 0.002753838844493519
| 18> H 1.2330610758326634 2.145664458247395 -0.0030000721810079663
| 19> H 1.2321446726227958 -2.1398067063258686 -0.0030864148971306367
| 20> H -1.2321666700098457 -2.139796147812901 0.0027117063533100617
| 21> H 3.326720950862561 1.0045381596207354 -0.07212102477608016
| 22> H 3.3086770185167462 -0.46290928809816134 0.9200503706856119
| 23> H 3.314016803506609 -0.5957411696379616 -0.8358837423712862
| 24> *
| 25>
| 26>                          ****END OF INPUT****

CARTESIAN COORDINATES (ANGSTROEM)
---------------------------------
  C     -2.921817   -0.007989   -0.001238
  C     -1.418712    0.004940    0.003054
  C     -0.697728    1.199588    0.001724
  C      0.697749    1.199576   -0.001783
  C      1.418711    0.004917   -0.003302
  C      0.694704   -1.194446   -0.001968
  C     -0.694721   -1.194437    0.001794
  C      2.921810   -0.007993    0.001103
  H     -3.314055   -0.587342    0.841613
  H     -3.326690    1.005214    0.062115
  H     -3.308681   -0.472063   -0.915557
  H     -1.233018    2.145687    0.002754
  H      1.233061    2.145664   -0.003000
  H      1.232145   -2.139807   -0.003086
  H     -1.232167   -2.139796    0.002712
  H      3.326721    1.004538   -0.072121
  H      3.308677   -0.462909    0.920050
  H      3.314017   -0.595741   -0.835884

 Total Charge           Charge          ....    0
 Multiplicity           Mult            ....    1
 Number of Electrons    NEL             ....   58
 Basis Dimension        Dim             ....  308

ORBITAL ENERGIES
----------------

  NO   OCC          E(Eh)            E(eV)
   0   2.0000     -12.054334      -328.0151
   1   2.0000     -12.054057      -328.0076
   2   2.0000     -12.045574      -327.7767
   3   2.0000     -12.044739      -327.7540
   4   2.0000     -12.043378      -327.7170
   5   2.0000     -12.042935      -327.7049
   6   2.0000     -12.041125      -327.6557
   7   2.0000     -12.040958      -327.6511
   8   2.0000      -1.381463       -37.5915
   9   2.0000      -1.304078       -35.4858
  10   2.0000      -1.265453       -34.4347
  11   2.0000      -1.219793       -33.1923
  12   2.0000      -1.160381       -31.5756
  13   2.0000      -1.103035       -30.0151
  14   2.0000      -1.065369       -28.9902
  15   2.0000      -0.955113       -25.9900
  16   2.0000      -0.943950       -25.6862
  17   2.0000      -0.905171       -24.6310
  18   2.0000      -0.865722       -23.5575
  19   2.0000      -0.864440       -23.5226
  20   2.0000      -0.838106       -22.8060
  21   2.0000      -0.832170       -22.6445
  22   2.0000      -0.831471       -22.6255
  23   2.0000      -0.813821       -22.1452
  24   2.0000      -0.811453       -22.0808
  25   2.0000      -0.786223       -21.3942
  26   2.0000      -0.749563       -20.3966
  27   2.0000      -0.632403       -17.2086
  28   2.0000      -0.623760       -16.9734
  29   0.0000      -0.234718        -6.3870
  30   0.0000      -0.231167        -6.2904
  31   0.0000      -0.069201        -1.8831
  32   0.0000      -0.049409        -1.3445
  33   0.0000      -0.015214        -0.4140

MULLIKEN ATOMIC CHARGES
-----------------------
   0 C :   -0.363513
   1 C :    0.144262
   2 C :   -0.184189
   3 C :   -0.184217
   4 C :    0.144220
   5 C :   -0.177659
   6 C :   -0.177651
   7 C :   -0.363458
   8 H :    0.121731
   9 H :    0.114887
  10 H :    0.122372
  11 H :    0.109387
  12 H :    0.109381
  13 H :    0.112676
  14 H :    0.112734
  15 H :    0.114928
  16 H :    0.122418
  17 H :    0.121690
Sum of atomic charges:   -0.0000000

LOEWDIN ATOMIC CHARGES
----------------------
   0 C :   -0.254083
   1 C :   -0.173702
   2 C :   -0.118960
   3 C :   -0.118949
   4 C :   -0.173701
   5 C :   -0.114798
   6 C :   -0.114784
   7 C :   -0.254084
   8 H :    0.126184
   9 H :    0.123449
  10 H :    0.126597
  11 H :    0.141974
  12 H :    0.141978
  13 H :    0.143321
  14 H :    0.143326
  15 H :    0.123456
  16 H :    0.126617
  17 H :    0.126158

  Mayer bond orders larger than 0.100000
B(  0-C ,  1-C ) :   0.9131 B(  0-C ,  8-H ) :   0.9791 B(  0-C ,  9-H ) :   0.9973
B(  0-C , 10-H ) :   0.9738 B(  1-C ,  2-C ) :   1.4231 B(  1-C ,  6-C ) :   1.3528
B(  2-C ,  3-C ) :   1.4302 B(  2-C , 11-H ) :   0.9698 B(  3-C ,  4-C ) :   1.4229
B(  3-C , 12-H ) :   0.9699 B(  4-C ,  5-C ) :   1.3529 B(  4-C ,  7-C ) :   0.9132
B(  5-C ,  6-C ) :   1.4633 B(  5-C , 13-H ) :   0.9810 B(  6-C , 14-H ) :   0.9810
B(  7-C , 15-H ) :   0.9972 B(  7-C , 16-H ) :   0.9734 B(  7-C , 17-H ) :   0.9794

FINAL SINGLE POINT ENERGY      -310.890049018731

DIPOLE MOMENT
-------------

Method             : SCF
Type of density    : Electron Density
Multiplicity       :   1
Irrep              :   0
Energy             :  -310.9003166873312693 Eh
Relativity type    :
Basis              : AO
                                X                 Y                 Z
Electronic contribution:     -0.000016753       0.052430960      -0.000055649
Nuclear contribution   :      0.000013663      -0.086395975       0.000312177
                        -----------------------------------------
Total Dipole Moment    :     -0.000003090      -0.033965015       0.000256528
                        -----------------------------------------
Magnitude (a.u.)       :      0.033965984
Magnitude (Debye)      :      0.086334670

Rotational constants in cm-1:             0.179984             0.047825             0.038322
Rotational constants in MHz :          5395.790295          1433.747672          1148.855833

                             ****ORCA TERMINATED NORMALLY****
TOTAL RUN TIME: 0 days 0 hours 2 minutes 16 seconds 77 msec
