                         Program Version 6.0.0  -   RELEASE  -
|  1> ! wb97x-v def2-tzvp def2/J RIJCOSX DEFGRID2 scfconv7 GCP(DFT/TZ) printgap
|  2> %output
|  3>     printlevel normal
|  4> end
|  5> %cpcm
|  6>     smd true
|  7>     smdsolvent "water"
|  8> end
|  9> * xyz 0 1
| 10> C -2.9218173667068448 -0.007988645534089006 -0.0012378039664468832
| 11> C -1.4187124753489415 0.004939928684617387 0.003053587414362482
| 12> C -0.6977275253153102 1.1995875307279436 0.0017239761049028812
| 13> C 0.6977493742480544 1.1995759279198623 -0.001783380629128741
| 14> C 1.4187107107440102 0.004917386888684032 -0.0033021404094829812
| 15> C 0.6947038782531543 -1.194446289599171 -0.0019677538105894086
| 16> C -0.6947210219877111 -1.194437345137631 0.0017935146115307468
| 17> C 2.9218100642252183 -0.00799260433953135 0.0011031486716229567
| 18> H -3.3140550879650363 -0.5873423696053723 0.8416133137792153
| 19> H -3.3266897601446703 1.0052136485858367 0.06211522529070815
| 20> H -3.308680659223983 -0.47206270216931906 -0.9155566100117034
| 21> H -1.233017704860798 2.1456871988135764 0.002753838844493519
| 22> H 1.2330610758326634 2.145664458247395 -0.0030000721810079663
| 23> H 1.2321446726227958 -2.1398067063258686 -0.0030864148971306367
| 24> H -1.2321666700098457 -2.139796147812901 0.0027117063533100617
| 25> H 3.326720950862561 1.0045381596207354 -0.07212102477608016
| 26> H 3.3086770185167462 -0.46290928809816134 0.9200503706856119
| 27> H 3.314016803506609 -0.5957411696379616 -0.8358837423712862
| 28> *
| 29>
| 30>                          ****END OF INPUT****

CARTESIAN COORDINATES (ANGSTROEM)
---------------------------------
  C     -2.921817   -0.007989   -0.001238
  C     -1.418712    0.004940    0.003054
  C     -0.697728    1.199588    0.001724
  C      0.697749    1.199576   -0.001783
  C      1.418711    0.004917   -0.003302
  C      0.694704   -1.194446   -0.001968
  C     -0.694721   -1.194437    0.001794
  C      2.921810   -0.007993    0.001103
  H     -3.314055   -0.587342    0.841613
  H     -3.326690    1.005214    0.062115
  H     -3.308681   -0.472063   -0.915557
  H     -1.233018    2.145687    0.002754
  H      1.233061    2.145664   -0.003000
  H      1.232145   -2.139807   -0.003086
  H     -1.232167   -2.139796    0.002712
  H      3.326721    1.004538   -0.072121
  H      3.308677   -0.462909    0.920050
  H      3.314017   -0.595741   -0.835884

 Total Charge           Charge          ....    0
 Multiplicity           Mult            ....    1
 Number of Electrons    NEL             ....   58
 Basis Dimension        Dim             ....  308

ORBITAL ENERGIES
----------------

  NO   OCC          E(Eh)            E(eV)
   0   2.0000     -12.053683      -327.9974
   1   2.0000     -12.053408      -327.9899
   2   2.0000     -12.044027      -327.7346
   3   2.0000     -12.043243      -327.7133
   4   2.0000     -12.041824      -327.6747
   5   2.0000     -12.041393      -327.6630
   6   2.0000     -12.032710      -327.4267
   7   2.0000     -12.032633      -327.4246
   8   2.0000      -1.381787       -37.6003
   9   2.0000      -1.302114       -35.4323
  10   2.0000      -1.265346       -34.4318
  11   2.0000      -1.214531       -33.0491
  12   2.0000      -1.155308       -31.4375
  13   2.0000      -1.101647       -29.9774
  14   2.0000      -1.063112       -28.9287
  15   2.0000      -0.953900       -25.9569
  16   2.0000      -0.940655       -25.5965
  17   2.0000      -0.901104       -24.5203
  18   2.0000      -0.863346       -23.4928
  19   2.0000      -0.860534       -23.4163
  20   2.0000      -0.832287       -22.6477
  21   2.0000      -0.824957       -22.4482
  22   2.0000      -0.824358       -22.4319
  23   2.0000      -0.810056       -22.0427
  24   2.0000      -0.803430       -21.8624
  25   2.0000      -0.781981       -21.2788
  26   2.0000      -0.749675       -20.3997
  27   2.0000      -0.634212       -17.2578
  28   2.0000      -0.624204       -16.9854
  29   0.0000      -0.235271        -6.4020
  30   0.0000      -0.232309        -6.3214
  31   0.0000      -0.068730        -1.8702
  32   0.0000      -0.042629        -1.1600
  33   0.0000      -0.009596        -0.2611

MULLIKEN ATOMIC CHARGES
-----------------------
   0 C :   -0.392640
   1 C :    0.112113
   2 C :   -0.227534
   3 C :   -0.227505
   4 C :    0.112001
   5 C :   -0.219085
   6 C :   -0.219088
   7 C :   -0.392607
   8 H :    0.139387
   9 H :    0.139868
  10 H :    0.139098
  11 H :    0.154490
  12 H :    0.154478
  13 H :    0.154281
  14 H :    0.154324
  15 H :    0.139896
  16 H :    0.139092
  17 H :    0.139431
Sum of atomic charges:   -0.0000000

LOEWDIN ATOMIC CHARGES
----------------------
   0 C :   -0.256477
   1 C :   -0.183661
   2 C :   -0.130186
   3 C :   -0.130173
   4 C :   -0.183664
   5 C :   -0.124405
   6 C :   -0.124388
   7 C :   -0.256480
   8 H :    0.130753
   9 H :    0.128775
  10 H :    0.131035
  11 H :    0.151540
  12 H :    0.151543
  13 H :    0.152610
  14 H :    0.152614
  15 H :    0.128783
  16 H :    0.131047
  17 H :    0.130736

  Mayer bond orders larger than 0.100000
B(  0-C ,  1-C ) :   0.9261 B(  0-C ,  8-H ) :   0.9730 B(  0-C ,  9-H ) :   0.9929
B(  0-C , 10-H ) :   0.9680 B(  1-C ,  2-C ) :   1.4026 B(  1-C ,  6-C ) :   1.3313
B(  2-C ,  3-C ) :   1.4071 B(  2-C , 11-H ) :   0.9770 B(  3-C ,  4-C ) :   1.4025
B(  3-C , 12-H ) :   0.9771 B(  4-C ,  5-C ) :   1.3314 B(  4-C ,  7-C ) :   0.9262
B(  5-C ,  6-C ) :   1.4473 B(  5-C , 13-H ) :   0.9872 B(  6-C , 14-H ) :   0.9872
B(  7-C , 15-H ) :   0.9929 B(  7-C , 16-H ) :   0.9677 B(  7-C , 17-H ) :   0.9733

FINAL SINGLE POINT ENERGY      -310.890980144617

DIPOLE MOMENT
-------------

Method             : SCF
Type of density    : Electron Density
Multiplicity       :   1
Irrep              :   0
Energy             :  -310.9012478132173101 Eh
Relativity type    :
Basis              : AO
                                X                 Y                 Z
Electronic contribution:     -0.000021103       0.038073255       0.000007532
Nuclear contribution   :      0.000013663      -0.086395975       0.000312177
                        -----------------------------------------
Total Dipole Moment    :     -0.000007440      -0.048322720       0.000319709
                        -----------------------------------------
Magnitude (a.u.)       :      0.048323778
Magnitude (Debye)      :      0.122829282

Rotational constants in cm-1:             0.179984             0.047825             0.038322
Rotational constants in MHz :          5395.790295          1433.747672          1148.855833

                             ****ORCA TERMINATED NORMALLY****
TOTAL RUN TIME: 0 days 0 hours 2 minutes 2 seconds 679 msec
