                         Program Version 6.0.0  -   RELEASE  -
|  1> ! pbe def2-sv(p) def2/J RI DEFGRID1 loosescf d4 GCP(DFT/SV(P)) printgap
|  2> %output
|  3>     printlevel normal
|  4> end
|  5> * xyz 0 1
|  6> C 0.6424414996 1.6867474474 -0.0423759803
|  7> C 1.4081391621 0.3823292995 -0.2706307653
|  8> H 1.5983826626 0.2479373255 -1.347267847
|  9> C 0.5433620802 -0.7905781565 0.2087265993
| 10> H 0.3792565986 -0.6922603443 1.2940276884
| 11> C -0.8134096663 -0.7433716591 -0.5092847404
| 12> H -0.6522763623 -0.8965981827 -1.581421748
| 13> C -1.4639525841 0.6350940318 -0.2900912187
| 14> H -2.3467895191 0.7308781169 -0.9387200408
| 15> O -0.6185396808 1.6813396544 -0.6926234619
| 16> O -1.8149267044 0.7124916719 1.0573667612
| 17> O -1.6553481952 -1.7802713359 -0.0799133909
| 18> O 1.2310685113 -1.989108316 -0.0676438709
| 19> O 2.6200665282 0.460348934 0.4347421634
| 20> H 1.1897969707 2.5288809394 -0.4629086243
| 21> H 0.5214262932 1.8327163216 1.0373336118
| 22> H -2.3345410295 1.5128049102 1.2253495846
| 23> H -2.0077929009 -1.5467255755 0.7943691473
| 24> H 0.6057367887 -2.7260725792 0.0013769772
| 25> H 3.0470800542 -0.4090456453 0.3978963999
| 26> *
| 27>
| 28>                          ****END OF INPUT****

CARTESIAN COORDINATES (ANGSTROEM)
---------------------------------
  C      0.642441    1.686747   -0.042376
  C      1.408139    0.382329   -0.270631
  H      1.598383    0.247937   -1.347268
  C      0.543362   -0.790578    0.208727
  H      0.379257   -0.692260    1.294028
  C     -0.813410   -0.743372   -0.509285
  H     -0.652276   -0.896598   -1.581422
  C     -1.463953    0.635094   -0.290091
  H     -2.346790    0.730878   -0.938720
  O     -0.618540    1.681340   -0.692623
  O     -1.814927    0.712492    1.057367
  O     -1.655348   -1.780271   -0.079913
  O      1.231069   -1.989108   -0.067644
  O      2.620067    0.460349    0.434742
  H      1.189797    2.528881   -0.462909
  H      0.521426    1.832716    1.037334
  H     -2.334541    1.512805    1.225350
  H     -2.007793   -1.546726    0.794369
  H      0.605737   -2.726073    0.001377
  H      3.047080   -0.409046    0.397896

 Total Charge           Charge          ....    0
 Multiplicity           Mult            ....    1
 Number of Electrons    NEL             ....   80
 Basis Dimension        Dim             ....  160

ORBITAL ENERGIES
----------------

  NO   OCC          E(Eh)            E(eV)
   0   2.0000     -18.781490      -511.0703
   1   2.0000     -18.771836      -510.8076
   2   2.0000     -18.759384      -510.4688
   3   2.0000     -18.751305      -510.2490
   4   2.0000     -18.744612      -510.0668
   5   2.0000      -9.991964      -271.8952
   6   2.0000      -9.944124      -270.5934
   7   2.0000      -9.937444      -270.4116
   8   2.0000      -9.935710      -270.3644
   9   2.0000      -9.931928      -270.2615
  10   2.0000      -0.990387       -26.9498
  11   2.0000      -0.943940       -25.6859
  12   2.0000      -0.933209       -25.3939
  13   2.0000      -0.918814       -25.0022
  14   2.0000      -0.911597       -24.8058
  15   2.0000      -0.699492       -19.0341
  16   2.0000      -0.682066       -18.5600
  17   2.0000      -0.585963       -15.9449
  18   2.0000      -0.577561       -15.7162
  19   2.0000      -0.543979       -14.8024
  20   2.0000      -0.489296       -13.3144
  21   2.0000      -0.488549       -13.2941
  22   2.0000      -0.474157       -12.9025
  23   2.0000      -0.445709       -12.1284
  24   2.0000      -0.431075       -11.7301
  25   2.0000      -0.425714       -11.5843
  26   2.0000      -0.396608       -10.7923
  27   2.0000      -0.374851       -10.2002
  28   2.0000      -0.368438       -10.0257
  29   2.0000      -0.352494        -9.5918
  30   2.0000      -0.338353        -9.2071
  31   2.0000      -0.311874        -8.4865
  32   2.0000      -0.300406        -8.1745
  33   2.0000      -0.292137        -7.9495
  34   2.0000      -0.268128        -7.2961
  35   2.0000      -0.262663        -7.1474
  36   2.0000      -0.248586        -6.7644
  37   2.0000      -0.232953        -6.3390
  38   2.0000      -0.214289        -5.8311
  39   2.0000      -0.206239        -5.6121
  40   0.0000       0.010638         0.2895
  41   0.0000       0.027217         0.7406
  42   0.0000       0.048851         1.3293
  43   0.0000       0.063006         1.7145
  44   0.0000       0.076527         2.0824

MULLIKEN ATOMIC CHARGES
-----------------------
   0 C :    0.087927
   1 C :    0.014290
   2 H :    0.059043
   3 C :    0.037028
   4 H :    0.054309
   5 C :    0.049370
   6 H :    0.078844
   7 C :    0.146043
   8 H :    0.073272
   9 O :   -0.312315
  10 O :   -0.412974
  11 O :   -0.428428
  12 O :   -0.428628
  13 O :   -0.421724
  14 H :    0.102710
  15 H :    0.066971
  16 H :    0.314379
  17 H :    0.304004
  18 H :    0.305335
  19 H :    0.310544
Sum of atomic charges:   -0.0000000

LOEWDIN ATOMIC CHARGES
----------------------
   0 C :   -0.115006
   1 C :   -0.074906
   2 H :    0.102321
   3 C :   -0.086030
   4 H :    0.102011
   5 C :   -0.090971
   6 H :    0.122065
   7 C :   -0.010034
   8 H :    0.100696
   9 O :   -0.152793
  10 O :   -0.310198
  11 O :   -0.314811
  12 O :   -0.330987
  13 O :   -0.322589
  14 H :    0.122139
  15 H :    0.104730
  16 H :    0.295954
  17 H :    0.282577
  18 H :    0.285857
  19 H :    0.289973

  Mayer bond orders larger than 0.100000
B(  0-C ,  1-C ) :   1.0655 B(  0-C ,  9-O ) :   0.9940 B(  0-C , 14-H ) :   0.9260
B(  0-C , 15-H ) :   0.8924 B(  1-C ,  2-H ) :   0.8765 B(  1-C ,  3-C ) :   1.0252
B(  1-C , 13-O ) :   1.0807 B(  3-C ,  4-H ) :   0.8778 B(  3-C ,  5-C ) :   0.9865
B(  3-C , 12-O ) :   1.0801 B(  5-C ,  6-H ) :   0.8766 B(  5-C ,  7-C ) :   0.9961
B(  5-C , 11-O ) :   1.0385 B(  7-C ,  8-H ) :   0.9047 B(  7-C ,  9-O ) :   1.0751
B(  7-C , 10-O ) :   1.0722 B( 10-O , 16-H ) :   0.8371 B( 11-O , 17-H ) :   0.8340
B( 12-O , 18-H ) :   0.8312 B( 13-O , 19-H ) :   0.8387

Dispersion correction           -0.019175371
FINAL SINGLE POINT ENERGY      -571.424107874889

DIPOLE MOMENT
-------------

Method             : SCF
Type of density    : Electron Density
Multiplicity       :   1
Irrep              :   0
Energy             :  -571.5331591753515568 Eh
Relativity type    :
Basis              : AO
                                X                 Y                 Z
Electronic contribution:     -0.764652408      -0.479827412      -0.067976307
Nuclear contribution   :     -0.003258830       0.532940222       0.403722410
                        -----------------------------------------
Total Dipole Moment    :     -0.767911238       0.053112810       0.335746103
                        -----------------------------------------
Magnitude (a.u.)       :      0.839782165
Magnitude (Debye)      :      2.134556629

Rotational constants in cm-1:             0.057219             0.044682             0.028955
Rotational constants in MHz :          1715.375024          1339.528642           868.049041

                             ****ORCA TERMINATED NORMALLY****
TOTAL RUN TIME: 0 days 0 hours 0 minutes 11 seconds 522 msec
