                         Program Version 6.0.0  -   RELEASE  -
|  1> ! pbe def2-sv(p) def2/J RI DEFGRID1 loosescf d4 GCP(DFT/SV(P)) printgap
|  2> %output
|  3>     printlevel normal
|  4> end
|  5> * xyz 0 1
|  6> C 5.2492449403 0.4523251361 -0.5801542958
|  7> C 3.9133930257 0.1872443549 -1.2438140721
|  8> O 2.8358262562 0.7850277863 -0.4772265149
|  9> P 1.9635399955 -0.0022230696 0.5724757573
| 10> S 0.8936459909 1.1923225432 1.6890849252
| 11> O 3.0418641619 -0.8378404355 1.3932825695
| 12> C 2.7409674021 -1.4358730306 2.6648339093
| 13> C 1.7999526057 -2.6145283396 2.523472199
| 14> S 1.0187035118 -1.5469845301 -0.5894346163
| 15> C 0.4978096847 -0.5845979843 -2.0403069109
| 16> S -0.2860057289 0.9982552639 -1.6400726286
| 17> P -2.091410328 0.1952098459 -0.8960505649
| 18> S -2.9687201845 -1.1499145629 -2.0021919824
| 19> O -2.9915237657 1.4769031595 -0.668653442
| 20> C -2.5666138687 2.587003945 0.1646707226
| 21> C -3.7986425018 3.1889204942 0.8071075519
| 22> O -1.608863841 -0.3164843068 0.5377521056
| 23> C -2.3062540751 -1.359103572 1.2451615887
| 24> C -3.6517783795 -0.8813883031 1.7487529164
| 25> H 5.2941277034 -0.0399573436 0.3873778635
| 26> H 6.042350768 0.0694268645 -1.2149284011
| 27> H 5.387557857 1.5204921402 -0.4371762365
| 28> H 3.7314891901 -0.8860815978 -1.3434551071
| 29> H 3.8554879895 0.673111146 -2.2200096693
| 30> H 3.7142865898 -1.7414153173 3.0510572068
| 31> H 2.3069031529 -0.668117239 3.3137720525
| 32> H 1.6582263572 -3.0831254929 3.4919124651
| 33> H 0.8352027183 -2.2727808175 2.1495694238
| 34> H 2.2033864571 -3.3415474423 1.8235123062
| 35> H -0.2145279088 -1.2126946754 -2.5783235727
| 36> H 1.3595816645 -0.3524845283 -2.6611736563
| 37> H -1.8543374329 2.2264186079 0.9130538265
| 38> H -2.0637648915 3.3056636132 -0.4868584431
| 39> H -3.5033563431 4.0511126669 1.3962323693
| 40> H -4.5017682346 3.498215847 0.0390099598
| 41> H -4.2829328486 2.461771767 1.4529411921
| 42> H -2.4208964623 -2.2162584012 0.5740046998
| 43> H -1.6347313972 -1.6141558265 2.066702662
| 44> H -3.5243119909 -0.0179645279 2.3972822394
| 45> H -4.2821687309 -0.6045920534 0.9033138037
| 46> H -4.1336549376 -1.6806974729 2.3028182839
| 47> *
| 48>
| 49>                          ****END OF INPUT****

CARTESIAN COORDINATES (ANGSTROEM)
---------------------------------
  C      5.249245    0.452325   -0.580154
  C      3.913393    0.187244   -1.243814
  O      2.835826    0.785028   -0.477227
  P      1.963540   -0.002223    0.572476
  S      0.893646    1.192323    1.689085
  O      3.041864   -0.837840    1.393283
  C      2.740967   -1.435873    2.664834
  C      1.799953   -2.614528    2.523472
  S      1.018704   -1.546985   -0.589435
  C      0.497810   -0.584598   -2.040307
  S     -0.286006    0.998255   -1.640073
  P     -2.091410    0.195210   -0.896051
  S     -2.968720   -1.149915   -2.002192
  O     -2.991524    1.476903   -0.668653
  C     -2.566614    2.587004    0.164671
  C     -3.798643    3.188920    0.807108
  O     -1.608864   -0.316484    0.537752
  C     -2.306254   -1.359104    1.245162
  C     -3.651778   -0.881388    1.748753
  H      5.294128   -0.039957    0.387378
  H      6.042351    0.069427   -1.214928
  H      5.387558    1.520492   -0.437176
  H      3.731489   -0.886082   -1.343455
  H      3.855488    0.673111   -2.220010
  H      3.714287   -1.741415    3.051057
  H      2.306903   -0.668117    3.313772
  H      1.658226   -3.083125    3.491912
  H      0.835203   -2.272781    2.149569
  H      2.203386   -3.341547    1.823512
  H     -0.214528   -1.212695   -2.578324
  H      1.359582   -0.352485   -2.661174
  H     -1.854337    2.226419    0.913054
  H     -2.063765    3.305664   -0.486858
  H     -3.503356    4.051113    1.396232
  H     -4.501768    3.498216    0.039010
  H     -4.282933    2.461772    1.452941
  H     -2.420896   -2.216258    0.574005
  H     -1.634731   -1.614156    2.066703
  H     -3.524312   -0.017965    2.397282
  H     -4.282169   -0.604592    0.903314
  H     -4.133655   -1.680697    2.302818

 Total Charge           Charge          ....    0
 Multiplicity           Mult            ....    1
 Number of Electrons    NEL             ....  202
 Basis Dimension        Dim             ....  334

ORBITAL ENERGIES
----------------

  NO   OCC          E(Eh)            E(eV)
   0   2.0000     -88.039910     -2395.6877
   1   2.0000     -88.038653     -2395.6535
   2   2.0000     -87.981454     -2394.0971
   3   2.0000     -87.981114     -2394.0878
   4   2.0000     -76.427387     -2079.6949
   5   2.0000     -76.420415     -2079.5052
   6   2.0000     -18.796066      -511.4669
   7   2.0000     -18.794926      -511.4359
   8   2.0000     -18.790381      -511.3123
   9   2.0000     -18.782931      -511.1095
  10   2.0000      -9.961849      -271.0757
  11   2.0000      -9.958166      -270.9755
  12   2.0000      -9.956045      -270.9178
  13   2.0000      -9.951322      -270.7892
  14   2.0000      -9.945316      -270.6258
  15   2.0000      -9.890689      -269.1393
  16   2.0000      -9.889985      -269.1202
  17   2.0000      -9.887161      -269.0433
  18   2.0000      -9.882000      -268.9029
  19   2.0000      -7.684401      -209.1032
  20   2.0000      -7.683959      -209.0911
  21   2.0000      -7.626633      -207.5312
  22   2.0000      -7.626487      -207.5273
  23   2.0000      -6.424463      -174.8185
  24   2.0000      -6.418351      -174.6522
  25   2.0000      -5.712396      -155.4422
  26   2.0000      -5.711861      -155.4276
  27   2.0000      -5.708940      -155.3482
  28   2.0000      -5.708602      -155.3390
  29   2.0000      -5.701327      -155.1410
  30   2.0000      -5.700675      -155.1233
  31   2.0000      -5.655765      -153.9012
  32   2.0000      -5.655419      -153.8918
  33   2.0000      -5.647307      -153.6710
  34   2.0000      -5.647242      -153.6693
  35   2.0000      -5.646541      -153.6502
  36   2.0000      -5.646354      -153.6451
  37   2.0000      -4.647728      -126.4711
  38   2.0000      -4.646190      -126.4293
  39   2.0000      -4.644388      -126.3802
  40   2.0000      -4.641344      -126.2974
  41   2.0000      -4.639731      -126.2535
  42   2.0000      -4.638781      -126.2277
  43   2.0000      -0.991465       -26.9791
  44   2.0000      -0.980492       -26.6805
  45   2.0000      -0.949508       -25.8374
  46   2.0000      -0.939489       -25.5648
  47   2.0000      -0.762131       -20.7386
  48   2.0000      -0.721024       -19.6201
  49   2.0000      -0.710520       -19.3342
  50   2.0000      -0.695092       -18.9144
  51   2.0000      -0.687482       -18.7073
  52   2.0000      -0.671396       -18.2696
  53   2.0000      -0.649929       -17.6855
  54   2.0000      -0.637583       -17.3495
  55   2.0000      -0.595542       -16.2055
  56   2.0000      -0.586263       -15.9530
  57   2.0000      -0.579803       -15.7772
  58   2.0000      -0.569730       -15.5031
  59   2.0000      -0.561813       -15.2877
  60   2.0000      -0.507714       -13.8156
  61   2.0000      -0.499403       -13.5894
  62   2.0000      -0.480009       -13.0617
  63   2.0000      -0.474290       -12.9061
  64   2.0000      -0.457987       -12.4625
  65   2.0000      -0.448590       -12.2067
  66   2.0000      -0.437861       -11.9148
  67   2.0000      -0.434281       -11.8174
  68   2.0000      -0.430142       -11.7047
  69   2.0000      -0.419364       -11.4115
  70   2.0000      -0.403300       -10.9743
  71   2.0000      -0.396527       -10.7900
  72   2.0000      -0.393630       -10.7112
  73   2.0000      -0.384124       -10.4526
  74   2.0000      -0.383371       -10.4321
  75   2.0000      -0.371046       -10.0967
  76   2.0000      -0.366265        -9.9666
  77   2.0000      -0.360043        -9.7973
  78   2.0000      -0.357901        -9.7390
  79   2.0000      -0.354948        -9.6586
  80   2.0000      -0.351434        -9.5630
  81   2.0000      -0.346415        -9.4264
  82   2.0000      -0.343510        -9.3474
  83   2.0000      -0.340019        -9.2524
  84   2.0000      -0.331794        -9.0286
  85   2.0000      -0.322724        -8.7818
  86   2.0000      -0.312743        -8.5102
  87   2.0000      -0.306054        -8.3281
  88   2.0000      -0.302684        -8.2364
  89   2.0000      -0.294997        -8.0273
  90   2.0000      -0.276070        -7.5123
  91   2.0000      -0.272349        -7.4110
  92   2.0000      -0.266826        -7.2607
  93   2.0000      -0.264621        -7.2007
  94   2.0000      -0.260390        -7.0856
  95   2.0000      -0.233082        -6.3425
  96   2.0000      -0.219175        -5.9640
  97   2.0000      -0.205189        -5.5835
  98   2.0000      -0.201806        -5.4914
  99   2.0000      -0.191611        -5.2140
 100   2.0000      -0.187834        -5.1112
 101   0.0000      -0.050397        -1.3714
 102   0.0000      -0.019122        -0.5203
 103   0.0000      -0.014433        -0.3927
 104   0.0000       0.006667         0.1814
 105   0.0000       0.020149         0.5483

MULLIKEN ATOMIC CHARGES
-----------------------
   0 C :   -0.280700
   1 C :   -0.030919
   2 O :   -0.362325
   3 P :    0.608257
   4 S :   -0.301030
   5 O :   -0.380617
   6 C :   -0.000310
   7 C :   -0.348535
   8 S :   -0.113292
   9 C :   -0.338672
  10 S :   -0.085883
  11 P :    0.620941
  12 S :   -0.321311
  13 O :   -0.373230
  14 C :   -0.046662
  15 C :   -0.282154
  16 O :   -0.364874
  17 C :   -0.018479
  18 C :   -0.319695
  19 H :    0.123762
  20 H :    0.109732
  21 H :    0.121650
  22 H :    0.106786
  23 H :    0.111437
  24 H :    0.105091
  25 H :    0.110799
  26 H :    0.116958
  27 H :    0.152867
  28 H :    0.121723
  29 H :    0.186760
  30 H :    0.184283
  31 H :    0.134972
  32 H :    0.113254
  33 H :    0.113157
  34 H :    0.121129
  35 H :    0.118869
  36 H :    0.109405
  37 H :    0.115605
  38 H :    0.119286
  39 H :    0.130968
  40 H :    0.110995
Sum of atomic charges:    0.0000000

LOEWDIN ATOMIC CHARGES
----------------------
   0 C :   -0.356918
   1 C :   -0.117356
   2 O :   -0.237750
   3 P :    0.569141
   4 S :   -0.302493
   5 O :   -0.248437
   6 C :   -0.119804
   7 C :   -0.372723
   8 S :    0.062907
   9 C :   -0.476831
  10 S :    0.090954
  11 P :    0.571292
  12 S :   -0.317732
  13 O :   -0.244286
  14 C :   -0.121804
  15 C :   -0.350017
  16 O :   -0.242058
  17 C :   -0.122216
  18 C :   -0.366535
  19 H :    0.127707
  20 H :    0.130034
  21 H :    0.129833
  22 H :    0.107160
  23 H :    0.118717
  24 H :    0.118391
  25 H :    0.110266
  26 H :    0.133056
  27 H :    0.121676
  28 H :    0.126360
  29 H :    0.131405
  30 H :    0.129330
  31 H :    0.112996
  32 H :    0.115834
  33 H :    0.131762
  34 H :    0.129700
  35 H :    0.126146
  36 H :    0.108740
  37 H :    0.115016
  38 H :    0.123163
  39 H :    0.124855
  40 H :    0.130522

  Mayer bond orders larger than 0.100000
B(  0-C ,  1-C ) :   1.1683 B(  0-C , 19-H ) :   0.9420 B(  0-C , 20-H ) :   0.9390
B(  0-C , 21-H ) :   0.9469 B(  1-C ,  2-O ) :   0.8936 B(  1-C , 22-H ) :   0.9083
B(  1-C , 23-H ) :   0.9310 B(  2-O ,  3-P ) :   1.1211 B(  3-P ,  4-S ) :   1.6636
B(  3-P ,  5-O ) :   1.0660 B(  3-P ,  8-S ) :   0.9431 B(  4-S ,  8-S ) :   0.1109
B(  5-O ,  6-C ) :   0.9113 B(  6-C ,  7-C ) :   1.1635 B(  6-C , 24-H ) :   0.9323
B(  6-C , 25-H ) :   0.9117 B(  7-C , 26-H ) :   0.9380 B(  7-C , 27-H ) :   0.9227
B(  7-C , 28-H ) :   0.9419 B(  8-S ,  9-C ) :   0.9903 B(  9-C , 10-S ) :   1.0251
B(  9-C , 29-H ) :   0.8778 B(  9-C , 30-H ) :   0.9031 B( 10-S , 11-P ) :   0.9575
B( 10-S , 12-S ) :   0.1002 B( 11-P , 12-S ) :   1.6337 B( 11-P , 13-O ) :   1.1306
B( 11-P , 16-O ) :   1.0895 B( 13-O , 14-C ) :   0.8895 B( 14-C , 15-C ) :   1.1673
B( 14-C , 31-H ) :   0.9051 B( 14-C , 32-H ) :   0.9305 B( 15-C , 33-H ) :   0.9402
B( 15-C , 34-H ) :   0.9480 B( 15-C , 35-H ) :   0.9479 B( 16-O , 17-C ) :   0.9088
B( 17-C , 18-C ) :   1.1621 B( 17-C , 36-H ) :   0.9140 B( 17-C , 37-H ) :   0.9206
B( 18-C , 38-H ) :   0.9418 B( 18-C , 39-H ) :   0.9331 B( 18-C , 40-H ) :   0.9385

Dispersion correction           -0.067283541
FINAL SINGLE POINT ENERGY     -2929.513562852431

DIPOLE MOMENT
-------------

Method             : SCF
Type of density    : Electron Density
Multiplicity       :   1
Irrep              :   0
Energy             : -2929.6318571215701922 Eh
Relativity type    :
Basis              : AO
                                X                 Y                 Z
Electronic contribution:     -2.650908903       1.688590974     -13.981276461
Nuclear contribution   :      3.898586403      -1.947974218      14.747733743
                        -----------------------------------------
Total Dipole Moment    :      1.247677500      -0.259383244       0.766457282
                        -----------------------------------------
Magnitude (a.u.)       :      1.487089633
Magnitude (Debye)      :      3.779881455

Rotational constants in cm-1:             0.011984             0.005317             0.005123
Rotational constants in MHz :           359.284351           159.388093           153.569993

                             ****ORCA TERMINATED NORMALLY****
TOTAL RUN TIME: 0 days 0 hours 0 minutes 21 seconds 686 msec
