                         Program Version 6.0.0  -   RELEASE  -
|  1> ! r2scan-3c def2/J RI DEFGRID2 scfconv6 printgap
|  2> %output
|  3>     printlevel normal
|  4> end
|  5> * xyz 0 1
|  6> C 3.436826187 2.3334377739 -1.7154134366
|  7> C 3.9831109689 1.9146269662 -0.3655212461
|  8> O 3.6389499852 0.5551136526 -0.0607797032
|  9> P 2.1774310095 0.121836699 0.40425867
| 10> S 1.3954750179 1.3831219398 1.6913469996
| 11> O 2.441896026 -1.3490333107 0.9152909517
| 12> C 2.610055795 -1.6938795058 2.3095147132
| 13> C 1.8420431073 -2.9696848659 2.5892058963
| 14> S 1.1784162245 -0.3108844637 -1.4168416286
| 15> C 0.1637347257 -1.7211839171 -0.8866013426
| 16> S -0.8580317759 -1.380831758 0.5720339616
| 17> P -2.1811355107 -0.0402832579 -0.3558400921
| 18> S -2.6838774078 -0.401610085 -2.2198275223
| 19> O -1.4119495984 1.3154311866 -0.0921192525
| 20> C -1.8115315003 2.5664102657 -0.6958654705
| 21> C -0.582740572 3.2442472842 -1.2663825196
| 22> O -3.4148657703 0.0888379907 0.6397353196
| 23> C -4.5734818896 -0.7598544047 0.5428967559
| 24> C -4.2559380298 -2.1970389171 0.9013412592
| 25> H 3.7502034915 3.348583854 -1.9361884524
| 26> H 3.7970077995 1.6643260527 -2.4922181066
| 27> H 2.3478898881 2.292407467 -1.7006830604
| 28> H 3.5932121201 2.5579002477 0.4311580936
| 29> H 5.0737330228 1.9258320781 -0.3494437505
| 30> H 3.6810581947 -1.8237124824 2.4775077513
| 31> H 2.2442210185 -0.8647147168 2.9248908656
| 32> H 0.7818839616 -2.8183618587 2.3967343929
| 33> H 2.2062481854 -3.7719707931 1.9541718723
| 34> H 1.981196129 -3.2449020114 3.6294749809
| 35> H 0.8066999895 -2.5598779835 -0.6341667993
| 36> H -0.4818382109 -1.9528306862 -1.734936704
| 37> H -2.5515820411 2.3643233901 -1.4776543427
| 38> H -2.2675333847 3.1633603108 0.0962498214
| 39> H 0.1656706238 3.3556939558 -0.4851456815
| 40> H -0.1686375344 2.6455865349 -2.0751665766
| 41> H -0.8554369035 4.22304544 -1.6467005739
| 42> H -5.2823996507 -0.3144846347 1.2419620432
| 43> H -4.9631708263 -0.6942236529 -0.4780332918
| 44> H -3.7678402797 -2.2450116815 1.8716251692
| 45> H -5.1762367248 -2.7714429073 0.9305571757
| 46> H -3.5930061813 -2.6290912014 0.1526198602
| 47> *
| 48>
| 49>                          ****END OF INPUT****

CARTESIAN COORDINATES (ANGSTROEM)
---------------------------------
  C      3.436826    2.333438   -1.715413
  C      3.983111    1.914627   -0.365521
  O      3.638950    0.555114   -0.060780
  P      2.177431    0.121837    0.404259
  S      1.395475    1.383122    1.691347
  O      2.441896   -1.349033    0.915291
  C      2.610056   -1.693880    2.309515
  C      1.842043   -2.969685    2.589206
  S      1.178416   -0.310884   -1.416842
  C      0.163735   -1.721184   -0.886601
  S     -0.858032   -1.380832    0.572034
  P     -2.181136   -0.040283   -0.355840
  S     -2.683877   -0.401610   -2.219828
  O     -1.411950    1.315431   -0.092119
  C     -1.811532    2.566410   -0.695865
  C     -0.582741    3.244247   -1.266383
  O     -3.414866    0.088838    0.639735
  C     -4.573482   -0.759854    0.542897
  C     -4.255938   -2.197039    0.901341
  H      3.750203    3.348584   -1.936188
  H      3.797008    1.664326   -2.492218
  H      2.347890    2.292407   -1.700683
  H      3.593212    2.557900    0.431158
  H      5.073733    1.925832   -0.349444
  H      3.681058   -1.823712    2.477508
  H      2.244221   -0.864715    2.924891
  H      0.781884   -2.818362    2.396734
  H      2.206248   -3.771971    1.954172
  H      1.981196   -3.244902    3.629475
  H      0.806700   -2.559878   -0.634167
  H     -0.481838   -1.952831   -1.734937
  H     -2.551582    2.364323   -1.477654
  H     -2.267533    3.163360    0.096250
  H      0.165671    3.355694   -0.485146
  H     -0.168638    2.645587   -2.075167
  H     -0.855437    4.223045   -1.646701
  H     -5.282400   -0.314485    1.241962
  H     -4.963171   -0.694224   -0.478033
  H     -3.767840   -2.245012    1.871625
  H     -5.176237   -2.771443    0.930557
  H     -3.593006   -2.629091    0.152620

 Total Charge           Charge          ....    0
 Multiplicity           Mult            ....    1
 Number of Electrons    NEL             ....  202
 Basis Dimension        Dim             ....  539

ORBITAL ENERGIES
----------------

  NO   OCC          E(Eh)            E(eV)
   0   2.0000     -88.576961     -2410.3017
   1   2.0000     -88.572052     -2410.1681
   2   2.0000     -88.518686     -2408.7159
   3   2.0000     -88.513562     -2408.5765
   4   2.0000     -76.911796     -2092.8764
   5   2.0000     -76.911406     -2092.8658
   6   2.0000     -18.993017      -516.8263
   7   2.0000     -18.991515      -516.7854
   8   2.0000     -18.986524      -516.6496
   9   2.0000     -18.980570      -516.4876
  10   2.0000     -10.108381      -275.0630
  11   2.0000     -10.098893      -274.8049
  12   2.0000     -10.097125      -274.7567
  13   2.0000     -10.095069      -274.7008
  14   2.0000     -10.090650      -274.5805
  15   2.0000     -10.034026      -273.0397
  16   2.0000     -10.030210      -272.9359
  17   2.0000     -10.028625      -272.8928
  18   2.0000     -10.020442      -272.6701
  19   2.0000      -7.871630      -214.1979
  20   2.0000      -7.866392      -214.0554
  21   2.0000      -7.813526      -212.6169
  22   2.0000      -7.808293      -212.4745
  23   2.0000      -6.590087      -179.3254
  24   2.0000      -6.590019      -179.3235
  25   2.0000      -5.818501      -158.3295
  26   2.0000      -5.815507      -158.2480
  27   2.0000      -5.813685      -158.1984
  28   2.0000      -5.810129      -158.1016
  29   2.0000      -5.808643      -158.0612
  30   2.0000      -5.803184      -157.9127
  31   2.0000      -5.761065      -156.7666
  32   2.0000      -5.755955      -156.6275
  33   2.0000      -5.753944      -156.5728
  34   2.0000      -5.753485      -156.5603
  35   2.0000      -5.748823      -156.4334
  36   2.0000      -5.748043      -156.4122
  37   2.0000      -4.735766      -128.8667
  38   2.0000      -4.735504      -128.8596
  39   2.0000      -4.735082      -128.8481
  40   2.0000      -4.734857      -128.8420
  41   2.0000      -4.733843      -128.8144
  42   2.0000      -4.733561      -128.8067
  43   2.0000      -1.048523       -28.5318
  44   2.0000      -1.045403       -28.4469
  45   2.0000      -1.009895       -27.4807
  46   2.0000      -1.005067       -27.3493
  47   2.0000      -0.802113       -21.8266
  48   2.0000      -0.759117       -20.6566
  49   2.0000      -0.747794       -20.3485
  50   2.0000      -0.731549       -19.9065
  51   2.0000      -0.727593       -19.7988
  52   2.0000      -0.707874       -19.2622
  53   2.0000      -0.683667       -18.6035
  54   2.0000      -0.667394       -18.1607
  55   2.0000      -0.630887       -17.1673
  56   2.0000      -0.621672       -16.9166
  57   2.0000      -0.605485       -16.4761
  58   2.0000      -0.602008       -16.3815
  59   2.0000      -0.586978       -15.9725
  60   2.0000      -0.526831       -14.3358
  61   2.0000      -0.523178       -14.2364
  62   2.0000      -0.493146       -13.4192
  63   2.0000      -0.488722       -13.2988
  64   2.0000      -0.477425       -12.9914
  65   2.0000      -0.459040       -12.4911
  66   2.0000      -0.456034       -12.4093
  67   2.0000      -0.450535       -12.2597
  68   2.0000      -0.444403       -12.0928
  69   2.0000      -0.433557       -11.7977
  70   2.0000      -0.427718       -11.6388
  71   2.0000      -0.409811       -11.1515
  72   2.0000      -0.407499       -11.0886
  73   2.0000      -0.399648       -10.8750
  74   2.0000      -0.398516       -10.8442
  75   2.0000      -0.391934       -10.6651
  76   2.0000      -0.382488       -10.4080
  77   2.0000      -0.374759       -10.1977
  78   2.0000      -0.369202       -10.0465
  79   2.0000      -0.366110        -9.9624
  80   2.0000      -0.362846        -9.8735
  81   2.0000      -0.358585        -9.7576
  82   2.0000      -0.354136        -9.6365
  83   2.0000      -0.351813        -9.5733
  84   2.0000      -0.344879        -9.3846
  85   2.0000      -0.333294        -9.0694
  86   2.0000      -0.316473        -8.6117
  87   2.0000      -0.310436        -8.4474
  88   2.0000      -0.308478        -8.3941
  89   2.0000      -0.300725        -8.1831
  90   2.0000      -0.299707        -8.1554
  91   2.0000      -0.290071        -7.8932
  92   2.0000      -0.283102        -7.7036
  93   2.0000      -0.276091        -7.5128
  94   2.0000      -0.274323        -7.4647
  95   2.0000      -0.248474        -6.7613
  96   2.0000      -0.230133        -6.2622
  97   2.0000      -0.221104        -6.0165
  98   2.0000      -0.216803        -5.8995
  99   2.0000      -0.209269        -5.6945
 100   2.0000      -0.202807        -5.5187
 101   0.0000      -0.049283        -1.3410
 102   0.0000      -0.023794        -0.6475
 103   0.0000      -0.018162        -0.4942
 104   0.0000       0.003644         0.0992
 105   0.0000       0.016583         0.4512

MULLIKEN ATOMIC CHARGES
-----------------------
   0 C :   -0.448842
   1 C :   -0.159963
   2 O :   -0.290098
   3 P :    0.753443
   4 S :   -0.471037
   5 O :   -0.340489
   6 C :   -0.131451
   7 C :   -0.468860
   8 S :   -0.141363
   9 C :   -0.195301
  10 S :   -0.134390
  11 P :    0.700384
  12 S :   -0.490141
  13 O :   -0.250660
  14 C :   -0.113982
  15 C :   -0.495824
  16 O :   -0.303778
  17 C :   -0.151412
  18 C :   -0.454739
  19 H :    0.150645
  20 H :    0.162323
  21 H :    0.155093
  22 H :    0.178688
  23 H :    0.147316
  24 H :    0.149471
  25 H :    0.176925
  26 H :    0.164606
  27 H :    0.155662
  28 H :    0.149371
  29 H :    0.186225
  30 H :    0.215992
  31 H :    0.158912
  32 H :    0.150695
  33 H :    0.177628
  34 H :    0.166113
  35 H :    0.141589
  36 H :    0.148128
  37 H :    0.173778
  38 H :    0.155793
  39 H :    0.147904
  40 H :    0.175644
Sum of atomic charges:   -0.0000000

LOEWDIN ATOMIC CHARGES
----------------------
   0 C :   -0.402065
   1 C :    0.016562
   2 O :   -0.663256
   3 P :    0.386335
   4 S :   -0.111074
   5 O :   -0.681119
   6 C :    0.025245
   7 C :   -0.393043
   8 S :    0.165517
   9 C :   -0.410442
  10 S :    0.178221
  11 P :    0.374243
  12 S :   -0.140572
  13 O :   -0.672351
  14 C :    0.026791
  15 C :   -0.401294
  16 O :   -0.655753
  17 C :    0.019465
  18 C :   -0.407436
  19 H :    0.160437
  20 H :    0.161343
  21 H :    0.162647
  22 H :    0.180507
  23 H :    0.179310
  24 H :    0.173989
  25 H :    0.185253
  26 H :    0.162880
  27 H :    0.158123
  28 H :    0.161436
  29 H :    0.184811
  30 H :    0.193538
  31 H :    0.178593
  32 H :    0.174349
  33 H :    0.166849
  34 H :    0.161761
  35 H :    0.156373
  36 H :    0.179528
  37 H :    0.180019
  38 H :    0.159982
  39 H :    0.159333
  40 H :    0.164966

  Mayer bond orders larger than 0.100000
B(  0-C ,  1-C ) :   0.9200 B(  0-C , 19-H ) :   0.9618 B(  0-C , 20-H ) :   0.9689
B(  0-C , 21-H ) :   0.9612 B(  1-C ,  2-O ) :   0.8139 B(  1-C , 22-H ) :   0.9671
B(  1-C , 23-H ) :   0.9572 B(  2-O ,  3-P ) :   1.0755 B(  3-P ,  4-S ) :   1.7494
B(  3-P ,  5-O ) :   1.1831 B(  3-P ,  8-S ) :   1.0440 B(  5-O ,  6-C ) :   0.7607
B(  6-C ,  7-C ) :   0.9453 B(  6-C , 24-H ) :   0.9485 B(  6-C , 25-H ) :   0.9540
B(  7-C , 26-H ) :   0.9676 B(  7-C , 27-H ) :   0.9729 B(  7-C , 28-H ) :   0.9627
B(  8-S ,  9-C ) :   0.8988 B(  9-C , 10-S ) :   0.9093 B(  9-C , 29-H ) :   0.9139
B(  9-C , 30-H ) :   0.9076 B( 10-S , 11-P ) :   1.0860 B( 11-P , 12-S ) :   1.7402
B( 11-P , 13-O ) :   1.1819 B( 11-P , 16-O ) :   1.0594 B( 13-O , 14-C ) :   0.7561
B( 14-C , 15-C ) :   0.9541 B( 14-C , 31-H ) :   0.9576 B( 14-C , 32-H ) :   0.9520
B( 15-C , 33-H ) :   0.9653 B( 15-C , 34-H ) :   0.9707 B( 15-C , 35-H ) :   0.9631
B( 16-O , 17-C ) :   0.8169 B( 17-C , 18-C ) :   0.9210 B( 17-C , 36-H ) :   0.9581
B( 17-C , 37-H ) :   0.9676 B( 18-C , 38-H ) :   0.9688 B( 18-C , 39-H ) :   0.9586
B( 18-C , 40-H ) :   0.9630

Dispersion correction           -0.022046702
FINAL SINGLE POINT ENERGY     -2932.457463265518

DIPOLE MOMENT
-------------

Method             : SCF
Type of density    : Electron Density
Multiplicity       :   1
Irrep              :   0
Energy             : -2932.4820899682363233 Eh
Relativity type    :
Basis              : AO
                                X                 Y                 Z
Electronic contribution:     -1.043280242      -1.977897674      -2.456215197
Nuclear contribution   :      1.289550243       1.692755183       2.922413041
                        -----------------------------------------
Total Dipole Moment    :      0.246270001      -0.285142491       0.466197844
                        -----------------------------------------
Magnitude (a.u.)       :      0.599412699
Magnitude (Debye)      :      1.523585999

Rotational constants in cm-1:             0.011325             0.005905             0.004813
Rotational constants in MHz :           339.529477           177.017280           144.285206

                             ****ORCA TERMINATED NORMALLY****
TOTAL RUN TIME: 0 days 0 hours 1 minutes 21 seconds 83 msec
