                         Program Version 6.0.0  -   RELEASE  -
|  1> ! r2scan-3c def2/J RI DEFGRID2 scfconv6 printgap
|  2> %output
|  3>     printlevel normal
|  4> end
|  5> %cpcm
|  6>     smd true
|  7>     smdsolvent "water"
|  8> end
|  9> * xyz 0 1
| 10> C 3.436826187 2.3334377739 -1.7154134366
| 11> C 3.9831109689 1.9146269662 -0.3655212461
| 12> O 3.6389499852 0.5551136526 -0.0607797032
| 13> P 2.1774310095 0.121836699 0.40425867
| 14> S 1.3954750179 1.3831219398 1.6913469996
| 15> O 2.441896026 -1.3490333107 0.9152909517
| 16> C 2.610055795 -1.6938795058 2.3095147132
| 17> C 1.8420431073 -2.9696848659 2.5892058963
| 18> S 1.1784162245 -0.3108844637 -1.4168416286
| 19> C 0.1637347257 -1.7211839171 -0.8866013426
| 20> S -0.8580317759 -1.380831758 0.5720339616
| 21> P -2.1811355107 -0.0402832579 -0.3558400921
| 22> S -2.6838774078 -0.401610085 -2.2198275223
| 23> O -1.4119495984 1.3154311866 -0.0921192525
| 24> C -1.8115315003 2.5664102657 -0.6958654705
| 25> C -0.582740572 3.2442472842 -1.2663825196
| 26> O -3.4148657703 0.0888379907 0.6397353196
| 27> C -4.5734818896 -0.7598544047 0.5428967559
| 28> C -4.2559380298 -2.1970389171 0.9013412592
| 29> H 3.7502034915 3.348583854 -1.9361884524
| 30> H 3.7970077995 1.6643260527 -2.4922181066
| 31> H 2.3478898881 2.292407467 -1.7006830604
| 32> H 3.5932121201 2.5579002477 0.4311580936
| 33> H 5.0737330228 1.9258320781 -0.3494437505
| 34> H 3.6810581947 -1.8237124824 2.4775077513
| 35> H 2.2442210185 -0.8647147168 2.9248908656
| 36> H 0.7818839616 -2.8183618587 2.3967343929
| 37> H 2.2062481854 -3.7719707931 1.9541718723
| 38> H 1.981196129 -3.2449020114 3.6294749809
| 39> H 0.8066999895 -2.5598779835 -0.6341667993
| 40> H -0.4818382109 -1.9528306862 -1.734936704
| 41> H -2.5515820411 2.3643233901 -1.4776543427
| 42> H -2.2675333847 3.1633603108 0.0962498214
| 43> H 0.1656706238 3.3556939558 -0.4851456815
| 44> H -0.1686375344 2.6455865349 -2.0751665766
| 45> H -0.8554369035 4.22304544 -1.6467005739
| 46> H -5.2823996507 -0.3144846347 1.2419620432
| 47> H -4.9631708263 -0.6942236529 -0.4780332918
| 48> H -3.7678402797 -2.2450116815 1.8716251692
| 49> H -5.1762367248 -2.7714429073 0.9305571757
| 50> H -3.5930061813 -2.6290912014 0.1526198602
| 51> *
| 52>
| 53>                          ****END OF INPUT****

CARTESIAN COORDINATES (ANGSTROEM)
---------------------------------
  C      3.436826    2.333438   -1.715413
  C      3.983111    1.914627   -0.365521
  O      3.638950    0.555114   -0.060780
  P      2.177431    0.121837    0.404259
  S      1.395475    1.383122    1.691347
  O      2.441896   -1.349033    0.915291
  C      2.610056   -1.693880    2.309515
  C      1.842043   -2.969685    2.589206
  S      1.178416   -0.310884   -1.416842
  C      0.163735   -1.721184   -0.886601
  S     -0.858032   -1.380832    0.572034
  P     -2.181136   -0.040283   -0.355840
  S     -2.683877   -0.401610   -2.219828
  O     -1.411950    1.315431   -0.092119
  C     -1.811532    2.566410   -0.695865
  C     -0.582741    3.244247   -1.266383
  O     -3.414866    0.088838    0.639735
  C     -4.573482   -0.759854    0.542897
  C     -4.255938   -2.197039    0.901341
  H      3.750203    3.348584   -1.936188
  H      3.797008    1.664326   -2.492218
  H      2.347890    2.292407   -1.700683
  H      3.593212    2.557900    0.431158
  H      5.073733    1.925832   -0.349444
  H      3.681058   -1.823712    2.477508
  H      2.244221   -0.864715    2.924891
  H      0.781884   -2.818362    2.396734
  H      2.206248   -3.771971    1.954172
  H      1.981196   -3.244902    3.629475
  H      0.806700   -2.559878   -0.634167
  H     -0.481838   -1.952831   -1.734937
  H     -2.551582    2.364323   -1.477654
  H     -2.267533    3.163360    0.096250
  H      0.165671    3.355694   -0.485146
  H     -0.168638    2.645587   -2.075167
  H     -0.855437    4.223045   -1.646701
  H     -5.282400   -0.314485    1.241962
  H     -4.963171   -0.694224   -0.478033
  H     -3.767840   -2.245012    1.871625
  H     -5.176237   -2.771443    0.930557
  H     -3.593006   -2.629091    0.152620

 Total Charge           Charge          ....    0
 Multiplicity           Mult            ....    1
 Number of Electrons    NEL             ....  202
 Basis Dimension        Dim             ....  539

ORBITAL ENERGIES
----------------

  NO   OCC          E(Eh)            E(eV)
   0   2.0000     -88.579977     -2410.3837
   1   2.0000     -88.576184     -2410.2805
   2   2.0000     -88.526513     -2408.9289
   3   2.0000     -88.521620     -2408.7957
   4   2.0000     -76.917515     -2093.0320
   5   2.0000     -76.916968     -2093.0171
   6   2.0000     -18.995267      -516.8875
   7   2.0000     -18.994590      -516.8691
   8   2.0000     -18.991405      -516.7824
   9   2.0000     -18.985842      -516.6310
  10   2.0000     -10.105934      -274.9965
  11   2.0000     -10.089463      -274.5482
  12   2.0000     -10.089053      -274.5371
  13   2.0000     -10.087909      -274.5060
  14   2.0000     -10.086962      -274.4802
  15   2.0000     -10.019985      -272.6576
  16   2.0000     -10.019740      -272.6510
  17   2.0000     -10.018557      -272.6188
  18   2.0000     -10.015450      -272.5342
  19   2.0000      -7.874580      -214.2782
  20   2.0000      -7.870535      -214.1681
  21   2.0000      -7.821638      -212.8376
  22   2.0000      -7.816649      -212.7018
  23   2.0000      -6.595853      -179.4823
  24   2.0000      -6.595676      -179.4775
  25   2.0000      -5.821463      -158.4101
  26   2.0000      -5.818443      -158.3279
  27   2.0000      -5.817793      -158.3102
  28   2.0000      -5.814214      -158.2128
  29   2.0000      -5.811612      -158.1420
  30   2.0000      -5.807429      -158.0282
  31   2.0000      -5.769113      -156.9855
  32   2.0000      -5.764246      -156.8531
  33   2.0000      -5.762023      -156.7926
  34   2.0000      -5.761641      -156.7822
  35   2.0000      -5.757105      -156.6588
  36   2.0000      -5.756481      -156.6418
  37   2.0000      -4.741471      -129.0220
  38   2.0000      -4.741144      -129.0131
  39   2.0000      -4.740851      -129.0051
  40   2.0000      -4.740502      -128.9956
  41   2.0000      -4.739545      -128.9696
  42   2.0000      -4.739417      -128.9661
  43   2.0000      -1.051349       -28.6087
  44   2.0000      -1.049586       -28.5607
  45   2.0000      -1.012292       -27.5459
  46   2.0000      -1.008988       -27.4560
  47   2.0000      -0.803297       -21.8588
  48   2.0000      -0.756268       -20.5791
  49   2.0000      -0.743559       -20.2333
  50   2.0000      -0.723113       -19.6769
  51   2.0000      -0.721620       -19.6363
  52   2.0000      -0.707647       -19.2561
  53   2.0000      -0.687560       -18.7095
  54   2.0000      -0.673781       -18.3345
  55   2.0000      -0.630510       -17.1570
  56   2.0000      -0.618357       -16.8264
  57   2.0000      -0.598796       -16.2941
  58   2.0000      -0.598035       -16.2734
  59   2.0000      -0.585068       -15.9205
  60   2.0000      -0.523127       -14.2350
  61   2.0000      -0.521474       -14.1900
  62   2.0000      -0.491104       -13.3636
  63   2.0000      -0.487538       -13.2666
  64   2.0000      -0.477922       -13.0049
  65   2.0000      -0.456164       -12.4129
  66   2.0000      -0.453493       -12.3402
  67   2.0000      -0.447513       -12.1775
  68   2.0000      -0.440194       -11.9783
  69   2.0000      -0.429988       -11.7006
  70   2.0000      -0.425043       -11.5660
  71   2.0000      -0.408576       -11.1179
  72   2.0000      -0.406272       -11.0552
  73   2.0000      -0.400556       -10.8997
  74   2.0000      -0.394908       -10.7460
  75   2.0000      -0.389353       -10.5948
  76   2.0000      -0.380252       -10.3472
  77   2.0000      -0.366371        -9.9695
  78   2.0000      -0.362208        -9.8562
  79   2.0000      -0.360332        -9.8051
  80   2.0000      -0.355802        -9.6819
  81   2.0000      -0.352421        -9.5899
  82   2.0000      -0.348452        -9.4819
  83   2.0000      -0.346714        -9.4346
  84   2.0000      -0.341305        -9.2874
  85   2.0000      -0.331615        -9.0237
  86   2.0000      -0.315009        -8.5718
  87   2.0000      -0.307014        -8.3543
  88   2.0000      -0.304459        -8.2847
  89   2.0000      -0.302144        -8.2218
  90   2.0000      -0.300095        -8.1660
  91   2.0000      -0.289082        -7.8663
  92   2.0000      -0.282185        -7.6787
  93   2.0000      -0.278208        -7.5704
  94   2.0000      -0.277338        -7.5468
  95   2.0000      -0.252403        -6.8682
  96   2.0000      -0.235636        -6.4120
  97   2.0000      -0.229280        -6.2390
  98   2.0000      -0.225881        -6.1465
  99   2.0000      -0.215838        -5.8733
 100   2.0000      -0.211591        -5.7577
 101   0.0000      -0.053134        -1.4458
 102   0.0000      -0.028596        -0.7781
 103   0.0000      -0.022289        -0.6065
 104   0.0000      -0.000417        -0.0114
 105   0.0000       0.014015         0.3814

MULLIKEN ATOMIC CHARGES
-----------------------
   0 C :   -0.484339
   1 C :   -0.153826
   2 O :   -0.322938
   3 P :    0.784849
   4 S :   -0.523287
   5 O :   -0.357363
   6 C :   -0.135279
   7 C :   -0.487683
   8 S :   -0.164196
   9 C :   -0.203586
  10 S :   -0.136447
  11 P :    0.725373
  12 S :   -0.540398
  13 O :   -0.272657
  14 C :   -0.126472
  15 C :   -0.511594
  16 O :   -0.330192
  17 C :   -0.151710
  18 C :   -0.488211
  19 H :    0.175654
  20 H :    0.174086
  21 H :    0.157993
  22 H :    0.178411
  23 H :    0.173400
  24 H :    0.173542
  25 H :    0.174761
  26 H :    0.160770
  27 H :    0.169965
  28 H :    0.171550
  29 H :    0.223223
  30 H :    0.231881
  31 H :    0.165920
  32 H :    0.173224
  33 H :    0.172515
  34 H :    0.169109
  35 H :    0.166461
  36 H :    0.174511
  37 H :    0.178113
  38 H :    0.169609
  39 H :    0.172864
  40 H :    0.172393
Sum of atomic charges:   -0.0000000

LOEWDIN ATOMIC CHARGES
----------------------
   0 C :   -0.404060
   1 C :    0.021246
   2 O :   -0.680057
   3 P :    0.390462
   4 S :   -0.145252
   5 O :   -0.688315
   6 C :    0.029914
   7 C :   -0.393397
   8 S :    0.155517
   9 C :   -0.401669
  10 S :    0.179623
  11 P :    0.377386
  12 S :   -0.172143
  13 O :   -0.687028
  14 C :    0.028470
  15 C :   -0.402649
  16 O :   -0.670028
  17 C :    0.024479
  18 C :   -0.409831
  19 H :    0.169868
  20 H :    0.164004
  21 H :    0.161831
  22 H :    0.181015
  23 H :    0.190081
  24 H :    0.183788
  25 H :    0.184258
  26 H :    0.161102
  27 H :    0.163641
  28 H :    0.169602
  29 H :    0.197934
  30 H :    0.198799
  31 H :    0.181146
  32 H :    0.182593
  33 H :    0.164570
  34 H :    0.161858
  35 H :    0.165386
  36 H :    0.190600
  37 H :    0.181413
  38 H :    0.163704
  39 H :    0.168539
  40 H :    0.161597

  Mayer bond orders larger than 0.100000
B(  0-C ,  1-C ) :   0.9113 B(  0-C , 19-H ) :   0.9556 B(  0-C , 20-H ) :   0.9675
B(  0-C , 21-H ) :   0.9584 B(  1-C ,  2-O ) :   0.8045 B(  1-C , 22-H ) :   0.9635
B(  1-C , 23-H ) :   0.9483 B(  2-O ,  3-P ) :   1.0790 B(  3-P ,  4-S ) :   1.7056
B(  3-P ,  5-O ) :   1.1945 B(  3-P ,  8-S ) :   1.0613 B(  5-O ,  6-C ) :   0.7496
B(  6-C ,  7-C ) :   0.9498 B(  6-C , 24-H ) :   0.9389 B(  6-C , 25-H ) :   0.9527
B(  7-C , 26-H ) :   0.9653 B(  7-C , 27-H ) :   0.9681 B(  7-C , 28-H ) :   0.9580
B(  8-S ,  9-C ) :   0.8842 B(  9-C , 10-S ) :   0.9080 B(  9-C , 29-H ) :   0.9042
B(  9-C , 30-H ) :   0.9040 B( 10-S , 11-P ) :   1.1048 B( 11-P , 12-S ) :   1.6967
B( 11-P , 13-O ) :   1.1852 B( 11-P , 16-O ) :   1.0655 B( 13-O , 14-C ) :   0.7448
B( 14-C , 15-C ) :   0.9517 B( 14-C , 31-H ) :   0.9543 B( 14-C , 32-H ) :   0.9432
B( 15-C , 33-H ) :   0.9652 B( 15-C , 34-H ) :   0.9680 B( 15-C , 35-H ) :   0.9593
B( 16-O , 17-C ) :   0.8049 B( 17-C , 18-C ) :   0.9101 B( 17-C , 36-H ) :   0.9486
B( 17-C , 37-H ) :   0.9654 B( 18-C , 38-H ) :   0.9657 B( 18-C , 39-H ) :   0.9533
B( 18-C , 40-H ) :   0.9632

Dispersion correction           -0.022046702
FINAL SINGLE POINT ENERGY     -2932.465463455665

DIPOLE MOMENT
-------------

Method             : SCF
Type of density    : Electron Density
Multiplicity       :   1
Irrep              :   0
Energy             : -2932.4900901583832820 Eh
Relativity type    :
Basis              : AO
                                X                 Y                 Z
Electronic contribution:     -0.975471350      -2.179148858      -2.371653384
Nuclear contribution   :      1.289550243       1.692755183       2.922413041
                        -----------------------------------------
Total Dipole Moment    :      0.314078893      -0.486393675       0.550759656
                        -----------------------------------------
Magnitude (a.u.)       :      0.799099842
Magnitude (Debye)      :      2.031150380

Rotational constants in cm-1:             0.011325             0.005905             0.004813
Rotational constants in MHz :           339.529477           177.017280           144.285206

                             ****ORCA TERMINATED NORMALLY****
TOTAL RUN TIME: 0 days 0 hours 1 minutes 50 seconds 50 msec
