                         Program Version 6.0.0  -   RELEASE  -
|  1> ! pbe def2-sv(p) def2/J RI DEFGRID1 loosescf d4 GCP(DFT/SV(P)) printgap
|  2> %output
|  3>     printlevel normal
|  4> end
|  5> * xyz 0 1
|  6> C 4.7528372637 -0.6274133106 -2.2212022935
|  7> C 4.0416010651 -1.712938872 -1.441145797
|  8> O 3.5310959711 -1.2483013405 -0.1772884196
|  9> P 2.5569715995 -0.0079593448 0.0242642873
| 10> S 3.2965204533 1.7992085864 -0.0695947888
| 11> O 2.0186435139 -0.2755440205 1.4797894466
| 12> C 1.4489154961 -1.5361299191 1.9131786866
| 13> C 0.6235480861 -1.2605209075 3.1529137659
| 14> S 0.9701742697 -0.431089937 -1.3453286045
| 15> C 0.212717915 1.2059733511 -1.2534051222
| 16> S -0.6066665637 1.5032763739 0.3292329746
| 17> P -2.2278829181 0.1670064356 0.0026945501
| 18> S -2.868375458 0.095910089 -1.8556774213
| 19> O -3.274700619 0.5378680377 1.1382604387
| 20> C -3.7958501535 1.852483356 1.4102400966
| 21> C -4.3013106398 2.5620050132 0.1721956191
| 22> O -1.6443193315 -1.2019061783 0.5513617093
| 23> C -2.4412964865 -2.2298674817 1.1836316482
| 24> C -3.556004907 -2.7232383816 0.2861523662
| 25> H 5.1880675009 -1.0543924727 -3.118959722
| 26> H 4.0496337363 0.1545412516 -2.5045323292
| 27> H 5.537795621 -0.1786578889 -1.6170465118
| 28> H 4.7250276069 -2.5163409593 -1.1604189584
| 29> H 3.2057057475 -2.1193393872 -2.0175399525
| 30> H 0.8347713825 -1.9395498597 1.1020563333
| 31> H 2.2737666612 -2.2206972362 2.1190583311
| 32> H 1.2437107564 -0.7931080764 3.9122607035
| 33> H -0.196675861 -0.5884504299 2.9131727313
| 34> H 0.2256182784 -2.1949646396 3.5351853092
| 35> H -0.5218434825 1.2583158819 -2.0581762214
| 36> H 0.9852907062 1.9687174587 -1.3576582161
| 37> H -4.6039925824 1.6649440258 2.119766737
| 38> H -3.0056406371 2.4346113244 1.8922196397
| 39> H -4.7569905134 3.5041664728 0.4595426844
| 40> H -3.4762619588 2.7623587835 -0.5102112877
| 41> H -5.0355665252 1.950327904 -0.3467513859
| 42> H -1.7182552779 -3.0196454185 1.3937811398
| 43> H -2.8407595257 -1.8292234468 2.1175016082
| 44> H -4.0827763513 -3.5361223383 0.7760794108
| 45> H -4.2567196014 -1.9139375986 0.0837324822
| 46> H -3.1531714445 -3.0727805307 -0.6618004156
| 47> *
| 48>
| 49>                          ****END OF INPUT****

CARTESIAN COORDINATES (ANGSTROEM)
---------------------------------
  C      4.752837   -0.627413   -2.221202
  C      4.041601   -1.712939   -1.441146
  O      3.531096   -1.248301   -0.177288
  P      2.556972   -0.007959    0.024264
  S      3.296520    1.799209   -0.069595
  O      2.018644   -0.275544    1.479789
  C      1.448915   -1.536130    1.913179
  C      0.623548   -1.260521    3.152914
  S      0.970174   -0.431090   -1.345329
  C      0.212718    1.205973   -1.253405
  S     -0.606667    1.503276    0.329233
  P     -2.227883    0.167006    0.002695
  S     -2.868375    0.095910   -1.855677
  O     -3.274701    0.537868    1.138260
  C     -3.795850    1.852483    1.410240
  C     -4.301311    2.562005    0.172196
  O     -1.644319   -1.201906    0.551362
  C     -2.441296   -2.229867    1.183632
  C     -3.556005   -2.723238    0.286152
  H      5.188068   -1.054392   -3.118960
  H      4.049634    0.154541   -2.504532
  H      5.537796   -0.178658   -1.617047
  H      4.725028   -2.516341   -1.160419
  H      3.205706   -2.119339   -2.017540
  H      0.834771   -1.939550    1.102056
  H      2.273767   -2.220697    2.119058
  H      1.243711   -0.793108    3.912261
  H     -0.196676   -0.588450    2.913173
  H      0.225618   -2.194965    3.535185
  H     -0.521843    1.258316   -2.058176
  H      0.985291    1.968717   -1.357658
  H     -4.603993    1.664944    2.119767
  H     -3.005641    2.434611    1.892220
  H     -4.756991    3.504166    0.459543
  H     -3.476262    2.762359   -0.510211
  H     -5.035567    1.950328   -0.346751
  H     -1.718255   -3.019645    1.393781
  H     -2.840760   -1.829223    2.117502
  H     -4.082776   -3.536122    0.776079
  H     -4.256720   -1.913938    0.083732
  H     -3.153171   -3.072781   -0.661800

 Total Charge           Charge          ....    0
 Multiplicity           Mult            ....    1
 Number of Electrons    NEL             ....  202
 Basis Dimension        Dim             ....  334

ORBITAL ENERGIES
----------------

  NO   OCC          E(Eh)            E(eV)
   0   2.0000     -88.043743     -2395.7920
   1   2.0000     -88.040415     -2395.7015
   2   2.0000     -87.987157     -2394.2523
   3   2.0000     -87.979526     -2394.0446
   4   2.0000     -76.431919     -2079.8183
   5   2.0000     -76.422894     -2079.5727
   6   2.0000     -18.802151      -511.6326
   7   2.0000     -18.793437      -511.3954
   8   2.0000     -18.791467      -511.3418
   9   2.0000     -18.785767      -511.1867
  10   2.0000      -9.964521      -271.1484
  11   2.0000      -9.960240      -271.0319
  12   2.0000      -9.957749      -270.9641
  13   2.0000      -9.950471      -270.7661
  14   2.0000      -9.949429      -270.7377
  15   2.0000      -9.886870      -269.0354
  16   2.0000      -9.886856      -269.0350
  17   2.0000      -9.884404      -268.9683
  18   2.0000      -9.881654      -268.8935
  19   2.0000      -7.688702      -209.2202
  20   2.0000      -7.685195      -209.1248
  21   2.0000      -7.632223      -207.6833
  22   2.0000      -7.624924      -207.4847
  23   2.0000      -6.428788      -174.9362
  24   2.0000      -6.420098      -174.6998
  25   2.0000      -5.716451      -155.5525
  26   2.0000      -5.713339      -155.4679
  27   2.0000      -5.712814      -155.4536
  28   2.0000      -5.709739      -155.3699
  29   2.0000      -5.705700      -155.2600
  30   2.0000      -5.702451      -155.1716
  31   2.0000      -5.661155      -154.0479
  32   2.0000      -5.654001      -153.8532
  33   2.0000      -5.653044      -153.8272
  34   2.0000      -5.652189      -153.8039
  35   2.0000      -5.645433      -153.6200
  36   2.0000      -5.644977      -153.6076
  37   2.0000      -4.651976      -126.5867
  38   2.0000      -4.650571      -126.5485
  39   2.0000      -4.648761      -126.4992
  40   2.0000      -4.642961      -126.3414
  41   2.0000      -4.642100      -126.3180
  42   2.0000      -4.640132      -126.2644
  43   2.0000      -0.993288       -27.0288
  44   2.0000      -0.985607       -26.8197
  45   2.0000      -0.948552       -25.8114
  46   2.0000      -0.941278       -25.6135
  47   2.0000      -0.765032       -20.8176
  48   2.0000      -0.722348       -19.6561
  49   2.0000      -0.711761       -19.3680
  50   2.0000      -0.694999       -18.9119
  51   2.0000      -0.688222       -18.7275
  52   2.0000      -0.676433       -18.4067
  53   2.0000      -0.651363       -17.7245
  54   2.0000      -0.637772       -17.3547
  55   2.0000      -0.596008       -16.2182
  56   2.0000      -0.587707       -15.9923
  57   2.0000      -0.585165       -15.9232
  58   2.0000      -0.569038       -15.4843
  59   2.0000      -0.563672       -15.3383
  60   2.0000      -0.507588       -13.8122
  61   2.0000      -0.498637       -13.5686
  62   2.0000      -0.474440       -12.9102
  63   2.0000      -0.471878       -12.8404
  64   2.0000      -0.466216       -12.6864
  65   2.0000      -0.450248       -12.2519
  66   2.0000      -0.435556       -11.8521
  67   2.0000      -0.433392       -11.7932
  68   2.0000      -0.430910       -11.7257
  69   2.0000      -0.422215       -11.4890
  70   2.0000      -0.414542       -11.2803
  71   2.0000      -0.407307       -11.0834
  72   2.0000      -0.397336       -10.8121
  73   2.0000      -0.387500       -10.5444
  74   2.0000      -0.382851       -10.4179
  75   2.0000      -0.368222       -10.0198
  76   2.0000      -0.360522        -9.8103
  77   2.0000      -0.355020        -9.6606
  78   2.0000      -0.351977        -9.5778
  79   2.0000      -0.351520        -9.5654
  80   2.0000      -0.346340        -9.4244
  81   2.0000      -0.345377        -9.3982
  82   2.0000      -0.341529        -9.2935
  83   2.0000      -0.339139        -9.2284
  84   2.0000      -0.336486        -9.1562
  85   2.0000      -0.325560        -8.8589
  86   2.0000      -0.315455        -8.5840
  87   2.0000      -0.302616        -8.2346
  88   2.0000      -0.299437        -8.1481
  89   2.0000      -0.295385        -8.0378
  90   2.0000      -0.291816        -7.9407
  91   2.0000      -0.277328        -7.5465
  92   2.0000      -0.272247        -7.4082
  93   2.0000      -0.263912        -7.1814
  94   2.0000      -0.256218        -6.9720
  95   2.0000      -0.236463        -6.4345
  96   2.0000      -0.217661        -5.9229
  97   2.0000      -0.209784        -5.7085
  98   2.0000      -0.197787        -5.3821
  99   2.0000      -0.197146        -5.3646
 100   2.0000      -0.194452        -5.2913
 101   0.0000      -0.047078        -1.2811
 102   0.0000      -0.024351        -0.6626
 103   0.0000      -0.008156        -0.2219
 104   0.0000      -0.003355        -0.0913
 105   0.0000       0.013122         0.3571

MULLIKEN ATOMIC CHARGES
-----------------------
   0 C :   -0.307927
   1 C :   -0.011493
   2 O :   -0.384721
   3 P :    0.600856
   4 S :   -0.313321
   5 O :   -0.352366
   6 C :   -0.018294
   7 C :   -0.285017
   8 S :   -0.097905
   9 C :   -0.371290
  10 S :   -0.075991
  11 P :    0.627062
  12 S :   -0.324047
  13 O :   -0.392939
  14 C :   -0.006823
  15 C :   -0.313637
  16 O :   -0.370139
  17 C :   -0.003900
  18 C :   -0.309835
  19 H :    0.110624
  20 H :    0.126268
  21 H :    0.126723
  22 H :    0.107687
  23 H :    0.113455
  24 H :    0.115776
  25 H :    0.103051
  26 H :    0.119616
  27 H :    0.122392
  28 H :    0.101852
  29 H :    0.195385
  30 H :    0.195274
  31 H :    0.108761
  32 H :    0.117076
  33 H :    0.114093
  34 H :    0.128323
  35 H :    0.126803
  36 H :    0.105050
  37 H :    0.107612
  38 H :    0.109650
  39 H :    0.128714
  40 H :    0.127541
Sum of atomic charges:    0.0000000

LOEWDIN ATOMIC CHARGES
----------------------
   0 C :   -0.368551
   1 C :   -0.114646
   2 O :   -0.248137
   3 P :    0.567237
   4 S :   -0.309393
   5 O :   -0.232819
   6 C :   -0.116662
   7 C :   -0.352261
   8 S :    0.071646
   9 C :   -0.488760
  10 S :    0.089560
  11 P :    0.575701
  12 S :   -0.312281
  13 O :   -0.248210
  14 C :   -0.111165
  15 C :   -0.370397
  16 O :   -0.245426
  17 C :   -0.109558
  18 C :   -0.366386
  19 H :    0.129731
  20 H :    0.121927
  21 H :    0.130552
  22 H :    0.120440
  23 H :    0.108192
  24 H :    0.105544
  25 H :    0.112366
  26 H :    0.129060
  27 H :    0.123000
  28 H :    0.124745
  29 H :    0.127440
  30 H :    0.128579
  31 H :    0.121076
  32 H :    0.112730
  33 H :    0.131602
  34 H :    0.122240
  35 H :    0.129349
  36 H :    0.116646
  37 H :    0.111773
  38 H :    0.129247
  39 H :    0.123107
  40 H :    0.131162

  Mayer bond orders larger than 0.100000
B(  0-C ,  1-C ) :   1.1664 B(  0-C , 19-H ) :   0.9351 B(  0-C , 20-H ) :   0.9322
B(  0-C , 21-H ) :   0.9436 B(  1-C ,  2-O ) :   0.9148 B(  1-C , 22-H ) :   0.9336
B(  1-C , 23-H ) :   0.9262 B(  2-O ,  3-P ) :   1.0843 B(  3-P ,  4-S ) :   1.6442
B(  3-P ,  5-O ) :   1.1406 B(  3-P ,  8-S ) :   0.9404 B(  4-S ,  8-S ) :   0.1101
B(  5-O ,  6-C ) :   0.8882 B(  6-C ,  7-C ) :   1.1696 B(  6-C , 24-H ) :   0.9072
B(  6-C , 25-H ) :   0.9304 B(  7-C , 26-H ) :   0.9478 B(  7-C , 27-H ) :   0.9416
B(  7-C , 28-H ) :   0.9402 B(  8-S ,  9-C ) :   1.0112 B(  9-C , 10-S ) :   1.0085
B(  9-C , 29-H ) :   0.8689 B(  9-C , 30-H ) :   0.8677 B( 10-S , 11-P ) :   0.9461
B( 10-S , 12-S ) :   0.1217 B( 11-P , 12-S ) :   1.6275 B( 11-P , 13-O ) :   1.0788
B( 11-P , 16-O ) :   1.1040 B( 13-O , 14-C ) :   0.9071 B( 14-C , 15-C ) :   1.1677
B( 14-C , 31-H ) :   0.9342 B( 14-C , 32-H ) :   0.9292 B( 15-C , 33-H ) :   0.9334
B( 15-C , 34-H ) :   0.9318 B( 15-C , 35-H ) :   0.9421 B( 16-O , 17-C ) :   0.9057
B( 17-C , 18-C ) :   1.1716 B( 17-C , 36-H ) :   0.9294 B( 17-C , 37-H ) :   0.9282
B( 18-C , 38-H ) :   0.9354 B( 18-C , 39-H ) :   0.9352 B( 18-C , 40-H ) :   0.9434

Dispersion correction           -0.066164993
FINAL SINGLE POINT ENERGY     -2929.514938127760

DIPOLE MOMENT
-------------

Method             : SCF
Type of density    : Electron Density
Multiplicity       :   1
Irrep              :   0
Energy             : -2929.6347548373055361 Eh
Relativity type    :
Basis              : AO
                                X                 Y                 Z
Electronic contribution:      8.280938565       9.591392856      -5.937569355
Nuclear contribution   :     -9.106980193     -10.842260601       6.739429250
                        -----------------------------------------
Total Dipole Moment    :     -0.826041628      -1.250867746       0.801859896
                        -----------------------------------------
Magnitude (a.u.)       :      1.699998288
Magnitude (Debye)      :      4.321052249

Rotational constants in cm-1:             0.012913             0.004851             0.004620
Rotational constants in MHz :           387.132716           145.424001           138.491193

                             ****ORCA TERMINATED NORMALLY****
TOTAL RUN TIME: 0 days 0 hours 0 minutes 21 seconds 563 msec
