                         Program Version 6.0.0  -   RELEASE  -
|  1> ! r2scan-3c def2/J RI DEFGRID2 scfconv6 printgap
|  2> %output
|  3>     printlevel normal
|  4> end
|  5> * xyz 0 1
|  6> C 5.7895678013 -0.3425955611 0.2424133644
|  7> C 4.4470592237 -0.7625988774 -0.3211516382
|  8> O 3.4280060385 0.0267591244 0.3231776786
|  9> P 1.9676334954 0.1610994456 -0.2915074992
| 10> S 1.9356745794 0.5887982153 -2.2084635623
| 11> O 1.311349602 1.1839619039 0.7186127062
| 12> C 1.3513611255 2.6097255331 0.5120666129
| 13> C 2.7610638063 3.1534039683 0.5908487819
| 14> S 1.1012703739 -1.6693724061 0.2768848043
| 15> C -0.1358234957 -1.8966214924 -1.0479140748
| 16> S -1.8257090493 -1.9993990144 -0.4222822884
| 17> P -2.0453447479 0.0337429806 0.1597331104
| 18> S -1.4555692126 1.373462366 -1.1381525353
| 19> O -1.2825035669 0.173064685 1.5316607142
| 20> C -1.4536083779 -0.7069188974 2.6710222862
| 21> C -2.5265770342 -0.189595966 3.6059124361
| 22> O -3.5720330982 0.134182955 0.5882124009
| 23> C -4.6255196705 0.4289082042 -0.3470593099
| 24> C -4.8397556127 -0.689212305 -1.3462737981
| 25> H 5.9785567076 0.7042496696 0.0222007171
| 26> H 5.7982312338 -0.4833147748 1.3192387622
| 27> H 6.5687360551 -0.9491808179 -0.2070844317
| 28> H 4.2408919205 -1.8169199185 -0.1174857498
| 29> H 4.3901783605 -0.5890286403 -1.4012155605
| 30> H 0.8975958783 2.8315915819 -0.4599296685
| 31> H 0.7128314217 3.001381667 1.3054899385
| 32> H 3.3505130598 2.7681053999 -0.2404955108
| 33> H 2.7306926191 4.2367999699 0.5298298438
| 34> H 3.2275257217 2.8519256591 1.5250772329
| 35> H 0.0653231514 -2.8481309526 -1.5330329927
| 36> H -0.0454659025 -1.0669801036 -1.7549514926
| 37> H -1.6926039851 -1.7115092795 2.3103970046
| 38> H -0.4715136852 -0.7134545223 3.1483839021
| 39> H -2.2980745661 0.8280331524 3.9108483847
| 40> H -3.4945643457 -0.1997574394 3.1125498042
| 41> H -2.5645168991 -0.8269730955 4.4838537188
| 42> H -5.5008967229 0.5752193106 0.2872193858
| 43> H -4.3781849448 1.3630965826 -0.8605929557
| 44> H -3.9894504633 -0.7546127145 -2.0230659009
| 45> H -4.953279919 -1.6403565887 -0.8323316615
| 46> H -5.7334491915 -0.4827336727 -1.9263808009
| 47> *
| 48>
| 49>                          ****END OF INPUT****

CARTESIAN COORDINATES (ANGSTROEM)
---------------------------------
  C      5.789568   -0.342596    0.242413
  C      4.447059   -0.762599   -0.321152
  O      3.428006    0.026759    0.323178
  P      1.967633    0.161099   -0.291507
  S      1.935675    0.588798   -2.208464
  O      1.311350    1.183962    0.718613
  C      1.351361    2.609726    0.512067
  C      2.761064    3.153404    0.590849
  S      1.101270   -1.669372    0.276885
  C     -0.135823   -1.896621   -1.047914
  S     -1.825709   -1.999399   -0.422282
  P     -2.045345    0.033743    0.159733
  S     -1.455569    1.373462   -1.138153
  O     -1.282504    0.173065    1.531661
  C     -1.453608   -0.706919    2.671022
  C     -2.526577   -0.189596    3.605912
  O     -3.572033    0.134183    0.588212
  C     -4.625520    0.428908   -0.347059
  C     -4.839756   -0.689212   -1.346274
  H      5.978557    0.704250    0.022201
  H      5.798231   -0.483315    1.319239
  H      6.568736   -0.949181   -0.207084
  H      4.240892   -1.816920   -0.117486
  H      4.390178   -0.589029   -1.401216
  H      0.897596    2.831592   -0.459930
  H      0.712831    3.001382    1.305490
  H      3.350513    2.768105   -0.240496
  H      2.730693    4.236800    0.529830
  H      3.227526    2.851926    1.525077
  H      0.065323   -2.848131   -1.533033
  H     -0.045466   -1.066980   -1.754951
  H     -1.692604   -1.711509    2.310397
  H     -0.471514   -0.713455    3.148384
  H     -2.298075    0.828033    3.910848
  H     -3.494564   -0.199757    3.112550
  H     -2.564517   -0.826973    4.483854
  H     -5.500897    0.575219    0.287219
  H     -4.378185    1.363097   -0.860593
  H     -3.989450   -0.754613   -2.023066
  H     -4.953280   -1.640357   -0.832332
  H     -5.733449   -0.482734   -1.926381

 Total Charge           Charge          ....    0
 Multiplicity           Mult            ....    1
 Number of Electrons    NEL             ....  202
 Basis Dimension        Dim             ....  539

ORBITAL ENERGIES
----------------

  NO   OCC          E(Eh)            E(eV)
   0   2.0000     -88.575497     -2410.2618
   1   2.0000     -88.572290     -2410.1746
   2   2.0000     -88.513769     -2408.5821
   3   2.0000     -88.512358     -2408.5437
   4   2.0000     -76.911384     -2092.8652
   5   2.0000     -76.907001     -2092.7459
   6   2.0000     -18.993273      -516.8332
   7   2.0000     -18.986985      -516.6621
   8   2.0000     -18.985423      -516.6196
   9   2.0000     -18.979891      -516.4691
  10   2.0000     -10.105097      -274.9737
  11   2.0000     -10.099369      -274.8178
  12   2.0000     -10.097379      -274.7637
  13   2.0000     -10.092800      -274.6390
  14   2.0000     -10.085296      -274.4349
  15   2.0000     -10.029891      -272.9272
  16   2.0000     -10.029256      -272.9099
  17   2.0000     -10.029010      -272.9032
  18   2.0000     -10.020024      -272.6587
  19   2.0000      -7.870083      -214.1558
  20   2.0000      -7.866870      -214.0684
  21   2.0000      -7.808612      -212.4831
  22   2.0000      -7.807090      -212.4417
  23   2.0000      -6.589750      -179.3162
  24   2.0000      -6.585517      -179.2010
  25   2.0000      -5.816929      -158.2867
  26   2.0000      -5.813742      -158.2000
  27   2.0000      -5.813670      -158.1980
  28   2.0000      -5.810724      -158.1178
  29   2.0000      -5.807360      -158.0263
  30   2.0000      -5.804007      -157.9351
  31   2.0000      -5.756378      -156.6390
  32   2.0000      -5.754736      -156.5943
  33   2.0000      -5.748763      -156.4318
  34   2.0000      -5.748615      -156.4278
  35   2.0000      -5.747594      -156.4000
  36   2.0000      -5.746877      -156.3805
  37   2.0000      -4.735613      -128.8626
  38   2.0000      -4.734759      -128.8394
  39   2.0000      -4.733086      -128.7938
  40   2.0000      -4.730823      -128.7322
  41   2.0000      -4.730391      -128.7205
  42   2.0000      -4.729470      -128.6954
  43   2.0000      -1.049036       -28.5457
  44   2.0000      -1.042411       -28.3655
  45   2.0000      -1.008915       -27.4540
  46   2.0000      -1.002227       -27.2720
  47   2.0000      -0.798370       -21.7248
  48   2.0000      -0.755944       -20.5703
  49   2.0000      -0.747270       -20.3343
  50   2.0000      -0.733805       -19.9679
  51   2.0000      -0.725933       -19.7536
  52   2.0000      -0.708607       -19.2822
  53   2.0000      -0.682678       -18.5766
  54   2.0000      -0.661253       -17.9936
  55   2.0000      -0.628441       -17.1008
  56   2.0000      -0.620262       -16.8782
  57   2.0000      -0.607014       -16.5177
  58   2.0000      -0.594865       -16.1871
  59   2.0000      -0.589380       -16.0378
  60   2.0000      -0.525438       -14.2979
  61   2.0000      -0.518060       -14.0971
  62   2.0000      -0.492950       -13.4139
  63   2.0000      -0.486911       -13.2495
  64   2.0000      -0.468099       -12.7376
  65   2.0000      -0.462161       -12.5760
  66   2.0000      -0.459162       -12.4944
  67   2.0000      -0.448233       -12.1970
  68   2.0000      -0.442866       -12.0510
  69   2.0000      -0.434221       -11.8157
  70   2.0000      -0.426652       -11.6098
  71   2.0000      -0.411260       -11.1910
  72   2.0000      -0.404049       -10.9947
  73   2.0000      -0.397167       -10.8075
  74   2.0000      -0.393742       -10.7143
  75   2.0000      -0.385056       -10.4779
  76   2.0000      -0.381160       -10.3719
  77   2.0000      -0.372156       -10.1269
  78   2.0000      -0.368552       -10.0288
  79   2.0000      -0.366489        -9.9727
  80   2.0000      -0.361814        -9.8455
  81   2.0000      -0.355460        -9.6726
  82   2.0000      -0.351867        -9.5748
  83   2.0000      -0.350175        -9.5287
  84   2.0000      -0.345291        -9.3958
  85   2.0000      -0.327946        -8.9239
  86   2.0000      -0.320410        -8.7188
  87   2.0000      -0.311153        -8.4669
  88   2.0000      -0.308530        -8.3955
  89   2.0000      -0.304255        -8.2792
  90   2.0000      -0.290982        -7.9180
  91   2.0000      -0.284946        -7.7538
  92   2.0000      -0.277098        -7.5402
  93   2.0000      -0.276156        -7.5146
  94   2.0000      -0.269853        -7.3431
  95   2.0000      -0.248026        -6.7491
  96   2.0000      -0.232377        -6.3233
  97   2.0000      -0.226795        -6.1714
  98   2.0000      -0.215048        -5.8517
  99   2.0000      -0.204940        -5.5767
 100   2.0000      -0.196909        -5.3582
 101   0.0000      -0.040256        -1.0954
 102   0.0000      -0.028456        -0.7743
 103   0.0000      -0.007838        -0.2133
 104   0.0000       0.014528         0.3953
 105   0.0000       0.020854         0.5675

MULLIKEN ATOMIC CHARGES
-----------------------
   0 C :   -0.442312
   1 C :   -0.159923
   2 O :   -0.279747
   3 P :    0.670142
   4 S :   -0.468563
   5 O :   -0.269416
   6 C :   -0.151366
   7 C :   -0.451829
   8 S :   -0.150963
   9 C :   -0.219133
  10 S :   -0.156792
  11 P :    0.654312
  12 S :   -0.415317
  13 O :   -0.252945
  14 C :   -0.122535
  15 C :   -0.457297
  16 O :   -0.303769
  17 C :   -0.164142
  18 C :   -0.459309
  19 H :    0.154830
  20 H :    0.152626
  21 H :    0.145814
  22 H :    0.151179
  23 H :    0.172224
  24 H :    0.181531
  25 H :    0.154369
  26 H :    0.168307
  27 H :    0.146089
  28 H :    0.153974
  29 H :    0.196346
  30 H :    0.218567
  31 H :    0.165779
  32 H :    0.163388
  33 H :    0.156092
  34 H :    0.163533
  35 H :    0.145901
  36 H :    0.147120
  37 H :    0.176837
  38 H :    0.183835
  39 H :    0.153619
  40 H :    0.148945
Sum of atomic charges:    0.0000000

LOEWDIN ATOMIC CHARGES
----------------------
   0 C :   -0.386783
   1 C :    0.015602
   2 O :   -0.671454
   3 P :    0.369361
   4 S :   -0.130249
   5 O :   -0.660553
   6 C :    0.014409
   7 C :   -0.401870
   8 S :    0.169116
   9 C :   -0.413053
  10 S :    0.125661
  11 P :    0.380635
  12 S :   -0.072344
  13 O :   -0.656760
  14 C :    0.015490
  15 C :   -0.394891
  16 O :   -0.672014
  17 C :    0.020741
  18 C :   -0.408895
  19 H :    0.159872
  20 H :    0.159304
  21 H :    0.159230
  22 H :    0.171312
  23 H :    0.180782
  24 H :    0.184751
  25 H :    0.182712
  26 H :    0.165024
  27 H :    0.158744
  28 H :    0.160032
  29 H :    0.180829
  30 H :    0.202535
  31 H :    0.177239
  32 H :    0.183459
  33 H :    0.161085
  34 H :    0.165988
  35 H :    0.158172
  36 H :    0.178813
  37 H :    0.181502
  38 H :    0.167294
  39 H :    0.159279
  40 H :    0.159892

  Mayer bond orders larger than 0.100000
B(  0-C ,  1-C ) :   0.9544 B(  0-C , 19-H ) :   0.9717 B(  0-C , 20-H ) :   0.9721
B(  0-C , 21-H ) :   0.9654 B(  1-C ,  2-O ) :   0.7887 B(  1-C , 22-H ) :   0.9465
B(  1-C , 23-H ) :   0.9502 B(  2-O ,  3-P ) :   1.0763 B(  3-P ,  4-S ) :   1.7464
B(  3-P ,  5-O ) :   1.1925 B(  3-P ,  8-S ) :   1.0941 B(  5-O ,  6-C ) :   0.8029
B(  6-C ,  7-C ) :   0.9112 B(  6-C , 24-H ) :   0.9627 B(  6-C , 25-H ) :   0.9620
B(  7-C , 26-H ) :   0.9626 B(  7-C , 27-H ) :   0.9610 B(  7-C , 28-H ) :   0.9720
B(  8-S ,  9-C ) :   0.8983 B(  9-C , 10-S ) :   0.9126 B(  9-C , 29-H ) :   0.9140
B(  9-C , 30-H ) :   0.9054 B( 10-S , 11-P ) :   1.0216 B( 11-P , 12-S ) :   1.8387
B( 11-P , 13-O ) :   1.1272 B( 11-P , 16-O ) :   1.0475 B( 13-O , 14-C ) :   0.7458
B( 14-C , 15-C ) :   0.9349 B( 14-C , 31-H ) :   0.9614 B( 14-C , 32-H ) :   0.9632
B( 15-C , 33-H ) :   0.9746 B( 15-C , 34-H ) :   0.9651 B( 15-C , 35-H ) :   0.9662
B( 16-O , 17-C ) :   0.8209 B( 17-C , 18-C ) :   0.9122 B( 17-C , 36-H ) :   0.9614
B( 17-C , 37-H ) :   0.9676 B( 18-C , 38-H ) :   0.9630 B( 18-C , 39-H ) :   0.9682
B( 18-C , 40-H ) :   0.9571

Dispersion correction           -0.021943321
FINAL SINGLE POINT ENERGY     -2932.459582169312

DIPOLE MOMENT
-------------

Method             : SCF
Type of density    : Electron Density
Multiplicity       :   1
Irrep              :   0
Energy             : -2932.4842538184761906 Eh
Relativity type    :
Basis              : AO
                                X                 Y                 Z
Electronic contribution:     -3.042604998      -5.275064679      -9.026907338
Nuclear contribution   :      2.738342811       4.661308277      10.208884531
                        -----------------------------------------
Total Dipole Moment    :     -0.304262186      -0.613756402       1.181977194
                        -----------------------------------------
Magnitude (a.u.)       :      1.366141459
Magnitude (Debye)      :      3.472455628

Rotational constants in cm-1:             0.013358             0.004947             0.004922
Rotational constants in MHz :           400.453282           148.319759           147.559900

                             ****ORCA TERMINATED NORMALLY****
TOTAL RUN TIME: 0 days 0 hours 1 minutes 25 seconds 115 msec
