                         Program Version 6.0.0  -   RELEASE  -
|  1> ! r2scan-3c def2/J RI DEFGRID2 scfconv6 printgap
|  2> %output
|  3>     printlevel normal
|  4> end
|  5> %cpcm
|  6>     smd true
|  7>     smdsolvent "water"
|  8> end
|  9> * xyz 0 1
| 10> C 5.7895678013 -0.3425955611 0.2424133644
| 11> C 4.4470592237 -0.7625988774 -0.3211516382
| 12> O 3.4280060385 0.0267591244 0.3231776786
| 13> P 1.9676334954 0.1610994456 -0.2915074992
| 14> S 1.9356745794 0.5887982153 -2.2084635623
| 15> O 1.311349602 1.1839619039 0.7186127062
| 16> C 1.3513611255 2.6097255331 0.5120666129
| 17> C 2.7610638063 3.1534039683 0.5908487819
| 18> S 1.1012703739 -1.6693724061 0.2768848043
| 19> C -0.1358234957 -1.8966214924 -1.0479140748
| 20> S -1.8257090493 -1.9993990144 -0.4222822884
| 21> P -2.0453447479 0.0337429806 0.1597331104
| 22> S -1.4555692126 1.373462366 -1.1381525353
| 23> O -1.2825035669 0.173064685 1.5316607142
| 24> C -1.4536083779 -0.7069188974 2.6710222862
| 25> C -2.5265770342 -0.189595966 3.6059124361
| 26> O -3.5720330982 0.134182955 0.5882124009
| 27> C -4.6255196705 0.4289082042 -0.3470593099
| 28> C -4.8397556127 -0.689212305 -1.3462737981
| 29> H 5.9785567076 0.7042496696 0.0222007171
| 30> H 5.7982312338 -0.4833147748 1.3192387622
| 31> H 6.5687360551 -0.9491808179 -0.2070844317
| 32> H 4.2408919205 -1.8169199185 -0.1174857498
| 33> H 4.3901783605 -0.5890286403 -1.4012155605
| 34> H 0.8975958783 2.8315915819 -0.4599296685
| 35> H 0.7128314217 3.001381667 1.3054899385
| 36> H 3.3505130598 2.7681053999 -0.2404955108
| 37> H 2.7306926191 4.2367999699 0.5298298438
| 38> H 3.2275257217 2.8519256591 1.5250772329
| 39> H 0.0653231514 -2.8481309526 -1.5330329927
| 40> H -0.0454659025 -1.0669801036 -1.7549514926
| 41> H -1.6926039851 -1.7115092795 2.3103970046
| 42> H -0.4715136852 -0.7134545223 3.1483839021
| 43> H -2.2980745661 0.8280331524 3.9108483847
| 44> H -3.4945643457 -0.1997574394 3.1125498042
| 45> H -2.5645168991 -0.8269730955 4.4838537188
| 46> H -5.5008967229 0.5752193106 0.2872193858
| 47> H -4.3781849448 1.3630965826 -0.8605929557
| 48> H -3.9894504633 -0.7546127145 -2.0230659009
| 49> H -4.953279919 -1.6403565887 -0.8323316615
| 50> H -5.7334491915 -0.4827336727 -1.9263808009
| 51> *
| 52>
| 53>                          ****END OF INPUT****

CARTESIAN COORDINATES (ANGSTROEM)
---------------------------------
  C      5.789568   -0.342596    0.242413
  C      4.447059   -0.762599   -0.321152
  O      3.428006    0.026759    0.323178
  P      1.967633    0.161099   -0.291507
  S      1.935675    0.588798   -2.208464
  O      1.311350    1.183962    0.718613
  C      1.351361    2.609726    0.512067
  C      2.761064    3.153404    0.590849
  S      1.101270   -1.669372    0.276885
  C     -0.135823   -1.896621   -1.047914
  S     -1.825709   -1.999399   -0.422282
  P     -2.045345    0.033743    0.159733
  S     -1.455569    1.373462   -1.138153
  O     -1.282504    0.173065    1.531661
  C     -1.453608   -0.706919    2.671022
  C     -2.526577   -0.189596    3.605912
  O     -3.572033    0.134183    0.588212
  C     -4.625520    0.428908   -0.347059
  C     -4.839756   -0.689212   -1.346274
  H      5.978557    0.704250    0.022201
  H      5.798231   -0.483315    1.319239
  H      6.568736   -0.949181   -0.207084
  H      4.240892   -1.816920   -0.117486
  H      4.390178   -0.589029   -1.401216
  H      0.897596    2.831592   -0.459930
  H      0.712831    3.001382    1.305490
  H      3.350513    2.768105   -0.240496
  H      2.730693    4.236800    0.529830
  H      3.227526    2.851926    1.525077
  H      0.065323   -2.848131   -1.533033
  H     -0.045466   -1.066980   -1.754951
  H     -1.692604   -1.711509    2.310397
  H     -0.471514   -0.713455    3.148384
  H     -2.298075    0.828033    3.910848
  H     -3.494564   -0.199757    3.112550
  H     -2.564517   -0.826973    4.483854
  H     -5.500897    0.575219    0.287219
  H     -4.378185    1.363097   -0.860593
  H     -3.989450   -0.754613   -2.023066
  H     -4.953280   -1.640357   -0.832332
  H     -5.733449   -0.482734   -1.926381

 Total Charge           Charge          ....    0
 Multiplicity           Mult            ....    1
 Number of Electrons    NEL             ....  202
 Basis Dimension        Dim             ....  539

ORBITAL ENERGIES
----------------

  NO   OCC          E(Eh)            E(eV)
   0   2.0000     -88.578512     -2410.3438
   1   2.0000     -88.577991     -2410.3297
   2   2.0000     -88.524557     -2408.8757
   3   2.0000     -88.523719     -2408.8529
   4   2.0000     -76.917596     -2093.0342
   5   2.0000     -76.916969     -2093.0171
   6   2.0000     -18.994615      -516.8697
   7   2.0000     -18.992233      -516.8049
   8   2.0000     -18.992199      -516.8040
   9   2.0000     -18.990544      -516.7590
  10   2.0000     -10.104936      -274.9693
  11   2.0000     -10.090172      -274.5675
  12   2.0000     -10.089877      -274.5595
  13   2.0000     -10.087967      -274.5075
  14   2.0000     -10.086975      -274.4805
  15   2.0000     -10.019056      -272.6324
  16   2.0000     -10.018677      -272.6221
  17   2.0000     -10.017632      -272.5936
  18   2.0000     -10.017602      -272.5928
  19   2.0000      -7.873009      -214.2355
  20   2.0000      -7.872514      -214.2220
  21   2.0000      -7.819615      -212.7826
  22   2.0000      -7.818910      -212.7633
  23   2.0000      -6.596009      -179.4865
  24   2.0000      -6.595536      -179.4737
  25   2.0000      -5.819882      -158.3670
  26   2.0000      -5.819315      -158.3516
  27   2.0000      -5.816694      -158.2803
  28   2.0000      -5.816378      -158.2717
  29   2.0000      -5.810250      -158.1049
  30   2.0000      -5.809657      -158.0888
  31   2.0000      -5.767188      -156.9332
  32   2.0000      -5.766568      -156.9163
  33   2.0000      -5.760108      -156.7405
  34   2.0000      -5.759425      -156.7219
  35   2.0000      -5.759132      -156.7140
  36   2.0000      -5.758882      -156.7071
  37   2.0000      -4.741826      -129.0317
  38   2.0000      -4.740979      -129.0086
  39   2.0000      -4.740814      -129.0041
  40   2.0000      -4.740413      -128.9932
  41   2.0000      -4.739544      -128.9695
  42   2.0000      -4.739466      -128.9674
  43   2.0000      -1.052214       -28.6322
  44   2.0000      -1.050535       -28.5865
  45   2.0000      -1.011870       -27.5344
  46   2.0000      -1.009998       -27.4835
  47   2.0000      -0.801006       -21.7965
  48   2.0000      -0.755751       -20.5650
  49   2.0000      -0.744459       -20.2578
  50   2.0000      -0.725501       -19.7419
  51   2.0000      -0.723303       -19.6821
  52   2.0000      -0.709975       -19.3194
  53   2.0000      -0.688199       -18.7268
  54   2.0000      -0.669494       -18.2179
  55   2.0000      -0.630256       -17.1501
  56   2.0000      -0.619524       -16.8581
  57   2.0000      -0.602664       -16.3993
  58   2.0000      -0.592127       -16.1126
  59   2.0000      -0.589130       -16.0311
  60   2.0000      -0.525836       -14.3087
  61   2.0000      -0.516834       -14.0638
  62   2.0000      -0.492241       -13.3945
  63   2.0000      -0.488949       -13.3050
  64   2.0000      -0.470295       -12.7974
  65   2.0000      -0.462103       -12.5745
  66   2.0000      -0.458811       -12.4849
  67   2.0000      -0.445706       -12.1283
  68   2.0000      -0.439006       -11.9460
  69   2.0000      -0.435875       -11.8608
  70   2.0000      -0.424780       -11.5588
  71   2.0000      -0.411760       -11.2046
  72   2.0000      -0.401917       -10.9367
  73   2.0000      -0.398491       -10.8435
  74   2.0000      -0.392790       -10.6884
  75   2.0000      -0.386201       -10.5091
  76   2.0000      -0.380339       -10.3496
  77   2.0000      -0.367532       -10.0010
  78   2.0000      -0.362576        -9.8662
  79   2.0000      -0.360618        -9.8129
  80   2.0000      -0.353846        -9.6286
  81   2.0000      -0.352352        -9.5880
  82   2.0000      -0.350470        -9.5368
  83   2.0000      -0.346129        -9.4186
  84   2.0000      -0.344135        -9.3644
  85   2.0000      -0.325142        -8.8476
  86   2.0000      -0.322252        -8.7689
  87   2.0000      -0.311451        -8.4750
  88   2.0000      -0.306157        -8.3309
  89   2.0000      -0.301182        -8.1956
  90   2.0000      -0.296246        -8.0613
  91   2.0000      -0.287894        -7.8340
  92   2.0000      -0.281661        -7.6644
  93   2.0000      -0.277442        -7.5496
  94   2.0000      -0.273600        -7.4450
  95   2.0000      -0.252443        -6.8693
  96   2.0000      -0.240879        -6.5546
  97   2.0000      -0.237474        -6.4620
  98   2.0000      -0.226434        -6.1616
  99   2.0000      -0.214622        -5.8402
 100   2.0000      -0.208902        -5.6845
 101   0.0000      -0.045462        -1.2371
 102   0.0000      -0.035539        -0.9671
 103   0.0000      -0.011879        -0.3232
 104   0.0000       0.008432         0.2294
 105   0.0000       0.017015         0.4630

MULLIKEN ATOMIC CHARGES
-----------------------
   0 C :   -0.484172
   1 C :   -0.150754
   2 O :   -0.308040
   3 P :    0.701479
   4 S :   -0.523853
   5 O :   -0.298382
   6 C :   -0.148588
   7 C :   -0.494753
   8 S :   -0.148327
   9 C :   -0.220498
  10 S :   -0.153783
  11 P :    0.669860
  12 S :   -0.468916
  13 O :   -0.286914
  14 C :   -0.105357
  15 C :   -0.501690
  16 O :   -0.323418
  17 C :   -0.157857
  18 C :   -0.494267
  19 H :    0.165553
  20 H :    0.165457
  21 H :    0.169059
  22 H :    0.170256
  23 H :    0.172391
  24 H :    0.180672
  25 H :    0.177522
  26 H :    0.169510
  27 H :    0.171715
  28 H :    0.169386
  29 H :    0.237798
  30 H :    0.211800
  31 H :    0.176614
  32 H :    0.179842
  33 H :    0.167877
  34 H :    0.168684
  35 H :    0.170526
  36 H :    0.175182
  37 H :    0.179151
  38 H :    0.175947
  39 H :    0.169941
  40 H :    0.173347
Sum of atomic charges:    0.0000000

LOEWDIN ATOMIC CHARGES
----------------------
   0 C :   -0.390002
   1 C :    0.020469
   2 O :   -0.685025
   3 P :    0.372929
   4 S :   -0.165446
   5 O :   -0.679592
   6 C :    0.015144
   7 C :   -0.403781
   8 S :    0.173432
   9 C :   -0.407639
  10 S :    0.135792
  11 P :    0.383018
  12 S :   -0.110933
  13 O :   -0.678609
  14 C :    0.021991
  15 C :   -0.397280
  16 O :   -0.677532
  17 C :    0.026009
  18 C :   -0.411408
  19 H :    0.162224
  20 H :    0.162977
  21 H :    0.168495
  22 H :    0.179020
  23 H :    0.181258
  24 H :    0.183565
  25 H :    0.190866
  26 H :    0.163229
  27 H :    0.168548
  28 H :    0.164162
  29 H :    0.197330
  30 H :    0.199487
  31 H :    0.182513
  32 H :    0.190023
  33 H :    0.163595
  34 H :    0.166008
  35 H :    0.168245
  36 H :    0.190802
  37 H :    0.181629
  38 H :    0.161933
  39 H :    0.163798
  40 H :    0.168752

  Mayer bond orders larger than 0.100000
B(  0-C ,  1-C ) :   0.9512 B(  0-C , 19-H ) :   0.9694 B(  0-C , 20-H ) :   0.9691
B(  0-C , 21-H ) :   0.9589 B(  1-C ,  2-O ) :   0.7813 B(  1-C , 22-H ) :   0.9375
B(  1-C , 23-H ) :   0.9472 B(  2-O ,  3-P ) :   1.0834 B(  3-P ,  4-S ) :   1.6948
B(  3-P ,  5-O ) :   1.1892 B(  3-P ,  8-S ) :   1.1247 B(  5-O ,  6-C ) :   0.7877
B(  6-C ,  7-C ) :   0.9077 B(  6-C , 24-H ) :   0.9591 B(  6-C , 25-H ) :   0.9501
B(  7-C , 26-H ) :   0.9619 B(  7-C , 27-H ) :   0.9543 B(  7-C , 28-H ) :   0.9703
B(  8-S ,  9-C ) :   0.8914 B(  9-C , 10-S ) :   0.9078 B(  9-C , 29-H ) :   0.8977
B(  9-C , 30-H ) :   0.9100 B( 10-S , 11-P ) :   1.0386 B( 11-P , 12-S ) :   1.8120
B( 11-P , 13-O ) :   1.1284 B( 11-P , 16-O ) :   1.0578 B( 13-O , 14-C ) :   0.7355
B( 14-C , 15-C ) :   0.9275 B( 14-C , 31-H ) :   0.9524 B( 14-C , 32-H ) :   0.9544
B( 15-C , 33-H ) :   0.9730 B( 15-C , 34-H ) :   0.9647 B( 15-C , 35-H ) :   0.9592
B( 16-O , 17-C ) :   0.8101 B( 17-C , 18-C ) :   0.9006 B( 17-C , 36-H ) :   0.9509
B( 17-C , 37-H ) :   0.9664 B( 18-C , 38-H ) :   0.9652 B( 18-C , 39-H ) :   0.9650
B( 18-C , 40-H ) :   0.9518

Dispersion correction           -0.021943321
FINAL SINGLE POINT ENERGY     -2932.468626944239

DIPOLE MOMENT
-------------

Method             : SCF
Type of density    : Electron Density
Multiplicity       :   1
Irrep              :   0
Energy             : -2932.4932985934033240 Eh
Relativity type    :
Basis              : AO
                                X                 Y                 Z
Electronic contribution:     -3.188205960      -5.790174673      -8.654034130
Nuclear contribution   :      2.738342811       4.661308277      10.208884531
                        -----------------------------------------
Total Dipole Moment    :     -0.449863149      -1.128866396       1.554850401
                        -----------------------------------------
Magnitude (a.u.)       :      1.973391994
Magnitude (Debye)      :      5.015963825

Rotational constants in cm-1:             0.013358             0.004947             0.004922
Rotational constants in MHz :           400.453282           148.319759           147.559900

                             ****ORCA TERMINATED NORMALLY****
TOTAL RUN TIME: 0 days 0 hours 1 minutes 50 seconds 470 msec
