                         Program Version 6.0.0  -   RELEASE  -
|  1> ! pbe def2-sv(p) def2/J RI DEFGRID1 loosescf d4 GCP(DFT/SV(P)) printgap
|  2> %output
|  3>     printlevel normal
|  4> end
|  5> * xyz 0 1
|  6> C 4.5677451859 -1.6472786689 -0.8460933091
|  7> C 4.6446958607 -0.2149254005 -0.3581784448
|  8> O 3.5106098031 0.1510746079 0.4457198171
|  9> P 2.0424462621 0.2821717547 -0.1529664867
| 10> S 1.9683912756 1.0332472068 -1.9661777076
| 11> O 1.3198184947 1.0868355917 1.0083732814
| 12> C 1.3223863909 2.5290651814 1.0541722479
| 13> C 2.7172108266 3.1053598159 1.1677123455
| 14> S 1.2369206821 -1.6426587415 0.1416753325
| 15> C 0.0899360935 -1.7395692612 -1.2750225291
| 16> S -1.6178645782 -2.0815150809 -0.7840998709
| 17> P -2.0631212027 -0.2556639704 0.1465305284
| 18> S -1.4784265643 1.4074515166 -0.7285210576
| 19> O -1.4476512421 -0.5351754085 1.578190564
| 20> C -1.4438294668 0.4570036976 2.6252145561
| 21> C -2.61533597 0.2506526684 3.5630880491
| 22> O -3.6256052007 -0.3087284576 0.4310779089
| 23> C -4.5992828139 0.1637647119 -0.5167453753
| 24> C -4.6450950679 -0.6960779758 -1.762773726
| 25> H 4.3906138406 -2.3222132588 -0.0126191781
| 26> H 3.75416888 -1.7518022408 -1.5625501344
| 27> H 5.5013098886 -1.9100342239 -1.3331326733
| 28> H 4.702399629 0.4746809781 -1.2065496124
| 29> H 5.495868587 -0.0605421313 0.3062832131
| 30> H 0.8157926536 2.9001786155 0.1566557131
| 31> H 0.7192727012 2.7611794582 1.9333760197
| 32> H 2.6469806401 4.1784153629 1.3165829677
| 33> H 3.242537579 2.6540439637 2.005504635
| 34> H 3.2759578833 2.9124965029 0.2526783371
| 35> H 0.3892125346 -2.5797023432 -1.8963505712
| 36> H 0.1419384209 -0.8003127109 -1.8329252157
| 37> H -0.4884692082 0.3167354783 3.1356559023
| 38> H -1.4688958541 1.4514811471 2.166233171
| 39> H -2.5889897041 -0.7565129036 3.9691384366
| 40> H -2.5527388754 0.9689903995 4.3745760953
| 41> H -3.5529370503 0.3897241843 3.0307054436
| 42> H -5.5400172034 0.125889435 0.0340639409
| 43> H -4.3568659218 1.2003590179 -0.7724141583
| 44> H -3.7194560293 -0.5850336833 -2.326246881
| 45> H -4.7676789173 -1.7425300421 -1.4953506313
| 46> H -5.475779125 -0.3812248807 -2.3862249023
| 47> *
| 48>
| 49>                          ****END OF INPUT****

CARTESIAN COORDINATES (ANGSTROEM)
---------------------------------
  C      4.567745   -1.647279   -0.846093
  C      4.644696   -0.214925   -0.358178
  O      3.510610    0.151075    0.445720
  P      2.042446    0.282172   -0.152966
  S      1.968391    1.033247   -1.966178
  O      1.319818    1.086836    1.008373
  C      1.322386    2.529065    1.054172
  C      2.717211    3.105360    1.167712
  S      1.236921   -1.642659    0.141675
  C      0.089936   -1.739569   -1.275023
  S     -1.617865   -2.081515   -0.784100
  P     -2.063121   -0.255664    0.146531
  S     -1.478427    1.407452   -0.728521
  O     -1.447651   -0.535175    1.578191
  C     -1.443829    0.457004    2.625215
  C     -2.615336    0.250653    3.563088
  O     -3.625605   -0.308728    0.431078
  C     -4.599283    0.163765   -0.516745
  C     -4.645095   -0.696078   -1.762774
  H      4.390614   -2.322213   -0.012619
  H      3.754169   -1.751802   -1.562550
  H      5.501310   -1.910034   -1.333133
  H      4.702400    0.474681   -1.206550
  H      5.495869   -0.060542    0.306283
  H      0.815793    2.900179    0.156656
  H      0.719273    2.761179    1.933376
  H      2.646981    4.178415    1.316583
  H      3.242538    2.654044    2.005505
  H      3.275958    2.912497    0.252678
  H      0.389213   -2.579702   -1.896351
  H      0.141938   -0.800313   -1.832925
  H     -0.488469    0.316735    3.135656
  H     -1.468896    1.451481    2.166233
  H     -2.588990   -0.756513    3.969138
  H     -2.552739    0.968990    4.374576
  H     -3.552937    0.389724    3.030705
  H     -5.540017    0.125889    0.034064
  H     -4.356866    1.200359   -0.772414
  H     -3.719456   -0.585034   -2.326247
  H     -4.767679   -1.742530   -1.495351
  H     -5.475779   -0.381225   -2.386225

 Total Charge           Charge          ....    0
 Multiplicity           Mult            ....    1
 Number of Electrons    NEL             ....  202
 Basis Dimension        Dim             ....  334

ORBITAL ENERGIES
----------------

  NO   OCC          E(Eh)            E(eV)
   0   2.0000     -88.043504     -2395.7855
   1   2.0000     -88.039115     -2395.6661
   2   2.0000     -87.984546     -2394.1812
   3   2.0000     -87.982635     -2394.1292
   4   2.0000     -76.423727     -2079.5953
   5   2.0000     -76.422944     -2079.5740
   6   2.0000     -18.794432      -511.4225
   7   2.0000     -18.789814      -511.2968
   8   2.0000     -18.784929      -511.1639
   9   2.0000     -18.784791      -511.1601
  10   2.0000      -9.954383      -270.8725
  11   2.0000      -9.952296      -270.8157
  12   2.0000      -9.949764      -270.7468
  13   2.0000      -9.946981      -270.6711
  14   2.0000      -9.944815      -270.6122
  15   2.0000      -9.884200      -268.9627
  16   2.0000      -9.882241      -268.9095
  17   2.0000      -9.881607      -268.8922
  18   2.0000      -9.879468      -268.8340
  19   2.0000      -7.689213      -209.2341
  20   2.0000      -7.684350      -209.1018
  21   2.0000      -7.629457      -207.6081
  22   2.0000      -7.627344      -207.5506
  23   2.0000      -6.421514      -174.7383
  24   2.0000      -6.420449      -174.7093
  25   2.0000      -5.717218      -155.5734
  26   2.0000      -5.713585      -155.4746
  27   2.0000      -5.712237      -155.4379
  28   2.0000      -5.708984      -155.3494
  29   2.0000      -5.706065      -155.2699
  30   2.0000      -5.701109      -155.1351
  31   2.0000      -5.658306      -153.9703
  32   2.0000      -5.656074      -153.9096
  33   2.0000      -5.650295      -153.7523
  34   2.0000      -5.649479      -153.7301
  35   2.0000      -5.648161      -153.6943
  36   2.0000      -5.647517      -153.6768
  37   2.0000      -4.644121      -126.3730
  38   2.0000      -4.643203      -126.3480
  39   2.0000      -4.642739      -126.3354
  40   2.0000      -4.642062      -126.3169
  41   2.0000      -4.641949      -126.3139
  42   2.0000      -4.641313      -126.2966
  43   2.0000      -0.985379       -26.8135
  44   2.0000      -0.982646       -26.7392
  45   2.0000      -0.943372       -25.6705
  46   2.0000      -0.940367       -25.5887
  47   2.0000      -0.762222       -20.7411
  48   2.0000      -0.719249       -19.5718
  49   2.0000      -0.705290       -19.1919
  50   2.0000      -0.687075       -18.6963
  51   2.0000      -0.683937       -18.6109
  52   2.0000      -0.673328       -18.3222
  53   2.0000      -0.649929       -17.6855
  54   2.0000      -0.632640       -17.2150
  55   2.0000      -0.603496       -16.4220
  56   2.0000      -0.592021       -16.1097
  57   2.0000      -0.571263       -15.5449
  58   2.0000      -0.568441       -15.4681
  59   2.0000      -0.557922       -15.1818
  60   2.0000      -0.495517       -13.4837
  61   2.0000      -0.487964       -13.2782
  62   2.0000      -0.472309       -12.8522
  63   2.0000      -0.467594       -12.7239
  64   2.0000      -0.451756       -12.2929
  65   2.0000      -0.445294       -12.1171
  66   2.0000      -0.436788       -11.8856
  67   2.0000      -0.435782       -11.8582
  68   2.0000      -0.427245       -11.6259
  69   2.0000      -0.413377       -11.2486
  70   2.0000      -0.411882       -11.2079
  71   2.0000      -0.392157       -10.6711
  72   2.0000      -0.389364       -10.5951
  73   2.0000      -0.385726       -10.4961
  74   2.0000      -0.380142       -10.3442
  75   2.0000      -0.377839       -10.2815
  76   2.0000      -0.371782       -10.1167
  77   2.0000      -0.354215        -9.6387
  78   2.0000      -0.351564        -9.5665
  79   2.0000      -0.350471        -9.5368
  80   2.0000      -0.345208        -9.3936
  81   2.0000      -0.343069        -9.3354
  82   2.0000      -0.337815        -9.1924
  83   2.0000      -0.336861        -9.1665
  84   2.0000      -0.332542        -9.0489
  85   2.0000      -0.310462        -8.4481
  86   2.0000      -0.308332        -8.3901
  87   2.0000      -0.296232        -8.0609
  88   2.0000      -0.291890        -7.9427
  89   2.0000      -0.281977        -7.6730
  90   2.0000      -0.280529        -7.6336
  91   2.0000      -0.274520        -7.4701
  92   2.0000      -0.267027        -7.2662
  93   2.0000      -0.261615        -7.1189
  94   2.0000      -0.260206        -7.0806
  95   2.0000      -0.234090        -6.3699
  96   2.0000      -0.218320        -5.9408
  97   2.0000      -0.215296        -5.8585
  98   2.0000      -0.203397        -5.5347
  99   2.0000      -0.195149        -5.3103
 100   2.0000      -0.187776        -5.1096
 101   0.0000      -0.038895        -1.0584
 102   0.0000      -0.030219        -0.8223
 103   0.0000      -0.011533        -0.3138
 104   0.0000       0.015642         0.4256
 105   0.0000       0.024911         0.6779

MULLIKEN ATOMIC CHARGES
-----------------------
   0 C :   -0.308566
   1 C :   -0.003009
   2 O :   -0.375409
   3 P :    0.611242
   4 S :   -0.317456
   5 O :   -0.362931
   6 C :   -0.011196
   7 C :   -0.300195
   8 S :   -0.075720
   9 C :   -0.365855
  10 S :   -0.079657
  11 P :    0.607979
  12 S :   -0.320366
  13 O :   -0.355645
  14 C :   -0.019355
  15 C :   -0.281752
  16 O :   -0.375382
  17 C :   -0.002209
  18 C :   -0.320833
  19 H :    0.118226
  20 H :    0.119665
  21 H :    0.110952
  22 H :    0.108905
  23 H :    0.103420
  24 H :    0.124409
  25 H :    0.100462
  26 H :    0.109508
  27 H :    0.113847
  28 H :    0.122464
  29 H :    0.182822
  30 H :    0.209289
  31 H :    0.111313
  32 H :    0.104174
  33 H :    0.116241
  34 H :    0.106520
  35 H :    0.115789
  36 H :    0.104249
  37 H :    0.110587
  38 H :    0.130143
  39 H :    0.118809
  40 H :    0.114524
Sum of atomic charges:   -0.0000000

LOEWDIN ATOMIC CHARGES
----------------------
   0 C :   -0.369118
   1 C :   -0.119784
   2 O :   -0.245529
   3 P :    0.574232
   4 S :   -0.309318
   5 O :   -0.238402
   6 C :   -0.118544
   7 C :   -0.367064
   8 S :    0.093352
   9 C :   -0.479258
  10 S :    0.095702
  11 P :    0.565101
  12 S :   -0.307184
  13 O :   -0.236335
  14 C :   -0.117407
  15 C :   -0.358469
  16 O :   -0.245146
  17 C :   -0.120268
  18 C :   -0.370452
  19 H :    0.124082
  20 H :    0.119263
  21 H :    0.129729
  22 H :    0.109206
  23 H :    0.117775
  24 H :    0.111005
  25 H :    0.113841
  26 H :    0.129662
  27 H :    0.124680
  28 H :    0.121385
  29 H :    0.136856
  30 H :    0.126481
  31 H :    0.119119
  32 H :    0.104713
  33 H :    0.127117
  34 H :    0.127760
  35 H :    0.124188
  36 H :    0.118016
  37 H :    0.110441
  38 H :    0.122327
  39 H :    0.124291
  40 H :    0.131953

  Mayer bond orders larger than 0.100000
B(  0-C ,  1-C ) :   1.1677 B(  0-C , 19-H ) :   0.9436 B(  0-C , 20-H ) :   0.9372
B(  0-C , 21-H ) :   0.9378 B(  1-C ,  2-O ) :   0.9125 B(  1-C , 22-H ) :   0.9146
B(  1-C , 23-H ) :   0.9340 B(  2-O ,  3-P ) :   1.0958 B(  3-P ,  4-S ) :   1.5903
B(  3-P ,  5-O ) :   1.1296 B(  3-P ,  8-S ) :   0.9735 B(  4-S ,  8-S ) :   0.1183
B(  5-O ,  6-C ) :   0.9052 B(  6-C ,  7-C ) :   1.1620 B(  6-C , 24-H ) :   0.9152
B(  6-C , 25-H ) :   0.9308 B(  7-C , 26-H ) :   0.9376 B(  7-C , 27-H ) :   0.9437
B(  7-C , 28-H ) :   0.9345 B(  8-S ,  9-C ) :   0.9977 B(  9-C , 10-S ) :   1.0028
B(  9-C , 29-H ) :   0.9116 B(  9-C , 30-H ) :   0.8493 B( 10-S , 11-P ) :   0.9642
B( 10-S , 12-S ) :   0.1110 B( 11-P , 12-S ) :   1.6186 B( 11-P , 13-O ) :   1.1392
B( 11-P , 16-O ) :   1.0927 B( 13-O , 14-C ) :   0.8994 B( 14-C , 15-C ) :   1.1583
B( 14-C , 31-H ) :   0.9333 B( 14-C , 32-H ) :   0.9017 B( 15-C , 33-H ) :   0.9476
B( 15-C , 34-H ) :   0.9414 B( 15-C , 35-H ) :   0.9430 B( 16-O , 17-C ) :   0.9071
B( 17-C , 18-C ) :   1.1660 B( 17-C , 36-H ) :   0.9333 B( 17-C , 37-H ) :   0.9136
B( 18-C , 38-H ) :   0.9345 B( 18-C , 39-H ) :   0.9445 B( 18-C , 40-H ) :   0.9377

Dispersion correction           -0.067983267
FINAL SINGLE POINT ENERGY     -2929.521608072151

DIPOLE MOMENT
-------------

Method             : SCF
Type of density    : Electron Density
Multiplicity       :   1
Irrep              :   0
Energy             : -2929.6397679975348183 Eh
Relativity type    :
Basis              : AO
                                X                 Y                 Z
Electronic contribution:     -0.652773924      -7.071876100      -6.795855365
Nuclear contribution   :      0.541061253       7.003304108       7.524944292
                        -----------------------------------------
Total Dipole Moment    :     -0.111712671      -0.068571991       0.729088927
                        -----------------------------------------
Magnitude (a.u.)       :      0.740778309
Magnitude (Debye)      :      1.882908823

Rotational constants in cm-1:             0.012666             0.005397             0.004899
Rotational constants in MHz :           379.716980           161.790282           146.861379

                             ****ORCA TERMINATED NORMALLY****
TOTAL RUN TIME: 0 days 0 hours 0 minutes 21 seconds 667 msec
