                         Program Version 6.0.0  -   RELEASE  -
|  1> ! pbe def2-sv(p) def2/J RI DEFGRID1 loosescf d4 GCP(DFT/SV(P)) printgap
|  2> %output
|  3>     printlevel normal
|  4> end
|  5> * xyz 0 1
|  6> C 2.7064787884 2.0161220248 -1.7151429073
|  7> C 3.3416992717 2.0117176643 -0.3388949071
|  8> O 3.3485192216 0.6968499033 0.2421724573
|  9> P 2.0607265581 0.0664932487 0.9300571445
| 10> S 1.0622647847 1.2962546491 2.0709428539
| 11> O 2.6351296564 -1.1520568596 1.74982578
| 12> C 3.5415616477 -2.1446858644 1.2045701363
| 13> C 4.982612383 -1.7686322657 1.4807216741
| 14> S 1.0554171263 -0.851456191 -0.7243528409
| 15> C -0.1276454764 -1.8545534131 0.211178902
| 16> S -1.4910789397 -0.904712606 0.9418273379
| 17> P -2.1978293522 -0.0517830196 -0.8842249262
| 18> S -1.993182108 -1.1497302285 -2.486780332
| 19> O -1.4733494076 1.3458240732 -1.0026562418
| 20> C -1.7144378947 2.4297353669 -0.0660986572
| 21> C -0.7886898178 3.5693206695 -0.4320097873
| 22> O -3.6861727508 0.3877389921 -0.5351691497
| 23> C -4.8141097991 -0.490490539 -0.7074281637
| 24> C -4.774161819 -1.6745293857 0.2364126162
| 25> H 2.8000529813 3.0061464134 -2.1500365489
| 26> H 3.1985259561 1.2920540949 -2.3592267405
| 27> H 1.6502261187 1.7574664273 -1.6519522754
| 28> H 2.8158582465 2.6891521683 0.3425503966
| 29> H 4.3962505029 2.287335028 -0.3878415677
| 30> H 3.2700910506 -3.069524485 1.7173562126
| 31> H 3.3569614503 -2.244109778 0.1315323311
| 32> H 5.2423956095 -0.8542575706 0.9547834399
| 33> H 5.1290112578 -1.6146479232 2.5463389337
| 34> H 5.6288172715 -2.5727301093 1.142488448
| 35> H 0.3714503579 -2.3575639704 1.0364527074
| 36> H -0.5330126475 -2.5685071711 -0.505123171
| 37> H -2.7634577698 2.7183537768 -0.148446656
| 38> H -1.5142706175 2.0672023997 0.9468796981
| 39> H -0.9068941243 3.824076866 -1.4812620912
| 40> H -1.0316962748 4.429912214 0.1823265997
| 41> H 0.243430857 3.2861527138 -0.2461779083
| 42> H -5.6731368545 0.1526441146 -0.5108960194
| 43> H -4.8300221818 -0.828337273 -1.7480889332
| 44> H -5.7078369109 -2.2225663094 0.1615515032
| 45> H -3.9535891869 -2.3377513301 -0.0325995734
| 46> H -4.6329398507 -1.3384150389 1.2608147066
| 47> *
| 48>
| 49>                          ****END OF INPUT****

CARTESIAN COORDINATES (ANGSTROEM)
---------------------------------
  C      2.706479    2.016122   -1.715143
  C      3.341699    2.011718   -0.338895
  O      3.348519    0.696850    0.242172
  P      2.060727    0.066493    0.930057
  S      1.062265    1.296255    2.070943
  O      2.635130   -1.152057    1.749826
  C      3.541562   -2.144686    1.204570
  C      4.982612   -1.768632    1.480722
  S      1.055417   -0.851456   -0.724353
  C     -0.127645   -1.854553    0.211179
  S     -1.491079   -0.904713    0.941827
  P     -2.197829   -0.051783   -0.884225
  S     -1.993182   -1.149730   -2.486780
  O     -1.473349    1.345824   -1.002656
  C     -1.714438    2.429735   -0.066099
  C     -0.788690    3.569321   -0.432010
  O     -3.686173    0.387739   -0.535169
  C     -4.814110   -0.490491   -0.707428
  C     -4.774162   -1.674529    0.236413
  H      2.800053    3.006146   -2.150037
  H      3.198526    1.292054   -2.359227
  H      1.650226    1.757466   -1.651952
  H      2.815858    2.689152    0.342550
  H      4.396251    2.287335   -0.387842
  H      3.270091   -3.069524    1.717356
  H      3.356961   -2.244110    0.131532
  H      5.242396   -0.854258    0.954783
  H      5.129011   -1.614648    2.546339
  H      5.628817   -2.572730    1.142488
  H      0.371450   -2.357564    1.036453
  H     -0.533013   -2.568507   -0.505123
  H     -2.763458    2.718354   -0.148447
  H     -1.514271    2.067202    0.946880
  H     -0.906894    3.824077   -1.481262
  H     -1.031696    4.429912    0.182327
  H      0.243431    3.286153   -0.246178
  H     -5.673137    0.152644   -0.510896
  H     -4.830022   -0.828337   -1.748089
  H     -5.707837   -2.222566    0.161552
  H     -3.953589   -2.337751   -0.032600
  H     -4.632940   -1.338415    1.260815

 Total Charge           Charge          ....    0
 Multiplicity           Mult            ....    1
 Number of Electrons    NEL             ....  202
 Basis Dimension        Dim             ....  334

ORBITAL ENERGIES
----------------

  NO   OCC          E(Eh)            E(eV)
   0   2.0000     -88.042020     -2395.7451
   1   2.0000     -88.035956     -2395.5801
   2   2.0000     -87.984945     -2394.1921
   3   2.0000     -87.984674     -2394.1847
   4   2.0000     -76.426739     -2079.6773
   5   2.0000     -76.423113     -2079.5786
   6   2.0000     -18.796971      -511.4916
   7   2.0000     -18.796473      -511.4780
   8   2.0000     -18.791912      -511.3539
   9   2.0000     -18.784904      -511.1632
  10   2.0000      -9.959559      -271.0134
  11   2.0000      -9.956669      -270.9347
  12   2.0000      -9.955232      -270.8956
  13   2.0000      -9.952408      -270.8188
  14   2.0000      -9.943679      -270.5813
  15   2.0000      -9.888585      -269.0821
  16   2.0000      -9.885626      -269.0016
  17   2.0000      -9.882812      -268.9250
  18   2.0000      -9.879360      -268.8311
  19   2.0000      -7.686166      -209.1512
  20   2.0000      -7.680951      -209.0093
  21   2.0000      -7.630077      -207.6250
  22   2.0000      -7.629941      -207.6212
  23   2.0000      -6.424432      -174.8177
  24   2.0000      -6.420442      -174.7091
  25   2.0000      -5.713950      -155.4845
  26   2.0000      -5.710756      -155.3976
  27   2.0000      -5.708783      -155.3439
  28   2.0000      -5.705602      -155.2573
  29   2.0000      -5.703280      -155.1941
  30   2.0000      -5.697811      -155.0453
  31   2.0000      -5.659011      -153.9895
  32   2.0000      -5.658896      -153.9864
  33   2.0000      -5.650722      -153.7640
  34   2.0000      -5.650465      -153.7570
  35   2.0000      -5.650147      -153.7483
  36   2.0000      -5.650142      -153.7482
  37   2.0000      -4.647575      -126.4670
  38   2.0000      -4.646194      -126.4294
  39   2.0000      -4.644347      -126.3791
  40   2.0000      -4.643382      -126.3529
  41   2.0000      -4.642035      -126.3162
  42   2.0000      -4.640794      -126.2824
  43   2.0000      -0.991795       -26.9881
  44   2.0000      -0.984464       -26.7886
  45   2.0000      -0.950266       -25.8580
  46   2.0000      -0.939442       -25.5635
  47   2.0000      -0.761329       -20.7168
  48   2.0000      -0.720408       -19.6033
  49   2.0000      -0.709078       -19.2950
  50   2.0000      -0.693217       -18.8634
  51   2.0000      -0.686132       -18.6706
  52   2.0000      -0.671667       -18.2770
  53   2.0000      -0.650539       -17.7021
  54   2.0000      -0.638002       -17.3609
  55   2.0000      -0.596602       -16.2344
  56   2.0000      -0.589411       -16.0387
  57   2.0000      -0.578697       -15.7471
  58   2.0000      -0.564513       -15.3612
  59   2.0000      -0.559540       -15.2259
  60   2.0000      -0.505888       -13.7659
  61   2.0000      -0.499495       -13.5920
  62   2.0000      -0.480987       -13.0883
  63   2.0000      -0.471199       -12.8220
  64   2.0000      -0.460169       -12.5218
  65   2.0000      -0.449792       -12.2395
  66   2.0000      -0.439511       -11.9597
  67   2.0000      -0.433298       -11.7906
  68   2.0000      -0.428534       -11.6610
  69   2.0000      -0.418075       -11.3764
  70   2.0000      -0.409703       -11.1486
  71   2.0000      -0.395871       -10.7722
  72   2.0000      -0.388106       -10.5609
  73   2.0000      -0.382075       -10.3968
  74   2.0000      -0.376817       -10.2537
  75   2.0000      -0.373166       -10.1544
  76   2.0000      -0.363944        -9.9034
  77   2.0000      -0.360373        -9.8062
  78   2.0000      -0.356462        -9.6998
  79   2.0000      -0.353196        -9.6110
  80   2.0000      -0.350818        -9.5462
  81   2.0000      -0.347966        -9.4686
  82   2.0000      -0.339851        -9.2478
  83   2.0000      -0.335303        -9.1241
  84   2.0000      -0.330636        -8.9971
  85   2.0000      -0.321056        -8.7364
  86   2.0000      -0.310491        -8.4489
  87   2.0000      -0.300347        -8.1729
  88   2.0000      -0.298451        -8.1213
  89   2.0000      -0.293163        -7.9774
  90   2.0000      -0.292461        -7.9583
  91   2.0000      -0.274260        -7.4630
  92   2.0000      -0.266464        -7.2508
  93   2.0000      -0.262994        -7.1564
  94   2.0000      -0.255259        -6.9460
  95   2.0000      -0.240038        -6.5318
  96   2.0000      -0.215995        -5.8775
  97   2.0000      -0.208539        -5.6746
  98   2.0000      -0.204142        -5.5550
  99   2.0000      -0.199062        -5.4167
 100   2.0000      -0.188666        -5.1339
 101   0.0000      -0.042329        -1.1518
 102   0.0000      -0.024747        -0.6734
 103   0.0000      -0.006654        -0.1811
 104   0.0000       0.003194         0.0869
 105   0.0000       0.015653         0.4260

MULLIKEN ATOMIC CHARGES
-----------------------
   0 C :   -0.334570
   1 C :   -0.016999
   2 O :   -0.380717
   3 P :    0.600678
   4 S :   -0.303769
   5 O :   -0.364951
   6 C :   -0.018164
   7 C :   -0.288311
   8 S :   -0.081806
   9 C :   -0.352304
  10 S :   -0.081693
  11 P :    0.613550
  12 S :   -0.320566
  13 O :   -0.358731
  14 C :   -0.023265
  15 C :   -0.292680
  16 O :   -0.386927
  17 C :    0.000720
  18 C :   -0.315951
  19 H :    0.115044
  20 H :    0.118138
  21 H :    0.156934
  22 H :    0.119005
  23 H :    0.105283
  24 H :    0.108176
  25 H :    0.104808
  26 H :    0.124765
  27 H :    0.120689
  28 H :    0.110356
  29 H :    0.181429
  30 H :    0.192392
  31 H :    0.104394
  32 H :    0.122223
  33 H :    0.114677
  34 H :    0.106967
  35 H :    0.127605
  36 H :    0.104199
  37 H :    0.112404
  38 H :    0.112469
  39 H :    0.125279
  40 H :    0.119218
Sum of atomic charges:   -0.0000000

LOEWDIN ATOMIC CHARGES
----------------------
   0 C :   -0.371213
   1 C :   -0.120456
   2 O :   -0.245814
   3 P :    0.564292
   4 S :   -0.299320
   5 O :   -0.239907
   6 C :   -0.117360
   7 C :   -0.358798
   8 S :    0.089777
   9 C :   -0.481290
  10 S :    0.078899
  11 P :    0.572710
  12 S :   -0.316818
  13 O :   -0.237780
  14 C :   -0.117919
  15 C :   -0.353448
  16 O :   -0.247752
  17 C :   -0.115933
  18 C :   -0.370783
  19 H :    0.132652
  20 H :    0.126667
  21 H :    0.125930
  22 H :    0.108840
  23 H :    0.118721
  24 H :    0.119168
  25 H :    0.105175
  26 H :    0.127199
  27 H :    0.129189
  28 H :    0.130146
  29 H :    0.131368
  30 H :    0.131775
  31 H :    0.110206
  32 H :    0.107887
  33 H :    0.126209
  34 H :    0.130191
  35 H :    0.121438
  36 H :    0.118319
  37 H :    0.112462
  38 H :    0.130685
  39 H :    0.120445
  40 H :    0.124242

  Mayer bond orders larger than 0.100000
B(  0-C ,  1-C ) :   1.1665 B(  0-C , 19-H ) :   0.9387 B(  0-C , 20-H ) :   0.9439
B(  0-C , 21-H ) :   0.9226 B(  1-C ,  2-O ) :   0.9069 B(  1-C , 22-H ) :   0.9095
B(  1-C , 23-H ) :   0.9316 B(  2-O ,  3-P ) :   1.0754 B(  3-P ,  4-S ) :   1.6709
B(  3-P ,  5-O ) :   1.1174 B(  3-P ,  8-S ) :   0.9526 B(  4-S ,  8-S ) :   0.1112
B(  5-O ,  6-C ) :   0.8904 B(  6-C ,  7-C ) :   1.1701 B(  6-C , 24-H ) :   0.9345
B(  6-C , 25-H ) :   0.9075 B(  7-C , 26-H ) :   0.9412 B(  7-C , 27-H ) :   0.9472
B(  7-C , 28-H ) :   0.9393 B(  8-S ,  9-C ) :   0.9958 B(  9-C , 10-S ) :   1.0057
B(  9-C , 29-H ) :   0.8994 B(  9-C , 30-H ) :   0.8877 B( 10-S , 11-P ) :   0.9553
B( 10-S , 12-S ) :   0.1108 B( 11-P , 12-S ) :   1.6206 B( 11-P , 13-O ) :   1.1360
B( 11-P , 16-O ) :   1.0833 B( 13-O , 14-C ) :   0.8910 B( 14-C , 15-C ) :   1.1695
B( 14-C , 31-H ) :   0.9273 B( 14-C , 32-H ) :   0.9064 B( 15-C , 33-H ) :   0.9488
B( 15-C , 34-H ) :   0.9396 B( 15-C , 35-H ) :   0.9315 B( 16-O , 17-C ) :   0.9084
B( 17-C , 18-C ) :   1.1659 B( 17-C , 36-H ) :   0.9344 B( 17-C , 37-H ) :   0.9186
B( 18-C , 38-H ) :   0.9369 B( 18-C , 39-H ) :   0.9353 B( 18-C , 40-H ) :   0.9435

Dispersion correction           -0.066325354
FINAL SINGLE POINT ENERGY     -2929.521168458688

DIPOLE MOMENT
-------------

Method             : SCF
Type of density    : Electron Density
Multiplicity       :   1
Irrep              :   0
Energy             : -2929.6399916309346736 Eh
Relativity type    :
Basis              : AO
                                X                 Y                 Z
Electronic contribution:     -5.885493025      -5.337467005       0.925871989
Nuclear contribution   :      6.325122412       5.214285067      -0.777684844
                        -----------------------------------------
Total Dipole Moment    :      0.439629386      -0.123181938       0.148187146
                        -----------------------------------------
Magnitude (a.u.)       :      0.480007518
Magnitude (Debye)      :      1.220082149

Rotational constants in cm-1:             0.012760             0.005152             0.004636
Rotational constants in MHz :           382.527188           154.456396           138.979119

                             ****ORCA TERMINATED NORMALLY****
TOTAL RUN TIME: 0 days 0 hours 0 minutes 21 seconds 572 msec
