                         Program Version 6.0.0  -   RELEASE  -
|  1> ! pbe def2-sv(p) def2/J RI DEFGRID1 loosescf d4 GCP(DFT/SV(P)) printgap
|  2> %output
|  3>     printlevel normal
|  4> end
|  5> * xyz 0 1
|  6> C 3.933081981 -2.2939780455 -1.0660232291
|  7> C 4.6716235286 -1.0597411602 -0.5914998937
|  8> O 3.8277199085 -0.1771416818 0.1739254717
|  9> P 2.5895930279 0.5900264499 -0.4636059875
| 10> S 2.8418790903 1.3165877291 -2.2604923053
| 11> O 2.3256758963 1.7300503166 0.5939651491
| 12> C 2.2644845972 1.4726776872 2.0197818968
| 13> C 1.7259985265 2.7172628358 2.691057661
| 14> S 0.9696456732 -0.7625871871 -0.2461970866
| 15> C -0.1448192419 0.1553628697 -1.3670182752
| 16> S -1.7608860563 -0.6156103765 -1.4522196426
| 17> P -2.5405359594 0.086549919 0.4195264257
| 18> S -1.4968733228 1.490527926 1.2968177652
| 19> O -2.8137412061 -1.1868497823 1.3308252122
| 20> C -1.7932015184 -1.8772701822 2.0716679405
| 21> C -1.2940215356 -3.089929559 1.3103803406
| 22> O -3.9971180832 0.5765320001 0.0926068021
| 23> C -4.917201585 -0.0132244437 -0.8603108151
| 24> C -5.0867681559 -1.5042948279 -0.6717380655
| 25> H 3.4348310579 -2.7818385688 -0.2320311189
| 26> H 3.1876183129 -2.0192681489 -1.8107003126
| 27> H 4.6410877676 -2.9819066597 -1.5168459553
| 28> H 5.07314754 -0.4993439239 -1.4411288397
| 29> H 5.4752365398 -1.3110383645 0.1021498642
| 30> H 1.606571551 0.6153607269 2.1893836959
| 31> H 3.2730636004 1.230920627 2.3597887986
| 32> H 0.7065450556 2.9053182497 2.3614052388
| 33> H 1.7302003321 2.5713922272 3.7661385818
| 34> H 2.342764965 3.5744118611 2.437272545
| 35> H 0.276600549 0.1462694084 -2.3709764462
| 36> H -0.2461839406 1.1759439014 -0.9912056542
| 37> H -0.9776035878 -1.1811447156 2.29301222
| 38> H -2.2815862759 -2.1689813762 3.0034111532
| 39> H -0.7798886831 -2.7869934278 0.4007106969
| 40> H -0.5980937044 -3.6383476791 1.9364056913
| 41> H -2.1286178954 -3.7344178826 1.0500700385
| 42> H -5.8458206106 0.5278557663 -0.672394295
| 43> H -4.5516429133 0.2130847993 -1.8649794999
| 44> H -5.3756372681 -1.7246344021 0.3524734084
| 45> H -5.8574396722 -1.8602285693 -1.3485245425
| 46> H -4.1541148347 -2.0180967341 -0.8977318266
| 47> *
| 48>
| 49>                          ****END OF INPUT****

CARTESIAN COORDINATES (ANGSTROEM)
---------------------------------
  C      3.933082   -2.293978   -1.066023
  C      4.671624   -1.059741   -0.591500
  O      3.827720   -0.177142    0.173925
  P      2.589593    0.590026   -0.463606
  S      2.841879    1.316588   -2.260492
  O      2.325676    1.730050    0.593965
  C      2.264485    1.472678    2.019782
  C      1.725999    2.717263    2.691058
  S      0.969646   -0.762587   -0.246197
  C     -0.144819    0.155363   -1.367018
  S     -1.760886   -0.615610   -1.452220
  P     -2.540536    0.086550    0.419526
  S     -1.496873    1.490528    1.296818
  O     -2.813741   -1.186850    1.330825
  C     -1.793202   -1.877270    2.071668
  C     -1.294022   -3.089930    1.310380
  O     -3.997118    0.576532    0.092607
  C     -4.917202   -0.013224   -0.860311
  C     -5.086768   -1.504295   -0.671738
  H      3.434831   -2.781839   -0.232031
  H      3.187618   -2.019268   -1.810700
  H      4.641088   -2.981907   -1.516846
  H      5.073148   -0.499344   -1.441129
  H      5.475237   -1.311038    0.102150
  H      1.606572    0.615361    2.189384
  H      3.273064    1.230921    2.359789
  H      0.706545    2.905318    2.361405
  H      1.730200    2.571392    3.766139
  H      2.342765    3.574412    2.437273
  H      0.276601    0.146269   -2.370976
  H     -0.246184    1.175944   -0.991206
  H     -0.977604   -1.181145    2.293012
  H     -2.281586   -2.168981    3.003411
  H     -0.779889   -2.786993    0.400711
  H     -0.598094   -3.638348    1.936406
  H     -2.128618   -3.734418    1.050070
  H     -5.845821    0.527856   -0.672394
  H     -4.551643    0.213085   -1.864979
  H     -5.375637   -1.724634    0.352473
  H     -5.857440   -1.860229   -1.348525
  H     -4.154115   -2.018097   -0.897732

 Total Charge           Charge          ....    0
 Multiplicity           Mult            ....    1
 Number of Electrons    NEL             ....  202
 Basis Dimension        Dim             ....  334

ORBITAL ENERGIES
----------------

  NO   OCC          E(Eh)            E(eV)
   0   2.0000     -88.052905     -2396.0414
   1   2.0000     -88.040827     -2395.7127
   2   2.0000     -87.987922     -2394.2731
   3   2.0000     -87.984228     -2394.1726
   4   2.0000     -76.430278     -2079.7736
   5   2.0000     -76.424280     -2079.6104
   6   2.0000     -18.795831      -511.4606
   7   2.0000     -18.794399      -511.4216
   8   2.0000     -18.793119      -511.3868
   9   2.0000     -18.786895      -511.2174
  10   2.0000      -9.963746      -271.1273
  11   2.0000      -9.955348      -270.8988
  12   2.0000      -9.954441      -270.8741
  13   2.0000      -9.952911      -270.8325
  14   2.0000      -9.947819      -270.6939
  15   2.0000      -9.895291      -269.2646
  16   2.0000      -9.886204      -269.0173
  17   2.0000      -9.886150      -269.0158
  18   2.0000      -9.878705      -268.8132
  19   2.0000      -7.697409      -209.4571
  20   2.0000      -7.685440      -209.1315
  21   2.0000      -7.632816      -207.6995
  22   2.0000      -7.629558      -207.6108
  23   2.0000      -6.427799      -174.9093
  24   2.0000      -6.421830      -174.7469
  25   2.0000      -5.725209      -155.7909
  26   2.0000      -5.721876      -155.7002
  27   2.0000      -5.714615      -155.5026
  28   2.0000      -5.713164      -155.4631
  29   2.0000      -5.710190      -155.3822
  30   2.0000      -5.702414      -155.1706
  31   2.0000      -5.661843      -154.0666
  32   2.0000      -5.658538      -153.9766
  33   2.0000      -5.653303      -153.8342
  34   2.0000      -5.652969      -153.8251
  35   2.0000      -5.650116      -153.7475
  36   2.0000      -5.649692      -153.7359
  37   2.0000      -4.650436      -126.5448
  38   2.0000      -4.649645      -126.5233
  39   2.0000      -4.648120      -126.4818
  40   2.0000      -4.644746      -126.3900
  41   2.0000      -4.643515      -126.3565
  42   2.0000      -4.642068      -126.3171
  43   2.0000      -0.990803       -26.9611
  44   2.0000      -0.986753       -26.8509
  45   2.0000      -0.948755       -25.8169
  46   2.0000      -0.942668       -25.6513
  47   2.0000      -0.765341       -20.8260
  48   2.0000      -0.724431       -19.7128
  49   2.0000      -0.713763       -19.4225
  50   2.0000      -0.695431       -18.9236
  51   2.0000      -0.688990       -18.7484
  52   2.0000      -0.678406       -18.4604
  53   2.0000      -0.651168       -17.7192
  54   2.0000      -0.636258       -17.3135
  55   2.0000      -0.603151       -16.4126
  56   2.0000      -0.593688       -16.1551
  57   2.0000      -0.577694       -15.7199
  58   2.0000      -0.565209       -15.3801
  59   2.0000      -0.560516       -15.2524
  60   2.0000      -0.504145       -13.7185
  61   2.0000      -0.499608       -13.5950
  62   2.0000      -0.480255       -13.0684
  63   2.0000      -0.473825       -12.8934
  64   2.0000      -0.457776       -12.4567
  65   2.0000      -0.452885       -12.3236
  66   2.0000      -0.442961       -12.0536
  67   2.0000      -0.437168       -11.8960
  68   2.0000      -0.434849       -11.8328
  69   2.0000      -0.424625       -11.5546
  70   2.0000      -0.409566       -11.1449
  71   2.0000      -0.401502       -10.9254
  72   2.0000      -0.392468       -10.6796
  73   2.0000      -0.388089       -10.5604
  74   2.0000      -0.386868       -10.5272
  75   2.0000      -0.370219       -10.0742
  76   2.0000      -0.363863        -9.9012
  77   2.0000      -0.360320        -9.8048
  78   2.0000      -0.358663        -9.7597
  79   2.0000      -0.353936        -9.6311
  80   2.0000      -0.350692        -9.5428
  81   2.0000      -0.348932        -9.4949
  82   2.0000      -0.340826        -9.2744
  83   2.0000      -0.338052        -9.1989
  84   2.0000      -0.334149        -9.0927
  85   2.0000      -0.319895        -8.7048
  86   2.0000      -0.311811        -8.4848
  87   2.0000      -0.299568        -8.1516
  88   2.0000      -0.298182        -8.1139
  89   2.0000      -0.295263        -8.0345
  90   2.0000      -0.293909        -7.9977
  91   2.0000      -0.280090        -7.6216
  92   2.0000      -0.265978        -7.2376
  93   2.0000      -0.265694        -7.2299
  94   2.0000      -0.260689        -7.0937
  95   2.0000      -0.233180        -6.3452
  96   2.0000      -0.224883        -6.1194
  97   2.0000      -0.208402        -5.6709
  98   2.0000      -0.205915        -5.6032
  99   2.0000      -0.203983        -5.5507
 100   2.0000      -0.195358        -5.3159
 101   0.0000      -0.049901        -1.3579
 102   0.0000      -0.034360        -0.9350
 103   0.0000      -0.012193        -0.3318
 104   0.0000       0.005666         0.1542
 105   0.0000       0.011245         0.3060

MULLIKEN ATOMIC CHARGES
-----------------------
   0 C :   -0.319022
   1 C :    0.000160
   2 O :   -0.386180
   3 P :    0.614316
   4 S :   -0.318704
   5 O :   -0.357625
   6 C :   -0.017404
   7 C :   -0.286962
   8 S :   -0.125240
   9 C :   -0.328672
  10 S :   -0.127553
  11 P :    0.605958
  12 S :   -0.310799
  13 O :   -0.370343
  14 C :   -0.012541
  15 C :   -0.308257
  16 O :   -0.357591
  17 C :   -0.006599
  18 C :   -0.321868
  19 H :    0.115697
  20 H :    0.130158
  21 H :    0.114424
  22 H :    0.114029
  23 H :    0.105196
  24 H :    0.109766
  25 H :    0.103671
  26 H :    0.138224
  27 H :    0.106021
  28 H :    0.117872
  29 H :    0.189640
  30 H :    0.202024
  31 H :    0.113979
  32 H :    0.106475
  33 H :    0.134624
  34 H :    0.108656
  35 H :    0.113542
  36 H :    0.116617
  37 H :    0.117764
  38 H :    0.128561
  39 H :    0.118595
  40 H :    0.129390
Sum of atomic charges:    0.0000000

LOEWDIN ATOMIC CHARGES
----------------------
   0 C :   -0.371333
   1 C :   -0.115000
   2 O :   -0.248570
   3 P :    0.572728
   4 S :   -0.312170
   5 O :   -0.235856
   6 C :   -0.116891
   7 C :   -0.351718
   8 S :    0.066827
   9 C :   -0.481953
  10 S :    0.077510
  11 P :    0.570346
  12 S :   -0.293385
  13 O :   -0.241924
  14 C :   -0.118969
  15 C :   -0.365272
  16 O :   -0.232764
  17 C :   -0.111925
  18 C :   -0.368464
  19 H :    0.122691
  20 H :    0.122255
  21 H :    0.131773
  22 H :    0.114078
  23 H :    0.118817
  24 H :    0.103942
  25 H :    0.111510
  26 H :    0.125827
  27 H :    0.129173
  28 H :    0.128268
  29 H :    0.132013
  30 H :    0.125213
  31 H :    0.105679
  32 H :    0.119223
  33 H :    0.111100
  34 H :    0.129979
  35 H :    0.124772
  36 H :    0.125878
  37 H :    0.113115
  38 H :    0.131488
  39 H :    0.134001
  40 H :    0.117988

  Mayer bond orders larger than 0.100000
B(  0-C ,  1-C ) :   1.1657 B(  0-C , 19-H ) :   0.9441 B(  0-C , 20-H ) :   0.9342
B(  0-C , 21-H ) :   0.9368 B(  1-C ,  2-O ) :   0.9063 B(  1-C , 22-H ) :   0.9193
B(  1-C , 23-H ) :   0.9346 B(  2-O ,  3-P ) :   1.0876 B(  3-P ,  4-S ) :   1.6310
B(  3-P ,  5-O ) :   1.1423 B(  3-P ,  8-S ) :   0.9587 B(  4-S ,  8-S ) :   0.1092
B(  5-O ,  6-C ) :   0.8893 B(  6-C ,  7-C ) :   1.1688 B(  6-C , 24-H ) :   0.9093
B(  6-C , 25-H ) :   0.9287 B(  7-C , 26-H ) :   0.9397 B(  7-C , 27-H ) :   0.9401
B(  7-C , 28-H ) :   0.9488 B(  8-S ,  9-C ) :   0.9712 B(  9-C , 10-S ) :   1.0225
B(  9-C , 29-H ) :   0.8840 B(  9-C , 30-H ) :   0.8643 B( 10-S , 11-P ) :   0.9181
B( 10-S , 12-S ) :   0.1123 B( 11-P , 12-S ) :   1.6421 B( 11-P , 13-O ) :   1.0918
B( 11-P , 16-O ) :   1.1557 B( 13-O , 14-C ) :   0.9067 B( 14-C , 15-C ) :   1.1678
B( 14-C , 31-H ) :   0.9048 B( 14-C , 32-H ) :   0.9343 B( 15-C , 33-H ) :   0.9275
B( 15-C , 34-H ) :   0.9401 B( 15-C , 35-H ) :   0.9450 B( 16-O , 17-C ) :   0.8993
B( 17-C , 18-C ) :   1.1686 B( 17-C , 36-H ) :   0.9337 B( 17-C , 37-H ) :   0.9239
B( 18-C , 38-H ) :   0.9412 B( 18-C , 39-H ) :   0.9336 B( 18-C , 40-H ) :   0.9363

Dispersion correction           -0.064302544
FINAL SINGLE POINT ENERGY     -2929.516110826652

DIPOLE MOMENT
-------------

Method             : SCF
Type of density    : Electron Density
Multiplicity       :   1
Irrep              :   0
Energy             : -2929.6370318158324153 Eh
Relativity type    :
Basis              : AO
                                X                 Y                 Z
Electronic contribution:      0.612398079      13.633262783      -8.094508880
Nuclear contribution   :     -1.053706535     -15.404083566       8.691613599
                        -----------------------------------------
Total Dipole Moment    :     -0.441308457      -1.770820782       0.597104720
                        -----------------------------------------
Magnitude (a.u.)       :      1.920180576
Magnitude (Debye)      :      4.880711147

Rotational constants in cm-1:             0.012551             0.004595             0.004339
Rotational constants in MHz :           376.266132           137.769577           130.068777

                             ****ORCA TERMINATED NORMALLY****
TOTAL RUN TIME: 0 days 0 hours 0 minutes 20 seconds 992 msec
