                         Program Version 6.0.0  -   RELEASE  -
|  1> ! r2scan-3c def2/J RI DEFGRID2 scfconv6 printgap
|  2> %output
|  3>     printlevel normal
|  4> end
|  5> * xyz 0 1
|  6> C 4.1227421301 -3.3405460067 -1.4498582322
|  7> C 2.9149682359 -2.4724842569 -1.1658879552
|  8> O 3.4001635832 -1.1592996773 -0.7815852249
|  9> P 2.4476073039 -0.0608077324 -0.1583622821
| 10> S 3.3996902475 1.5933176978 0.2502275932
| 11> O 1.6965571814 -0.753108639 1.0788080898
| 12> C 2.1339289036 -0.5517727816 2.4354650727
| 13> C 3.4083785085 -1.3207634595 2.7179395218
| 14> S 0.8421622617 0.0492892917 -1.5327100697
| 15> C 0.1903181265 1.6322868907 -0.9410112648
| 16> S -0.5732310198 1.5207259089 0.7005724571
| 17> P -2.4244591632 0.6607924129 0.1092417665
| 18> S -2.8951067769 0.7961155476 -1.7935402982
| 19> O -3.3801510899 1.4534004477 1.0874958018
| 20> C -4.7824377451 1.6364950635 0.8053945282
| 21> C -5.5500152582 0.3384061921 0.9421149899
| 22> O -2.4631964974 -0.7810845205 0.7826017672
| 23> C -1.5812682717 -1.8821216332 0.5074482524
| 24> C -1.8100496617 -2.4863015252 -0.8642133331
| 25> H 3.788264454 -4.3251420588 -1.7600371256
| 26> H 4.719690165 -2.8973276666 -2.2414650422
| 27> H 4.7383817057 -3.4323181356 -0.5596252982
| 28> H 2.3110183838 -2.8743124128 -0.3486398112
| 29> H 2.2876415082 -2.3525564165 -2.0528449416
| 30> H 2.2819962884 0.5202984477 2.598188712
| 31> H 1.298670367 -0.9027721463 3.0430127907
| 32> H 4.2053931686 -0.9557078314 2.0700680161
| 33> H 3.6989695586 -1.1703081937 3.7527854665
| 34> H 3.2610563759 -2.3821408686 2.5358374588
| 35> H -0.5535485241 1.951856958 -1.6710186736
| 36> H 1.0076448534 2.3483281242 -0.8589756465
| 37> H -5.102563235 2.3791824949 1.53710536
| 38> H -4.8851522711 2.0416027464 -0.2064996372
| 39> H -5.3829870175 -0.0947323732 1.9245954649
| 40> H -6.609703311 0.5280100748 0.8030569977
| 41> H -5.2119300291 -0.3673920331 0.1844362933
| 42> H -0.5465014209 -1.5442905486 0.6172010492
| 43> H -1.816889172 -2.5974167339 1.2981137514
| 44> H -1.524946537 -1.7847688591 -1.6456056697
| 45> H -1.2079420765 -3.3837965985 -0.9629992847
| 46> H -2.8585349393 -2.742823091 -0.991507741
| 47> *
| 48>
| 49>                          ****END OF INPUT****

CARTESIAN COORDINATES (ANGSTROEM)
---------------------------------
  C      4.122742   -3.340546   -1.449858
  C      2.914968   -2.472484   -1.165888
  O      3.400164   -1.159300   -0.781585
  P      2.447607   -0.060808   -0.158362
  S      3.399690    1.593318    0.250228
  O      1.696557   -0.753109    1.078808
  C      2.133929   -0.551773    2.435465
  C      3.408379   -1.320763    2.717940
  S      0.842162    0.049289   -1.532710
  C      0.190318    1.632287   -0.941011
  S     -0.573231    1.520726    0.700572
  P     -2.424459    0.660792    0.109242
  S     -2.895107    0.796116   -1.793540
  O     -3.380151    1.453400    1.087496
  C     -4.782438    1.636495    0.805395
  C     -5.550015    0.338406    0.942115
  O     -2.463196   -0.781085    0.782602
  C     -1.581268   -1.882122    0.507448
  C     -1.810050   -2.486302   -0.864213
  H      3.788264   -4.325142   -1.760037
  H      4.719690   -2.897328   -2.241465
  H      4.738382   -3.432318   -0.559625
  H      2.311018   -2.874312   -0.348640
  H      2.287642   -2.352556   -2.052845
  H      2.281996    0.520298    2.598189
  H      1.298670   -0.902772    3.043013
  H      4.205393   -0.955708    2.070068
  H      3.698970   -1.170308    3.752785
  H      3.261056   -2.382141    2.535837
  H     -0.553549    1.951857   -1.671019
  H      1.007645    2.348328   -0.858976
  H     -5.102563    2.379182    1.537105
  H     -4.885152    2.041603   -0.206500
  H     -5.382987   -0.094732    1.924595
  H     -6.609703    0.528010    0.803057
  H     -5.211930   -0.367392    0.184436
  H     -0.546501   -1.544291    0.617201
  H     -1.816889   -2.597417    1.298114
  H     -1.524947   -1.784769   -1.645606
  H     -1.207942   -3.383797   -0.962999
  H     -2.858535   -2.742823   -0.991508

 Total Charge           Charge          ....    0
 Multiplicity           Mult            ....    1
 Number of Electrons    NEL             ....  202
 Basis Dimension        Dim             ....  539

ORBITAL ENERGIES
----------------

  NO   OCC          E(Eh)            E(eV)
   0   2.0000     -88.577225     -2410.3088
   1   2.0000     -88.574587     -2410.2370
   2   2.0000     -88.524541     -2408.8752
   3   2.0000     -88.523498     -2408.8468
   4   2.0000     -76.917023     -2093.0186
   5   2.0000     -76.915193     -2092.9688
   6   2.0000     -18.998812      -516.9839
   7   2.0000     -18.993387      -516.8363
   8   2.0000     -18.990034      -516.7451
   9   2.0000     -18.988632      -516.7070
  10   2.0000     -10.111869      -275.1579
  11   2.0000     -10.104562      -274.9591
  12   2.0000     -10.099474      -274.8207
  13   2.0000     -10.097362      -274.7632
  14   2.0000     -10.097029      -274.7541
  15   2.0000     -10.042170      -273.2613
  16   2.0000     -10.033900      -273.0363
  17   2.0000     -10.028136      -272.8794
  18   2.0000     -10.024540      -272.7816
  19   2.0000      -7.871717      -214.2003
  20   2.0000      -7.868720      -214.1188
  21   2.0000      -7.819285      -212.7736
  22   2.0000      -7.818314      -212.7471
  23   2.0000      -6.595616      -179.4758
  24   2.0000      -6.593498      -179.4182
  25   2.0000      -5.818487      -158.3291
  26   2.0000      -5.815659      -158.2521
  27   2.0000      -5.815599      -158.2505
  28   2.0000      -5.812672      -158.1708
  29   2.0000      -5.808879      -158.0676
  30   2.0000      -5.805708      -157.9813
  31   2.0000      -5.767059      -156.9296
  32   2.0000      -5.765976      -156.9002
  33   2.0000      -5.759633      -156.7276
  34   2.0000      -5.759089      -156.7128
  35   2.0000      -5.758772      -156.7042
  36   2.0000      -5.758121      -156.6864
  37   2.0000      -4.741451      -129.0214
  38   2.0000      -4.740269      -128.9893
  39   2.0000      -4.739292      -128.9627
  40   2.0000      -4.738818      -128.9498
  41   2.0000      -4.738568      -128.9430
  42   2.0000      -4.737288      -128.9082
  43   2.0000      -1.052908       -28.6511
  44   2.0000      -1.048761       -28.5383
  45   2.0000      -1.014477       -27.6053
  46   2.0000      -1.008736       -27.4491
  47   2.0000      -0.802354       -21.8332
  48   2.0000      -0.764102       -20.7923
  49   2.0000      -0.752286       -20.4707
  50   2.0000      -0.739363       -20.1191
  51   2.0000      -0.730021       -19.8649
  52   2.0000      -0.711324       -19.3561
  53   2.0000      -0.688942       -18.7471
  54   2.0000      -0.673067       -18.3151
  55   2.0000      -0.631901       -17.1949
  56   2.0000      -0.623812       -16.9748
  57   2.0000      -0.613806       -16.7025
  58   2.0000      -0.604680       -16.4542
  59   2.0000      -0.593446       -16.1485
  60   2.0000      -0.536165       -14.5898
  61   2.0000      -0.519031       -14.1235
  62   2.0000      -0.503801       -13.7091
  63   2.0000      -0.490678       -13.3520
  64   2.0000      -0.479691       -13.0531
  65   2.0000      -0.467443       -12.7198
  66   2.0000      -0.462049       -12.5730
  67   2.0000      -0.455109       -12.3841
  68   2.0000      -0.447030       -12.1643
  69   2.0000      -0.429222       -11.6797
  70   2.0000      -0.425419       -11.5762
  71   2.0000      -0.416011       -11.3202
  72   2.0000      -0.413635       -11.2556
  73   2.0000      -0.408217       -11.1082
  74   2.0000      -0.399678       -10.8758
  75   2.0000      -0.390161       -10.6168
  76   2.0000      -0.387095       -10.5334
  77   2.0000      -0.378770       -10.3069
  78   2.0000      -0.374433       -10.1888
  79   2.0000      -0.367375        -9.9968
  80   2.0000      -0.362438        -9.8624
  81   2.0000      -0.361251        -9.8301
  82   2.0000      -0.358381        -9.7521
  83   2.0000      -0.353810        -9.6277
  84   2.0000      -0.349485        -9.5100
  85   2.0000      -0.338398        -9.2083
  86   2.0000      -0.333439        -9.0733
  87   2.0000      -0.326347        -8.8804
  88   2.0000      -0.310479        -8.4486
  89   2.0000      -0.303565        -8.2604
  90   2.0000      -0.299120        -8.1395
  91   2.0000      -0.290130        -7.8948
  92   2.0000      -0.289781        -7.8853
  93   2.0000      -0.285634        -7.7725
  94   2.0000      -0.274455        -7.4683
  95   2.0000      -0.246626        -6.7110
  96   2.0000      -0.231804        -6.3077
  97   2.0000      -0.227918        -6.2020
  98   2.0000      -0.221127        -6.0172
  99   2.0000      -0.217139        -5.9087
 100   2.0000      -0.215843        -5.8734
 101   0.0000      -0.049879        -1.3573
 102   0.0000      -0.030087        -0.8187
 103   0.0000      -0.003283        -0.0893
 104   0.0000       0.001941         0.0528
 105   0.0000       0.011654         0.3171

MULLIKEN ATOMIC CHARGES
-----------------------
   0 C :   -0.450272
   1 C :   -0.127754
   2 O :   -0.277193
   3 P :    0.647756
   4 S :   -0.442467
   5 O :   -0.275821
   6 C :   -0.152118
   7 C :   -0.447706
   8 S :   -0.156036
   9 C :   -0.238132
  10 S :   -0.126957
  11 P :    0.660838
  12 S :   -0.471512
  13 O :   -0.302876
  14 C :   -0.155797
  15 C :   -0.439403
  16 O :   -0.245141
  17 C :   -0.177633
  18 C :   -0.427064
  19 H :    0.147447
  20 H :    0.161498
  21 H :    0.156600
  22 H :    0.161277
  23 H :    0.153169
  24 H :    0.177879
  25 H :    0.152880
  26 H :    0.177071
  27 H :    0.149965
  28 H :    0.146557
  29 H :    0.215972
  30 H :    0.217812
  31 H :    0.149958
  32 H :    0.173078
  33 H :    0.155222
  34 H :    0.147380
  35 H :    0.167189
  36 H :    0.179383
  37 H :    0.146890
  38 H :    0.179602
  39 H :    0.137754
  40 H :    0.150705
Sum of atomic charges:    0.0000000

LOEWDIN ATOMIC CHARGES
----------------------
   0 C :   -0.381948
   1 C :    0.020280
   2 O :   -0.660247
   3 P :    0.374585
   4 S :   -0.095500
   5 O :   -0.719240
   6 C :    0.012356
   7 C :   -0.399074
   8 S :    0.149109
   9 C :   -0.421102
  10 S :    0.181349
  11 P :    0.393809
  12 S :   -0.127070
  13 O :   -0.664305
  14 C :    0.022985
  15 C :   -0.399609
  16 O :   -0.661177
  17 C :    0.018788
  18 C :   -0.412818
  19 H :    0.160419
  20 H :    0.164505
  21 H :    0.161549
  22 H :    0.174569
  23 H :    0.175103
  24 H :    0.183019
  25 H :    0.179189
  26 H :    0.167694
  27 H :    0.161198
  28 H :    0.154850
  29 H :    0.194137
  30 H :    0.192775
  31 H :    0.180110
  32 H :    0.179917
  33 H :    0.160569
  34 H :    0.159421
  35 H :    0.165176
  36 H :    0.191845
  37 H :    0.178722
  38 H :    0.167508
  39 H :    0.156178
  40 H :    0.160374

  Mayer bond orders larger than 0.100000
B(  0-C ,  1-C ) :   0.9616 B(  0-C , 19-H ) :   0.9628 B(  0-C , 20-H ) :   0.9704
B(  0-C , 21-H ) :   0.9738 B(  1-C ,  2-O ) :   0.7397 B(  1-C , 22-H ) :   0.9541
B(  1-C , 23-H ) :   0.9333 B(  2-O ,  3-P ) :   1.1361 B(  3-P ,  4-S ) :   1.8462
B(  3-P ,  5-O ) :   1.0166 B(  3-P ,  8-S ) :   1.0632 B(  5-O ,  6-C ) :   0.7839
B(  6-C ,  7-C ) :   0.9209 B(  6-C , 24-H ) :   0.9584 B(  6-C , 25-H ) :   0.9630
B(  7-C , 26-H ) :   0.9598 B(  7-C , 27-H ) :   0.9619 B(  7-C , 28-H ) :   0.9745
B(  8-S ,  9-C ) :   0.9025 B(  9-C , 10-S ) :   0.9170 B(  9-C , 29-H ) :   0.9033
B(  9-C , 30-H ) :   0.9066 B( 10-S , 11-P ) :   1.0749 B( 11-P , 12-S ) :   1.7348
B( 11-P , 13-O ) :   1.1832 B( 11-P , 16-O ) :   1.0814 B( 13-O , 14-C ) :   0.8061
B( 14-C , 15-C ) :   0.9261 B( 14-C , 31-H ) :   0.9610 B( 14-C , 32-H ) :   0.9653
B( 15-C , 33-H ) :   0.9705 B( 15-C , 34-H ) :   0.9626 B( 15-C , 35-H ) :   0.9603
B( 16-O , 17-C ) :   0.7998 B( 17-C , 18-C ) :   0.9171 B( 17-C , 36-H ) :   0.9547
B( 17-C , 37-H ) :   0.9673 B( 18-C , 38-H ) :   0.9546 B( 18-C , 39-H ) :   0.9642
B( 18-C , 40-H ) :   0.9681

Dispersion correction           -0.021551805
FINAL SINGLE POINT ENERGY     -2932.462088564308

DIPOLE MOMENT
-------------

Method             : SCF
Type of density    : Electron Density
Multiplicity       :   1
Irrep              :   0
Energy             : -2932.4871477075703297 Eh
Relativity type    :
Basis              : AO
                                X                 Y                 Z
Electronic contribution:      1.677958878      21.404886503      -5.938658951
Nuclear contribution   :     -2.026142367     -23.221338836       6.773105572
                        -----------------------------------------
Total Dipole Moment    :     -0.348183489      -1.816452332       0.834446620
                        -----------------------------------------
Magnitude (a.u.)       :      2.029047062
Magnitude (Debye)      :      5.157427764

Rotational constants in cm-1:             0.013594             0.004549             0.004344
Rotational constants in MHz :           407.543217           136.377553           130.225274

                             ****ORCA TERMINATED NORMALLY****
TOTAL RUN TIME: 0 days 0 hours 1 minutes 22 seconds 33 msec
