                         Program Version 6.0.0  -   RELEASE  -
|  1> ! r2scan-3c def2/J RI DEFGRID2 scfconv6 printgap
|  2> %output
|  3>     printlevel normal
|  4> end
|  5> %cpcm
|  6>     smd true
|  7>     smdsolvent "water"
|  8> end
|  9> * xyz 0 1
| 10> C 4.1227421301 -3.3405460067 -1.4498582322
| 11> C 2.9149682359 -2.4724842569 -1.1658879552
| 12> O 3.4001635832 -1.1592996773 -0.7815852249
| 13> P 2.4476073039 -0.0608077324 -0.1583622821
| 14> S 3.3996902475 1.5933176978 0.2502275932
| 15> O 1.6965571814 -0.753108639 1.0788080898
| 16> C 2.1339289036 -0.5517727816 2.4354650727
| 17> C 3.4083785085 -1.3207634595 2.7179395218
| 18> S 0.8421622617 0.0492892917 -1.5327100697
| 19> C 0.1903181265 1.6322868907 -0.9410112648
| 20> S -0.5732310198 1.5207259089 0.7005724571
| 21> P -2.4244591632 0.6607924129 0.1092417665
| 22> S -2.8951067769 0.7961155476 -1.7935402982
| 23> O -3.3801510899 1.4534004477 1.0874958018
| 24> C -4.7824377451 1.6364950635 0.8053945282
| 25> C -5.5500152582 0.3384061921 0.9421149899
| 26> O -2.4631964974 -0.7810845205 0.7826017672
| 27> C -1.5812682717 -1.8821216332 0.5074482524
| 28> C -1.8100496617 -2.4863015252 -0.8642133331
| 29> H 3.788264454 -4.3251420588 -1.7600371256
| 30> H 4.719690165 -2.8973276666 -2.2414650422
| 31> H 4.7383817057 -3.4323181356 -0.5596252982
| 32> H 2.3110183838 -2.8743124128 -0.3486398112
| 33> H 2.2876415082 -2.3525564165 -2.0528449416
| 34> H 2.2819962884 0.5202984477 2.598188712
| 35> H 1.298670367 -0.9027721463 3.0430127907
| 36> H 4.2053931686 -0.9557078314 2.0700680161
| 37> H 3.6989695586 -1.1703081937 3.7527854665
| 38> H 3.2610563759 -2.3821408686 2.5358374588
| 39> H -0.5535485241 1.951856958 -1.6710186736
| 40> H 1.0076448534 2.3483281242 -0.8589756465
| 41> H -5.102563235 2.3791824949 1.53710536
| 42> H -4.8851522711 2.0416027464 -0.2064996372
| 43> H -5.3829870175 -0.0947323732 1.9245954649
| 44> H -6.609703311 0.5280100748 0.8030569977
| 45> H -5.2119300291 -0.3673920331 0.1844362933
| 46> H -0.5465014209 -1.5442905486 0.6172010492
| 47> H -1.816889172 -2.5974167339 1.2981137514
| 48> H -1.524946537 -1.7847688591 -1.6456056697
| 49> H -1.2079420765 -3.3837965985 -0.9629992847
| 50> H -2.8585349393 -2.742823091 -0.991507741
| 51> *
| 52>
| 53>                          ****END OF INPUT****

CARTESIAN COORDINATES (ANGSTROEM)
---------------------------------
  C      4.122742   -3.340546   -1.449858
  C      2.914968   -2.472484   -1.165888
  O      3.400164   -1.159300   -0.781585
  P      2.447607   -0.060808   -0.158362
  S      3.399690    1.593318    0.250228
  O      1.696557   -0.753109    1.078808
  C      2.133929   -0.551773    2.435465
  C      3.408379   -1.320763    2.717940
  S      0.842162    0.049289   -1.532710
  C      0.190318    1.632287   -0.941011
  S     -0.573231    1.520726    0.700572
  P     -2.424459    0.660792    0.109242
  S     -2.895107    0.796116   -1.793540
  O     -3.380151    1.453400    1.087496
  C     -4.782438    1.636495    0.805395
  C     -5.550015    0.338406    0.942115
  O     -2.463196   -0.781085    0.782602
  C     -1.581268   -1.882122    0.507448
  C     -1.810050   -2.486302   -0.864213
  H      3.788264   -4.325142   -1.760037
  H      4.719690   -2.897328   -2.241465
  H      4.738382   -3.432318   -0.559625
  H      2.311018   -2.874312   -0.348640
  H      2.287642   -2.352556   -2.052845
  H      2.281996    0.520298    2.598189
  H      1.298670   -0.902772    3.043013
  H      4.205393   -0.955708    2.070068
  H      3.698970   -1.170308    3.752785
  H      3.261056   -2.382141    2.535837
  H     -0.553549    1.951857   -1.671019
  H      1.007645    2.348328   -0.858976
  H     -5.102563    2.379182    1.537105
  H     -4.885152    2.041603   -0.206500
  H     -5.382987   -0.094732    1.924595
  H     -6.609703    0.528010    0.803057
  H     -5.211930   -0.367392    0.184436
  H     -0.546501   -1.544291    0.617201
  H     -1.816889   -2.597417    1.298114
  H     -1.524947   -1.784769   -1.645606
  H     -1.207942   -3.383797   -0.962999
  H     -2.858535   -2.742823   -0.991508

 Total Charge           Charge          ....    0
 Multiplicity           Mult            ....    1
 Number of Electrons    NEL             ....  202
 Basis Dimension        Dim             ....  539

ORBITAL ENERGIES
----------------

  NO   OCC          E(Eh)            E(eV)
   0   2.0000     -88.580212     -2410.3901
   1   2.0000     -88.580206     -2410.3899
   2   2.0000     -88.532475     -2409.0911
   3   2.0000     -88.531024     -2409.0516
   4   2.0000     -76.921143     -2093.1307
   5   2.0000     -76.920399     -2093.1105
   6   2.0000     -18.997552      -516.9497
   7   2.0000     -18.993521      -516.8400
   8   2.0000     -18.993509      -516.8397
   9   2.0000     -18.990654      -516.7620
  10   2.0000     -10.105777      -274.9922
  11   2.0000     -10.094667      -274.6899
  12   2.0000     -10.090109      -274.5658
  13   2.0000     -10.088729      -274.5283
  14   2.0000     -10.087518      -274.4953
  15   2.0000     -10.021576      -272.7010
  16   2.0000     -10.018751      -272.6241
  17   2.0000     -10.018478      -272.6167
  18   2.0000     -10.015561      -272.5373
  19   2.0000      -7.874702      -214.2815
  20   2.0000      -7.874407      -214.2735
  21   2.0000      -7.827592      -212.9996
  22   2.0000      -7.826079      -212.9584
  23   2.0000      -6.599523      -179.5822
  24   2.0000      -6.598984      -179.5675
  25   2.0000      -5.821450      -158.4097
  26   2.0000      -5.821310      -158.4059
  27   2.0000      -5.818574      -158.3314
  28   2.0000      -5.818323      -158.3246
  29   2.0000      -5.811895      -158.1497
  30   2.0000      -5.811466      -158.1380
  31   2.0000      -5.775245      -157.1524
  32   2.0000      -5.773695      -157.1102
  33   2.0000      -5.767898      -156.9525
  34   2.0000      -5.767487      -156.9413
  35   2.0000      -5.766485      -156.9140
  36   2.0000      -5.765938      -156.8991
  37   2.0000      -4.744841      -129.1137
  38   2.0000      -4.744743      -129.1110
  39   2.0000      -4.744567      -129.1062
  40   2.0000      -4.743601      -129.0799
  41   2.0000      -4.743355      -129.0733
  42   2.0000      -4.742824      -129.0588
  43   2.0000      -1.052768       -28.6473
  44   2.0000      -1.050563       -28.5873
  45   2.0000      -1.011891       -27.5349
  46   2.0000      -1.011234       -27.5171
  47   2.0000      -0.805115       -21.9083
  48   2.0000      -0.758503       -20.6399
  49   2.0000      -0.745423       -20.2840
  50   2.0000      -0.726497       -19.7690
  51   2.0000      -0.722940       -19.6722
  52   2.0000      -0.709407       -19.3039
  53   2.0000      -0.691364       -18.8130
  54   2.0000      -0.678468       -18.4621
  55   2.0000      -0.630948       -17.1690
  56   2.0000      -0.617791       -16.8109
  57   2.0000      -0.600939       -16.3524
  58   2.0000      -0.599243       -16.3062
  59   2.0000      -0.591244       -16.0886
  60   2.0000      -0.529610       -14.4114
  61   2.0000      -0.515687       -14.0326
  62   2.0000      -0.496567       -13.5123
  63   2.0000      -0.488498       -13.2927
  64   2.0000      -0.477960       -13.0059
  65   2.0000      -0.458727       -12.4826
  66   2.0000      -0.452655       -12.3174
  67   2.0000      -0.451920       -12.2974
  68   2.0000      -0.443568       -12.0701
  69   2.0000      -0.427048       -11.6206
  70   2.0000      -0.419661       -11.4196
  71   2.0000      -0.412380       -11.2214
  72   2.0000      -0.405512       -11.0345
  73   2.0000      -0.404369       -11.0034
  74   2.0000      -0.398025       -10.8308
  75   2.0000      -0.389851       -10.6084
  76   2.0000      -0.382704       -10.4139
  77   2.0000      -0.369531       -10.0554
  78   2.0000      -0.360989        -9.8230
  79   2.0000      -0.356822        -9.7096
  80   2.0000      -0.353880        -9.6296
  81   2.0000      -0.352600        -9.5947
  82   2.0000      -0.349868        -9.5204
  83   2.0000      -0.347334        -9.4514
  84   2.0000      -0.344538        -9.3754
  85   2.0000      -0.334151        -9.0927
  86   2.0000      -0.324872        -8.8402
  87   2.0000      -0.320604        -8.7241
  88   2.0000      -0.306483        -8.3398
  89   2.0000      -0.301066        -8.1924
  90   2.0000      -0.296204        -8.0601
  91   2.0000      -0.291106        -7.9214
  92   2.0000      -0.284169        -7.7326
  93   2.0000      -0.282419        -7.6850
  94   2.0000      -0.275812        -7.5052
  95   2.0000      -0.249476        -6.7886
  96   2.0000      -0.239855        -6.5268
  97   2.0000      -0.235644        -6.4122
  98   2.0000      -0.229710        -6.2507
  99   2.0000      -0.224646        -6.1129
 100   2.0000      -0.223040        -6.0692
 101   0.0000      -0.055493        -1.5100
 102   0.0000      -0.035547        -0.9673
 103   0.0000      -0.006236        -0.1697
 104   0.0000      -0.002707        -0.0737
 105   0.0000       0.011287         0.3071

MULLIKEN ATOMIC CHARGES
-----------------------
   0 C :   -0.499028
   1 C :   -0.112173
   2 O :   -0.308887
   3 P :    0.661913
   4 S :   -0.501262
   5 O :   -0.282431
   6 C :   -0.143227
   7 C :   -0.481169
   8 S :   -0.162200
   9 C :   -0.248265
  10 S :   -0.144360
  11 P :    0.681405
  12 S :   -0.504787
  13 O :   -0.334811
  14 C :   -0.147877
  15 C :   -0.480230
  16 O :   -0.273862
  17 C :   -0.160427
  18 C :   -0.469315
  19 H :    0.171682
  20 H :    0.167843
  21 H :    0.169533
  22 H :    0.185431
  23 H :    0.167613
  24 H :    0.175517
  25 H :    0.177919
  26 H :    0.168633
  27 H :    0.171039
  28 H :    0.169318
  29 H :    0.232246
  30 H :    0.236187
  31 H :    0.175783
  32 H :    0.177074
  33 H :    0.169771
  34 H :    0.172977
  35 H :    0.166909
  36 H :    0.176781
  37 H :    0.175747
  38 H :    0.169296
  39 H :    0.169248
  40 H :    0.164444
Sum of atomic charges:    0.0000000

LOEWDIN ATOMIC CHARGES
----------------------
   0 C :   -0.386054
   1 C :    0.029380
   2 O :   -0.678856
   3 P :    0.376820
   4 S :   -0.139346
   5 O :   -0.716468
   6 C :    0.017537
   7 C :   -0.401154
   8 S :    0.148676
   9 C :   -0.417546
  10 S :    0.170107
  11 P :    0.395144
  12 S :   -0.149757
  13 O :   -0.681867
  14 C :    0.027246
  15 C :   -0.402747
  16 O :   -0.673046
  17 C :    0.026038
  18 C :   -0.415840
  19 H :    0.170433
  20 H :    0.164623
  21 H :    0.164381
  22 H :    0.185170
  23 H :    0.181604
  24 H :    0.181446
  25 H :    0.189534
  26 H :    0.162937
  27 H :    0.168366
  28 H :    0.163185
  29 H :    0.198870
  30 H :    0.197540
  31 H :    0.190823
  32 H :    0.181619
  33 H :    0.164047
  34 H :    0.169208
  35 H :    0.162507
  36 H :    0.192087
  37 H :    0.191257
  38 H :    0.161636
  39 H :    0.168009
  40 H :    0.162452

  Mayer bond orders larger than 0.100000
B(  0-C ,  1-C ) :   0.9496 B(  0-C , 19-H ) :   0.9563 B(  0-C , 20-H ) :   0.9694
B(  0-C , 21-H ) :   0.9720 B(  1-C ,  2-O ) :   0.7341 B(  1-C , 22-H ) :   0.9424
B(  1-C , 23-H ) :   0.9260 B(  2-O ,  3-P ) :   1.1467 B(  3-P ,  4-S ) :   1.8159
B(  3-P ,  5-O ) :   1.0336 B(  3-P ,  8-S ) :   1.0742 B(  5-O ,  6-C ) :   0.7689
B(  6-C ,  7-C ) :   0.9190 B(  6-C , 24-H ) :   0.9563 B(  6-C , 25-H ) :   0.9527
B(  7-C , 26-H ) :   0.9612 B(  7-C , 27-H ) :   0.9576 B(  7-C , 28-H ) :   0.9693
B(  8-S ,  9-C ) :   0.8947 B(  9-C , 10-S ) :   0.9072 B(  9-C , 29-H ) :   0.8998
B(  9-C , 30-H ) :   0.9017 B( 10-S , 11-P ) :   1.0854 B( 11-P , 12-S ) :   1.7182
B( 11-P , 13-O ) :   1.1812 B( 11-P , 16-O ) :   1.0856 B( 13-O , 14-C ) :   0.7959
B( 14-C , 15-C ) :   0.9134 B( 14-C , 31-H ) :   0.9513 B( 14-C , 32-H ) :   0.9603
B( 15-C , 33-H ) :   0.9694 B( 15-C , 34-H ) :   0.9561 B( 15-C , 35-H ) :   0.9599
B( 16-O , 17-C ) :   0.7898 B( 17-C , 18-C ) :   0.9070 B( 17-C , 36-H ) :   0.9514
B( 17-C , 37-H ) :   0.9567 B( 18-C , 38-H ) :   0.9568 B( 18-C , 39-H ) :   0.9576
B( 18-C , 40-H ) :   0.9689

Dispersion correction           -0.021551805
FINAL SINGLE POINT ENERGY     -2932.470976115573

DIPOLE MOMENT
-------------

Method             : SCF
Type of density    : Electron Density
Multiplicity       :   1
Irrep              :   0
Energy             : -2932.4960352588354908 Eh
Relativity type    :
Basis              : AO
                                X                 Y                 Z
Electronic contribution:      1.389671101      20.668540525      -5.660280551
Nuclear contribution   :     -2.026142367     -23.221338836       6.773105572
                        -----------------------------------------
Total Dipole Moment    :     -0.636471265      -2.552798310       1.112825020
                        -----------------------------------------
Magnitude (a.u.)       :      2.856615902
Magnitude (Debye)      :      7.260940586

Rotational constants in cm-1:             0.013594             0.004549             0.004344
Rotational constants in MHz :           407.543217           136.377553           130.225274

                             ****ORCA TERMINATED NORMALLY****
TOTAL RUN TIME: 0 days 0 hours 1 minutes 55 seconds 826 msec
