                         Program Version 6.0.0  -   RELEASE  -
|  1> ! pbe def2-sv(p) def2/J RI DEFGRID1 loosescf d4 GCP(DFT/SV(P)) printgap
|  2> %output
|  3>     printlevel normal
|  4> end
|  5> * xyz 0 1
|  6> C 0.1891518231 1.5173354009 -0.0002314809
|  7> C 1.0935338134 0.5167493152 -9.81347e-05
|  8> C 0.6951531998 -0.8812629823 -8.0725e-05
|  9> O 1.4378958413 -1.8459792735 3.0563e-06
| 10> N -0.6805747255 -1.0305405974 -0.000123854
| 11> C -1.6352277005 -0.040027147 0.0001868709
| 12> O -2.8254527709 -0.277394743 7.14028e-05
| 13> N -1.1384821527 1.2391328244 -6.5799e-06
| 14> F 2.4181764328 0.7951097237 0.0001934405
| 15> H 0.4909518465 2.5536048545 -0.0005681494
| 16> H -1.0300492865 -1.9855891082 -0.0002255742
| 17> H -1.8196004018 1.9913949028 0.0004411442
| 18> *
| 19>
| 20>                          ****END OF INPUT****

CARTESIAN COORDINATES (ANGSTROEM)
---------------------------------
  C      0.189152    1.517335   -0.000231
  C      1.093534    0.516749   -0.000098
  C      0.695153   -0.881263   -0.000081
  O      1.437896   -1.845979    0.000003
  N     -0.680575   -1.030541   -0.000124
  C     -1.635228   -0.040027    0.000187
  O     -2.825453   -0.277395    0.000071
  N     -1.138482    1.239133   -0.000007
  F      2.418176    0.795110    0.000193
  H      0.490952    2.553605   -0.000568
  H     -1.030049   -1.985589   -0.000226
  H     -1.819600    1.991395    0.000441

 Total Charge           Charge          ....    0
 Multiplicity           Mult            ....    1
 Number of Electrons    NEL             ....   66
 Basis Dimension        Dim             ....  132

ORBITAL ENERGIES
----------------

  NO   OCC          E(Eh)            E(eV)
   0   2.0000     -24.288673      -660.9284
   1   2.0000     -18.743245      -510.0296
   2   2.0000     -18.742983      -510.0225
   3   2.0000     -14.075799      -383.0220
   4   2.0000     -14.056433      -382.4950
   5   2.0000     -10.041632      -273.2467
   6   2.0000     -10.013041      -272.4687
   7   2.0000      -9.993151      -271.9275
   8   2.0000      -9.974067      -271.4082
   9   2.0000      -1.115131       -30.3442
  10   2.0000      -0.993658       -27.0388
  11   2.0000      -0.954476       -25.9726
  12   2.0000      -0.905242       -24.6329
  13   2.0000      -0.857316       -23.3288
  14   2.0000      -0.728799       -19.8316
  15   2.0000      -0.646859       -17.6019
  16   2.0000      -0.620654       -16.8889
  17   2.0000      -0.556986       -15.1564
  18   2.0000      -0.540997       -14.7213
  19   2.0000      -0.492332       -13.3970
  20   2.0000      -0.467164       -12.7122
  21   2.0000      -0.455738       -12.4013
  22   2.0000      -0.437902       -11.9159
  23   2.0000      -0.409591       -11.1455
  24   2.0000      -0.386212       -10.5094
  25   2.0000      -0.378805       -10.3078
  26   2.0000      -0.371982       -10.1221
  27   2.0000      -0.342929        -9.3316
  28   2.0000      -0.329976        -8.9791
  29   2.0000      -0.258575        -7.0362
  30   2.0000      -0.252184        -6.8623
  31   2.0000      -0.225728        -6.1424
  32   2.0000      -0.218544        -5.9469
  33   0.0000      -0.080270        -2.1843
  34   0.0000      -0.027478        -0.7477
  35   0.0000      -0.004368        -0.1189
  36   0.0000       0.046260         1.2588
  37   0.0000       0.062727         1.7069

MULLIKEN ATOMIC CHARGES
-----------------------
   0 C :   -0.027534
   1 C :    0.107252
   2 C :    0.118660
   3 O :   -0.161648
   4 N :   -0.248898
   5 C :    0.139406
   6 O :   -0.185326
   7 N :   -0.203582
   8 F :   -0.156583
   9 H :    0.101396
  10 H :    0.256560
  11 H :    0.260296
Sum of atomic charges:   -0.0000000

LOEWDIN ATOMIC CHARGES
----------------------
   0 C :   -0.093822
   1 C :   -0.008785
   2 C :    0.007741
   3 O :   -0.160848
   4 N :   -0.114309
   5 C :    0.027097
   6 O :   -0.193297
   7 N :   -0.094378
   8 F :   -0.035848
   9 H :    0.145827
  10 H :    0.260111
  11 H :    0.260512

  Mayer bond orders larger than 0.100000
B(  0-C ,  1-C ) :   1.6296 B(  0-C ,  7-N ) :   1.1538 B(  0-C ,  9-H ) :   0.9209
B(  1-C ,  2-C ) :   0.9765 B(  1-C ,  8-F ) :   1.1143 B(  2-C ,  3-O ) :   2.1514
B(  2-C ,  4-N ) :   1.0638 B(  4-N ,  5-C ) :   1.0984 B(  4-N , 10-H ) :   0.8264
B(  5-C ,  6-O ) :   2.1365 B(  5-C ,  7-N ) :   1.0855 B(  7-N , 11-H ) :   0.8432

Dispersion correction           -0.012158137
FINAL SINGLE POINT ENERGY      -513.071096362141

DIPOLE MOMENT
-------------

Method             : SCF
Type of density    : Electron Density
Multiplicity       :   1
Irrep              :   0
Energy             :  -513.1170988994233539 Eh
Relativity type    :
Basis              : AO
                                X                 Y                 Z
Electronic contribution:      4.003001812      -0.180936400       0.000527603
Nuclear contribution   :     -4.483919883       1.634212611      -0.000509625
                        -----------------------------------------
Total Dipole Moment    :     -0.480918071       1.453276211       0.000017978
                        -----------------------------------------
Magnitude (a.u.)       :      1.530782132
Magnitude (Debye)      :      3.890938962

Rotational constants in cm-1:             0.106093             0.047634             0.032874
Rotational constants in MHz :          3180.582673          1428.027016           985.537579

                             ****ORCA TERMINATED NORMALLY****
TOTAL RUN TIME: 0 days 0 hours 0 minutes 26 seconds 301 msec
