                         Program Version 6.0.0  -   RELEASE  -
|  1> ! wb97x-v def2-tzvp def2/J RIJCOSX DEFGRID2 scfconv7 GCP(DFT/TZ) printgap
|  2> %output
|  3>     printlevel normal
|  4> end
|  5> %cpcm
|  6>     smd true
|  7>     smdsolvent "water"
|  8> end
|  9> * xyz 0 1
| 10> C -1.2774277089260686 0.7004510109449135 -0.0042362696201813455
| 11> C 0.0067185219270988646 -0.08190934184818956 -0.004766759992084907
| 12> O -0.010435267925881292 -1.3103605438214123 -0.005883386993830346
| 13> C 1.2861320018903493 0.6911187094529301 0.004463801446538369
| 14> H -1.8329241508623932 0.4596416928256274 0.9089160156816231
| 15> H -1.1157668638965292 1.7781817954124375 -0.054628317687950484
| 16> H -1.8925040417847365 0.378311228404348 -0.8506215739180043
| 17> H 1.31989677050422 1.3365151451334176 -0.8816286321980682
| 18> H 2.153579043265278 0.03022060390527445 0.024574740622321126
| 19> H 1.2966399857852693 1.362688841993166 0.8712738809266005
| 20> *
| 21>
| 22>                          ****END OF INPUT****

CARTESIAN COORDINATES (ANGSTROEM)
---------------------------------
  C     -1.277428    0.700451   -0.004236
  C      0.006719   -0.081909   -0.004767
  O     -0.010435   -1.310361   -0.005883
  C      1.286132    0.691119    0.004464
  H     -1.832924    0.459642    0.908916
  H     -1.115767    1.778182   -0.054628
  H     -1.892504    0.378311   -0.850622
  H      1.319897    1.336515   -0.881629
  H      2.153579    0.030221    0.024575
  H      1.296640    1.362689    0.871274

 Total Charge           Charge          ....    0
 Multiplicity           Mult            ....    1
 Number of Electrons    NEL             ....   32
 Basis Dimension        Dim             ....  160

ORBITAL ENERGIES
----------------

  NO   OCC          E(Eh)            E(eV)
   0   2.0000     -21.666524      -589.5761
   1   2.0000     -12.146888      -330.5336
   2   2.0000     -12.040137      -327.6288
   3   2.0000     -12.039144      -327.6018
   4   2.0000      -1.713517       -46.6272
   5   2.0000      -1.284439       -34.9514
   6   2.0000      -1.204875       -32.7863
   7   2.0000      -1.090225       -29.6665
   8   2.0000      -0.966368       -26.2962
   9   2.0000      -0.958164       -26.0730
  10   2.0000      -0.923311       -25.1246
  11   2.0000      -0.835660       -22.7395
  12   2.0000      -0.824504       -22.4359
  13   2.0000      -0.819752       -22.3066
  14   2.0000      -0.816366       -22.2144
  15   2.0000      -0.790635       -21.5143
  16   0.0000      -0.301153        -8.1948
  17   0.0000      -0.035435        -0.9642
  18   0.0000      -0.001387        -0.0378
  19   0.0000       0.015080         0.4104
  20   0.0000       0.024701         0.6722

MULLIKEN ATOMIC CHARGES
-----------------------
   0 C :   -0.386224
   1 C :    0.316134
   2 O :   -0.471394
   3 C :   -0.381011
   4 H :    0.159675
   5 H :    0.146672
   6 H :    0.157028
   7 H :    0.161875
   8 H :    0.135867
   9 H :    0.161379
Sum of atomic charges:   -0.0000000

LOEWDIN ATOMIC CHARGES
----------------------
   0 C :   -0.257801
   1 C :   -0.346250
   2 O :    0.012612
   3 C :   -0.257212
   4 H :    0.145991
   5 H :    0.133249
   6 H :    0.143554
   7 H :    0.148529
   8 H :    0.129305
   9 H :    0.148024

  Mayer bond orders larger than 0.100000
B(  0-C ,  1-C ) :   0.9613 B(  0-C ,  4-H ) :   0.9484 B(  0-C ,  5-H ) :   0.9637
B(  0-C ,  6-H ) :   0.9529 B(  1-C ,  2-O ) :   1.9495 B(  1-C ,  3-C ) :   1.0044
B(  3-C ,  7-H ) :   0.9395 B(  3-C ,  8-H ) :   0.9703 B(  3-C ,  9-H ) :   0.9406

FINAL SINGLE POINT ENERGY      -193.170786290046

DIPOLE MOMENT
-------------

Method             : SCF
Type of density    : Electron Density
Multiplicity       :   1
Irrep              :   0
Energy             :  -193.1770212557460411 Eh
Relativity type    :
Basis              : AO
                                X                 Y                 Z
Electronic contribution:      0.051622962      -3.216140020      -0.020576100
Nuclear contribution   :     -0.061654189       4.980714544       0.029386124
                        -----------------------------------------
Total Dipole Moment    :     -0.010031227       1.764574524       0.008810024
                        -----------------------------------------
Magnitude (a.u.)       :      1.764625029
Magnitude (Debye)      :      4.485320369

Rotational constants in cm-1:             0.340492             0.285886             0.164872
Rotational constants in MHz :         10207.688285          8570.656396          4942.729753

                             ****ORCA TERMINATED NORMALLY****
TOTAL RUN TIME: 0 days 0 hours 0 minutes 34 seconds 484 msec
