                         Program Version 6.0.0  -   RELEASE  -
|  1> ! pbe def2-sv(p) def2/J RI DEFGRID1 loosescf d4 GCP(DFT/SV(P)) printgap
|  2> %output
|  3>     printlevel normal
|  4> end
|  5> * xyz 0 1
|  6> C -0.4615616085 -0.5974724715 -5.8405e-06
|  7> C 0.4614034745 0.597096472 -1.15306e-05
|  8> Br 2.3243872939 -0.0222122856 1.1573e-06
|  9> Br -2.3243530535 0.0222770746 1.7291e-06
| 10> H -0.3368857199 -1.2093621287 0.8929670839
| 11> H -0.3369647069 -1.2094288073 -0.8929466987
| 12> H 0.3364613735 1.2090365204 -0.8928722718
| 13> H 0.3365590195 1.2090987811 0.8928300636
| 14> *
| 15>
| 16>                          ****END OF INPUT****

CARTESIAN COORDINATES (ANGSTROEM)
---------------------------------
  C     -0.461562   -0.597472   -0.000006
  C      0.461403    0.597096   -0.000012
  Br     2.324387   -0.022212    0.000001
  Br    -2.324353    0.022277    0.000002
  H     -0.336886   -1.209362    0.892967
  H     -0.336965   -1.209429   -0.892947
  H      0.336461    1.209037   -0.892872
  H      0.336559    1.209099    0.892830

 Total Charge           Charge          ....    0
 Multiplicity           Mult            ....    1
 Number of Electrons    NEL             ....   86
 Basis Dimension        Dim             ....  100

ORBITAL ENERGIES
----------------

  NO   OCC          E(Eh)            E(eV)
   0   2.0000    -480.934966    -13086.9058
   1   2.0000    -480.934963    -13086.9057
   2   2.0000     -61.777496     -1681.0511
   3   2.0000     -61.777492     -1681.0510
   4   2.0000     -55.708157     -1515.8960
   5   2.0000     -55.708153     -1515.8959
   6   2.0000     -55.704946     -1515.8087
   7   2.0000     -55.704940     -1515.8085
   8   2.0000     -55.704889     -1515.8071
   9   2.0000     -55.704885     -1515.8070
  10   2.0000      -9.958530      -270.9854
  11   2.0000      -9.958497      -270.9845
  12   2.0000      -8.403059      -228.6589
  13   2.0000      -8.403053      -228.6587
  14   2.0000      -6.285236      -171.0300
  15   2.0000      -6.285232      -171.0298
  16   2.0000      -6.270732      -170.6353
  17   2.0000      -6.270727      -170.6352
  18   2.0000      -6.270241      -170.6219
  19   2.0000      -6.270236      -170.6218
  20   2.0000      -2.486312       -67.6560
  21   2.0000      -2.486307       -67.6558
  22   2.0000      -2.482803       -67.5605
  23   2.0000      -2.482798       -67.5604
  24   2.0000      -2.482431       -67.5504
  25   2.0000      -2.482427       -67.5503
  26   2.0000      -2.471581       -67.2551
  27   2.0000      -2.471576       -67.2550
  28   2.0000      -2.471565       -67.2547
  29   2.0000      -2.471560       -67.2546
  30   2.0000      -0.774854       -21.0848
  31   2.0000      -0.724952       -19.7269
  32   2.0000      -0.643334       -17.5060
  33   2.0000      -0.563050       -15.3214
  34   2.0000      -0.452903       -12.3241
  35   2.0000      -0.400085       -10.8869
  36   2.0000      -0.395777       -10.7696
  37   2.0000      -0.362681        -9.8691
  38   2.0000      -0.331846        -9.0300
  39   2.0000      -0.254629        -6.9288
  40   2.0000      -0.250090        -6.8053
  41   2.0000      -0.247610        -6.7378
  42   2.0000      -0.245197        -6.6721
  43   0.0000      -0.057124        -1.5544
  44   0.0000      -0.023421        -0.6373
  45   0.0000       0.054474         1.4823
  46   0.0000       0.069190         1.8828
  47   0.0000       0.072294         1.9672

MULLIKEN ATOMIC CHARGES
-----------------------
   0 C :   -0.218196
   1 C :   -0.218209
   2 Br:   -0.100354
   3 Br:   -0.100369
   4 H :    0.159288
   5 H :    0.159295
   6 H :    0.159270
   7 H :    0.159277
Sum of atomic charges:   -0.0000000

LOEWDIN ATOMIC CHARGES
----------------------
   0 C :   -0.299027
   1 C :   -0.299066
   2 Br:    0.027093
   3 Br:    0.027120
   4 H :    0.135971
   5 H :    0.135974
   6 H :    0.135966
   7 H :    0.135968

  Mayer bond orders larger than 0.100000
B(  0-C ,  1-C ) :   1.0799 B(  0-C ,  3-Br) :   1.0246 B(  0-C ,  4-H ) :   0.9224
B(  0-C ,  5-H ) :   0.9224 B(  1-C ,  2-Br) :   1.0246 B(  1-C ,  6-H ) :   0.9224
B(  1-C ,  7-H ) :   0.9224

Dispersion correction           -0.006607970
FINAL SINGLE POINT ENERGY     -5225.324443362938

DIPOLE MOMENT
-------------

Method             : SCF
Type of density    : Electron Density
Multiplicity       :   1
Irrep              :   0
Energy             : -5225.3608126619119503 Eh
Relativity type    :
Basis              : AO
                                X                 Y                 Z
Electronic contribution:      0.000937777       0.001088474       0.000045500
Nuclear contribution   :     -0.001096657      -0.001216696      -0.000047276
                        -----------------------------------------
Total Dipole Moment    :     -0.000158881      -0.000128222      -0.000001776
                        -----------------------------------------
Magnitude (a.u.)       :      0.000204174
Magnitude (Debye)      :      0.000518970

Rotational constants in cm-1:             0.949231             0.019329             0.019081
Rotational constants in MHz :         28457.219208           579.471537           572.040117

                             ****ORCA TERMINATED NORMALLY****
TOTAL RUN TIME: 0 days 0 hours 0 minutes 4 seconds 326 msec
