                         Program Version 6.0.1  -  RELEASE   -
|  1> ! pbe def2-sv(p) def2/J RI DEFGRID1 loosescf d4 GCP(DFT/SV(P)) printgap
|  2> %output
|  3>     printlevel normal
|  4> end
|  5> * xyz 0 1
|  6> C 4.9313047045 0.4326021477 -1.1325094101
|  7> C 4.5615704145 -1.0232502094 -1.3640755723
|  8> O 3.1333862692 -1.2141624633 -1.3347368956
|  9> C 2.5414729435 -1.3459105586 -0.162877719
| 10> O 3.1133474905 -1.3389117764 0.9022498737
| 11> C 1.04453584 -1.5545862835 -0.3216137909
| 12> C 0.4158469399 -0.4185373232 -1.1308100283
| 13> H 0.9112812226 -0.3377887955 -2.1017973675
| 14> C 0.5238683066 0.895481271 -0.3860318541
| 15> O -0.4548069765 1.5209808599 -0.026019497
| 16> O 1.7614708266 1.2490477948 -0.1859993649
| 17> C 2.0207992619 2.3865073325 0.6677244094
| 18> C 2.0517660836 1.9466311753 2.121916497
| 19> S -1.3377251634 -0.7194860879 -1.4959356784
| 20> P -2.2904580201 -0.1728028748 0.3428396921
| 21> S -1.4021156752 -0.2679392232 2.0891970341
| 22> O -3.2287175284 1.0873645291 0.0455958295
| 23> C -2.9968788236 2.4550614148 0.376792872
| 24> O -3.4153552278 -1.3040085866 0.3707713424
| 25> C -4.3544708859 -1.522557918 -0.6943430047
| 26> H 4.6453634064 0.7308590641 -0.1272511235
| 27> H 6.0038436032 0.5515528335 -1.2455347017
| 28> H 4.420307382 1.0678557976 -1.850599166
| 29> H 5.0134343519 -1.6610198341 -0.5990534373
| 30> H 4.8550519669 -1.356589145 -2.3595331016
| 31> H 0.5962317992 -1.6209874755 0.6725280057
| 32> H 0.8811715396 -2.4931036729 -0.8539140675
| 33> H 2.9914452176 2.7573100238 0.3389954486
| 34> H 1.2442319869 3.1365463883 0.4991802443
| 35> H 1.0728925122 1.5813367524 2.4296620108
| 36> H 2.7697761366 1.14036902 2.2544160579
| 37> H 2.330243794 2.7858627994 2.7498938513
| 38> H -2.420472449 2.5295443164 1.2987073968
| 39> H -3.9839847286 2.8938693059 0.5070652112
| 40> H -2.4585023927 2.9430796637 -0.4333556787
| 41> H -3.8237045326 -1.7278854346 -1.624382678
| 42> H -4.9929899246 -0.6490735903 -0.8124752836
| 43> H -4.9362371788 -2.387636144 -0.3862618943
| 44> *
| 45>
| 46>                          ****END OF INPUT****

CARTESIAN COORDINATES (ANGSTROEM)
---------------------------------
  C      4.931305    0.432602   -1.132509
  C      4.561570   -1.023250   -1.364076
  O      3.133386   -1.214162   -1.334737
  C      2.541473   -1.345911   -0.162878
  O      3.113347   -1.338912    0.902250
  C      1.044536   -1.554586   -0.321614
  C      0.415847   -0.418537   -1.130810
  H      0.911281   -0.337789   -2.101797
  C      0.523868    0.895481   -0.386032
  O     -0.454807    1.520981   -0.026019
  O      1.761471    1.249048   -0.185999
  C      2.020799    2.386507    0.667724
  C      2.051766    1.946631    2.121916
  S     -1.337725   -0.719486   -1.495936
  P     -2.290458   -0.172803    0.342840
  S     -1.402116   -0.267939    2.089197
  O     -3.228718    1.087365    0.045596
  C     -2.996879    2.455061    0.376793
  O     -3.415355   -1.304009    0.370771
  C     -4.354471   -1.522558   -0.694343
  H      4.645363    0.730859   -0.127251
  H      6.003844    0.551553   -1.245535
  H      4.420307    1.067856   -1.850599
  H      5.013434   -1.661020   -0.599053
  H      4.855052   -1.356589   -2.359533
  H      0.596232   -1.620987    0.672528
  H      0.881172   -2.493104   -0.853914
  H      2.991445    2.757310    0.338995
  H      1.244232    3.136546    0.499180
  H      1.072893    1.581337    2.429662
  H      2.769776    1.140369    2.254416
  H      2.330244    2.785863    2.749894
  H     -2.420472    2.529544    1.298707
  H     -3.983985    2.893869    0.507065
  H     -2.458502    2.943080   -0.433356
  H     -3.823705   -1.727885   -1.624383
  H     -4.992990   -0.649074   -0.812475
  H     -4.936237   -2.387636   -0.386262

 Total Charge           Charge          ....    0
 Multiplicity           Mult            ....    1
 Number of Electrons    NEL             ....  174
 Basis Dimension        Dim             ....  316

ORBITAL ENERGIES
----------------

  NO   OCC          E(Eh)            E(eV)
   0   2.0000     -88.034262     -2395.5340
   1   2.0000     -87.971100     -2393.8153
   2   2.0000     -76.420338     -2079.5031
   3   2.0000     -18.828459      -512.3484
   4   2.0000     -18.805670      -511.7283
   5   2.0000     -18.782476      -511.0971
   6   2.0000     -18.773312      -510.8478
   7   2.0000     -18.763466      -510.5799
   8   2.0000     -18.740503      -509.9550
   9   2.0000     -10.033060      -273.0134
  10   2.0000     -10.011837      -272.4359
  11   2.0000      -9.959019      -270.9987
  12   2.0000      -9.954924      -270.8873
  13   2.0000      -9.953233      -270.8412
  14   2.0000      -9.938984      -270.4535
  15   2.0000      -9.935332      -270.3541
  16   2.0000      -9.907269      -269.5905
  17   2.0000      -9.892102      -269.1778
  18   2.0000      -9.882874      -268.9267
  19   2.0000      -7.679403      -208.9672
  20   2.0000      -7.616266      -207.2491
  21   2.0000      -6.415847      -174.5841
  22   2.0000      -5.707475      -155.3083
  23   2.0000      -5.704017      -155.2142
  24   2.0000      -5.696015      -154.9965
  25   2.0000      -5.645652      -153.6260
  26   2.0000      -5.637099      -153.3933
  27   2.0000      -5.635678      -153.3546
  28   2.0000      -4.638775      -126.2275
  29   2.0000      -4.637755      -126.1997
  30   2.0000      -4.636350      -126.1615
  31   2.0000      -1.038150       -28.2495
  32   2.0000      -1.013150       -27.5692
  33   2.0000      -0.972129       -26.4530
  34   2.0000      -0.943262       -25.6675
  35   2.0000      -0.926532       -25.2122
  36   2.0000      -0.917491       -24.9662
  37   2.0000      -0.769862       -20.9490
  38   2.0000      -0.713473       -19.4146
  39   2.0000      -0.712545       -19.3893
  40   2.0000      -0.688616       -18.7382
  41   2.0000      -0.657141       -17.8817
  42   2.0000      -0.629821       -17.1383
  43   2.0000      -0.624163       -16.9844
  44   2.0000      -0.608128       -16.5480
  45   2.0000      -0.597530       -16.2596
  46   2.0000      -0.571867       -15.5613
  47   2.0000      -0.513067       -13.9613
  48   2.0000      -0.506954       -13.7949
  49   2.0000      -0.502332       -13.6691
  50   2.0000      -0.489087       -13.3087
  51   2.0000      -0.470171       -12.7940
  52   2.0000      -0.466347       -12.6900
  53   2.0000      -0.451201       -12.2778
  54   2.0000      -0.447616       -12.1803
  55   2.0000      -0.430955       -11.7269
  56   2.0000      -0.422033       -11.4841
  57   2.0000      -0.421749       -11.4764
  58   2.0000      -0.412700       -11.2301
  59   2.0000      -0.410190       -11.1618
  60   2.0000      -0.401936       -10.9372
  61   2.0000      -0.396072       -10.7777
  62   2.0000      -0.390355       -10.6221
  63   2.0000      -0.385609       -10.4929
  64   2.0000      -0.380597       -10.3566
  65   2.0000      -0.367026        -9.9873
  66   2.0000      -0.361466        -9.8360
  67   2.0000      -0.354472        -9.6457
  68   2.0000      -0.346459        -9.4276
  69   2.0000      -0.343324        -9.3423
  70   2.0000      -0.339858        -9.2480
  71   2.0000      -0.331053        -9.0084
  72   2.0000      -0.325977        -8.8703
  73   2.0000      -0.311895        -8.4871
  74   2.0000      -0.305312        -8.3080
  75   2.0000      -0.299149        -8.1402
  76   2.0000      -0.292628        -7.9628
  77   2.0000      -0.288367        -7.8469
  78   2.0000      -0.282598        -7.6899
  79   2.0000      -0.263812        -7.1787
  80   2.0000      -0.261152        -7.1063
  81   2.0000      -0.252238        -6.8637
  82   2.0000      -0.248052        -6.7498
  83   2.0000      -0.227560        -6.1922
  84   2.0000      -0.209562        -5.7025
  85   2.0000      -0.191229        -5.2036
  86   2.0000      -0.182670        -4.9707
  87   0.0000      -0.049628        -1.3504
  88   0.0000      -0.040907        -1.1131
  89   0.0000      -0.024080        -0.6552
  90   0.0000       0.001964         0.0534
  91   0.0000       0.031040         0.8446

MULLIKEN ATOMIC CHARGES
-----------------------
   0 C :   -0.315172
   1 C :   -0.011079
   2 O :   -0.242414
   3 C :    0.107564
   4 O :   -0.192482
   5 C :   -0.045415
   6 C :   -0.317359
   7 H :    0.156675
   8 C :    0.222167
   9 O :   -0.192972
  10 O :   -0.217177
  11 C :   -0.016811
  12 C :   -0.329019
  13 S :   -0.110786
  14 P :    0.636357
  15 S :   -0.317582
  16 O :   -0.399169
  17 C :   -0.078046
  18 O :   -0.371354
  19 C :   -0.112342
  20 H :    0.135691
  21 H :    0.112988
  22 H :    0.112692
  23 H :    0.109578
  24 H :    0.103169
  25 H :    0.124954
  26 H :    0.122821
  27 H :    0.109294
  28 H :    0.111622
  29 H :    0.144000
  30 H :    0.138902
  31 H :    0.111081
  32 H :    0.115563
  33 H :    0.115939
  34 H :    0.111541
  35 H :    0.120038
  36 H :    0.118220
  37 H :    0.128323
Sum of atomic charges:   -0.0000000

LOEWDIN ATOMIC CHARGES
----------------------
   0 C :   -0.357595
   1 C :   -0.108482
   2 O :   -0.064918
   3 C :    0.024696
   4 O :   -0.159422
   5 C :   -0.248581
   6 C :   -0.266747
   7 H :    0.149809
   8 C :    0.030457
   9 O :   -0.151281
  10 O :   -0.025945
  11 C :   -0.105475
  12 C :   -0.362482
  13 S :    0.089051
  14 P :    0.587168
  15 S :   -0.317371
  16 O :   -0.254605
  17 C :   -0.206302
  18 O :   -0.255731
  19 C :   -0.214411
  20 H :    0.129040
  21 H :    0.130638
  22 H :    0.123432
  23 H :    0.120973
  24 H :    0.117916
  25 H :    0.136785
  26 H :    0.145134
  27 H :    0.118394
  28 H :    0.120862
  29 H :    0.131971
  30 H :    0.133498
  31 H :    0.130265
  32 H :    0.111564
  33 H :    0.115779
  34 H :    0.111075
  35 H :    0.103829
  36 H :    0.112624
  37 H :    0.124392

  Mayer bond orders larger than 0.100000
B(  0-C ,  1-C ) :   1.1749 B(  0-C , 20-H ) :   0.9376 B(  0-C , 21-H ) :   0.9412
B(  0-C , 22-H ) :   0.9472 B(  1-C ,  2-O ) :   0.9206 B(  1-C , 23-H ) :   0.9168
B(  1-C , 24-H ) :   0.9380 B(  2-O ,  3-C ) :   1.1966 B(  3-C ,  4-O ) :   2.0485
B(  3-C ,  5-C ) :   1.0167 B(  5-C ,  6-C ) :   1.0243 B(  5-C , 25-H ) :   0.8772
B(  5-C , 26-H ) :   0.8850 B(  6-C ,  7-H ) :   0.8656 B(  6-C ,  8-C ) :   0.9032
B(  6-C , 13-S ) :   1.0479 B(  8-C ,  9-O ) :   1.9307 B(  8-C , 10-O ) :   1.2755
B(  9-O , 14-P ) :   0.1148 B( 10-O , 11-C ) :   0.8859 B( 11-C , 12-C ) :   1.1806
B( 11-C , 27-H ) :   0.9300 B( 11-C , 28-H ) :   0.9150 B( 12-C , 29-H ) :   0.9282
B( 12-C , 30-H ) :   0.9400 B( 12-C , 31-H ) :   0.9397 B( 13-S , 14-P ) :   0.9151
B( 13-S , 15-S ) :   0.1102 B( 14-P , 15-S ) :   1.5792 B( 14-P , 16-O ) :   1.0854
B( 14-P , 18-O ) :   1.0993 B( 16-O , 17-C ) :   0.9300 B( 17-C , 32-H ) :   0.9418
B( 17-C , 33-H ) :   0.9538 B( 17-C , 34-H ) :   0.9534 B( 18-O , 19-C ) :   0.9351
B( 19-C , 35-H ) :   0.9365 B( 19-C , 36-H ) :   0.9459 B( 19-C , 37-H ) :   0.9606

Dispersion correction           -0.053613240
FINAL SINGLE POINT ENERGY     -1979.008966736733

DIPOLE MOMENT
-------------

Method             : SCF
Type of density    : Electron Density
Multiplicity       :   1
Irrep              :   0
Energy             : -1979.1410627472778287 Eh
Relativity type    :
Basis              : AO
                                X                 Y                 Z
Electronic contribution:    -15.558787477      -8.435072347       0.272265373
Nuclear contribution   :     16.323893319       9.455970790      -1.868964334
                        -----------------------------------------
Total Dipole Moment    :      0.765105842       1.020898444      -1.596698961
                        -----------------------------------------
Magnitude (a.u.)       :      2.043787698
Magnitude (Debye)      :      5.194895483

Rotational constants in cm-1:             0.017622             0.006360             0.005653
Rotational constants in MHz :           528.306752           190.653645           169.476262

                             ****ORCA TERMINATED NORMALLY****
TOTAL RUN TIME: 0 days 0 hours 0 minutes 43 seconds 624 msec
