                         Program Version 6.0.0  -   RELEASE  -
|  1> ! pbe def2-sv(p) def2/J RI DEFGRID1 loosescf d4 GCP(DFT/SV(P)) printgap
|  2> %output
|  3>     printlevel normal
|  4> end
|  5> * xyz 0 1
|  6> C 4.0943429442 -1.4952237517 -2.464839973
|  7> C 4.470333215 -1.5545240188 -0.9984067357
|  8> O 3.3133101019 -1.5736194 -0.1448110248
|  9> P 2.3370064093 -0.3265386357 0.0002519787
| 10> S 3.2445728726 1.4158090024 0.0459430803
| 11> O 1.5227177616 -0.7245348198 1.2992958333
| 12> C 1.9801899877 -0.4102747143 2.6362723476
| 13> C 0.8361036011 0.208764991 3.4139367638
| 14> S 0.8447759036 -0.6167684005 -1.4593245571
| 15> C 0.1592068499 1.0626816355 -1.3754098948
| 16> S -0.7107371424 1.3992983259 0.1686299683
| 17> P -2.5648475341 0.4307128225 -0.2907578902
| 18> S -2.8838891701 0.0658852013 -2.1878390969
| 19> O -3.6844817547 1.3851132614 0.2611166925
| 20> C -3.6231605437 2.2116869244 1.4501761065
| 21> C -3.2553475602 1.4384358161 2.697610932
| 22> O -2.6730665699 -0.799441023 0.7145722575
| 23> C -1.7750325323 -1.9162047659 0.8033919151
| 24> C -1.9035563746 -2.8638954074 -0.3725032416
| 25> H 4.988671171 -1.599453336 -3.0707743182
| 26> H 3.3965060608 -2.29222187 -2.7094108921
| 27> H 3.625590719 -0.5380642612 -2.6909678169
| 28> H 5.0872322909 -0.6926921268 -0.7242279001
| 29> H 4.9929743468 -2.4797507968 -0.752506288
| 30> H 2.3112646367 -1.3497355696 3.0826415267
| 31> H 2.8267426677 0.2805994038 2.5683429755
| 32> H -0.0089501709 -0.4734478167 3.4430716837
| 33> H 1.1658418933 0.4147281659 4.4269957854
| 34> H 0.5267982387 1.1385493817 2.9419401102
| 35> H -0.5362434978 1.1528921554 -2.2108376425
| 36> H 0.9705953707 1.7868890915 -1.4426006103
| 37> H -2.9049269689 3.0142284087 1.2640613005
| 38> H -4.6310734534 2.6245552335 1.5143070599
| 39> H -3.9254086761 0.5929246384 2.8280894282
| 40> H -2.2321995551 1.0750092906 2.6266819979
| 41> H -3.3346869865 2.0973737255 3.5567563189
| 42> H -0.7491868074 -1.5461297258 0.8936450688
| 43> H -2.0680730002 -2.4064248905 1.7342743048
| 44> H -1.5786351961 -2.3812249676 -1.2922990343
| 45> H -1.2819891605 -3.73614369 -0.1969614173
| 46> H -2.9381554833 -3.175231601 -0.4920948381
| 47> *
| 48>
| 49>                          ****END OF INPUT****

CARTESIAN COORDINATES (ANGSTROEM)
---------------------------------
  C      4.094343   -1.495224   -2.464840
  C      4.470333   -1.554524   -0.998407
  O      3.313310   -1.573619   -0.144811
  P      2.337006   -0.326539    0.000252
  S      3.244573    1.415809    0.045943
  O      1.522718   -0.724535    1.299296
  C      1.980190   -0.410275    2.636272
  C      0.836104    0.208765    3.413937
  S      0.844776   -0.616768   -1.459325
  C      0.159207    1.062682   -1.375410
  S     -0.710737    1.399298    0.168630
  P     -2.564848    0.430713   -0.290758
  S     -2.883889    0.065885   -2.187839
  O     -3.684482    1.385113    0.261117
  C     -3.623161    2.211687    1.450176
  C     -3.255348    1.438436    2.697611
  O     -2.673067   -0.799441    0.714572
  C     -1.775033   -1.916205    0.803392
  C     -1.903556   -2.863895   -0.372503
  H      4.988671   -1.599453   -3.070774
  H      3.396506   -2.292222   -2.709411
  H      3.625591   -0.538064   -2.690968
  H      5.087232   -0.692692   -0.724228
  H      4.992974   -2.479751   -0.752506
  H      2.311265   -1.349736    3.082642
  H      2.826743    0.280599    2.568343
  H     -0.008950   -0.473448    3.443072
  H      1.165842    0.414728    4.426996
  H      0.526798    1.138549    2.941940
  H     -0.536243    1.152892   -2.210838
  H      0.970595    1.786889   -1.442601
  H     -2.904927    3.014228    1.264061
  H     -4.631073    2.624555    1.514307
  H     -3.925409    0.592925    2.828089
  H     -2.232200    1.075009    2.626682
  H     -3.334687    2.097374    3.556756
  H     -0.749187   -1.546130    0.893645
  H     -2.068073   -2.406425    1.734274
  H     -1.578635   -2.381225   -1.292299
  H     -1.281989   -3.736144   -0.196961
  H     -2.938155   -3.175232   -0.492095

 Total Charge           Charge          ....    0
 Multiplicity           Mult            ....    1
 Number of Electrons    NEL             ....  202
 Basis Dimension        Dim             ....  334

ORBITAL ENERGIES
----------------

  NO   OCC          E(Eh)            E(eV)
   0   2.0000     -88.048950     -2395.9337
   1   2.0000     -88.044653     -2395.8168
   2   2.0000     -87.994944     -2394.4642
   3   2.0000     -87.982806     -2394.1339
   4   2.0000     -76.432013     -2079.8208
   5   2.0000     -76.426107     -2079.6601
   6   2.0000     -18.797868      -511.5160
   7   2.0000     -18.796402      -511.4761
   8   2.0000     -18.791370      -511.3392
   9   2.0000     -18.788065      -511.2492
  10   2.0000      -9.959934      -271.0236
  11   2.0000      -9.957608      -270.9603
  12   2.0000      -9.956361      -270.9264
  13   2.0000      -9.955104      -270.8922
  14   2.0000      -9.946880      -270.6684
  15   2.0000      -9.892515      -269.1890
  16   2.0000      -9.890640      -269.1380
  17   2.0000      -9.887372      -269.0491
  18   2.0000      -9.873156      -268.6622
  19   2.0000      -7.693800      -209.3589
  20   2.0000      -7.689234      -209.2347
  21   2.0000      -7.639830      -207.8903
  22   2.0000      -7.628010      -207.5687
  23   2.0000      -6.429755      -174.9625
  24   2.0000      -6.423227      -174.7849
  25   2.0000      -5.721616      -155.6931
  26   2.0000      -5.718423      -155.6062
  27   2.0000      -5.717054      -155.5690
  28   2.0000      -5.713674      -155.4770
  29   2.0000      -5.710723      -155.3967
  30   2.0000      -5.706421      -155.2796
  31   2.0000      -5.668570      -154.2496
  32   2.0000      -5.660588      -154.0324
  33   2.0000      -5.660070      -154.0183
  34   2.0000      -5.657097      -153.9374
  35   2.0000      -5.648697      -153.7089
  36   2.0000      -5.647883      -153.6867
  37   2.0000      -4.652240      -126.5939
  38   2.0000      -4.651487      -126.5734
  39   2.0000      -4.650272      -126.5403
  40   2.0000      -4.645913      -126.4217
  41   2.0000      -4.645223      -126.4029
  42   2.0000      -4.643443      -126.3545
  43   2.0000      -0.992139       -26.9975
  44   2.0000      -0.985058       -26.8048
  45   2.0000      -0.950655       -25.8686
  46   2.0000      -0.942327       -25.6420
  47   2.0000      -0.767710       -20.8905
  48   2.0000      -0.725205       -19.7338
  49   2.0000      -0.714352       -19.4385
  50   2.0000      -0.691419       -18.8145
  51   2.0000      -0.688695       -18.7403
  52   2.0000      -0.677465       -18.4347
  53   2.0000      -0.652581       -17.7576
  54   2.0000      -0.641233       -17.4488
  55   2.0000      -0.603837       -16.4312
  56   2.0000      -0.592550       -16.1241
  57   2.0000      -0.578283       -15.7359
  58   2.0000      -0.573762       -15.6128
  59   2.0000      -0.562849       -15.3159
  60   2.0000      -0.509179       -13.8555
  61   2.0000      -0.493540       -13.4299
  62   2.0000      -0.477413       -12.9911
  63   2.0000      -0.472584       -12.8597
  64   2.0000      -0.461938       -12.5700
  65   2.0000      -0.447042       -12.1646
  66   2.0000      -0.445528       -12.1234
  67   2.0000      -0.437311       -11.8998
  68   2.0000      -0.432032       -11.7562
  69   2.0000      -0.420850       -11.4519
  70   2.0000      -0.402961       -10.9651
  71   2.0000      -0.400760       -10.9052
  72   2.0000      -0.397384       -10.8134
  73   2.0000      -0.394306       -10.7296
  74   2.0000      -0.391179       -10.6445
  75   2.0000      -0.377939       -10.2842
  76   2.0000      -0.363337        -9.8869
  77   2.0000      -0.360857        -9.8194
  78   2.0000      -0.356719        -9.7068
  79   2.0000      -0.354275        -9.6403
  80   2.0000      -0.352652        -9.5961
  81   2.0000      -0.346224        -9.4212
  82   2.0000      -0.342866        -9.3299
  83   2.0000      -0.341778        -9.3002
  84   2.0000      -0.330757        -9.0003
  85   2.0000      -0.323355        -8.7989
  86   2.0000      -0.313127        -8.5206
  87   2.0000      -0.301353        -8.2002
  88   2.0000      -0.295820        -8.0497
  89   2.0000      -0.289015        -7.8645
  90   2.0000      -0.285502        -7.7689
  91   2.0000      -0.280915        -7.6441
  92   2.0000      -0.275217        -7.4890
  93   2.0000      -0.268687        -7.3113
  94   2.0000      -0.258272        -7.0279
  95   2.0000      -0.239164        -6.5080
  96   2.0000      -0.220433        -5.9983
  97   2.0000      -0.216263        -5.8848
  98   2.0000      -0.209928        -5.7124
  99   2.0000      -0.202725        -5.5164
 100   2.0000      -0.195436        -5.3181
 101   0.0000      -0.049008        -1.3336
 102   0.0000      -0.031165        -0.8480
 103   0.0000      -0.008039        -0.2188
 104   0.0000      -0.000541        -0.0147
 105   0.0000       0.007036         0.1915

MULLIKEN ATOMIC CHARGES
-----------------------
   0 C :   -0.318937
   1 C :   -0.003466
   2 O :   -0.373039
   3 P :    0.610701
   4 S :   -0.334512
   5 O :   -0.359409
   6 C :   -0.003858
   7 C :   -0.307577
   8 S :   -0.071731
   9 C :   -0.352056
  10 S :   -0.121795
  11 P :    0.606227
  12 S :   -0.310627
  13 O :   -0.359509
  14 C :   -0.004138
  15 C :   -0.328482
  16 O :   -0.371824
  17 C :   -0.048408
  18 C :   -0.298792
  19 H :    0.115523
  20 H :    0.120116
  21 H :    0.128078
  22 H :    0.112384
  23 H :    0.106457
  24 H :    0.106465
  25 H :    0.106971
  26 H :    0.125401
  27 H :    0.110874
  28 H :    0.136580
  29 H :    0.196395
  30 H :    0.193467
  31 H :    0.114605
  32 H :    0.114568
  33 H :    0.127246
  34 H :    0.133240
  35 H :    0.115565
  36 H :    0.138961
  37 H :    0.098209
  38 H :    0.133964
  39 H :    0.102831
  40 H :    0.113331
Sum of atomic charges:   -0.0000000

LOEWDIN ATOMIC CHARGES
----------------------
   0 C :   -0.369402
   1 C :   -0.119064
   2 O :   -0.246331
   3 P :    0.570181
   4 S :   -0.323097
   5 O :   -0.239894
   6 C :   -0.114559
   7 C :   -0.356960
   8 S :    0.111013
   9 C :   -0.485467
  10 S :    0.073243
  11 P :    0.567651
  12 S :   -0.301319
  13 O :   -0.234715
  14 C :   -0.111261
  15 C :   -0.368520
  16 O :   -0.241712
  17 C :   -0.126167
  18 C :   -0.367548
  19 H :    0.132327
  20 H :    0.125419
  21 H :    0.121620
  22 H :    0.111139
  23 H :    0.119390
  24 H :    0.116204
  25 H :    0.108369
  26 H :    0.125510
  27 H :    0.130065
  28 H :    0.125534
  29 H :    0.129792
  30 H :    0.130395
  31 H :    0.111651
  32 H :    0.124736
  33 H :    0.131478
  34 H :    0.119240
  35 H :    0.132321
  36 H :    0.104654
  37 H :    0.115172
  38 H :    0.116122
  39 H :    0.127241
  40 H :    0.125546

  Mayer bond orders larger than 0.100000
B(  0-C ,  1-C ) :   1.1645 B(  0-C , 19-H ) :   0.9377 B(  0-C , 20-H ) :   0.9448
B(  0-C , 21-H ) :   0.9354 B(  1-C ,  2-O ) :   0.9073 B(  1-C , 22-H ) :   0.9163
B(  1-C , 23-H ) :   0.9336 B(  2-O ,  3-P ) :   1.1159 B(  3-P ,  4-S ) :   1.5948
B(  3-P ,  5-O ) :   1.1211 B(  3-P ,  8-S ) :   0.9675 B(  4-S ,  8-S ) :   0.1074
B(  5-O ,  6-C ) :   0.8915 B(  6-C ,  7-C ) :   1.1670 B(  6-C , 24-H ) :   0.9336
B(  6-C , 25-H ) :   0.9035 B(  7-C , 26-H ) :   0.9452 B(  7-C , 27-H ) :   0.9384
B(  7-C , 28-H ) :   0.9395 B(  8-S ,  9-C ) :   0.9996 B(  9-C , 10-S ) :   1.0184
B(  9-C , 29-H ) :   0.8636 B(  9-C , 30-H ) :   0.8750 B( 10-S , 11-P ) :   0.9257
B( 10-S , 12-S ) :   0.1108 B( 11-P , 12-S ) :   1.6443 B( 11-P , 13-O ) :   1.1478
B( 11-P , 16-O ) :   1.0932 B( 13-O , 14-C ) :   0.9047 B( 14-C , 15-C ) :   1.1669
B( 14-C , 31-H ) :   0.9235 B( 14-C , 32-H ) :   0.9347 B( 15-C , 33-H ) :   0.9413
B( 15-C , 34-H ) :   0.9340 B( 15-C , 35-H ) :   0.9345 B( 16-O , 17-C ) :   0.9088
B( 17-C , 18-C ) :   1.1670 B( 17-C , 36-H ) :   0.8958 B( 17-C , 37-H ) :   0.9340
B( 18-C , 38-H ) :   0.9281 B( 18-C , 39-H ) :   0.9381 B( 18-C , 40-H ) :   0.9450

Dispersion correction           -0.066554602
FINAL SINGLE POINT ENERGY     -2929.522090766439

DIPOLE MOMENT
-------------

Method             : SCF
Type of density    : Electron Density
Multiplicity       :   1
Irrep              :   0
Energy             : -2929.6412549580390987 Eh
Relativity type    :
Basis              : AO
                                X                 Y                 Z
Electronic contribution:     -2.893443436       7.646865504     -13.210741391
Nuclear contribution   :      3.640480362      -8.151663823      14.742752047
                        -----------------------------------------
Total Dipole Moment    :      0.747036925      -0.504798319       1.532010656
                        -----------------------------------------
Magnitude (a.u.)       :      1.777622615
Magnitude (Debye)      :      4.518357608

Rotational constants in cm-1:             0.012231             0.005266             0.004704
Rotational constants in MHz :           366.666289           157.870483           141.030780

                             ****ORCA TERMINATED NORMALLY****
TOTAL RUN TIME: 0 days 0 hours 0 minutes 21 seconds 819 msec
