                         Program Version 6.0.0  -   RELEASE  -
|  1> ! pbe def2-sv(p) def2/J RI DEFGRID1 loosescf d4 GCP(DFT/SV(P)) printgap
|  2> %output
|  3>     printlevel normal
|  4> end
|  5> * xyz 0 1
|  6> C 5.244995288 0.2619746514 -0.253678281
|  7> C 4.4382670168 -1.0108990447 -0.0840257046
|  8> O 3.1961439686 -0.9579844494 -0.811586158
|  9> P 1.8853062189 -0.2360328027 -0.2726344648
| 10> S 1.8890148873 1.7261075319 -0.1828891143
| 11> O 1.668757819 -0.9688391492 1.1285590713
| 12> C 1.2800078316 -0.3069395206 2.3414867793
| 13> C 2.5008643543 0.022186098 3.1784563115
| 14> S 0.6402303054 -1.1262131009 -1.7186980903
| 15> C -0.3766488363 0.3010099396 -2.2117764104
| 16> S -2.154496007 0.1232968743 -1.8845591564
| 17> P -2.1473447662 0.1455380585 0.2380916718
| 18> S -3.8898875679 0.2108040644 1.1234547311
| 19> O -1.1205395035 1.2952777823 0.6300397265
| 20> C -1.5611439147 2.6412349105 0.8912205506
| 21> C -2.0490856458 3.3417358481 -0.3606384376
| 22> O -1.2028400798 -1.0629020714 0.6685754225
| 23> C -1.7316731529 -2.3798276111 0.9084548363
| 24> C -2.305049058 -3.0138090654 -0.3432733302
| 25> H 5.4208904476 0.4545694296 -1.3086183253
| 26> H 4.7122585503 1.1128343723 0.1665040245
| 27> H 6.1974569234 0.1536126159 0.2554922679
| 28> H 4.225548104 -1.2077016167 0.9700690164
| 29> H 4.9577432583 -1.8677182749 -0.517266177
| 30> H 0.7241432817 0.6010280704 2.0947508634
| 31> H 0.6175082747 -1.0074896913 2.8521271775
| 32> H 3.0701588768 -0.8796080912 3.3880815372
| 33> H 3.134399873 0.7322025589 2.6495262112
| 34> H 2.1804651383 0.4674529081 4.1149147405
| 35> H -0.3053645305 0.4000792026 -3.291777573
| 36> H 0.0128446371 1.1895236082 -1.7083061546
| 37> H -2.3532054971 2.6016707075 1.6452466807
| 38> H -0.6753294254 3.1304594685 1.3007852147
| 39> H -1.2668379004 3.3616426996 -1.1158137951
| 40> H -2.9223007109 2.8274990079 -0.7612671856
| 41> H -2.3244121583 4.3612814693 -0.1103998873
| 42> H -0.8735683941 -2.9411822208 1.282709211
| 43> H -2.4981490614 -2.3031304644 1.686290479
| 44> H -1.562764371 -3.0267568404 -1.1384860961
| 45> H -2.6090406717 -4.0312882656 -0.1188473195
| 46> H -3.175895597 -2.4514306281 -0.6798661798
| 47> *
| 48>
| 49>                          ****END OF INPUT****

CARTESIAN COORDINATES (ANGSTROEM)
---------------------------------
  C      5.244995    0.261975   -0.253678
  C      4.438267   -1.010899   -0.084026
  O      3.196144   -0.957984   -0.811586
  P      1.885306   -0.236033   -0.272634
  S      1.889015    1.726108   -0.182889
  O      1.668758   -0.968839    1.128559
  C      1.280008   -0.306940    2.341487
  C      2.500864    0.022186    3.178456
  S      0.640230   -1.126213   -1.718698
  C     -0.376649    0.301010   -2.211776
  S     -2.154496    0.123297   -1.884559
  P     -2.147345    0.145538    0.238092
  S     -3.889888    0.210804    1.123455
  O     -1.120540    1.295278    0.630040
  C     -1.561144    2.641235    0.891221
  C     -2.049086    3.341736   -0.360638
  O     -1.202840   -1.062902    0.668575
  C     -1.731673   -2.379828    0.908455
  C     -2.305049   -3.013809   -0.343273
  H      5.420890    0.454569   -1.308618
  H      4.712259    1.112834    0.166504
  H      6.197457    0.153613    0.255492
  H      4.225548   -1.207702    0.970069
  H      4.957743   -1.867718   -0.517266
  H      0.724143    0.601028    2.094751
  H      0.617508   -1.007490    2.852127
  H      3.070159   -0.879608    3.388082
  H      3.134400    0.732203    2.649526
  H      2.180465    0.467453    4.114915
  H     -0.305365    0.400079   -3.291778
  H      0.012845    1.189524   -1.708306
  H     -2.353205    2.601671    1.645247
  H     -0.675329    3.130459    1.300785
  H     -1.266838    3.361643   -1.115814
  H     -2.922301    2.827499   -0.761267
  H     -2.324412    4.361281   -0.110400
  H     -0.873568   -2.941182    1.282709
  H     -2.498149   -2.303130    1.686290
  H     -1.562764   -3.026757   -1.138486
  H     -2.609041   -4.031288   -0.118847
  H     -3.175896   -2.451431   -0.679866

 Total Charge           Charge          ....    0
 Multiplicity           Mult            ....    1
 Number of Electrons    NEL             ....  202
 Basis Dimension        Dim             ....  334

ORBITAL ENERGIES
----------------

  NO   OCC          E(Eh)            E(eV)
   0   2.0000     -88.044152     -2395.8032
   1   2.0000     -88.043259     -2395.7789
   2   2.0000     -87.992671     -2394.4023
   3   2.0000     -87.989722     -2394.3221
   4   2.0000     -76.428949     -2079.7374
   5   2.0000     -76.426640     -2079.6746
   6   2.0000     -18.793020      -511.3841
   7   2.0000     -18.792317      -511.3649
   8   2.0000     -18.791177      -511.3339
   9   2.0000     -18.788134      -511.2511
  10   2.0000      -9.956732      -270.9365
  11   2.0000      -9.956620      -270.9334
  12   2.0000      -9.950305      -270.7616
  13   2.0000      -9.949907      -270.7507
  14   2.0000      -9.947802      -270.6935
  15   2.0000      -9.886664      -269.0298
  16   2.0000      -9.884143      -268.9612
  17   2.0000      -9.881774      -268.8967
  18   2.0000      -9.879210      -268.8270
  19   2.0000      -7.689106      -209.2312
  20   2.0000      -7.688460      -209.2136
  21   2.0000      -7.637459      -207.8258
  22   2.0000      -7.634911      -207.7565
  23   2.0000      -6.426570      -174.8759
  24   2.0000      -6.424126      -174.8094
  25   2.0000      -5.717270      -155.5748
  26   2.0000      -5.716466      -155.5530
  27   2.0000      -5.713293      -155.4666
  28   2.0000      -5.713109      -155.4616
  29   2.0000      -5.706141      -155.2720
  30   2.0000      -5.705057      -155.2425
  31   2.0000      -5.666248      -154.1864
  32   2.0000      -5.663877      -154.1219
  33   2.0000      -5.658437      -153.9739
  34   2.0000      -5.657339      -153.9440
  35   2.0000      -5.655430      -153.8921
  36   2.0000      -5.655123      -153.8837
  37   2.0000      -4.649131      -126.5093
  38   2.0000      -4.647904      -126.4759
  39   2.0000      -4.647480      -126.4643
  40   2.0000      -4.646488      -126.4374
  41   2.0000      -4.646289      -126.4319
  42   2.0000      -4.644400      -126.3806
  43   2.0000      -0.988329       -26.8938
  44   2.0000      -0.985815       -26.8254
  45   2.0000      -0.944373       -25.6977
  46   2.0000      -0.942875       -25.6569
  47   2.0000      -0.762451       -20.7473
  48   2.0000      -0.723478       -19.6868
  49   2.0000      -0.708738       -19.2857
  50   2.0000      -0.688003       -18.7215
  51   2.0000      -0.680246       -18.5104
  52   2.0000      -0.678786       -18.4707
  53   2.0000      -0.656778       -17.8718
  54   2.0000      -0.640586       -17.4312
  55   2.0000      -0.601667       -16.3722
  56   2.0000      -0.594499       -16.1772
  57   2.0000      -0.577541       -15.7157
  58   2.0000      -0.567769       -15.4498
  59   2.0000      -0.560127       -15.2418
  60   2.0000      -0.501178       -13.6377
  61   2.0000      -0.492180       -13.3929
  62   2.0000      -0.477898       -13.0043
  63   2.0000      -0.464315       -12.6347
  64   2.0000      -0.455849       -12.4043
  65   2.0000      -0.450116       -12.2483
  66   2.0000      -0.442582       -12.0433
  67   2.0000      -0.435160       -11.8413
  68   2.0000      -0.422068       -11.4851
  69   2.0000      -0.419243       -11.4082
  70   2.0000      -0.408024       -11.1029
  71   2.0000      -0.398643       -10.8476
  72   2.0000      -0.395228       -10.7547
  73   2.0000      -0.390243       -10.6191
  74   2.0000      -0.388338       -10.5672
  75   2.0000      -0.376930       -10.2568
  76   2.0000      -0.370093       -10.0707
  77   2.0000      -0.353409        -9.6168
  78   2.0000      -0.352597        -9.5947
  79   2.0000      -0.349032        -9.4976
  80   2.0000      -0.347958        -9.4684
  81   2.0000      -0.342633        -9.3235
  82   2.0000      -0.340654        -9.2697
  83   2.0000      -0.334704        -9.1078
  84   2.0000      -0.331044        -9.0082
  85   2.0000      -0.323859        -8.8126
  86   2.0000      -0.314489        -8.5577
  87   2.0000      -0.301354        -8.2003
  88   2.0000      -0.292980        -7.9724
  89   2.0000      -0.291856        -7.9418
  90   2.0000      -0.288586        -7.8528
  91   2.0000      -0.277470        -7.5503
  92   2.0000      -0.268373        -7.3028
  93   2.0000      -0.263460        -7.1691
  94   2.0000      -0.260942        -7.1006
  95   2.0000      -0.226516        -6.1638
  96   2.0000      -0.221307        -6.0221
  97   2.0000      -0.214466        -5.8359
  98   2.0000      -0.209674        -5.7055
  99   2.0000      -0.203995        -5.5510
 100   2.0000      -0.200330        -5.4513
 101   0.0000      -0.039693        -1.0801
 102   0.0000      -0.029495        -0.8026
 103   0.0000      -0.023140        -0.6297
 104   0.0000      -0.001325        -0.0361
 105   0.0000       0.010020         0.2727

MULLIKEN ATOMIC CHARGES
-----------------------
   0 C :   -0.306653
   1 C :   -0.017840
   2 O :   -0.374485
   3 P :    0.651778
   4 S :   -0.335307
   5 O :   -0.381484
   6 C :   -0.026495
   7 C :   -0.297905
   8 S :   -0.074253
   9 C :   -0.373194
  10 S :   -0.085571
  11 P :    0.592286
  12 S :   -0.315382
  13 O :   -0.366267
  14 C :    0.000564
  15 C :   -0.323330
  16 O :   -0.366382
  17 C :   -0.000247
  18 C :   -0.319332
  19 H :    0.118945
  20 H :    0.132894
  21 H :    0.107802
  22 H :    0.106940
  23 H :    0.108344
  24 H :    0.135092
  25 H :    0.102889
  26 H :    0.115645
  27 H :    0.116144
  28 H :    0.112376
  29 H :    0.185326
  30 H :    0.217119
  31 H :    0.111008
  32 H :    0.107812
  33 H :    0.125895
  34 H :    0.127634
  35 H :    0.112544
  36 H :    0.104528
  37 H :    0.110035
  38 H :    0.126153
  39 H :    0.110106
  40 H :    0.124269
Sum of atomic charges:    0.0000000

LOEWDIN ATOMIC CHARGES
----------------------
   0 C :   -0.365113
   1 C :   -0.114883
   2 O :   -0.247330
   3 P :    0.577457
   4 S :   -0.301368
   5 O :   -0.241679
   6 C :   -0.124295
   7 C :   -0.362147
   8 S :    0.105859
   9 C :   -0.483579
  10 S :    0.084541
  11 P :    0.566258
  12 S :   -0.316120
  13 O :   -0.235382
  14 C :   -0.119722
  15 C :   -0.368212
  16 O :   -0.238588
  17 C :   -0.118700
  18 C :   -0.372489
  19 H :    0.129065
  20 H :    0.121833
  21 H :    0.128467
  22 H :    0.108926
  23 H :    0.120606
  24 H :    0.112718
  25 H :    0.115479
  26 H :    0.121404
  27 H :    0.121388
  28 H :    0.131451
  29 H :    0.140604
  30 H :    0.121728
  31 H :    0.110013
  32 H :    0.117046
  33 H :    0.125439
  34 H :    0.121041
  35 H :    0.131581
  36 H :    0.117458
  37 H :    0.109986
  38 H :    0.119789
  39 H :    0.129803
  40 H :    0.119668

  Mayer bond orders larger than 0.100000
B(  0-C ,  1-C ) :   1.1651 B(  0-C , 19-H ) :   0.9462 B(  0-C , 20-H ) :   0.9336
B(  0-C , 21-H ) :   0.9390 B(  1-C ,  2-O ) :   0.9132 B(  1-C , 22-H ) :   0.9176
B(  1-C , 23-H ) :   0.9354 B(  2-O ,  3-P ) :   1.1148 B(  3-P ,  4-S ) :   1.5960
B(  3-P ,  5-O ) :   1.1018 B(  3-P ,  8-S ) :   0.9699 B(  4-S ,  8-S ) :   0.1162
B(  5-O ,  6-C ) :   0.8987 B(  6-C ,  7-C ) :   1.1605 B(  6-C , 24-H ) :   0.9047
B(  6-C , 25-H ) :   0.9315 B(  7-C , 26-H ) :   0.9407 B(  7-C , 27-H ) :   0.9391
B(  7-C , 28-H ) :   0.9397 B(  8-S ,  9-C ) :   1.0131 B(  9-C , 10-S ) :   0.9801
B(  9-C , 29-H ) :   0.9101 B(  9-C , 30-H ) :   0.8427 B( 10-S , 11-P ) :   0.9701
B( 11-P , 12-S ) :   1.6448 B( 11-P , 13-O ) :   1.0832 B( 11-P , 16-O ) :   1.0897
B( 13-O , 14-C ) :   0.9013 B( 14-C , 15-C ) :   1.1685 B( 14-C , 31-H ) :   0.9179
B( 14-C , 32-H ) :   0.9248 B( 15-C , 33-H ) :   0.9409 B( 15-C , 34-H ) :   0.9350
B( 15-C , 35-H ) :   0.9378 B( 16-O , 17-C ) :   0.9055 B( 17-C , 18-C ) :   1.1664
B( 17-C , 36-H ) :   0.9294 B( 17-C , 37-H ) :   0.9199 B( 18-C , 38-H ) :   0.9380
B( 18-C , 39-H ) :   0.9371 B( 18-C , 40-H ) :   0.9346

Dispersion correction           -0.069708032
FINAL SINGLE POINT ENERGY     -2929.518857552953

DIPOLE MOMENT
-------------

Method             : SCF
Type of density    : Electron Density
Multiplicity       :   1
Irrep              :   0
Energy             : -2929.6384027798831085 Eh
Relativity type    :
Basis              : AO
                                X                 Y                 Z
Electronic contribution:    -12.944067191      -1.925372064     -10.619060413
Nuclear contribution   :     14.152032757       1.602555920      11.067057555
                        -----------------------------------------
Total Dipole Moment    :      1.207965566      -0.322816144       0.447997142
                        -----------------------------------------
Magnitude (a.u.)       :      1.328191444
Magnitude (Debye)      :      3.375994355

Rotational constants in cm-1:             0.012245             0.005701             0.005502
Rotational constants in MHz :           367.094998           170.908040           164.948575

                             ****ORCA TERMINATED NORMALLY****
TOTAL RUN TIME: 0 days 0 hours 0 minutes 22 seconds 569 msec
