                         Program Version 6.0.0  -   RELEASE  -
|  1> ! pbe def2-sv(p) def2/J RI DEFGRID1 loosescf d4 GCP(DFT/SV(P)) printgap
|  2> %output
|  3>     printlevel normal
|  4> end
|  5> * xyz 0 1
|  6> C 2.9106729047 1.1694061142 3.1677067461
|  7> C 1.6007401829 0.578553578 2.6916699506
|  8> O 1.454603412 0.7242785824 1.263976964
|  9> P 2.305244687 -0.1433404229 0.2448159854
| 10> S 2.8541693753 -1.8940535994 0.9470747429
| 11> O 3.4441752159 0.8938686318 -0.139195203
| 12> C 4.2442414892 0.8623153454 -1.3346258596
| 13> C 4.8938690242 -0.4845539294 -1.575834499
| 14> S 1.0580436005 -0.1676268658 -1.4682357258
| 15> C 0.0883996097 -1.614870478 -0.9743585873
| 16> S -1.0205528527 -1.276335095 0.4124838376
| 17> P -2.263011589 0.1203584368 -0.629059499
| 18> S -2.5705693026 -0.2897534788 -2.5139547183
| 19> O -1.6299977921 1.5444283401 -0.4160141633
| 20> C -1.450989873 2.1462621991 0.8904078314
| 21> C -2.5524918405 3.1487385975 1.1633768081
| 22> O -3.5536047228 0.1698529519 0.2938860532
| 23> C -4.4757522952 -0.9395654212 0.3437603809
| 24> C -5.7439932145 -0.4571375792 1.0177367773
| 25> H 3.7403909819 0.6178926867 2.726439134
| 26> H 2.9854919914 2.2111498824 2.868024675
| 27> H 2.9704153066 1.0956251761 4.2488961105
| 28> H 0.7411385782 1.1069919673 3.1052550952
| 29> H 1.5393536468 -0.4854505907 2.9426599777
| 30> H 3.6057942558 1.1402836129 -2.1782162596
| 31> H 4.9904537956 1.6404970226 -1.1637731007
| 32> H 5.552688212 -0.4177573536 -2.43570555
| 33> H 5.4685104067 -0.7911670576 -0.704964395
| 34> H 4.1329632509 -1.2393379297 -1.7710627263
| 35> H 0.7588734397 -2.4131271745 -0.6543108869
| 36> H -0.500296255 -1.9060280137 -1.8441629887
| 37> H -1.4375051129 1.3542686416 1.6444050848
| 38> H -0.4705399214 2.624418916 0.8416045618
| 39> H -2.5745188768 3.8985240081 0.3774152955
| 40> H -3.5157051616 2.6464287552 1.1958478245
| 41> H -2.3658989767 3.6326474068 2.116949811
| 42> H -4.6662989607 -1.2785056033 -0.6795853617
| 43> H -4.0047701798 -1.7495205892 0.9073599405
| 44> H -5.5216428599 -0.102925899 2.0201080841
| 45> H -6.1863071047 0.3532827982 0.4452124979
| 46> H -6.4493488176 -1.2794194311 1.076258681
| 47> *
| 48>
| 49>                          ****END OF INPUT****

CARTESIAN COORDINATES (ANGSTROEM)
---------------------------------
  C      2.910673    1.169406    3.167707
  C      1.600740    0.578554    2.691670
  O      1.454603    0.724279    1.263977
  P      2.305245   -0.143340    0.244816
  S      2.854169   -1.894054    0.947075
  O      3.444175    0.893869   -0.139195
  C      4.244241    0.862315   -1.334626
  C      4.893869   -0.484554   -1.575834
  S      1.058044   -0.167627   -1.468236
  C      0.088400   -1.614870   -0.974359
  S     -1.020553   -1.276335    0.412484
  P     -2.263012    0.120358   -0.629059
  S     -2.570569   -0.289753   -2.513955
  O     -1.629998    1.544428   -0.416014
  C     -1.450990    2.146262    0.890408
  C     -2.552492    3.148739    1.163377
  O     -3.553605    0.169853    0.293886
  C     -4.475752   -0.939565    0.343760
  C     -5.743993   -0.457138    1.017737
  H      3.740391    0.617893    2.726439
  H      2.985492    2.211150    2.868025
  H      2.970415    1.095625    4.248896
  H      0.741139    1.106992    3.105255
  H      1.539354   -0.485451    2.942660
  H      3.605794    1.140284   -2.178216
  H      4.990454    1.640497   -1.163773
  H      5.552688   -0.417757   -2.435706
  H      5.468510   -0.791167   -0.704964
  H      4.132963   -1.239338   -1.771063
  H      0.758873   -2.413127   -0.654311
  H     -0.500296   -1.906028   -1.844163
  H     -1.437505    1.354269    1.644405
  H     -0.470540    2.624419    0.841605
  H     -2.574519    3.898524    0.377415
  H     -3.515705    2.646429    1.195848
  H     -2.365899    3.632647    2.116950
  H     -4.666299   -1.278506   -0.679585
  H     -4.004770   -1.749521    0.907360
  H     -5.521643   -0.102926    2.020108
  H     -6.186307    0.353283    0.445212
  H     -6.449349   -1.279419    1.076259

 Total Charge           Charge          ....    0
 Multiplicity           Mult            ....    1
 Number of Electrons    NEL             ....  202
 Basis Dimension        Dim             ....  334

ORBITAL ENERGIES
----------------

  NO   OCC          E(Eh)            E(eV)
   0   2.0000     -88.042965     -2395.7709
   1   2.0000     -88.039494     -2395.6764
   2   2.0000     -87.988561     -2394.2905
   3   2.0000     -87.984081     -2394.1686
   4   2.0000     -76.428465     -2079.7243
   5   2.0000     -76.425115     -2079.6331
   6   2.0000     -18.797857      -511.5157
   7   2.0000     -18.795598      -511.4542
   8   2.0000     -18.790826      -511.3244
   9   2.0000     -18.790795      -511.3235
  10   2.0000      -9.959807      -271.0201
  11   2.0000      -9.956180      -270.9214
  12   2.0000      -9.953473      -270.8478
  13   2.0000      -9.951862      -270.8039
  14   2.0000      -9.951365      -270.7904
  15   2.0000      -9.891951      -269.1737
  16   2.0000      -9.885971      -269.0109
  17   2.0000      -9.884531      -268.9718
  18   2.0000      -9.884458      -268.9698
  19   2.0000      -7.687965      -209.2002
  20   2.0000      -7.684441      -209.1043
  21   2.0000      -7.633507      -207.7183
  22   2.0000      -7.629443      -207.6077
  23   2.0000      -6.425806      -174.8551
  24   2.0000      -6.422732      -174.7714
  25   2.0000      -5.715703      -155.5322
  26   2.0000      -5.712575      -155.4471
  27   2.0000      -5.712129      -155.4349
  28   2.0000      -5.709040      -155.3509
  29   2.0000      -5.704989      -155.2406
  30   2.0000      -5.701565      -155.1475
  31   2.0000      -5.662336      -154.0800
  32   2.0000      -5.658431      -153.9737
  33   2.0000      -5.654225      -153.8593
  34   2.0000      -5.653671      -153.8442
  35   2.0000      -5.649936      -153.7426
  36   2.0000      -5.649609      -153.7337
  37   2.0000      -4.648288      -126.4863
  38   2.0000      -4.647700      -126.4704
  39   2.0000      -4.646252      -126.4310
  40   2.0000      -4.645662      -126.4149
  41   2.0000      -4.644492      -126.3830
  42   2.0000      -4.642846      -126.3382
  43   2.0000      -0.990638       -26.9566
  44   2.0000      -0.988673       -26.9032
  45   2.0000      -0.947498       -25.7827
  46   2.0000      -0.946651       -25.7597
  47   2.0000      -0.764201       -20.7950
  48   2.0000      -0.722242       -19.6532
  49   2.0000      -0.711437       -19.3592
  50   2.0000      -0.694023       -18.8853
  51   2.0000      -0.688932       -18.7468
  52   2.0000      -0.674870       -18.3642
  53   2.0000      -0.650623       -17.7044
  54   2.0000      -0.638432       -17.3726
  55   2.0000      -0.599504       -16.3133
  56   2.0000      -0.589087       -16.0299
  57   2.0000      -0.575552       -15.6616
  58   2.0000      -0.570917       -15.5355
  59   2.0000      -0.564765       -15.3680
  60   2.0000      -0.511308       -13.9134
  61   2.0000      -0.495726       -13.4894
  62   2.0000      -0.482395       -13.1266
  63   2.0000      -0.471668       -12.8347
  64   2.0000      -0.461076       -12.5465
  65   2.0000      -0.446289       -12.1441
  66   2.0000      -0.441435       -12.0121
  67   2.0000      -0.438629       -11.9357
  68   2.0000      -0.431536       -11.7427
  69   2.0000      -0.418556       -11.3895
  70   2.0000      -0.408465       -11.1149
  71   2.0000      -0.395507       -10.7623
  72   2.0000      -0.390211       -10.6182
  73   2.0000      -0.386373       -10.5138
  74   2.0000      -0.382617       -10.4115
  75   2.0000      -0.377710       -10.2780
  76   2.0000      -0.368545       -10.0286
  77   2.0000      -0.360214        -9.8019
  78   2.0000      -0.353765        -9.6264
  79   2.0000      -0.351137        -9.5549
  80   2.0000      -0.348339        -9.4788
  81   2.0000      -0.347539        -9.4570
  82   2.0000      -0.344808        -9.3827
  83   2.0000      -0.342674        -9.3246
  84   2.0000      -0.336254        -9.1499
  85   2.0000      -0.322427        -8.7737
  86   2.0000      -0.312818        -8.5122
  87   2.0000      -0.303282        -8.2527
  88   2.0000      -0.299215        -8.1420
  89   2.0000      -0.294352        -8.0097
  90   2.0000      -0.289296        -7.8721
  91   2.0000      -0.278349        -7.5743
  92   2.0000      -0.272929        -7.4268
  93   2.0000      -0.265292        -7.2190
  94   2.0000      -0.256186        -6.9712
  95   2.0000      -0.233775        -6.3613
  96   2.0000      -0.218693        -5.9509
  97   2.0000      -0.211348        -5.7511
  98   2.0000      -0.204122        -5.5544
  99   2.0000      -0.200777        -5.4634
 100   2.0000      -0.198036        -5.3888
 101   0.0000      -0.044507        -1.2111
 102   0.0000      -0.023401        -0.6368
 103   0.0000      -0.003674        -0.1000
 104   0.0000       0.002003         0.0545
 105   0.0000       0.011365         0.3093

MULLIKEN ATOMIC CHARGES
-----------------------
   0 C :   -0.299156
   1 C :   -0.012044
   2 O :   -0.358932
   3 P :    0.612278
   4 S :   -0.334826
   5 O :   -0.373941
   6 C :   -0.011475
   7 C :   -0.311899
   8 S :   -0.073371
   9 C :   -0.368674
  10 S :   -0.099062
  11 P :    0.599958
  12 S :   -0.315243
  13 O :   -0.346720
  14 C :   -0.022688
  15 C :   -0.284067
  16 O :   -0.385542
  17 C :   -0.011851
  18 C :   -0.282474
  19 H :    0.124224
  20 H :    0.113361
  21 H :    0.110691
  22 H :    0.099819
  23 H :    0.115531
  24 H :    0.117664
  25 H :    0.109742
  26 H :    0.112889
  27 H :    0.125898
  28 H :    0.126836
  29 H :    0.192437
  30 H :    0.195407
  31 H :    0.104818
  32 H :    0.118247
  33 H :    0.120192
  34 H :    0.119269
  35 H :    0.106388
  36 H :    0.108026
  37 H :    0.105543
  38 H :    0.115202
  39 H :    0.122930
  40 H :    0.114617
Sum of atomic charges:   -0.0000000

LOEWDIN ATOMIC CHARGES
----------------------
   0 C :   -0.363156
   1 C :   -0.120755
   2 O :   -0.237682
   3 P :    0.574445
   4 S :   -0.317955
   5 O :   -0.244115
   6 C :   -0.113342
   7 C :   -0.369719
   8 S :    0.092608
   9 C :   -0.485612
  10 S :    0.062261
  11 P :    0.567347
  12 S :   -0.311399
  13 O :   -0.227980
  14 C :   -0.113844
  15 C :   -0.358434
  16 O :   -0.250324
  17 C :   -0.119727
  18 C :   -0.350559
  19 H :    0.123603
  20 H :    0.124934
  21 H :    0.129870
  22 H :    0.112462
  23 H :    0.109785
  24 H :    0.111735
  25 H :    0.121755
  26 H :    0.130755
  27 H :    0.129289
  28 H :    0.121724
  29 H :    0.127992
  30 H :    0.129588
  31 H :    0.103405
  32 H :    0.120901
  33 H :    0.129118
  34 H :    0.125220
  35 H :    0.127930
  36 H :    0.111322
  37 H :    0.109184
  38 H :    0.125581
  39 H :    0.129550
  40 H :    0.132237

  Mayer bond orders larger than 0.100000
B(  0-C ,  1-C ) :   1.1649 B(  0-C , 19-H ) :   0.9350 B(  0-C , 20-H ) :   0.9469
B(  0-C , 21-H ) :   0.9396 B(  1-C ,  2-O ) :   0.9029 B(  1-C , 22-H ) :   0.9287
B(  1-C , 23-H ) :   0.9109 B(  2-O ,  3-P ) :   1.1145 B(  3-P ,  4-S ) :   1.5911
B(  3-P ,  5-O ) :   1.1142 B(  3-P ,  8-S ) :   0.9562 B(  4-S ,  8-S ) :   0.1097
B(  5-O ,  6-C ) :   0.9123 B(  6-C ,  7-C ) :   1.1644 B(  6-C , 24-H ) :   0.9281
B(  6-C , 25-H ) :   0.9342 B(  7-C , 26-H ) :   0.9348 B(  7-C , 27-H ) :   0.9427
B(  7-C , 28-H ) :   0.9331 B(  8-S ,  9-C ) :   1.0080 B(  9-C , 10-S ) :   1.0075
B(  9-C , 29-H ) :   0.8732 B(  9-C , 30-H ) :   0.8758 B( 10-S , 11-P ) :   0.9452
B( 10-S , 12-S ) :   0.1105 B( 11-P , 12-S ) :   1.6511 B( 11-P , 13-O ) :   1.1489
B( 11-P , 16-O ) :   1.0756 B( 13-O , 14-C ) :   0.8888 B( 14-C , 15-C ) :   1.1562
B( 14-C , 31-H ) :   0.9113 B( 14-C , 32-H ) :   0.9303 B( 15-C , 33-H ) :   0.9466
B( 15-C , 34-H ) :   0.9421 B( 15-C , 35-H ) :   0.9408 B( 16-O , 17-C ) :   0.9033
B( 17-C , 18-C ) :   1.1593 B( 17-C , 36-H ) :   0.9119 B( 17-C , 37-H ) :   0.9270
B( 18-C , 38-H ) :   0.9508 B( 18-C , 39-H ) :   0.9506 B( 18-C , 40-H ) :   0.9417

Dispersion correction           -0.064895316
FINAL SINGLE POINT ENERGY     -2929.522171175316

DIPOLE MOMENT
-------------

Method             : SCF
Type of density    : Electron Density
Multiplicity       :   1
Irrep              :   0
Energy             : -2929.6423888501481088 Eh
Relativity type    :
Basis              : AO
                                X                 Y                 Z
Electronic contribution:      1.155077862      -9.428298448     -13.452804352
Nuclear contribution   :     -1.183395103      10.174660909      14.586089435
                        -----------------------------------------
Total Dipole Moment    :     -0.028317241       0.746362461       1.133285083
                        -----------------------------------------
Magnitude (a.u.)       :      1.357274426
Magnitude (Debye)      :      3.449917423

Rotational constants in cm-1:             0.013023             0.004766             0.004368
Rotational constants in MHz :           390.407335           142.866298           130.953280

                             ****ORCA TERMINATED NORMALLY****
TOTAL RUN TIME: 0 days 0 hours 0 minutes 21 seconds 658 msec
