                         Program Version 6.0.0  -   RELEASE  -
|  1> ! pbe def2-sv(p) def2/J RI DEFGRID1 loosescf d4 GCP(DFT/SV(P)) printgap
|  2> %output
|  3>     printlevel normal
|  4> end
|  5> * xyz 0 1
|  6> C 3.8434157165 -0.4146358752 -2.3348144191
|  7> C 2.5454070897 0.3501022387 -2.1938239367
|  8> O 1.8121365464 -0.0816430515 -1.0324806548
|  9> P 2.2749680553 0.26968302 0.4370103724
| 10> S 3.2955287026 1.9243107665 0.666800624
| 11> O 2.9911572365 -1.0987603459 0.8473240732
| 12> C 3.5797419031 -1.2773735412 2.150391602
| 13> C 5.0542623784 -0.9245473972 2.1345188641
| 14> S 0.4521914622 0.2198041301 1.4831362147
| 15> C -0.2308421514 -1.3562227315 0.8244551327
| 16> S -2.0245739808 -1.3247219703 0.8710028761
| 17> P -2.3040984592 0.1010666691 -0.695723378
| 18> S -1.1651056338 -0.1981479804 -2.2610798783
| 19> O -2.0385827757 1.5588558166 -0.155780668
| 20> C -2.8867821841 2.3270607657 0.7324518805
| 21> C -3.0122465552 1.7084750434 2.1093742638
| 22> O -3.8780292244 0.1121449622 -0.897163699
| 23> C -4.7058485546 -1.0599724737 -1.0244855145
| 24> C -4.2640611281 -1.9686853185 -2.151913814
| 25> H 3.6492547805 -1.4837257646 -2.3497973921
| 26> H 4.3354925093 -0.1214585165 -3.2566194003
| 27> H 4.4950243986 -0.1834595436 -1.4926574566
| 28> H 1.8559952239 0.1594774236 -3.0186696885
| 29> H 2.7327995467 1.4253503914 -2.1082578336
| 30> H 3.0385841436 -0.6622160403 2.8771068702
| 31> H 3.4287679904 -2.3341305036 2.3793839738
| 32> H 5.479864705 -1.1230454042 3.1128101201
| 33> H 5.572545269 -1.5205313304 1.3885899996
| 34> H 5.1867963021 0.1289223704 1.8978108094
| 35> H 0.0883930712 -2.1790749803 1.4580500364
| 36> H 0.1032314648 -1.473905786 -0.2066003264
| 37> H -2.3822930755 3.2938248729 0.7751611907
| 38> H -3.8635810721 2.4367230941 0.2578322182
| 39> H -3.5287988631 2.4070178819 2.7602954956
| 40> H -3.5792396667 0.7813363509 2.0655909305
| 41> H -2.0261080414 1.5011751774 2.520608458
| 42> H -4.6908108478 -1.5930752466 -0.0701009172
| 43> H -5.7008460145 -0.6505084519 -1.2077903642
| 44> H -3.2755102156 -2.3742284755 -1.9419207207
| 45> H -4.9691460903 -2.7874080088 -2.2522581679
| 46> H -4.215908225 -1.4171987429 -3.0879982326
| 47> *
| 48>
| 49>                          ****END OF INPUT****

CARTESIAN COORDINATES (ANGSTROEM)
---------------------------------
  C      3.843416   -0.414636   -2.334814
  C      2.545407    0.350102   -2.193824
  O      1.812137   -0.081643   -1.032481
  P      2.274968    0.269683    0.437010
  S      3.295529    1.924311    0.666801
  O      2.991157   -1.098760    0.847324
  C      3.579742   -1.277374    2.150392
  C      5.054262   -0.924547    2.134519
  S      0.452191    0.219804    1.483136
  C     -0.230842   -1.356223    0.824455
  S     -2.024574   -1.324722    0.871003
  P     -2.304098    0.101067   -0.695723
  S     -1.165106   -0.198148   -2.261080
  O     -2.038583    1.558856   -0.155781
  C     -2.886782    2.327061    0.732452
  C     -3.012247    1.708475    2.109374
  O     -3.878029    0.112145   -0.897164
  C     -4.705849   -1.059972   -1.024486
  C     -4.264061   -1.968685   -2.151914
  H      3.649255   -1.483726   -2.349797
  H      4.335493   -0.121459   -3.256619
  H      4.495024   -0.183460   -1.492657
  H      1.855995    0.159477   -3.018670
  H      2.732800    1.425350   -2.108258
  H      3.038584   -0.662216    2.877107
  H      3.428768   -2.334131    2.379384
  H      5.479865   -1.123045    3.112810
  H      5.572545   -1.520531    1.388590
  H      5.186796    0.128922    1.897811
  H      0.088393   -2.179075    1.458050
  H      0.103231   -1.473906   -0.206600
  H     -2.382293    3.293825    0.775161
  H     -3.863581    2.436723    0.257832
  H     -3.528799    2.407018    2.760295
  H     -3.579240    0.781336    2.065591
  H     -2.026108    1.501175    2.520608
  H     -4.690811   -1.593075   -0.070101
  H     -5.700846   -0.650508   -1.207790
  H     -3.275510   -2.374228   -1.941921
  H     -4.969146   -2.787408   -2.252258
  H     -4.215908   -1.417199   -3.087998

 Total Charge           Charge          ....    0
 Multiplicity           Mult            ....    1
 Number of Electrons    NEL             ....  202
 Basis Dimension        Dim             ....  334

ORBITAL ENERGIES
----------------

  NO   OCC          E(Eh)            E(eV)
   0   2.0000     -88.050477     -2395.9753
   1   2.0000     -88.038004     -2395.6359
   2   2.0000     -87.983584     -2394.1550
   3   2.0000     -87.979412     -2394.0415
   4   2.0000     -76.427479     -2079.6974
   5   2.0000     -76.421304     -2079.5294
   6   2.0000     -18.800367      -511.5840
   7   2.0000     -18.787316      -511.2289
   8   2.0000     -18.786659      -511.2110
   9   2.0000     -18.783374      -511.1216
  10   2.0000      -9.964620      -271.1511
  11   2.0000      -9.956151      -270.9206
  12   2.0000      -9.953638      -270.8523
  13   2.0000      -9.952679      -270.8262
  14   2.0000      -9.942766      -270.5564
  15   2.0000      -9.886618      -269.0286
  16   2.0000      -9.886010      -269.0120
  17   2.0000      -9.879124      -268.8246
  18   2.0000      -9.877135      -268.7705
  19   2.0000      -7.695276      -209.3991
  20   2.0000      -7.683070      -209.0670
  21   2.0000      -7.628741      -207.5886
  22   2.0000      -7.624592      -207.4757
  23   2.0000      -6.424446      -174.8181
  24   2.0000      -6.419144      -174.6738
  25   2.0000      -5.722988      -155.7304
  26   2.0000      -5.719756      -155.6425
  27   2.0000      -5.712503      -155.4451
  28   2.0000      -5.711451      -155.4165
  29   2.0000      -5.707348      -155.3048
  30   2.0000      -5.699774      -155.0987
  31   2.0000      -5.657744      -153.9550
  32   2.0000      -5.653680      -153.8445
  33   2.0000      -5.649384      -153.7276
  34   2.0000      -5.648803      -153.7117
  35   2.0000      -5.645104      -153.6111
  36   2.0000      -5.644658      -153.5990
  37   2.0000      -4.647496      -126.4648
  38   2.0000      -4.646404      -126.4351
  39   2.0000      -4.644358      -126.3794
  40   2.0000      -4.641458      -126.3005
  41   2.0000      -4.641160      -126.2924
  42   2.0000      -4.639614      -126.2503
  43   2.0000      -0.990452       -26.9516
  44   2.0000      -0.981733       -26.7143
  45   2.0000      -0.944642       -25.7050
  46   2.0000      -0.940152       -25.5828
  47   2.0000      -0.764375       -20.7997
  48   2.0000      -0.720903       -19.6168
  49   2.0000      -0.709646       -19.3104
  50   2.0000      -0.693367       -18.8675
  51   2.0000      -0.682103       -18.5610
  52   2.0000      -0.673185       -18.3183
  53   2.0000      -0.651910       -17.7394
  54   2.0000      -0.636427       -17.3181
  55   2.0000      -0.592415       -16.1204
  56   2.0000      -0.589884       -16.0516
  57   2.0000      -0.582815       -15.8592
  58   2.0000      -0.566470       -15.4144
  59   2.0000      -0.561115       -15.2687
  60   2.0000      -0.500782       -13.6270
  61   2.0000      -0.496586       -13.5128
  62   2.0000      -0.472304       -12.8520
  63   2.0000      -0.469965       -12.7884
  64   2.0000      -0.456115       -12.4115
  65   2.0000      -0.445501       -12.1227
  66   2.0000      -0.437836       -11.9141
  67   2.0000      -0.434944       -11.8354
  68   2.0000      -0.432626       -11.7724
  69   2.0000      -0.416006       -11.3201
  70   2.0000      -0.412360       -11.2209
  71   2.0000      -0.407737       -11.0951
  72   2.0000      -0.397773       -10.8239
  73   2.0000      -0.387976       -10.5574
  74   2.0000      -0.380814       -10.3625
  75   2.0000      -0.366987        -9.9862
  76   2.0000      -0.355747        -9.6804
  77   2.0000      -0.355292        -9.6680
  78   2.0000      -0.354713        -9.6522
  79   2.0000      -0.348789        -9.4910
  80   2.0000      -0.344502        -9.3744
  81   2.0000      -0.342373        -9.3165
  82   2.0000      -0.340597        -9.2681
  83   2.0000      -0.334808        -9.1106
  84   2.0000      -0.328699        -8.9444
  85   2.0000      -0.323341        -8.7986
  86   2.0000      -0.315696        -8.5905
  87   2.0000      -0.301054        -8.1921
  88   2.0000      -0.293663        -7.9910
  89   2.0000      -0.289108        -7.8670
  90   2.0000      -0.282516        -7.6876
  91   2.0000      -0.278648        -7.5824
  92   2.0000      -0.269365        -7.3298
  93   2.0000      -0.262343        -7.1387
  94   2.0000      -0.256556        -6.9812
  95   2.0000      -0.235853        -6.4179
  96   2.0000      -0.218289        -5.9399
  97   2.0000      -0.204590        -5.5672
  98   2.0000      -0.197643        -5.3782
  99   2.0000      -0.195985        -5.3330
 100   2.0000      -0.193000        -5.2518
 101   0.0000      -0.045723        -1.2442
 102   0.0000      -0.020363        -0.5541
 103   0.0000      -0.018229        -0.4960
 104   0.0000       0.001131         0.0308
 105   0.0000       0.013744         0.3740

MULLIKEN ATOMIC CHARGES
-----------------------
   0 C :   -0.306341
   1 C :   -0.002326
   2 O :   -0.362449
   3 P :    0.614061
   4 S :   -0.323826
   5 O :   -0.381417
   6 C :   -0.012706
   7 C :   -0.291695
   8 S :   -0.088202
   9 C :   -0.353135
  10 S :   -0.124241
  11 P :    0.612671
  12 S :   -0.306859
  13 O :   -0.346685
  14 C :    0.006136
  15 C :   -0.325237
  16 O :   -0.382010
  17 C :   -0.017027
  18 C :   -0.307127
  19 H :    0.114384
  20 H :    0.110686
  21 H :    0.121040
  22 H :    0.111799
  23 H :    0.113426
  24 H :    0.099129
  25 H :    0.102282
  26 H :    0.106050
  27 H :    0.113047
  28 H :    0.130601
  29 H :    0.179611
  30 H :    0.215653
  31 H :    0.113939
  32 H :    0.107739
  33 H :    0.112625
  34 H :    0.116492
  35 H :    0.135962
  36 H :    0.115305
  37 H :    0.111264
  38 H :    0.126992
  39 H :    0.111994
  40 H :    0.128394
Sum of atomic charges:   -0.0000000

LOEWDIN ATOMIC CHARGES
----------------------
   0 C :   -0.364840
   1 C :   -0.114437
   2 O :   -0.229466
   3 P :    0.565785
   4 S :   -0.319396
   5 O :   -0.253935
   6 C :   -0.118754
   7 C :   -0.364317
   8 S :    0.077374
   9 C :   -0.475209
  10 S :    0.075757
  11 P :    0.570294
  12 S :   -0.301531
  13 O :   -0.229686
  14 C :   -0.108307
  15 C :   -0.371452
  16 O :   -0.244518
  17 C :   -0.114584
  18 C :   -0.369002
  19 H :    0.125387
  20 H :    0.129842
  21 H :    0.121262
  22 H :    0.117956
  23 H :    0.111943
  24 H :    0.105879
  25 H :    0.115695
  26 H :    0.127983
  27 H :    0.124794
  28 H :    0.124728
  29 H :    0.132465
  30 H :    0.130209
  31 H :    0.124881
  32 H :    0.113190
  33 H :    0.130797
  34 H :    0.114494
  35 H :    0.124405
  36 H :    0.107759
  37 H :    0.122176
  38 H :    0.122092
  39 H :    0.130517
  40 H :    0.131770

  Mayer bond orders larger than 0.100000
B(  0-C ,  1-C ) :   1.1616 B(  0-C , 19-H ) :   0.9469 B(  0-C , 20-H ) :   0.9393
B(  0-C , 21-H ) :   0.9351 B(  1-C ,  2-O ) :   0.8998 B(  1-C , 22-H ) :   0.9280
B(  1-C , 23-H ) :   0.9178 B(  2-O ,  3-P ) :   1.1273 B(  3-P ,  4-S ) :   1.6362
B(  3-P ,  5-O ) :   1.0676 B(  3-P ,  8-S ) :   0.9819 B(  5-O ,  6-C ) :   0.9125
B(  6-C ,  7-C ) :   1.1689 B(  6-C , 24-H ) :   0.9117 B(  6-C , 25-H ) :   0.9357
B(  7-C , 26-H ) :   0.9395 B(  7-C , 27-H ) :   0.9462 B(  7-C , 28-H ) :   0.9306
B(  8-S ,  9-C ) :   0.9567 B(  9-C , 10-S ) :   1.0270 B(  9-C , 29-H ) :   0.9096
B(  9-C , 30-H ) :   0.8565 B( 10-S , 11-P ) :   0.9142 B( 10-S , 12-S ) :   0.1108
B( 11-P , 12-S ) :   1.6644 B( 11-P , 13-O ) :   1.1459 B( 11-P , 16-O ) :   1.0805
B( 13-O , 14-C ) :   0.8981 B( 14-C , 15-C ) :   1.1684 B( 14-C , 31-H ) :   0.9340
B( 14-C , 32-H ) :   0.9289 B( 15-C , 33-H ) :   0.9356 B( 15-C , 34-H ) :   0.9409
B( 15-C , 35-H ) :   0.9379 B( 16-O , 17-C ) :   0.9116 B( 17-C , 18-C ) :   1.1672
B( 17-C , 36-H ) :   0.9256 B( 17-C , 37-H ) :   0.9332 B( 18-C , 38-H ) :   0.9312
B( 18-C , 39-H ) :   0.9346 B( 18-C , 40-H ) :   0.9430

Dispersion correction           -0.064701171
FINAL SINGLE POINT ENERGY     -2929.512412242200

DIPOLE MOMENT
-------------

Method             : SCF
Type of density    : Electron Density
Multiplicity       :   1
Irrep              :   0
Energy             : -2929.6331069364800896 Eh
Relativity type    :
Basis              : AO
                                X                 Y                 Z
Electronic contribution:     -2.739390474       6.570105923      -0.024909381
Nuclear contribution   :      1.620651705      -7.631709710       0.660449426
                        -----------------------------------------
Total Dipole Moment    :     -1.118738769      -1.061603788       0.635540045
                        -----------------------------------------
Magnitude (a.u.)       :      1.668079790
Magnitude (Debye)      :      4.239921873

Rotational constants in cm-1:             0.013439             0.004596             0.004286
Rotational constants in MHz :           402.883948           137.790080           128.489260

                             ****ORCA TERMINATED NORMALLY****
TOTAL RUN TIME: 0 days 0 hours 0 minutes 20 seconds 554 msec
