                         Program Version 6.0.0  -   RELEASE  -
|  1> ! pbe def2-sv(p) def2/J RI DEFGRID1 loosescf d4 GCP(DFT/SV(P)) printgap
|  2> %output
|  3>     printlevel normal
|  4> end
|  5> * xyz 0 1
|  6> C 4.4764493688 -0.0632220968 -1.8502483889
|  7> C 3.1183902972 -0.7018850219 -2.0506767166
|  8> O 2.5471677475 -1.1356044589 -0.8009549351
|  9> P 2.0194429523 -0.1225308266 0.2950903443
| 10> S 1.3965978167 1.6321841908 -0.3621917739
| 11> O 3.2770800892 0.0176045389 1.2607064217
| 12> C 3.3760355958 1.0479130897 2.2560183374
| 13> C 2.38762907 0.8328419833 3.3842707016
| 14> S 0.7914313822 -1.4400690848 1.3891135514
| 15> C -0.2830519407 -2.1377287991 0.0843412639
| 16> S -0.5547515733 -1.0611860798 -1.3473127199
| 17> P -1.9722610175 0.2695711393 -0.5305326709
| 18> S -2.5116516653 1.7949597663 -1.6311534827
| 19> O -1.2811663759 0.5859044407 0.8577036637
| 20> C -1.7688171347 1.6230184292 1.7345180517
| 21> C -2.6420841877 1.0321729337 2.8213064169
| 22> O -3.1889883269 -0.6542082521 -0.0599778302
| 23> C -4.3106760785 -0.9278737325 -0.913962547
| 24> C -3.934877889 -1.8276364874 -2.0739824249
| 25> H 4.3685257723 0.8629858884 -1.2868289754
| 26> H 5.1287408948 -0.7356508277 -1.2995200822
| 27> H 4.916234187 0.1609800739 -2.816939583
| 28> H 3.1800228736 -1.6167397242 -2.6412808985
| 29> H 2.4237610917 -0.001319983 -2.5265344919
| 30> H 4.4080457181 0.9836419461 2.6030531905
| 31> H 3.2048430253 2.0153854707 1.7713738371
| 32> H 2.5142128618 -0.1575810307 3.8137421209
| 33> H 2.5412804633 1.5853870678 4.1509565766
| 34> H 1.3706088089 0.9174542568 3.0007995437
| 35> H -1.2354056083 -2.3660436428 0.5587028369
| 36> H 0.1911922173 -3.0329435285 -0.3110738954
| 37> H -0.8686441475 2.0872836431 2.144452899
| 38> H -2.3086228181 2.3648387089 1.1359546748
| 39> H -3.5307797607 0.5825476343 2.3855527085
| 40> H -2.0903180884 0.2699308285 3.3650746757
| 41> H -2.9381228242 1.8213025727 3.505136359
| 42> H -5.0376052298 -1.4020421562 -0.2531419393
| 43> H -4.7034266558 0.0253722711 -1.2816886481
| 44> H -4.8249743542 -2.0608511805 -2.6492816739
| 45> H -3.2213326741 -1.3171525825 -2.7207329
| 46> H -3.4862336498 -2.7499520008 -1.7145071737
| 47> *
| 48>
| 49>                          ****END OF INPUT****

CARTESIAN COORDINATES (ANGSTROEM)
---------------------------------
  C      4.476449   -0.063222   -1.850248
  C      3.118390   -0.701885   -2.050677
  O      2.547168   -1.135604   -0.800955
  P      2.019443   -0.122531    0.295090
  S      1.396598    1.632184   -0.362192
  O      3.277080    0.017605    1.260706
  C      3.376036    1.047913    2.256018
  C      2.387629    0.832842    3.384271
  S      0.791431   -1.440069    1.389114
  C     -0.283052   -2.137729    0.084341
  S     -0.554752   -1.061186   -1.347313
  P     -1.972261    0.269571   -0.530533
  S     -2.511652    1.794960   -1.631153
  O     -1.281166    0.585904    0.857704
  C     -1.768817    1.623018    1.734518
  C     -2.642084    1.032173    2.821306
  O     -3.188988   -0.654208   -0.059978
  C     -4.310676   -0.927874   -0.913963
  C     -3.934878   -1.827636   -2.073982
  H      4.368526    0.862986   -1.286829
  H      5.128741   -0.735651   -1.299520
  H      4.916234    0.160980   -2.816940
  H      3.180023   -1.616740   -2.641281
  H      2.423761   -0.001320   -2.526534
  H      4.408046    0.983642    2.603053
  H      3.204843    2.015385    1.771374
  H      2.514213   -0.157581    3.813742
  H      2.541280    1.585387    4.150957
  H      1.370609    0.917454    3.000800
  H     -1.235406   -2.366044    0.558703
  H      0.191192   -3.032944   -0.311074
  H     -0.868644    2.087284    2.144453
  H     -2.308623    2.364839    1.135955
  H     -3.530780    0.582548    2.385553
  H     -2.090318    0.269931    3.365075
  H     -2.938123    1.821303    3.505136
  H     -5.037605   -1.402042   -0.253142
  H     -4.703427    0.025372   -1.281689
  H     -4.824974   -2.060851   -2.649282
  H     -3.221333   -1.317153   -2.720733
  H     -3.486234   -2.749952   -1.714507

 Total Charge           Charge          ....    0
 Multiplicity           Mult            ....    1
 Number of Electrons    NEL             ....  202
 Basis Dimension        Dim             ....  334

ORBITAL ENERGIES
----------------

  NO   OCC          E(Eh)            E(eV)
   0   2.0000     -88.046556     -2395.8686
   1   2.0000     -88.036951     -2395.6072
   2   2.0000     -87.984116     -2394.1695
   3   2.0000     -87.978488     -2394.0164
   4   2.0000     -76.423599     -2079.5919
   5   2.0000     -76.423018     -2079.5761
   6   2.0000     -18.791139      -511.3329
   7   2.0000     -18.788799      -511.2692
   8   2.0000     -18.788127      -511.2509
   9   2.0000     -18.784256      -511.1456
  10   2.0000      -9.961421      -271.0640
  11   2.0000      -9.950838      -270.7761
  12   2.0000      -9.949631      -270.7432
  13   2.0000      -9.947630      -270.6888
  14   2.0000      -9.946113      -270.6475
  15   2.0000      -9.886040      -269.0128
  16   2.0000      -9.884482      -268.9704
  17   2.0000      -9.881963      -268.9019
  18   2.0000      -9.879696      -268.8402
  19   2.0000      -7.691174      -209.2875
  20   2.0000      -7.682220      -209.0438
  21   2.0000      -7.629305      -207.6039
  22   2.0000      -7.623113      -207.4354
  23   2.0000      -6.421260      -174.7314
  24   2.0000      -6.419993      -174.6969
  25   2.0000      -5.719508      -155.6357
  26   2.0000      -5.715467      -155.5258
  27   2.0000      -5.710488      -155.3903
  28   2.0000      -5.707885      -155.3194
  29   2.0000      -5.706792      -155.2897
  30   2.0000      -5.698666      -155.0686
  31   2.0000      -5.658249      -153.9688
  32   2.0000      -5.652129      -153.8022
  33   2.0000      -5.650127      -153.7478
  34   2.0000      -5.649238      -153.7236
  35   2.0000      -5.643774      -153.5749
  36   2.0000      -5.643215      -153.5597
  37   2.0000      -4.643646      -126.3600
  38   2.0000      -4.643223      -126.3485
  39   2.0000      -4.642623      -126.3322
  40   2.0000      -4.641845      -126.3110
  41   2.0000      -4.641694      -126.3069
  42   2.0000      -4.640405      -126.2719
  43   2.0000      -0.984073       -26.7780
  44   2.0000      -0.983221       -26.7548
  45   2.0000      -0.943738       -25.6804
  46   2.0000      -0.941729       -25.6258
  47   2.0000      -0.763760       -20.7830
  48   2.0000      -0.718266       -19.5450
  49   2.0000      -0.705327       -19.1929
  50   2.0000      -0.685954       -18.6658
  51   2.0000      -0.684609       -18.6292
  52   2.0000      -0.671667       -18.2770
  53   2.0000      -0.651073       -17.7166
  54   2.0000      -0.635412       -17.2904
  55   2.0000      -0.598505       -16.2861
  56   2.0000      -0.591608       -16.0985
  57   2.0000      -0.570757       -15.5311
  58   2.0000      -0.570436       -15.5224
  59   2.0000      -0.563167       -15.3246
  60   2.0000      -0.496095       -13.4994
  61   2.0000      -0.490126       -13.3370
  62   2.0000      -0.471775       -12.8376
  63   2.0000      -0.470764       -12.8101
  64   2.0000      -0.457589       -12.4516
  65   2.0000      -0.440364       -11.9829
  66   2.0000      -0.438638       -11.9359
  67   2.0000      -0.435922       -11.8621
  68   2.0000      -0.423071       -11.5123
  69   2.0000      -0.416920       -11.3450
  70   2.0000      -0.412229       -11.2173
  71   2.0000      -0.395530       -10.7629
  72   2.0000      -0.390433       -10.6242
  73   2.0000      -0.384187       -10.4542
  74   2.0000      -0.381966       -10.3938
  75   2.0000      -0.374642       -10.1945
  76   2.0000      -0.369005       -10.0411
  77   2.0000      -0.358777        -9.7628
  78   2.0000      -0.354318        -9.6415
  79   2.0000      -0.351726        -9.5709
  80   2.0000      -0.347238        -9.4488
  81   2.0000      -0.345594        -9.4041
  82   2.0000      -0.342412        -9.3175
  83   2.0000      -0.335302        -9.1240
  84   2.0000      -0.326606        -8.8874
  85   2.0000      -0.317510        -8.6399
  86   2.0000      -0.311832        -8.4854
  87   2.0000      -0.295818        -8.0496
  88   2.0000      -0.293005        -7.9731
  89   2.0000      -0.285023        -7.7559
  90   2.0000      -0.278945        -7.5905
  91   2.0000      -0.273155        -7.4329
  92   2.0000      -0.269851        -7.3430
  93   2.0000      -0.261719        -7.1217
  94   2.0000      -0.258940        -7.0461
  95   2.0000      -0.230062        -6.2603
  96   2.0000      -0.217459        -5.9174
  97   2.0000      -0.207286        -5.6405
  98   2.0000      -0.198943        -5.4135
  99   2.0000      -0.192146        -5.2286
 100   2.0000      -0.185950        -5.0599
 101   0.0000      -0.049745        -1.3536
 102   0.0000      -0.025544        -0.6951
 103   0.0000      -0.015543        -0.4230
 104   0.0000      -0.001394        -0.0379
 105   0.0000       0.019724         0.5367

MULLIKEN ATOMIC CHARGES
-----------------------
   0 C :   -0.302934
   1 C :   -0.003173
   2 O :   -0.374478
   3 P :    0.609812
   4 S :   -0.314806
   5 O :   -0.369093
   6 C :    0.000005
   7 C :   -0.343024
   8 S :   -0.102632
   9 C :   -0.317437
  10 S :   -0.081662
  11 P :    0.626932
  12 S :   -0.308211
  13 O :   -0.365026
  14 C :   -0.010724
  15 C :   -0.291486
  16 O :   -0.382948
  17 C :   -0.006307
  18 C :   -0.308839
  19 H :    0.122606
  20 H :    0.114690
  21 H :    0.110808
  22 H :    0.100280
  23 H :    0.116718
  24 H :    0.104662
  25 H :    0.108569
  26 H :    0.121218
  27 H :    0.114321
  28 H :    0.145053
  29 H :    0.182007
  30 H :    0.186976
  31 H :    0.115568
  32 H :    0.104170
  33 H :    0.113679
  34 H :    0.114524
  35 H :    0.108559
  36 H :    0.102021
  37 H :    0.111066
  38 H :    0.112581
  39 H :    0.126119
  40 H :    0.109837
Sum of atomic charges:    0.0000000

LOEWDIN ATOMIC CHARGES
----------------------
   0 C :   -0.364031
   1 C :   -0.118551
   2 O :   -0.244606
   3 P :    0.566026
   4 S :   -0.310769
   5 O :   -0.245183
   6 C :   -0.122052
   7 C :   -0.372142
   8 S :    0.080031
   9 C :   -0.468253
  10 S :    0.111938
  11 P :    0.570866
  12 S :   -0.308518
  13 O :   -0.237335
  14 C :   -0.116423
  15 C :   -0.358631
  16 O :   -0.252413
  17 C :   -0.123563
  18 C :   -0.367421
  19 H :    0.123042
  20 H :    0.125616
  21 H :    0.129809
  22 H :    0.116555
  23 H :    0.112163
  24 H :    0.118488
  25 H :    0.108131
  26 H :    0.125609
  27 H :    0.131566
  28 H :    0.120912
  29 H :    0.132238
  30 H :    0.137855
  31 H :    0.115126
  32 H :    0.108252
  33 H :    0.123359
  34 H :    0.124842
  35 H :    0.128539
  36 H :    0.116432
  37 H :    0.109635
  38 H :    0.130631
  39 H :    0.120908
  40 H :    0.121321

  Mayer bond orders larger than 0.100000
B(  0-C ,  1-C ) :   1.1667 B(  0-C , 19-H ) :   0.9357 B(  0-C , 20-H ) :   0.9462
B(  0-C , 21-H ) :   0.9395 B(  1-C ,  2-O ) :   0.9017 B(  1-C , 22-H ) :   0.9348
B(  1-C , 23-H ) :   0.9147 B(  2-O ,  3-P ) :   1.1125 B(  3-P ,  4-S ) :   1.5916
B(  3-P ,  5-O ) :   1.0978 B(  3-P ,  8-S ) :   0.9745 B(  4-S ,  8-S ) :   0.1169
B(  5-O ,  6-C ) :   0.9135 B(  6-C ,  7-C ) :   1.1643 B(  6-C , 24-H ) :   0.9326
B(  6-C , 25-H ) :   0.9101 B(  7-C , 26-H ) :   0.9425 B(  7-C , 27-H ) :   0.9382
B(  7-C , 28-H ) :   0.9273 B(  8-S ,  9-C ) :   0.9732 B(  9-C , 10-S ) :   1.0063
B(  9-C , 29-H ) :   0.9006 B(  9-C , 30-H ) :   0.9090 B( 10-S , 11-P ) :   0.9543
B( 11-P , 12-S ) :   1.6594 B( 11-P , 13-O ) :   1.1247 B( 11-P , 16-O ) :   1.0565
B( 13-O , 14-C ) :   0.8978 B( 14-C , 15-C ) :   1.1666 B( 14-C , 31-H ) :   0.9212
B( 14-C , 32-H ) :   0.9076 B( 15-C , 33-H ) :   0.9441 B( 15-C , 34-H ) :   0.9484
B( 15-C , 35-H ) :   0.9412 B( 16-O , 17-C ) :   0.9139 B( 17-C , 18-C ) :   1.1644
B( 17-C , 36-H ) :   0.9338 B( 17-C , 37-H ) :   0.9120 B( 18-C , 38-H ) :   0.9386
B( 18-C , 39-H ) :   0.9352 B( 18-C , 40-H ) :   0.9469

Dispersion correction           -0.068591980
FINAL SINGLE POINT ENERGY     -2929.513185850202

DIPOLE MOMENT
-------------

Method             : SCF
Type of density    : Electron Density
Multiplicity       :   1
Irrep              :   0
Energy             : -2929.6299026973674700 Eh
Relativity type    :
Basis              : AO
                                X                 Y                 Z
Electronic contribution:     -0.022333542       0.757036203      -7.863963908
Nuclear contribution   :      0.005201843      -1.829905354       8.666425381
                        -----------------------------------------
Total Dipole Moment    :     -0.017131699      -1.072869151       0.802461473
                        -----------------------------------------
Magnitude (a.u.)       :      1.339882878
Magnitude (Debye)      :      3.405711618

Rotational constants in cm-1:             0.012104             0.005783             0.005110
Rotational constants in MHz :           362.864345           173.377297           153.194261

                             ****ORCA TERMINATED NORMALLY****
TOTAL RUN TIME: 0 days 0 hours 0 minutes 22 seconds 20 msec
