                         Program Version 6.0.0  -   RELEASE  -
|  1> ! r2scan-3c def2/J RI DEFGRID2 scfconv6 printgap
|  2> %output
|  3>     printlevel normal
|  4> end
|  5> * xyz 0 1
|  6> C -2.9100150506 -0.3700985498 -0.0045824129
|  7> C -2.6711006426 1.0131731345 -0.0014050245
|  8> C -1.392609585 1.4955840436 0.0023719761
|  9> C -0.2861984614 0.6177279645 0.0025962797
| 10> C 1.0378192732 1.0858832787 0.0104782953
| 11> C 2.1083073514 0.2139090825 0.0107734949
| 12> C 1.8517709614 -1.179156918 0.0073695249
| 13> C 0.5760490473 -1.6572479719 0.0022237341
| 14> C -0.5314927009 -0.7819481779 -0.0001593961
| 15> C -1.8603367357 -1.2471170359 -0.0036720888
| 16> N 3.4033135184 0.6635720532 -0.0531892097
| 17> H -3.9271367647 -0.7336293718 -0.0080652035
| 18> H -3.5098622311 1.694352393 -0.0020179083
| 19> H -1.2086400952 2.5608406188 0.0045860681
| 20> H 1.2130315697 2.1527156501 0.0135003528
| 21> H 2.6909733392 -1.8598563295 0.0078502695
| 22> H 0.3937778577 -2.7226376913 0.0018754347
| 23> H -2.036242812 -2.3139319857 -0.0063018553
| 24> H 4.1225894288 0.0183971585 0.2262051413
| 25> H 3.5605899052 1.6263523158 0.1917622546
| 26> *
| 27>
| 28>                          ****END OF INPUT****

CARTESIAN COORDINATES (ANGSTROEM)
---------------------------------
  C     -2.910015   -0.370099   -0.004582
  C     -2.671101    1.013173   -0.001405
  C     -1.392610    1.495584    0.002372
  C     -0.286198    0.617728    0.002596
  C      1.037819    1.085883    0.010478
  C      2.108307    0.213909    0.010773
  C      1.851771   -1.179157    0.007370
  C      0.576049   -1.657248    0.002224
  C     -0.531493   -0.781948   -0.000159
  C     -1.860337   -1.247117   -0.003672
  N      3.403314    0.663572   -0.053189
  H     -3.927137   -0.733629   -0.008065
  H     -3.509862    1.694352   -0.002018
  H     -1.208640    2.560841    0.004586
  H      1.213032    2.152716    0.013500
  H      2.690973   -1.859856    0.007850
  H      0.393778   -2.722638    0.001875
  H     -2.036243   -2.313932   -0.006302
  H      4.122589    0.018397    0.226205
  H      3.560590    1.626352    0.191762

 Total Charge           Charge          ....    0
 Multiplicity           Mult            ....    1
 Number of Electrons    NEL             ....   76
 Basis Dimension        Dim             ....  259

ORBITAL ENERGIES
----------------

  NO   OCC          E(Eh)            E(eV)
   0   2.0000     -14.172917      -385.6647
   1   2.0000     -10.076606      -274.1984
   2   2.0000     -10.038791      -273.1694
   3   2.0000     -10.035302      -273.0745
   4   2.0000     -10.033480      -273.0249
   5   2.0000     -10.033420      -273.0232
   6   2.0000     -10.028519      -272.8899
   7   2.0000     -10.027938      -272.8741
   8   2.0000     -10.025876      -272.8180
   9   2.0000     -10.024166      -272.7714
  10   2.0000     -10.022251      -272.7193
  11   2.0000      -0.896998       -24.4086
  12   2.0000      -0.833449       -22.6793
  13   2.0000      -0.777216       -21.1491
  14   2.0000      -0.736278       -20.0351
  15   2.0000      -0.700370       -19.0580
  16   2.0000      -0.679185       -18.4816
  17   2.0000      -0.597299       -16.2533
  18   2.0000      -0.577367       -15.7110
  19   2.0000      -0.564109       -15.3502
  20   2.0000      -0.502329       -13.6691
  21   2.0000      -0.491909       -13.3855
  22   2.0000      -0.478007       -13.0072
  23   2.0000      -0.449351       -12.2275
  24   2.0000      -0.416675       -11.3383
  25   2.0000      -0.407811       -11.0971
  26   2.0000      -0.388144       -10.5619
  27   2.0000      -0.378689       -10.3047
  28   2.0000      -0.375407       -10.2153
  29   2.0000      -0.371241       -10.1020
  30   2.0000      -0.338178        -9.2023
  31   2.0000      -0.330539        -8.9944
  32   2.0000      -0.308510        -8.3950
  33   2.0000      -0.294483        -8.0133
  34   2.0000      -0.275027        -7.4839
  35   2.0000      -0.253960        -6.9106
  36   2.0000      -0.210608        -5.7309
  37   2.0000      -0.177196        -4.8217
  38   0.0000      -0.057372        -1.5612
  39   0.0000      -0.020975        -0.5708
  40   0.0000       0.003986         0.1085
  41   0.0000       0.066627         1.8130
  42   0.0000       0.079940         2.1753

MULLIKEN ATOMIC CHARGES
-----------------------
   0 C :   -0.173470
   1 C :   -0.139138
   2 C :   -0.273080
   3 C :    0.209306
   4 C :   -0.500585
   5 C :    0.578779
   6 C :   -0.387842
   7 C :   -0.214773
   8 C :    0.149404
   9 C :   -0.217089
  10 N :   -0.526456
  11 H :    0.143988
  12 H :    0.143800
  13 H :    0.140086
  14 H :    0.133878
  15 H :    0.137176
  16 H :    0.143795
  17 H :    0.141270
  18 H :    0.255969
  19 H :    0.254983
Sum of atomic charges:    0.0000000

LOEWDIN ATOMIC CHARGES
----------------------
   0 C :   -0.183317
   1 C :   -0.164139
   2 C :   -0.158345
   3 C :   -0.046791
   4 C :   -0.159236
   5 C :    0.127586
   6 C :   -0.148866
   7 C :   -0.131769
   8 C :   -0.076791
   9 C :   -0.144054
  10 N :   -0.599201
  11 H :    0.166028
  12 H :    0.166433
  13 H :    0.168281
  14 H :    0.170623
  15 H :    0.169118
  16 H :    0.171271
  17 H :    0.168917
  18 H :    0.251867
  19 H :    0.252383

  Mayer bond orders larger than 0.100000
B(  0-C ,  1-C ) :   1.2770 B(  0-C ,  9-C ) :   1.5070 B(  0-C , 11-H ) :   0.9489
B(  1-C ,  2-C ) :   1.5144 B(  1-C , 12-H ) :   0.9465 B(  2-C ,  3-C ) :   1.1792
B(  2-C , 13-H ) :   0.9568 B(  3-C ,  4-C ) :   1.2273 B(  3-C ,  8-C ) :   1.4899
B(  4-C ,  5-C ) :   1.3888 B(  4-C , 10-N ) :   0.1081 B(  4-C , 14-H ) :   0.9321
B(  5-C ,  6-C ) :   1.1817 B(  5-C , 10-N ) :   0.9308 B(  6-C ,  7-C ) :   1.5301
B(  6-C , 15-H ) :   0.9427 B(  7-C ,  8-C ) :   1.2187 B(  7-C , 16-H ) :   0.9443
B(  8-C ,  9-C ) :   1.2172 B(  9-C , 17-H ) :   0.9502 B( 10-N , 18-H ) :   0.9270
B( 10-N , 19-H ) :   0.9274

Dispersion correction           -0.007839801
FINAL SINGLE POINT ENERGY      -441.133103949550

DIPOLE MOMENT
-------------

Method             : SCF
Type of density    : Electron Density
Multiplicity       :   1
Irrep              :   0
Energy             :  -441.1318689482875470 Eh
Relativity type    :
Basis              : AO
                                X                 Y                 Z
Electronic contribution:     -0.403747456      -0.297589415      -0.123150977
Nuclear contribution   :      1.237439362       0.400115762       0.402553357
                        -----------------------------------------
Total Dipole Moment    :      0.833691906       0.102526348       0.279402381
                        -----------------------------------------
Magnitude (a.u.)       :      0.885222874
Magnitude (Debye)      :      2.250057730

Rotational constants in cm-1:             0.095842             0.027957             0.021651
Rotational constants in MHz :          2873.275730           838.139815           649.085885

                             ****ORCA TERMINATED NORMALLY****
TOTAL RUN TIME: 0 days 0 hours 0 minutes 54 seconds 160 msec
