                         Program Version 6.0.0  -   RELEASE  -
|  1> ! r2scan-3c def2/J RI DEFGRID2 scfconv6 printgap
|  2> %output
|  3>     printlevel normal
|  4> end
|  5> %cpcm
|  6>     smd true
|  7>     smdsolvent "water"
|  8> end
|  9> * xyz 0 1
| 10> C -2.9100150506 -0.3700985498 -0.0045824129
| 11> C -2.6711006426 1.0131731345 -0.0014050245
| 12> C -1.392609585 1.4955840436 0.0023719761
| 13> C -0.2861984614 0.6177279645 0.0025962797
| 14> C 1.0378192732 1.0858832787 0.0104782953
| 15> C 2.1083073514 0.2139090825 0.0107734949
| 16> C 1.8517709614 -1.179156918 0.0073695249
| 17> C 0.5760490473 -1.6572479719 0.0022237341
| 18> C -0.5314927009 -0.7819481779 -0.0001593961
| 19> C -1.8603367357 -1.2471170359 -0.0036720888
| 20> N 3.4033135184 0.6635720532 -0.0531892097
| 21> H -3.9271367647 -0.7336293718 -0.0080652035
| 22> H -3.5098622311 1.694352393 -0.0020179083
| 23> H -1.2086400952 2.5608406188 0.0045860681
| 24> H 1.2130315697 2.1527156501 0.0135003528
| 25> H 2.6909733392 -1.8598563295 0.0078502695
| 26> H 0.3937778577 -2.7226376913 0.0018754347
| 27> H -2.036242812 -2.3139319857 -0.0063018553
| 28> H 4.1225894288 0.0183971585 0.2262051413
| 29> H 3.5605899052 1.6263523158 0.1917622546
| 30> *
| 31>
| 32>                          ****END OF INPUT****

CARTESIAN COORDINATES (ANGSTROEM)
---------------------------------
  C     -2.910015   -0.370099   -0.004582
  C     -2.671101    1.013173   -0.001405
  C     -1.392610    1.495584    0.002372
  C     -0.286198    0.617728    0.002596
  C      1.037819    1.085883    0.010478
  C      2.108307    0.213909    0.010773
  C      1.851771   -1.179157    0.007370
  C      0.576049   -1.657248    0.002224
  C     -0.531493   -0.781948   -0.000159
  C     -1.860337   -1.247117   -0.003672
  N      3.403314    0.663572   -0.053189
  H     -3.927137   -0.733629   -0.008065
  H     -3.509862    1.694352   -0.002018
  H     -1.208640    2.560841    0.004586
  H      1.213032    2.152716    0.013500
  H      2.690973   -1.859856    0.007850
  H      0.393778   -2.722638    0.001875
  H     -2.036243   -2.313932   -0.006302
  H      4.122589    0.018397    0.226205
  H      3.560590    1.626352    0.191762

 Total Charge           Charge          ....    0
 Multiplicity           Mult            ....    1
 Number of Electrons    NEL             ....   76
 Basis Dimension        Dim             ....  259

ORBITAL ENERGIES
----------------

  NO   OCC          E(Eh)            E(eV)
   0   2.0000     -14.161060      -385.3420
   1   2.0000     -10.074999      -274.1547
   2   2.0000     -10.043211      -273.2897
   3   2.0000     -10.037700      -273.1397
   4   2.0000     -10.035285      -273.0740
   5   2.0000     -10.031660      -272.9753
   6   2.0000     -10.031357      -272.9671
   7   2.0000     -10.030721      -272.9498
   8   2.0000     -10.028902      -272.9003
   9   2.0000     -10.026770      -272.8423
  10   2.0000     -10.021113      -272.6883
  11   2.0000      -0.888434       -24.1755
  12   2.0000      -0.837164       -22.7804
  13   2.0000      -0.779002       -21.1977
  14   2.0000      -0.739031       -20.1100
  15   2.0000      -0.702028       -19.1031
  16   2.0000      -0.679994       -18.5036
  17   2.0000      -0.596286       -16.2258
  18   2.0000      -0.576628       -15.6908
  19   2.0000      -0.564881       -15.3712
  20   2.0000      -0.496063       -13.4986
  21   2.0000      -0.486288       -13.2326
  22   2.0000      -0.476010       -12.9529
  23   2.0000      -0.443533       -12.0692
  24   2.0000      -0.415799       -11.3145
  25   2.0000      -0.406410       -11.0590
  26   2.0000      -0.386440       -10.5156
  27   2.0000      -0.378482       -10.2990
  28   2.0000      -0.376468       -10.2442
  29   2.0000      -0.374058       -10.1786
  30   2.0000      -0.336806        -9.1650
  31   2.0000      -0.333019        -9.0619
  32   2.0000      -0.309215        -8.4142
  33   2.0000      -0.293729        -7.9928
  34   2.0000      -0.279256        -7.5989
  35   2.0000      -0.259719        -7.0673
  36   2.0000      -0.215431        -5.8622
  37   2.0000      -0.179099        -4.8735
  38   0.0000      -0.061909        -1.6846
  39   0.0000      -0.026000        -0.7075
  40   0.0000      -0.001282        -0.0349
  41   0.0000       0.074720         2.0332
  42   0.0000       0.086193         2.3454

MULLIKEN ATOMIC CHARGES
-----------------------
   0 C :   -0.216761
   1 C :   -0.171933
   2 C :   -0.294987
   3 C :    0.168920
   4 C :   -0.504182
   5 C :    0.499204
   6 C :   -0.391709
   7 C :   -0.232734
   8 C :    0.105526
   9 C :   -0.232283
  10 N :   -0.584554
  11 H :    0.175199
  12 H :    0.175905
  13 H :    0.174518
  14 H :    0.174283
  15 H :    0.178474
  16 H :    0.178319
  17 H :    0.175698
  18 H :    0.312710
  19 H :    0.310386
Sum of atomic charges:    0.0000000

LOEWDIN ATOMIC CHARGES
----------------------
   0 C :   -0.199776
   1 C :   -0.176793
   2 C :   -0.171456
   3 C :   -0.066743
   4 C :   -0.172398
   5 C :    0.120261
   6 C :   -0.149435
   7 C :   -0.143175
   8 C :   -0.097095
   9 C :   -0.154396
  10 N :   -0.589725
  11 H :    0.176162
  12 H :    0.177112
  13 H :    0.180189
  14 H :    0.185397
  15 H :    0.184843
  16 H :    0.183466
  17 H :    0.181040
  18 H :    0.266339
  19 H :    0.266181

  Mayer bond orders larger than 0.100000
B(  0-C ,  1-C ) :   1.2363 B(  0-C ,  9-C ) :   1.4638 B(  0-C , 11-H ) :   0.9641
B(  1-C ,  2-C ) :   1.4754 B(  1-C , 12-H ) :   0.9599 B(  2-C ,  3-C ) :   1.1733
B(  2-C , 13-H ) :   0.9683 B(  3-C ,  4-C ) :   1.2121 B(  3-C ,  8-C ) :   1.3770
B(  4-C ,  5-C ) :   1.3691 B(  4-C , 14-H ) :   0.9626 B(  5-C ,  6-C ) :   1.1611
B(  5-C , 10-N ) :   0.9527 B(  6-C ,  7-C ) :   1.4910 B(  6-C , 15-H ) :   0.9671
B(  7-C ,  8-C ) :   1.1966 B(  7-C , 16-H ) :   0.9615 B(  8-C ,  9-C ) :   1.2152
B(  9-C , 17-H ) :   0.9609 B( 10-N , 18-H ) :   0.9013 B( 10-N , 19-H ) :   0.9021

Dispersion correction           -0.007839801
FINAL SINGLE POINT ENERGY      -441.144033546685

DIPOLE MOMENT
-------------

Method             : SCF
Type of density    : Electron Density
Multiplicity       :   1
Irrep              :   0
Energy             :  -441.1427985454222380 Eh
Relativity type    :
Basis              : AO
                                X                 Y                 Z
Electronic contribution:      0.020044944      -0.280988886      -0.020448640
Nuclear contribution   :      1.237439362       0.400115762       0.402553357
                        -----------------------------------------
Total Dipole Moment    :      1.257484306       0.119126876       0.382104717
                        -----------------------------------------
Magnitude (a.u.)       :      1.319644652
Magnitude (Debye)      :      3.354270136

Rotational constants in cm-1:             0.095842             0.027957             0.021651
Rotational constants in MHz :          2873.275730           838.139815           649.085885

                             ****ORCA TERMINATED NORMALLY****
TOTAL RUN TIME: 0 days 0 hours 0 minutes 45 seconds 102 msec
