                         Program Version 6.0.0  -   RELEASE  -
|  1> ! pbe def2-sv(p) def2/J RI DEFGRID1 loosescf d4 GCP(DFT/SV(P)) printgap
|  2> %output
|  3>     printlevel normal
|  4> end
|  5> * xyz 0 1
|  6> C 2.0836314773 2.5497426238 -1.7304825687
|  7> C 1.7236533809 1.0814002333 -1.65109596
|  8> O 1.1382579696 0.7696327781 -0.3664244322
|  9> P 2.0260688762 0.079096811 0.7538535706
| 10> S 3.7631643519 0.8932839783 1.1418027425
| 11> O 2.0978565192 -1.4277962983 0.2289495332
| 12> C 3.1561894804 -2.3346641561 0.5947884709
| 13> C 4.1585365065 -2.4435501443 -0.5371581331
| 14> S 0.6660030437 0.0549164853 2.3464898469
| 15> C -0.6257524269 -1.0759685365 1.7041384873
| 16> S -2.1731116738 -0.2484129321 1.2837450581
| 17> P -1.9209935441 -0.0263633054 -0.8213520767
| 18> S -0.8236031517 -1.3811061745 -1.707726745
| 19> O -1.4392615553 1.453912621 -1.0857199634
| 20> C -2.11422137 2.6164149214 -0.5424538318
| 21> C -1.3571023556 3.1743740599 0.6474241908
| 22> O -3.4257762353 0.0602668477 -1.3415691434
| 23> C -4.2006735486 -1.0969098821 -1.6985030216
| 24> C -4.5131172408 -1.9814338427 -0.5087321468
| 25> H 2.8169798161 2.7968489738 -0.9653118506
| 26> H 2.5051766431 2.7593494937 -2.7084348583
| 27> H 1.1965592198 3.1593994339 -1.5839260311
| 28> H 2.6027427653 0.4493000004 -1.804056436
| 29> H 0.9582092655 0.813537057 -2.3824788577
| 30> H 3.6403715856 -1.975868498 1.5075259107
| 31> H 2.6623478733 -3.288995132 0.7846321119
| 32> H 4.661859513 -1.4893774222 -0.6813257162
| 33> H 4.8973263644 -3.1988687894 -0.2901713701
| 34> H 3.650816728 -2.7208136265 -1.4573162682
| 35> H -0.8502047507 -1.7693726415 2.5096739379
| 36> H -0.2458093018 -1.5909926895 0.8195702698
| 37> H -2.1321664746 3.3296560968 -1.3682708323
| 38> H -3.1361603065 2.3444243447 -0.270879581
| 39> H -0.3132723724 3.3352557464 0.3890544957
| 40> H -1.8019826143 4.1210625545 0.9374789733
| 41> H -1.3996110272 2.4925984788 1.4937682625
| 42> H -5.1073209131 -0.6743005734 -2.1340433081
| 43> H -3.6498153937 -1.6575660706 -2.4600173649
| 44> H -3.6042251628 -2.4605555813 -0.1493952619
| 45> H -4.9449146556 -1.3945612361 0.2978817797
| 46> H -5.2170679905 -2.7494104383 -0.8129616707
| 47> *
| 48>
| 49>                          ****END OF INPUT****

CARTESIAN COORDINATES (ANGSTROEM)
---------------------------------
  C      2.083631    2.549743   -1.730483
  C      1.723653    1.081400   -1.651096
  O      1.138258    0.769633   -0.366424
  P      2.026069    0.079097    0.753854
  S      3.763164    0.893284    1.141803
  O      2.097857   -1.427796    0.228950
  C      3.156189   -2.334664    0.594788
  C      4.158537   -2.443550   -0.537158
  S      0.666003    0.054916    2.346490
  C     -0.625752   -1.075969    1.704138
  S     -2.173112   -0.248413    1.283745
  P     -1.920994   -0.026363   -0.821352
  S     -0.823603   -1.381106   -1.707727
  O     -1.439262    1.453913   -1.085720
  C     -2.114221    2.616415   -0.542454
  C     -1.357102    3.174374    0.647424
  O     -3.425776    0.060267   -1.341569
  C     -4.200674   -1.096910   -1.698503
  C     -4.513117   -1.981434   -0.508732
  H      2.816980    2.796849   -0.965312
  H      2.505177    2.759349   -2.708435
  H      1.196559    3.159399   -1.583926
  H      2.602743    0.449300   -1.804056
  H      0.958209    0.813537   -2.382479
  H      3.640372   -1.975868    1.507526
  H      2.662348   -3.288995    0.784632
  H      4.661860   -1.489377   -0.681326
  H      4.897326   -3.198869   -0.290171
  H      3.650817   -2.720814   -1.457316
  H     -0.850205   -1.769373    2.509674
  H     -0.245809   -1.590993    0.819570
  H     -2.132166    3.329656   -1.368271
  H     -3.136160    2.344424   -0.270880
  H     -0.313272    3.335256    0.389054
  H     -1.801983    4.121063    0.937479
  H     -1.399611    2.492598    1.493768
  H     -5.107321   -0.674301   -2.134043
  H     -3.649815   -1.657566   -2.460017
  H     -3.604225   -2.460556   -0.149395
  H     -4.944915   -1.394561    0.297882
  H     -5.217068   -2.749410   -0.812962

 Total Charge           Charge          ....    0
 Multiplicity           Mult            ....    1
 Number of Electrons    NEL             ....  202
 Basis Dimension        Dim             ....  334

ORBITAL ENERGIES
----------------

  NO   OCC          E(Eh)            E(eV)
   0   2.0000     -88.048087     -2395.9102
   1   2.0000     -88.040553     -2395.7052
   2   2.0000     -87.992033     -2394.3849
   3   2.0000     -87.983738     -2394.1592
   4   2.0000     -76.430724     -2079.7857
   5   2.0000     -76.421406     -2079.5322
   6   2.0000     -18.796888      -511.4893
   7   2.0000     -18.791604      -511.3455
   8   2.0000     -18.788438      -511.2594
   9   2.0000     -18.781305      -511.0653
  10   2.0000      -9.958584      -270.9869
  11   2.0000      -9.957407      -270.9548
  12   2.0000      -9.956241      -270.9231
  13   2.0000      -9.950006      -270.7534
  14   2.0000      -9.940168      -270.4857
  15   2.0000      -9.887172      -269.0436
  16   2.0000      -9.880454      -268.8608
  17   2.0000      -9.880342      -268.8578
  18   2.0000      -9.874114      -268.6883
  19   2.0000      -7.692961      -209.3361
  20   2.0000      -7.686187      -209.1518
  21   2.0000      -7.637028      -207.8141
  22   2.0000      -7.628923      -207.5935
  23   2.0000      -6.428037      -174.9158
  24   2.0000      -6.419493      -174.6833
  25   2.0000      -5.720761      -155.6698
  26   2.0000      -5.717407      -155.5785
  27   2.0000      -5.714446      -155.4980
  28   2.0000      -5.710311      -155.3855
  29   2.0000      -5.710054      -155.3785
  30   2.0000      -5.703057      -155.1881
  31   2.0000      -5.666022      -154.1803
  32   2.0000      -5.657911      -153.9596
  33   2.0000      -5.657658      -153.9527
  34   2.0000      -5.657043      -153.9360
  35   2.0000      -5.649481      -153.7302
  36   2.0000      -5.649057      -153.7187
  37   2.0000      -4.650780      -126.5542
  38   2.0000      -4.649678      -126.5242
  39   2.0000      -4.648509      -126.4924
  40   2.0000      -4.641971      -126.3145
  41   2.0000      -4.641353      -126.2976
  42   2.0000      -4.639927      -126.2588
  43   2.0000      -0.990732       -26.9592
  44   2.0000      -0.979951       -26.6658
  45   2.0000      -0.946318       -25.7506
  46   2.0000      -0.937781       -25.5183
  47   2.0000      -0.763076       -20.7644
  48   2.0000      -0.721881       -19.6434
  49   2.0000      -0.708280       -19.2733
  50   2.0000      -0.690161       -18.7802
  51   2.0000      -0.681259       -18.5380
  52   2.0000      -0.674523       -18.3547
  53   2.0000      -0.653064       -17.7708
  54   2.0000      -0.639471       -17.4009
  55   2.0000      -0.598765       -16.2932
  56   2.0000      -0.583808       -15.8862
  57   2.0000      -0.576812       -15.6959
  58   2.0000      -0.569210       -15.4890
  59   2.0000      -0.557907       -15.1814
  60   2.0000      -0.504380       -13.7249
  61   2.0000      -0.499182       -13.5834
  62   2.0000      -0.473814       -12.8931
  63   2.0000      -0.470356       -12.7990
  64   2.0000      -0.459006       -12.4902
  65   2.0000      -0.447267       -12.1708
  66   2.0000      -0.441559       -12.0154
  67   2.0000      -0.431299       -11.7362
  68   2.0000      -0.428418       -11.6578
  69   2.0000      -0.420272       -11.4362
  70   2.0000      -0.415983       -11.3195
  71   2.0000      -0.395001       -10.7485
  72   2.0000      -0.389053       -10.5867
  73   2.0000      -0.382758       -10.4154
  74   2.0000      -0.375376       -10.2145
  75   2.0000      -0.371089       -10.0979
  76   2.0000      -0.364319        -9.9136
  77   2.0000      -0.355991        -9.6870
  78   2.0000      -0.353856        -9.6289
  79   2.0000      -0.350743        -9.5442
  80   2.0000      -0.347423        -9.4538
  81   2.0000      -0.343490        -9.3468
  82   2.0000      -0.339676        -9.2431
  83   2.0000      -0.334709        -9.1079
  84   2.0000      -0.324692        -8.8353
  85   2.0000      -0.317911        -8.6508
  86   2.0000      -0.307481        -8.3670
  87   2.0000      -0.300883        -8.1875
  88   2.0000      -0.297704        -8.1010
  89   2.0000      -0.290667        -7.9094
  90   2.0000      -0.284966        -7.7543
  91   2.0000      -0.271826        -7.3968
  92   2.0000      -0.267249        -7.2722
  93   2.0000      -0.264799        -7.2055
  94   2.0000      -0.261140        -7.1060
  95   2.0000      -0.235046        -6.3959
  96   2.0000      -0.221538        -6.0284
  97   2.0000      -0.210450        -5.7266
  98   2.0000      -0.208461        -5.6725
  99   2.0000      -0.201967        -5.4958
 100   2.0000      -0.196784        -5.3548
 101   0.0000      -0.040929        -1.1137
 102   0.0000      -0.027577        -0.7504
 103   0.0000      -0.017255        -0.4695
 104   0.0000       0.002600         0.0707
 105   0.0000       0.011423         0.3108

MULLIKEN ATOMIC CHARGES
-----------------------
   0 C :   -0.295811
   1 C :   -0.007047
   2 O :   -0.366666
   3 P :    0.608312
   4 S :   -0.326961
   5 O :   -0.377841
   6 C :   -0.004787
   7 C :   -0.295871
   8 S :   -0.074818
   9 C :   -0.367721
  10 S :   -0.102561
  11 P :    0.619335
  12 S :   -0.305197
  13 O :   -0.354755
  14 C :   -0.016758
  15 C :   -0.302517
  16 O :   -0.381994
  17 C :    0.000433
  18 C :   -0.313512
  19 H :    0.121482
  20 H :    0.104664
  21 H :    0.118951
  22 H :    0.100268
  23 H :    0.112162
  24 H :    0.105176
  25 H :    0.101639
  26 H :    0.123944
  27 H :    0.108839
  28 H :    0.117269
  29 H :    0.185128
  30 H :    0.213430
  31 H :    0.110005
  32 H :    0.105922
  33 H :    0.132099
  34 H :    0.105255
  35 H :    0.129880
  36 H :    0.105231
  37 H :    0.111644
  38 H :    0.122456
  39 H :    0.117598
  40 H :    0.113696
Sum of atomic charges:   -0.0000000

LOEWDIN ATOMIC CHARGES
----------------------
   0 C :   -0.360695
   1 C :   -0.120613
   2 O :   -0.240444
   3 P :    0.562452
   4 S :   -0.322632
   5 O :   -0.247017
   6 C :   -0.117883
   7 C :   -0.360549
   8 S :    0.082250
   9 C :   -0.481837
  10 S :    0.085474
  11 P :    0.580760
  12 S :   -0.289438
  13 O :   -0.230858
  14 C :   -0.112690
  15 C :   -0.364250
  16 O :   -0.250492
  17 C :   -0.116832
  18 C :   -0.371029
  19 H :    0.123633
  20 H :    0.127985
  21 H :    0.121847
  22 H :    0.107184
  23 H :    0.112598
  24 H :    0.108627
  25 H :    0.115713
  26 H :    0.124430
  27 H :    0.129154
  28 H :    0.126336
  29 H :    0.138591
  30 H :    0.128910
  31 H :    0.121407
  32 H :    0.108843
  33 H :    0.129315
  34 H :    0.128179
  35 H :    0.118519
  36 H :    0.118866
  37 H :    0.111902
  38 H :    0.119881
  39 H :    0.123172
  40 H :    0.131233

  Mayer bond orders larger than 0.100000
B(  0-C ,  1-C ) :   1.1725 B(  0-C , 19-H ) :   0.9352 B(  0-C , 20-H ) :   0.9403
B(  0-C , 21-H ) :   0.9399 B(  1-C ,  2-O ) :   0.8784 B(  1-C , 22-H ) :   0.9134
B(  1-C , 23-H ) :   0.9148 B(  2-O ,  3-P ) :   1.1227 B(  3-P ,  4-S ) :   1.6261
B(  3-P ,  5-O ) :   1.0702 B(  3-P ,  8-S ) :   1.0030 B(  5-O ,  6-C ) :   0.9047
B(  6-C ,  7-C ) :   1.1688 B(  6-C , 24-H ) :   0.9098 B(  6-C , 25-H ) :   0.9328
B(  7-C , 26-H ) :   0.9384 B(  7-C , 27-H ) :   0.9403 B(  7-C , 28-H ) :   0.9471
B(  8-S ,  9-C ) :   0.9727 B(  9-C , 10-S ) :   1.0087 B(  9-C , 29-H ) :   0.9109
B(  9-C , 30-H ) :   0.8484 B( 10-S , 11-P ) :   0.9442 B( 10-S , 12-S ) :   0.1084
B( 11-P , 12-S ) :   1.6194 B( 11-P , 13-O ) :   1.1350 B( 11-P , 16-O ) :   1.0868
B( 13-O , 14-C ) :   0.8891 B( 14-C , 15-C ) :   1.1635 B( 14-C , 31-H ) :   0.9341
B( 14-C , 32-H ) :   0.9197 B( 15-C , 33-H ) :   0.9396 B( 15-C , 34-H ) :   0.9368
B( 15-C , 35-H ) :   0.9293 B( 16-O , 17-C ) :   0.9090 B( 17-C , 18-C ) :   1.1672
B( 17-C , 36-H ) :   0.9344 B( 17-C , 37-H ) :   0.9177 B( 18-C , 38-H ) :   0.9370
B( 18-C , 39-H ) :   0.9432 B( 18-C , 40-H ) :   0.9369

Dispersion correction           -0.067461364
FINAL SINGLE POINT ENERGY     -2929.520504872721

DIPOLE MOMENT
-------------

Method             : SCF
Type of density    : Electron Density
Multiplicity       :   1
Irrep              :   0
Energy             : -2929.6409880453984442 Eh
Relativity type    :
Basis              : AO
                                X                 Y                 Z
Electronic contribution:      1.427118587      -0.989848903       9.392922960
Nuclear contribution   :     -2.795889546       0.577033810      -9.756757613
                        -----------------------------------------
Total Dipole Moment    :     -1.368770959      -0.412815093      -0.363834653
                        -----------------------------------------
Magnitude (a.u.)       :      1.475237572
Magnitude (Debye)      :      3.749755910

Rotational constants in cm-1:             0.012059             0.005551             0.005172
Rotational constants in MHz :           361.514282           166.408428           155.047056

                             ****ORCA TERMINATED NORMALLY****
TOTAL RUN TIME: 0 days 0 hours 0 minutes 22 seconds 154 msec
