                         Program Version 6.0.1  -  RELEASE   -
|  1> ! pbe def2-sv(p) def2/J RI DEFGRID1 loosescf d4 GCP(DFT/SV(P)) printgap
|  2> %output
|  3>     printlevel normal
|  4> end
|  5> * xyz 0 1
|  6> C 4.8610071141 -3.1198758993 -1.7605223953
|  7> C 4.9557579999 -2.0834349933 -0.6523306631
|  8> O 3.7505737759 -2.0655367461 0.1382513034
|  9> C 2.7561503335 -1.2911790933 -0.2411148737
| 10> O 2.7787745629 -0.5598753594 -1.210009074
| 11> C 1.5753885349 -1.4034543963 0.7007411322
| 12> C 0.4150613017 -0.6132503709 0.127647259
| 13> H 0.0428009488 -1.0467521906 -0.8068051961
| 14> C 0.7340579842 0.8444392992 -0.1270471442
| 15> O 0.1176590123 1.5047059875 -0.9383191013
| 16> O 1.6574394512 1.3134874136 0.6802825664
| 17> C 1.9910660857 2.7135698528 0.5887141529
| 18> C 0.9690696198 3.5704959218 1.3180027805
| 19> S -0.989874992 -0.5465006095 1.2900687938
| 20> P -2.4357134038 0.2228668839 -0.0747431658
| 21> S -2.3220609248 -0.4206163142 -1.9169494353
| 22> O -3.7943671053 -0.1721907426 0.6694093425
| 23> C -4.2377416205 -1.5335227993 0.7250152452
| 24> O -2.4740996951 1.7943366716 0.0960864706
| 25> C -2.7946899572 2.4049616311 1.3642136711
| 26> H 5.8037590822 -3.160421801 -2.2959717767
| 27> H 4.6441524777 -4.0980660619 -1.340675337
| 28> H 4.0712334114 -2.8503304169 -2.45855767
| 29> H 5.1156764005 -1.0847277125 -1.0683705369
| 30> H 5.7433369268 -2.3325825398 0.0588101304
| 31> H 1.8705822634 -1.0045151653 1.6729138781
| 32> H 1.3073182824 -2.4519589325 0.8289038234
| 33> H 2.9760559641 2.7802661951 1.0503372723
| 34> H 2.0458285219 2.9861352908 -0.4690447028
| 35> H 0.0050140843 3.4972713534 0.8197135432
| 36> H 0.8687490632 3.2392535325 2.3480435257
| 37> H 1.2949399992 4.6050901397 1.3022877912
| 38> H -5.279113547 -1.4893020074 1.0330156793
| 39> H -3.6425126465 -2.0841180195 1.4525192309
| 40> H -4.1492518573 -1.9961197545 -0.2590829285
| 41> H -3.8420116969 2.2286786868 1.6000840389
| 42> H -2.602784279 3.466110777 1.2267987763
| 43> H -2.1608611154 1.9922692867 2.150006602
| 44> *
| 45>
| 46>                          ****END OF INPUT****

CARTESIAN COORDINATES (ANGSTROEM)
---------------------------------
  C      4.861007   -3.119876   -1.760522
  C      4.955758   -2.083435   -0.652331
  O      3.750574   -2.065537    0.138251
  C      2.756150   -1.291179   -0.241115
  O      2.778775   -0.559875   -1.210009
  C      1.575389   -1.403454    0.700741
  C      0.415061   -0.613250    0.127647
  H      0.042801   -1.046752   -0.806805
  C      0.734058    0.844439   -0.127047
  O      0.117659    1.504706   -0.938319
  O      1.657439    1.313487    0.680283
  C      1.991066    2.713570    0.588714
  C      0.969070    3.570496    1.318003
  S     -0.989875   -0.546501    1.290069
  P     -2.435713    0.222867   -0.074743
  S     -2.322061   -0.420616   -1.916949
  O     -3.794367   -0.172191    0.669409
  C     -4.237742   -1.533523    0.725015
  O     -2.474100    1.794337    0.096086
  C     -2.794690    2.404962    1.364214
  H      5.803759   -3.160422   -2.295972
  H      4.644152   -4.098066   -1.340675
  H      4.071233   -2.850330   -2.458558
  H      5.115676   -1.084728   -1.068371
  H      5.743337   -2.332583    0.058810
  H      1.870582   -1.004515    1.672914
  H      1.307318   -2.451959    0.828904
  H      2.976056    2.780266    1.050337
  H      2.045829    2.986135   -0.469045
  H      0.005014    3.497271    0.819714
  H      0.868749    3.239254    2.348044
  H      1.294940    4.605090    1.302288
  H     -5.279114   -1.489302    1.033016
  H     -3.642513   -2.084118    1.452519
  H     -4.149252   -1.996120   -0.259083
  H     -3.842012    2.228679    1.600084
  H     -2.602784    3.466111    1.226799
  H     -2.160861    1.992269    2.150007

 Total Charge           Charge          ....    0
 Multiplicity           Mult            ....    1
 Number of Electrons    NEL             ....  174
 Basis Dimension        Dim             ....  316

ORBITAL ENERGIES
----------------

  NO   OCC          E(Eh)            E(eV)
   0   2.0000     -88.041562     -2395.7327
   1   2.0000     -87.974722     -2393.9139
   2   2.0000     -76.420003     -2079.4940
   3   2.0000     -18.809877      -511.8428
   4   2.0000     -18.800651      -511.5917
   5   2.0000     -18.790442      -511.3139
   6   2.0000     -18.788211      -511.2532
   7   2.0000     -18.747425      -510.1434
   8   2.0000     -18.723174      -509.4835
   9   2.0000     -10.018789      -272.6251
  10   2.0000     -10.004739      -272.2428
  11   2.0000      -9.954130      -270.8656
  12   2.0000      -9.946558      -270.6596
  13   2.0000      -9.946519      -270.6585
  14   2.0000      -9.943023      -270.5634
  15   2.0000      -9.937770      -270.4205
  16   2.0000      -9.915224      -269.8070
  17   2.0000      -9.891657      -269.1657
  18   2.0000      -9.885387      -268.9950
  19   2.0000      -7.685902      -209.1440
  20   2.0000      -7.620061      -207.3524
  21   2.0000      -6.417203      -174.6210
  22   2.0000      -5.713425      -155.4702
  23   2.0000      -5.710521      -155.3912
  24   2.0000      -5.703254      -155.1934
  25   2.0000      -5.649264      -153.7243
  26   2.0000      -5.640488      -153.4855
  27   2.0000      -5.640077      -153.4743
  28   2.0000      -4.640078      -126.2629
  29   2.0000      -4.639083      -126.2359
  30   2.0000      -4.637328      -126.1881
  31   2.0000      -1.018542       -27.7159
  32   2.0000      -1.007226       -27.4080
  33   2.0000      -0.984128       -26.7795
  34   2.0000      -0.939023       -25.5521
  35   2.0000      -0.923905       -25.1407
  36   2.0000      -0.906104       -24.6564
  37   2.0000      -0.764734       -20.8095
  38   2.0000      -0.717354       -19.5202
  39   2.0000      -0.702520       -19.1165
  40   2.0000      -0.689930       -18.7740
  41   2.0000      -0.661562       -18.0020
  42   2.0000      -0.635714       -17.2987
  43   2.0000      -0.619143       -16.8477
  44   2.0000      -0.611625       -16.6432
  45   2.0000      -0.598611       -16.2890
  46   2.0000      -0.563714       -15.3394
  47   2.0000      -0.512595       -13.9484
  48   2.0000      -0.505901       -13.7663
  49   2.0000      -0.493596       -13.4314
  50   2.0000      -0.475320       -12.9341
  51   2.0000      -0.472812       -12.8659
  52   2.0000      -0.464027       -12.6268
  53   2.0000      -0.442845       -12.0504
  54   2.0000      -0.432844       -11.7783
  55   2.0000      -0.431257       -11.7351
  56   2.0000      -0.427219       -11.6252
  57   2.0000      -0.423861       -11.5338
  58   2.0000      -0.412397       -11.2219
  59   2.0000      -0.409604       -11.1459
  60   2.0000      -0.401178       -10.9166
  61   2.0000      -0.398992       -10.8571
  62   2.0000      -0.390561       -10.6277
  63   2.0000      -0.385700       -10.4954
  64   2.0000      -0.374856       -10.2003
  65   2.0000      -0.367558       -10.0017
  66   2.0000      -0.358708        -9.7609
  67   2.0000      -0.350732        -9.5439
  68   2.0000      -0.349401        -9.5077
  69   2.0000      -0.337080        -9.1724
  70   2.0000      -0.334119        -9.0918
  71   2.0000      -0.330749        -9.0001
  72   2.0000      -0.325020        -8.8442
  73   2.0000      -0.310594        -8.4517
  74   2.0000      -0.301578        -8.2064
  75   2.0000      -0.299579        -8.1519
  76   2.0000      -0.295302        -8.0356
  77   2.0000      -0.291240        -7.9250
  78   2.0000      -0.269738        -7.3400
  79   2.0000      -0.267466        -7.2781
  80   2.0000      -0.258209        -7.0262
  81   2.0000      -0.249780        -6.7969
  82   2.0000      -0.233494        -6.3537
  83   2.0000      -0.230960        -6.2848
  84   2.0000      -0.216970        -5.9041
  85   2.0000      -0.193882        -5.2758
  86   2.0000      -0.183749        -5.0001
  87   0.0000      -0.045723        -1.2442
  88   0.0000      -0.028965        -0.7882
  89   0.0000      -0.010008        -0.2723
  90   0.0000       0.019468         0.5298
  91   0.0000       0.021034         0.5724

MULLIKEN ATOMIC CHARGES
-----------------------
   0 C :   -0.305409
   1 C :   -0.013526
   2 O :   -0.229051
   3 C :    0.121870
   4 O :   -0.200385
   5 C :   -0.036457
   6 C :   -0.342156
   7 H :    0.156897
   8 C :    0.208607
   9 O :   -0.183497
  10 O :   -0.239095
  11 C :   -0.002217
  12 C :   -0.329546
  13 S :   -0.118675
  14 P :    0.618499
  15 S :   -0.285184
  16 O :   -0.394787
  17 C :   -0.099453
  18 O :   -0.354968
  19 C :   -0.110223
  20 H :    0.115896
  21 H :    0.115632
  22 H :    0.130934
  23 H :    0.112146
  24 H :    0.105110
  25 H :    0.121778
  26 H :    0.120226
  27 H :    0.098422
  28 H :    0.115605
  29 H :    0.146928
  30 H :    0.110097
  31 H :    0.111801
  32 H :    0.124286
  33 H :    0.113621
  34 H :    0.118556
  35 H :    0.128246
  36 H :    0.136221
  37 H :    0.113251
Sum of atomic charges:   -0.0000000

LOEWDIN ATOMIC CHARGES
----------------------
   0 C :   -0.355226
   1 C :   -0.109478
   2 O :   -0.057277
   3 C :    0.041851
   4 O :   -0.154750
   5 C :   -0.255933
   6 C :   -0.265860
   7 H :    0.138610
   8 C :    0.001103
   9 O :   -0.155965
  10 O :   -0.056723
  11 C :   -0.104637
  12 C :   -0.361520
  13 S :    0.088228
  14 P :    0.577827
  15 S :   -0.287713
  16 O :   -0.261298
  17 C :   -0.216506
  18 O :   -0.231727
  19 C :   -0.211181
  20 H :    0.132208
  21 H :    0.125640
  22 H :    0.132437
  23 H :    0.121421
  24 H :    0.118962
  25 H :    0.146309
  26 H :    0.144363
  27 H :    0.116129
  28 H :    0.124846
  29 H :    0.133110
  30 H :    0.122557
  31 H :    0.130422
  32 H :    0.121947
  33 H :    0.108693
  34 H :    0.111639
  35 H :    0.116852
  36 H :    0.124276
  37 H :    0.106364

  Mayer bond orders larger than 0.100000
B(  0-C ,  1-C ) :   1.1749 B(  0-C , 20-H ) :   0.9438 B(  0-C , 21-H ) :   0.9488
B(  0-C , 22-H ) :   0.9465 B(  1-C ,  2-O ) :   0.9099 B(  1-C , 23-H ) :   0.9139
B(  1-C , 24-H ) :   0.9368 B(  2-O ,  3-C ) :   1.2475 B(  3-C ,  4-O ) :   2.0137
B(  3-C ,  5-C ) :   1.0154 B(  5-C ,  6-C ) :   1.0336 B(  5-C , 25-H ) :   0.8709
B(  5-C , 26-H ) :   0.8880 B(  6-C ,  7-H ) :   0.8555 B(  6-C ,  8-C ) :   0.9001
B(  6-C , 13-S ) :   1.0263 B(  8-C ,  9-O ) :   2.0154 B(  8-C , 10-O ) :   1.2291
B( 10-O , 11-C ) :   0.9154 B( 11-C , 12-C ) :   1.1734 B( 11-C , 27-H ) :   0.9388
B( 11-C , 28-H ) :   0.9172 B( 12-C , 29-H ) :   0.9329 B( 12-C , 30-H ) :   0.9467
B( 12-C , 31-H ) :   0.9421 B( 13-S , 14-P ) :   0.9349 B( 13-S , 15-S ) :   0.1153
B( 14-P , 15-S ) :   1.6740 B( 14-P , 16-O ) :   1.0595 B( 14-P , 18-O ) :   1.1219
B( 16-O , 17-C ) :   0.9317 B( 17-C , 32-H ) :   0.9587 B( 17-C , 33-H ) :   0.9494
B( 17-C , 34-H ) :   0.9317 B( 18-O , 19-C ) :   0.9186 B( 19-C , 35-H ) :   0.9480
B( 19-C , 36-H ) :   0.9517 B( 19-C , 37-H ) :   0.9364

Dispersion correction           -0.050865833
FINAL SINGLE POINT ENERGY     -1979.017150588836

DIPOLE MOMENT
-------------

Method             : SCF
Type of density    : Electron Density
Multiplicity       :   1
Irrep              :   0
Energy             : -1979.1490128821319558 Eh
Relativity type    :
Basis              : AO
                                X                 Y                 Z
Electronic contribution:    -14.601636012      -1.330346277      -4.631051969
Nuclear contribution   :     15.542684622       0.977965504       6.498287177
                        -----------------------------------------
Total Dipole Moment    :      0.941048611      -0.352380773       1.867235209
                        -----------------------------------------
Magnitude (a.u.)       :      2.120450900
Magnitude (Debye)      :      5.389757857

Rotational constants in cm-1:             0.015000             0.005876             0.004935
Rotational constants in MHz :           449.680548           176.144094           147.940945

                             ****ORCA TERMINATED NORMALLY****
TOTAL RUN TIME: 0 days 0 hours 0 minutes 42 seconds 909 msec
