                         Program Version 6.0.0  -   RELEASE  -
|  1> ! pbe def2-sv(p) def2/J RI DEFGRID1 loosescf d4 GCP(DFT/SV(P)) printgap
|  2> %output
|  3>     printlevel normal
|  4> end
|  5> * xyz 0 1
|  6> C 2.0227531985 0.1530558709 -3.5787019224
|  7> C 2.6422046516 0.5710840936 -2.2601635352
|  8> O 2.4248052234 -0.495350723 -1.3088846933
|  9> P 2.2394910435 -0.2594987888 0.2417417109
| 10> S 1.1851292155 1.3270575753 0.7528881214
| 11> O 3.7522984051 -0.188223361 0.7299563976
| 12> C 4.1318470101 0.3049348184 2.0258322156
| 13> C 3.6287341516 -0.5853460338 3.1437099834
| 14> S 1.6155657799 -2.1928300733 0.7800535209
| 15> C -0.1896603661 -1.9963142835 0.6945574165
| 16> S -0.7598777048 -1.1506890153 -0.8074972779
| 17> P -2.0766550905 0.2496125178 0.089190091
| 18> S -2.113792989 0.3992758776 2.0385797577
| 19> O -3.4373577704 -0.3378059964 -0.5174678151
| 20> C -4.7145285109 -0.102034199 0.0964548071
| 21> C -5.1721597546 1.3296014069 -0.0988390735
| 22> O -1.8286952889 1.6538271314 -0.6006505386
| 23> C -1.2973095146 1.8826958151 -1.9221931623
| 24> C -2.1131597878 1.2112105065 -3.0065611981
| 25> H 2.1569730647 0.9478703324 -4.3050225731
| 26> H 2.5018373443 -0.7521969351 -3.9389761816
| 27> H 0.9620930046 -0.0459079315 -3.4482928048
| 28> H 2.1893131241 1.4891814856 -1.8681770838
| 29> H 3.7206560458 0.7183606547 -2.3505626282
| 30> H 5.2216452061 0.3293749425 1.9875373559
| 31> H 3.7389094318 1.3207959369 2.1366002135
| 32> H 3.9284648167 -1.6159327969 2.9705072458
| 33> H 4.0365325155 -0.2426684153 4.0893162653
| 34> H 2.5408475993 -0.5398685351 3.1938635344
| 35> H -0.5396865277 -1.427631783 1.5618452667
| 36> H -0.5899163537 -3.0072711593 0.7048622586
| 37> H -5.3807507748 -0.8130057235 -0.3939750678
| 38> H -4.6377867075 -0.3371920378 1.1630312709
| 39> H -5.2382491638 1.5664615391 -1.1573911209
| 40> H -6.1457859208 1.4645482495 0.3616047262
| 41> H -4.4597416897 2.0079554765 0.3712073669
| 42> H -1.3125198991 2.9700467911 -2.0136907946
| 43> H -0.2614806785 1.5333229675 -1.933248098
| 44> H -1.6813073177 1.4491059324 -3.9738218006
| 45> H -2.1067433344 0.1305236764 -2.8682324081
| 46> H -3.1410537407 1.5626295708 -2.9770183
| 47> *
| 48>
| 49>                          ****END OF INPUT****

CARTESIAN COORDINATES (ANGSTROEM)
---------------------------------
  C      2.022753    0.153056   -3.578702
  C      2.642205    0.571084   -2.260164
  O      2.424805   -0.495351   -1.308885
  P      2.239491   -0.259499    0.241742
  S      1.185129    1.327058    0.752888
  O      3.752298   -0.188223    0.729956
  C      4.131847    0.304935    2.025832
  C      3.628734   -0.585346    3.143710
  S      1.615566   -2.192830    0.780054
  C     -0.189660   -1.996314    0.694557
  S     -0.759878   -1.150689   -0.807497
  P     -2.076655    0.249613    0.089190
  S     -2.113793    0.399276    2.038580
  O     -3.437358   -0.337806   -0.517468
  C     -4.714529   -0.102034    0.096455
  C     -5.172160    1.329601   -0.098839
  O     -1.828695    1.653827   -0.600651
  C     -1.297310    1.882696   -1.922193
  C     -2.113160    1.211211   -3.006561
  H      2.156973    0.947870   -4.305023
  H      2.501837   -0.752197   -3.938976
  H      0.962093   -0.045908   -3.448293
  H      2.189313    1.489181   -1.868177
  H      3.720656    0.718361   -2.350563
  H      5.221645    0.329375    1.987537
  H      3.738909    1.320796    2.136600
  H      3.928465   -1.615933    2.970507
  H      4.036533   -0.242668    4.089316
  H      2.540848   -0.539869    3.193864
  H     -0.539687   -1.427632    1.561845
  H     -0.589916   -3.007271    0.704862
  H     -5.380751   -0.813006   -0.393975
  H     -4.637787   -0.337192    1.163031
  H     -5.238249    1.566462   -1.157391
  H     -6.145786    1.464548    0.361605
  H     -4.459742    2.007955    0.371207
  H     -1.312520    2.970047   -2.013691
  H     -0.261481    1.533323   -1.933248
  H     -1.681307    1.449106   -3.973822
  H     -2.106743    0.130524   -2.868232
  H     -3.141054    1.562630   -2.977018

 Total Charge           Charge          ....    0
 Multiplicity           Mult            ....    1
 Number of Electrons    NEL             ....  202
 Basis Dimension        Dim             ....  334

ORBITAL ENERGIES
----------------

  NO   OCC          E(Eh)            E(eV)
   0   2.0000     -88.042619     -2395.7615
   1   2.0000     -88.042553     -2395.7597
   2   2.0000     -87.982433     -2394.1237
   3   2.0000     -87.981553     -2394.0998
   4   2.0000     -76.423888     -2079.5997
   5   2.0000     -76.422420     -2079.5598
   6   2.0000     -18.791138      -511.3329
   7   2.0000     -18.788005      -511.2476
   8   2.0000     -18.786201      -511.1985
   9   2.0000     -18.782004      -511.0843
  10   2.0000      -9.956176      -270.9213
  11   2.0000      -9.954037      -270.8631
  12   2.0000      -9.952668      -270.8259
  13   2.0000      -9.948828      -270.7214
  14   2.0000      -9.945520      -270.6313
  15   2.0000      -9.891662      -269.1658
  16   2.0000      -9.889206      -269.0990
  17   2.0000      -9.881352      -268.8853
  18   2.0000      -9.880650      -268.8662
  19   2.0000      -7.688165      -209.2056
  20   2.0000      -7.687122      -209.1772
  21   2.0000      -7.626943      -207.5397
  22   2.0000      -7.626781      -207.5353
  23   2.0000      -6.421200      -174.7297
  24   2.0000      -6.420003      -174.6972
  25   2.0000      -5.716219      -155.5462
  26   2.0000      -5.715034      -155.5140
  27   2.0000      -5.712596      -155.4476
  28   2.0000      -5.711886      -155.4283
  29   2.0000      -5.704930      -155.2390
  30   2.0000      -5.703814      -155.2087
  31   2.0000      -5.655805      -153.9023
  32   2.0000      -5.655770      -153.9013
  33   2.0000      -5.647870      -153.6864
  34   2.0000      -5.647714      -153.6821
  35   2.0000      -5.647123      -153.6660
  36   2.0000      -5.646269      -153.6428
  37   2.0000      -4.643704      -126.3616
  38   2.0000      -4.643006      -126.3426
  39   2.0000      -4.642773      -126.3363
  40   2.0000      -4.641693      -126.3069
  41   2.0000      -4.641542      -126.3028
  42   2.0000      -4.640534      -126.2753
  43   2.0000      -0.983294       -26.7568
  44   2.0000      -0.979305       -26.6483
  45   2.0000      -0.941749       -25.6263
  46   2.0000      -0.940067       -25.5805
  47   2.0000      -0.762600       -20.7514
  48   2.0000      -0.720868       -19.6158
  49   2.0000      -0.709752       -19.3133
  50   2.0000      -0.691006       -18.8032
  51   2.0000      -0.685201       -18.6453
  52   2.0000      -0.672429       -18.2977
  53   2.0000      -0.649329       -17.6691
  54   2.0000      -0.635113       -17.2823
  55   2.0000      -0.600710       -16.3462
  56   2.0000      -0.590672       -16.0730
  57   2.0000      -0.574115       -15.6225
  58   2.0000      -0.572061       -15.5666
  59   2.0000      -0.556922       -15.1546
  60   2.0000      -0.502479       -13.6731
  61   2.0000      -0.492155       -13.3922
  62   2.0000      -0.473678       -12.8894
  63   2.0000      -0.468746       -12.7552
  64   2.0000      -0.453961       -12.3529
  65   2.0000      -0.441531       -12.0147
  66   2.0000      -0.441116       -12.0034
  67   2.0000      -0.430296       -11.7090
  68   2.0000      -0.427025       -11.6199
  69   2.0000      -0.417034       -11.3481
  70   2.0000      -0.412534       -11.2256
  71   2.0000      -0.401907       -10.9364
  72   2.0000      -0.390557       -10.6276
  73   2.0000      -0.386086       -10.5059
  74   2.0000      -0.379942       -10.3387
  75   2.0000      -0.371050       -10.0968
  76   2.0000      -0.368033       -10.0147
  77   2.0000      -0.357542        -9.7292
  78   2.0000      -0.355647        -9.6776
  79   2.0000      -0.354335        -9.6420
  80   2.0000      -0.348725        -9.4893
  81   2.0000      -0.343476        -9.3465
  82   2.0000      -0.339321        -9.2334
  83   2.0000      -0.336433        -9.1548
  84   2.0000      -0.335014        -9.1162
  85   2.0000      -0.313414        -8.5284
  86   2.0000      -0.308548        -8.3960
  87   2.0000      -0.304492        -8.2856
  88   2.0000      -0.294145        -8.0041
  89   2.0000      -0.285206        -7.7608
  90   2.0000      -0.276788        -7.5318
  91   2.0000      -0.271984        -7.4011
  92   2.0000      -0.270110        -7.3501
  93   2.0000      -0.261758        -7.1228
  94   2.0000      -0.258991        -7.0475
  95   2.0000      -0.232779        -6.3343
  96   2.0000      -0.221165        -6.0182
  97   2.0000      -0.211963        -5.7678
  98   2.0000      -0.198130        -5.3914
  99   2.0000      -0.193052        -5.2532
 100   2.0000      -0.184358        -5.0166
 101   0.0000      -0.048242        -1.3127
 102   0.0000      -0.033026        -0.8987
 103   0.0000      -0.007601        -0.2068
 104   0.0000       0.005602         0.1524
 105   0.0000       0.020516         0.5583

MULLIKEN ATOMIC CHARGES
-----------------------
   0 C :   -0.295434
   1 C :   -0.009980
   2 O :   -0.367382
   3 P :    0.602890
   4 S :   -0.317143
   5 O :   -0.374170
   6 C :   -0.000312
   7 C :   -0.321540
   8 S :   -0.092763
   9 C :   -0.327296
  10 S :   -0.115835
  11 P :    0.632692
  12 S :   -0.298551
  13 O :   -0.382306
  14 C :   -0.005984
  15 C :   -0.317066
  16 O :   -0.369540
  17 C :   -0.031989
  18 C :   -0.324987
  19 H :    0.108098
  20 H :    0.118472
  21 H :    0.127741
  22 H :    0.109624
  23 H :    0.105278
  24 H :    0.103063
  25 H :    0.111368
  26 H :    0.117581
  27 H :    0.113161
  28 H :    0.132885
  29 H :    0.200928
  30 H :    0.181421
  31 H :    0.101237
  32 H :    0.110315
  33 H :    0.114614
  34 H :    0.110451
  35 H :    0.130225
  36 H :    0.111014
  37 H :    0.135124
  38 H :    0.114628
  39 H :    0.135690
  40 H :    0.123779
Sum of atomic charges:   -0.0000000

LOEWDIN ATOMIC CHARGES
----------------------
   0 C :   -0.354047
   1 C :   -0.116114
   2 O :   -0.243598
   3 P :    0.560553
   4 S :   -0.309019
   5 O :   -0.248774
   6 C :   -0.119468
   7 C :   -0.370129
   8 S :    0.090911
   9 C :   -0.474965
  10 S :    0.082281
  11 P :    0.580356
  12 S :   -0.289032
  13 O :   -0.258777
  14 C :   -0.122690
  15 C :   -0.365379
  16 O :   -0.233573
  17 C :   -0.118297
  18 C :   -0.368314
  19 H :    0.128482
  20 H :    0.129208
  21 H :    0.123766
  22 H :    0.103366
  23 H :    0.115257
  24 H :    0.117748
  25 H :    0.110687
  26 H :    0.123490
  27 H :    0.131070
  28 H :    0.123632
  29 H :    0.122787
  30 H :    0.136740
  31 H :    0.116514
  32 H :    0.107842
  33 H :    0.120990
  34 H :    0.129748
  35 H :    0.126211
  36 H :    0.124023
  37 H :    0.108427
  38 H :    0.131321
  39 H :    0.119710
  40 H :    0.127057

  Mayer bond orders larger than 0.100000
B(  0-C ,  1-C ) :   1.1614 B(  0-C , 19-H ) :   0.9421 B(  0-C , 20-H ) :   0.9471
B(  0-C , 21-H ) :   0.9430 B(  1-C ,  2-O ) :   0.9027 B(  1-C , 22-H ) :   0.8974
B(  1-C , 23-H ) :   0.9318 B(  2-O ,  3-P ) :   1.1213 B(  3-P ,  4-S ) :   1.6014
B(  3-P ,  5-O ) :   1.1097 B(  3-P ,  8-S ) :   0.9683 B(  4-S ,  8-S ) :   0.1167
B(  5-O ,  6-C ) :   0.9094 B(  6-C ,  7-C ) :   1.1646 B(  6-C , 24-H ) :   0.9339
B(  6-C , 25-H ) :   0.9155 B(  7-C , 26-H ) :   0.9443 B(  7-C , 27-H ) :   0.9378
B(  7-C , 28-H ) :   0.9349 B(  8-S ,  9-C ) :   0.9879 B(  9-C , 10-S ) :   1.0131
B(  9-C , 29-H ) :   0.8486 B(  9-C , 30-H ) :   0.9115 B( 10-S , 11-P ) :   0.9360
B( 10-S , 12-S ) :   0.1099 B( 11-P , 12-S ) :   1.6194 B( 11-P , 13-O ) :   1.0770
B( 11-P , 16-O ) :   1.1144 B( 12-S , 29-H ) :   0.1179 B( 13-O , 14-C ) :   0.9189
B( 14-C , 15-C ) :   1.1602 B( 14-C , 31-H ) :   0.9342 B( 14-C , 32-H ) :   0.9103
B( 15-C , 33-H ) :   0.9443 B( 15-C , 34-H ) :   0.9392 B( 15-C , 35-H ) :   0.9365
B( 16-O , 17-C ) :   0.9053 B( 17-C , 18-C ) :   1.1640 B( 17-C , 36-H ) :   0.9333
B( 17-C , 37-H ) :   0.9055 B( 18-C , 38-H ) :   0.9343 B( 18-C , 39-H ) :   0.9319
B( 18-C , 40-H ) :   0.9398

Dispersion correction           -0.067435762
FINAL SINGLE POINT ENERGY     -2929.513065155248

DIPOLE MOMENT
-------------

Method             : SCF
Type of density    : Electron Density
Multiplicity       :   1
Irrep              :   0
Energy             : -2929.6305373198210873 Eh
Relativity type    :
Basis              : AO
                                X                 Y                 Z
Electronic contribution:      4.486454527      -8.191265635      11.111576487
Nuclear contribution   :     -4.349551572       8.235084433     -12.304388828
                        -----------------------------------------
Total Dipole Moment    :      0.136902955       0.043818798      -1.192812341
                        -----------------------------------------
Magnitude (a.u.)       :      1.201442378
Magnitude (Debye)      :      3.053823834

Rotational constants in cm-1:             0.012516             0.005489             0.004725
Rotational constants in MHz :           375.228612           164.559012           141.640031

                             ****ORCA TERMINATED NORMALLY****
TOTAL RUN TIME: 0 days 0 hours 0 minutes 21 seconds 600 msec
