                         Program Version 6.0.0  -   RELEASE  -
|  1> ! pbe def2-sv(p) def2/J RI DEFGRID1 loosescf d4 GCP(DFT/SV(P)) printgap
|  2> %output
|  3>     printlevel normal
|  4> end
|  5> * xyz 0 1
|  6> C 3.0592124354 0.580272287 -2.9748535946
|  7> C 2.940091457 1.0263881585 -1.5331822046
|  8> O 2.5185241838 -0.1102066496 -0.7537296758
|  9> P 2.0381527743 0.0580700979 0.7643636638
| 10> S 0.9288437759 1.620173838 1.141257019
| 11> O 3.3491301488 0.1459404242 1.6531649445
| 12> C 4.4060004737 -0.8451453512 1.6140239404
| 13> C 4.3048233754 -1.7770855164 2.804483188
| 14> S 1.3075879627 -1.8877301439 1.0668281772
| 15> C -0.1183035934 -1.8644848296 -0.0486993161
| 16> S -1.5576030302 -1.0104487631 0.6649564641
| 17> P -2.0732007364 0.2267484461 -0.9947924754
| 18> S -0.5669003068 0.7114456133 -2.1473593522
| 19> O -2.9557256154 1.4056926097 -0.4102056989
| 20> C -2.4733682406 2.4884221207 0.4065955025
| 21> C -2.7179461548 2.2047644694 1.8749795588
| 22> O -3.137239259 -0.5673874346 -1.8470333295
| 23> C -4.5462891099 -0.7064029448 -1.5404654603
| 24> C -4.7942837958 -1.4350816969 -0.236856661
| 25> H 2.0802453335 0.289627545 -3.3479711841
| 26> H 3.4359426293 1.4044897497 -3.5710593444
| 27> H 3.7372724794 -0.2646667859 -3.0502583499
| 28> H 2.1926728969 1.8192410353 -1.4254842683
| 29> H 3.8960462915 1.3804305865 -1.1363756515
| 30> H 4.3475402709 -1.3950300371 0.6712831003
| 31> H 5.3281276086 -0.2618838883 1.6466166197
| 32> H 3.3855878359 -2.357031789 2.756854153
| 33> H 5.1538939842 -2.4531546844 2.798107988
| 34> H 4.3095750383 -1.201721174 3.7260105565
| 35> H -0.3786574582 -2.9068627557 -0.2113694084
| 36> H 0.1551889174 -1.3660505962 -0.9822080655
| 37> H -1.4098041 2.6517968826 0.2119887943
| 38> H -3.041993645 3.3576144995 0.0705585407
| 39> H -3.7682281313 1.9861745479 2.0461709607
| 40> H -2.116410417 1.3603748947 2.2036745273
| 41> H -2.4299900959 3.0773093292 2.4520473242
| 42> H -4.9895651723 0.2906486208 -1.5220675426
| 43> H -4.9287966197 -1.2677438372 -2.3944239729
| 44> H -4.4118481759 -0.8556017069 0.6012042908
| 45> H -5.8633570863 -1.5755609061 -0.1107546165
| 46> H -4.3043624906 -2.4051788936 -0.2423552766
| 47> *
| 48>
| 49>                          ****END OF INPUT****

CARTESIAN COORDINATES (ANGSTROEM)
---------------------------------
  C      3.059212    0.580272   -2.974854
  C      2.940091    1.026388   -1.533182
  O      2.518524   -0.110207   -0.753730
  P      2.038153    0.058070    0.764364
  S      0.928844    1.620174    1.141257
  O      3.349130    0.145940    1.653165
  C      4.406000   -0.845145    1.614024
  C      4.304823   -1.777086    2.804483
  S      1.307588   -1.887730    1.066828
  C     -0.118304   -1.864485   -0.048699
  S     -1.557603   -1.010449    0.664956
  P     -2.073201    0.226748   -0.994792
  S     -0.566900    0.711446   -2.147359
  O     -2.955726    1.405693   -0.410206
  C     -2.473368    2.488422    0.406596
  C     -2.717946    2.204764    1.874980
  O     -3.137239   -0.567387   -1.847033
  C     -4.546289   -0.706403   -1.540465
  C     -4.794284   -1.435082   -0.236857
  H      2.080245    0.289628   -3.347971
  H      3.435943    1.404490   -3.571059
  H      3.737272   -0.264667   -3.050258
  H      2.192673    1.819241   -1.425484
  H      3.896046    1.380431   -1.136376
  H      4.347540   -1.395030    0.671283
  H      5.328128   -0.261884    1.646617
  H      3.385588   -2.357032    2.756854
  H      5.153894   -2.453155    2.798108
  H      4.309575   -1.201721    3.726011
  H     -0.378657   -2.906863   -0.211369
  H      0.155189   -1.366051   -0.982208
  H     -1.409804    2.651797    0.211989
  H     -3.041994    3.357614    0.070559
  H     -3.768228    1.986175    2.046171
  H     -2.116410    1.360375    2.203675
  H     -2.429990    3.077309    2.452047
  H     -4.989565    0.290649   -1.522068
  H     -4.928797   -1.267744   -2.394424
  H     -4.411848   -0.855602    0.601204
  H     -5.863357   -1.575561   -0.110755
  H     -4.304362   -2.405179   -0.242355

 Total Charge           Charge          ....    0
 Multiplicity           Mult            ....    1
 Number of Electrons    NEL             ....  202
 Basis Dimension        Dim             ....  334

ORBITAL ENERGIES
----------------

  NO   OCC          E(Eh)            E(eV)
   0   2.0000     -88.044038     -2395.8001
   1   2.0000     -88.037773     -2395.6296
   2   2.0000     -87.978144     -2394.0070
   3   2.0000     -87.974996     -2393.9213
   4   2.0000     -76.423429     -2079.5872
   5   2.0000     -76.419707     -2079.4860
   6   2.0000     -18.794503      -511.4244
   7   2.0000     -18.790473      -511.3148
   8   2.0000     -18.783626      -511.1284
   9   2.0000     -18.783578      -511.1271
  10   2.0000      -9.957198      -270.9491
  11   2.0000      -9.954259      -270.8692
  12   2.0000      -9.953844      -270.8579
  13   2.0000      -9.948244      -270.7055
  14   2.0000      -9.941667      -270.5265
  15   2.0000      -9.889206      -269.0990
  16   2.0000      -9.887740      -269.0591
  17   2.0000      -9.878599      -268.8104
  18   2.0000      -9.877121      -268.7701
  19   2.0000      -7.689543      -209.2431
  20   2.0000      -7.682523      -209.0521
  21   2.0000      -7.623311      -207.4408
  22   2.0000      -7.620292      -207.3587
  23   2.0000      -6.420736      -174.7171
  24   2.0000      -6.417744      -174.6357
  25   2.0000      -5.717434      -155.5793
  26   2.0000      -5.713973      -155.4851
  27   2.0000      -5.710439      -155.3889
  28   2.0000      -5.707103      -155.2982
  29   2.0000      -5.706480      -155.2812
  30   2.0000      -5.699437      -155.0896
  31   2.0000      -5.652225      -153.8049
  32   2.0000      -5.649336      -153.7263
  33   2.0000      -5.644240      -153.5876
  34   2.0000      -5.643061      -153.5555
  35   2.0000      -5.640836      -153.4949
  36   2.0000      -5.640277      -153.4797
  37   2.0000      -4.643789      -126.3639
  38   2.0000      -4.642349      -126.3247
  39   2.0000      -4.640937      -126.2863
  40   2.0000      -4.640771      -126.2818
  41   2.0000      -4.639336      -126.2428
  42   2.0000      -4.637932      -126.2046
  43   2.0000      -0.985929       -26.8285
  44   2.0000      -0.980374       -26.6773
  45   2.0000      -0.940381       -25.5891
  46   2.0000      -0.938557       -25.5394
  47   2.0000      -0.761001       -20.7079
  48   2.0000      -0.720407       -19.6033
  49   2.0000      -0.709838       -19.3157
  50   2.0000      -0.689632       -18.7658
  51   2.0000      -0.688206       -18.7270
  52   2.0000      -0.672750       -18.3064
  53   2.0000      -0.646794       -17.6002
  54   2.0000      -0.630017       -17.1436
  55   2.0000      -0.594082       -16.1658
  56   2.0000      -0.578959       -15.7543
  57   2.0000      -0.575159       -15.6509
  58   2.0000      -0.572005       -15.5650
  59   2.0000      -0.554716       -15.0946
  60   2.0000      -0.506103       -13.7718
  61   2.0000      -0.496093       -13.4994
  62   2.0000      -0.476851       -12.9758
  63   2.0000      -0.471645       -12.8341
  64   2.0000      -0.451734       -12.2923
  65   2.0000      -0.446217       -12.1422
  66   2.0000      -0.441794       -12.0218
  67   2.0000      -0.434687       -11.8284
  68   2.0000      -0.426799       -11.6138
  69   2.0000      -0.421754       -11.4765
  70   2.0000      -0.406596       -11.0640
  71   2.0000      -0.391772       -10.6606
  72   2.0000      -0.386548       -10.5185
  73   2.0000      -0.385779       -10.4976
  74   2.0000      -0.378429       -10.2976
  75   2.0000      -0.367399        -9.9974
  76   2.0000      -0.359818        -9.7911
  77   2.0000      -0.355821        -9.6824
  78   2.0000      -0.354865        -9.6564
  79   2.0000      -0.352585        -9.5943
  80   2.0000      -0.347847        -9.4654
  81   2.0000      -0.341448        -9.2913
  82   2.0000      -0.340477        -9.2648
  83   2.0000      -0.331205        -9.0125
  84   2.0000      -0.327156        -8.9024
  85   2.0000      -0.315858        -8.5949
  86   2.0000      -0.311970        -8.4891
  87   2.0000      -0.303708        -8.2643
  88   2.0000      -0.292201        -7.9512
  89   2.0000      -0.288847        -7.8599
  90   2.0000      -0.275614        -7.4998
  91   2.0000      -0.274362        -7.4658
  92   2.0000      -0.271053        -7.3757
  93   2.0000      -0.260020        -7.0755
  94   2.0000      -0.256435        -6.9779
  95   2.0000      -0.238993        -6.5033
  96   2.0000      -0.221719        -6.0333
  97   2.0000      -0.200382        -5.4527
  98   2.0000      -0.198457        -5.4003
  99   2.0000      -0.188981        -5.1424
 100   2.0000      -0.179115        -4.8740
 101   0.0000      -0.038832        -1.0567
 102   0.0000      -0.030677        -0.8348
 103   0.0000      -0.013254        -0.3607
 104   0.0000       0.007397         0.2013
 105   0.0000       0.015814         0.4303

MULLIKEN ATOMIC CHARGES
-----------------------
   0 C :   -0.284662
   1 C :   -0.014450
   2 O :   -0.389400
   3 P :    0.625114
   4 S :   -0.318175
   5 O :   -0.368572
   6 C :   -0.030135
   7 C :   -0.295674
   8 S :   -0.109254
   9 C :   -0.339754
  10 S :   -0.102575
  11 P :    0.623886
  12 S :   -0.316685
  13 O :   -0.385371
  14 C :   -0.013856
  15 C :   -0.311080
  16 O :   -0.365425
  17 C :    0.006721
  18 C :   -0.319139
  19 H :    0.133667
  20 H :    0.107176
  21 H :    0.106498
  22 H :    0.120178
  23 H :    0.093239
  24 H :    0.109695
  25 H :    0.110539
  26 H :    0.131419
  27 H :    0.111566
  28 H :    0.124225
  29 H :    0.181852
  30 H :    0.200513
  31 H :    0.132862
  32 H :    0.103668
  33 H :    0.108887
  34 H :    0.141523
  35 H :    0.113612
  36 H :    0.109152
  37 H :    0.108539
  38 H :    0.126315
  39 H :    0.112753
  40 H :    0.120608
Sum of atomic charges:    0.0000000

LOEWDIN ATOMIC CHARGES
----------------------
   0 C :   -0.352933
   1 C :   -0.122767
   2 O :   -0.256007
   3 P :    0.566224
   4 S :   -0.305485
   5 O :   -0.244039
   6 C :   -0.120847
   7 C :   -0.360053
   8 S :    0.085477
   9 C :   -0.479029
  10 S :    0.075289
  11 P :    0.571858
  12 S :   -0.300260
  13 O :   -0.239805
  14 C :   -0.115126
  15 C :   -0.365024
  16 O :   -0.244329
  17 C :   -0.108910
  18 C :   -0.368641
  19 H :    0.126721
  20 H :    0.129112
  21 H :    0.122317
  22 H :    0.110689
  23 H :    0.105518
  24 H :    0.109392
  25 H :    0.120887
  26 H :    0.119595
  27 H :    0.130963
  28 H :    0.131043
  29 H :    0.136025
  30 H :    0.124974
  31 H :    0.111469
  32 H :    0.118164
  33 H :    0.120857
  34 H :    0.123849
  35 H :    0.133074
  36 H :    0.114330
  37 H :    0.121520
  38 H :    0.117380
  39 H :    0.130658
  40 H :    0.125871

  Mayer bond orders larger than 0.100000
B(  0-C ,  1-C ) :   1.1634 B(  0-C , 19-H ) :   0.9438 B(  0-C , 20-H ) :   0.9417
B(  0-C , 21-H ) :   0.9498 B(  1-C ,  2-O ) :   0.8948 B(  1-C , 22-H ) :   0.9079
B(  1-C , 23-H ) :   0.9308 B(  2-O ,  3-P ) :   1.0708 B(  3-P ,  4-S ) :   1.6731
B(  3-P ,  5-O ) :   1.1165 B(  3-P ,  8-S ) :   0.9680 B(  4-S ,  8-S ) :   0.1106
B(  5-O ,  6-C ) :   0.9001 B(  6-C ,  7-C ) :   1.1677 B(  6-C , 24-H ) :   0.9152
B(  6-C , 25-H ) :   0.9328 B(  7-C , 26-H ) :   0.9372 B(  7-C , 27-H ) :   0.9388
B(  7-C , 28-H ) :   0.9456 B(  8-S ,  9-C ) :   1.0002 B(  9-C , 10-S ) :   0.9948
B(  9-C , 29-H ) :   0.9117 B(  9-C , 30-H ) :   0.8463 B( 10-S , 11-P ) :   0.9445
B( 10-S , 12-S ) :   0.1168 B( 11-P , 12-S ) :   1.6395 B( 11-P , 13-O ) :   1.0991
B( 11-P , 16-O ) :   1.1251 B( 12-S , 30-H ) :   0.1072 B( 13-O , 14-C ) :   0.8921
B( 14-C , 15-C ) :   1.1733 B( 14-C , 31-H ) :   0.9024 B( 14-C , 32-H ) :   0.9337
B( 15-C , 33-H ) :   0.9458 B( 15-C , 34-H ) :   0.9314 B( 15-C , 35-H ) :   0.9395
B( 16-O , 17-C ) :   0.9058 B( 17-C , 18-C ) :   1.1692 B( 17-C , 36-H ) :   0.9276
B( 17-C , 37-H ) :   0.9350 B( 18-C , 38-H ) :   0.9381 B( 18-C , 39-H ) :   0.9359
B( 18-C , 40-H ) :   0.9431

Dispersion correction           -0.065908113
FINAL SINGLE POINT ENERGY     -2929.512030344972

DIPOLE MOMENT
-------------

Method             : SCF
Type of density    : Electron Density
Multiplicity       :   1
Irrep              :   0
Energy             : -2929.6312723601813559 Eh
Relativity type    :
Basis              : AO
                                X                 Y                 Z
Electronic contribution:     -0.440861083       0.181317854      -1.123392573
Nuclear contribution   :      0.380380677      -0.875087840       1.281375541
                        -----------------------------------------
Total Dipole Moment    :     -0.060480406      -0.693769986       0.157982968
                        -----------------------------------------
Magnitude (a.u.)       :      0.714096136
Magnitude (Debye)      :      1.815088130

Rotational constants in cm-1:             0.012664             0.004972             0.004730
Rotational constants in MHz :           379.663583           149.057744           141.800453

                             ****ORCA TERMINATED NORMALLY****
TOTAL RUN TIME: 0 days 0 hours 0 minutes 21 seconds 95 msec
