                         Program Version 6.0.0  -   RELEASE  -
|  1> ! pbe def2-sv(p) def2/J RI DEFGRID1 loosescf d4 GCP(DFT/SV(P)) printgap
|  2> %output
|  3>     printlevel normal
|  4> end
|  5> * xyz 0 1
|  6> C 3.4751657052 1.9558414356 -0.9547416697
|  7> C 3.6219683847 0.9430181327 0.163157838
|  8> O 2.964530851 -0.2923923344 -0.1838280869
|  9> P 1.7421556342 -0.9437715527 0.6025518776
| 10> S 1.1538050643 0.0666632269 2.1792214266
| 11> O 2.1721368346 -2.441496864 0.9206382543
| 12> C 2.7657269788 -2.8199697692 2.1761923733
| 13> C 4.1704905773 -2.2696341479 2.3196867027
| 14> S 0.4620047942 -1.5136632933 -0.9748582109
| 15> C 0.4381956 0.0375838699 -1.9201916314
| 16> S -0.1189978864 1.467482413 -0.9479196699
| 17> P -2.0673640613 0.776083295 -0.5915010152
| 18> S -2.9746842512 -0.1864392013 -2.0430992977
| 19> O -2.864621443 2.03754435 -0.0433633044
| 20> C -3.5870848749 2.9294696649 -0.9128303119
| 21> C -2.6590567347 3.7256779676 -1.807043658
| 22> O -1.82120206 -0.0451485131 0.7393691452
| 23> C -2.7952070959 -0.9615424268 1.2831171327
| 24> C -2.0539389863 -2.0841821837 1.9802079663
| 25> H 2.4329869142 2.2487902997 -1.0708025745
| 26> H 4.060911473 2.8353615467 -0.707847967
| 27> H 3.8385998732 1.5379695935 -1.8895339037
| 28> H 3.1921868994 1.3218380278 1.0969374375
| 29> H 4.6706814085 0.682524743 0.3211054662
| 30> H 2.1262261394 -2.4578054935 2.9879195618
| 31> H 2.7568105088 -3.9104923337 2.153933092
| 32> H 4.1340490233 -1.1832902745 2.3953277736
| 33> H 4.6248179639 -2.6702845314 3.2204006182
| 34> H 4.7709878506 -2.546968449 1.4571391506
| 35> H -0.2533285552 -0.1294359971 -2.7463343313
| 36> H 1.4378984058 0.2672692835 -2.2802740845
| 37> H -4.2840639843 2.3346167009 -1.5117906156
| 38> H -4.1394631434 3.5720704144 -0.2261352939
| 39> H -1.8990574585 4.2262432943 -1.2121909024
| 40> H -2.168380372 3.0620602383 -2.5180513048
| 41> H -3.2351639176 4.4646769123 -2.3545005818
| 42> H -3.419058404 -0.4001515787 1.9823536381
| 43> H -3.4153036918 -1.3411752663 0.4630622505
| 44> H -2.7705624385 -2.7522681123 2.4461898349
| 45> H -1.4547454093 -2.6416317928 1.2626988699
| 46> H -1.3949414657 -1.6714281941 2.740355364
| 47> *
| 48>
| 49>                          ****END OF INPUT****

CARTESIAN COORDINATES (ANGSTROEM)
---------------------------------
  C      3.475166    1.955841   -0.954742
  C      3.621968    0.943018    0.163158
  O      2.964531   -0.292392   -0.183828
  P      1.742156   -0.943772    0.602552
  S      1.153805    0.066663    2.179221
  O      2.172137   -2.441497    0.920638
  C      2.765727   -2.819970    2.176192
  C      4.170491   -2.269634    2.319687
  S      0.462005   -1.513663   -0.974858
  C      0.438196    0.037584   -1.920192
  S     -0.118998    1.467482   -0.947920
  P     -2.067364    0.776083   -0.591501
  S     -2.974684   -0.186439   -2.043099
  O     -2.864621    2.037544   -0.043363
  C     -3.587085    2.929470   -0.912830
  C     -2.659057    3.725678   -1.807044
  O     -1.821202   -0.045149    0.739369
  C     -2.795207   -0.961542    1.283117
  C     -2.053939   -2.084182    1.980208
  H      2.432987    2.248790   -1.070803
  H      4.060911    2.835362   -0.707848
  H      3.838600    1.537970   -1.889534
  H      3.192187    1.321838    1.096937
  H      4.670681    0.682525    0.321105
  H      2.126226   -2.457805    2.987920
  H      2.756811   -3.910492    2.153933
  H      4.134049   -1.183290    2.395328
  H      4.624818   -2.670285    3.220401
  H      4.770988   -2.546968    1.457139
  H     -0.253329   -0.129436   -2.746334
  H      1.437898    0.267269   -2.280274
  H     -4.284064    2.334617   -1.511791
  H     -4.139463    3.572070   -0.226135
  H     -1.899057    4.226243   -1.212191
  H     -2.168380    3.062060   -2.518051
  H     -3.235164    4.464677   -2.354501
  H     -3.419058   -0.400152    1.982354
  H     -3.415304   -1.341175    0.463062
  H     -2.770562   -2.752268    2.446190
  H     -1.454745   -2.641632    1.262699
  H     -1.394941   -1.671428    2.740355

 Total Charge           Charge          ....    0
 Multiplicity           Mult            ....    1
 Number of Electrons    NEL             ....  202
 Basis Dimension        Dim             ....  334

ORBITAL ENERGIES
----------------

  NO   OCC          E(Eh)            E(eV)
   0   2.0000     -88.045219     -2395.8322
   1   2.0000     -88.038857     -2395.6591
   2   2.0000     -87.985629     -2394.2107
   3   2.0000     -87.984074     -2394.1684
   4   2.0000     -76.424228     -2079.6090
   5   2.0000     -76.423513     -2079.5895
   6   2.0000     -18.794520      -511.4249
   7   2.0000     -18.790934      -511.3273
   8   2.0000     -18.788489      -511.2608
   9   2.0000     -18.780184      -511.0348
  10   2.0000      -9.957681      -270.9623
  11   2.0000      -9.954055      -270.8636
  12   2.0000      -9.950832      -270.7759
  13   2.0000      -9.950632      -270.7704
  14   2.0000      -9.941495      -270.5218
  15   2.0000      -9.891426      -269.1594
  16   2.0000      -9.886869      -269.0354
  17   2.0000      -9.883922      -268.9552
  18   2.0000      -9.871696      -268.6225
  19   2.0000      -7.690045      -209.2568
  20   2.0000      -7.684041      -209.0934
  21   2.0000      -7.630626      -207.6399
  22   2.0000      -7.629028      -207.5964
  23   2.0000      -6.421651      -174.7420
  24   2.0000      -6.421179      -174.7292
  25   2.0000      -5.717910      -155.5922
  26   2.0000      -5.714651      -155.5036
  27   2.0000      -5.712216      -155.4373
  28   2.0000      -5.708595      -155.3388
  29   2.0000      -5.706911      -155.2929
  30   2.0000      -5.700605      -155.1214
  31   2.0000      -5.659374      -153.9994
  32   2.0000      -5.657817      -153.9570
  33   2.0000      -5.651371      -153.7816
  34   2.0000      -5.650851      -153.7675
  35   2.0000      -5.649581      -153.7329
  36   2.0000      -5.649355      -153.7268
  37   2.0000      -4.644353      -126.3793
  38   2.0000      -4.643599      -126.3588
  39   2.0000      -4.643302      -126.3507
  40   2.0000      -4.642841      -126.3381
  41   2.0000      -4.642115      -126.3184
  42   2.0000      -4.641851      -126.3112
  43   2.0000      -0.983137       -26.7525
  44   2.0000      -0.981432       -26.7061
  45   2.0000      -0.945913       -25.7396
  46   2.0000      -0.939050       -25.5528
  47   2.0000      -0.765516       -20.8307
  48   2.0000      -0.722948       -19.6724
  49   2.0000      -0.706762       -19.2320
  50   2.0000      -0.690628       -18.7929
  51   2.0000      -0.682362       -18.5680
  52   2.0000      -0.668536       -18.1918
  53   2.0000      -0.649658       -17.6781
  54   2.0000      -0.638338       -17.3701
  55   2.0000      -0.600976       -16.3534
  56   2.0000      -0.591207       -16.0876
  57   2.0000      -0.575859       -15.6699
  58   2.0000      -0.567669       -15.4471
  59   2.0000      -0.553785       -15.0693
  60   2.0000      -0.498561       -13.5665
  61   2.0000      -0.496905       -13.5215
  62   2.0000      -0.478413       -13.0183
  63   2.0000      -0.468870       -12.7586
  64   2.0000      -0.459153       -12.4942
  65   2.0000      -0.440735       -11.9930
  66   2.0000      -0.438117       -11.9218
  67   2.0000      -0.434315       -11.8183
  68   2.0000      -0.423666       -11.5285
  69   2.0000      -0.415006       -11.2929
  70   2.0000      -0.400749       -10.9049
  71   2.0000      -0.397370       -10.8130
  72   2.0000      -0.392056       -10.6684
  73   2.0000      -0.384706       -10.4684
  74   2.0000      -0.381056       -10.3691
  75   2.0000      -0.378361       -10.2957
  76   2.0000      -0.369494       -10.0544
  77   2.0000      -0.360926        -9.8213
  78   2.0000      -0.353497        -9.6191
  79   2.0000      -0.350960        -9.5501
  80   2.0000      -0.345089        -9.3903
  81   2.0000      -0.343770        -9.3545
  82   2.0000      -0.339017        -9.2251
  83   2.0000      -0.334568        -9.1040
  84   2.0000      -0.330105        -8.9826
  85   2.0000      -0.321922        -8.7599
  86   2.0000      -0.307688        -8.3726
  87   2.0000      -0.295865        -8.0509
  88   2.0000      -0.293566        -7.9883
  89   2.0000      -0.283194        -7.7061
  90   2.0000      -0.281046        -7.6476
  91   2.0000      -0.276186        -7.5154
  92   2.0000      -0.268466        -7.3053
  93   2.0000      -0.263549        -7.1715
  94   2.0000      -0.260490        -7.0883
  95   2.0000      -0.236321        -6.4306
  96   2.0000      -0.215203        -5.8560
  97   2.0000      -0.207764        -5.6536
  98   2.0000      -0.203146        -5.5279
  99   2.0000      -0.197121        -5.3639
 100   2.0000      -0.194465        -5.2917
 101   0.0000      -0.050215        -1.3664
 102   0.0000      -0.026389        -0.7181
 103   0.0000      -0.003197        -0.0870
 104   0.0000       0.001939         0.0528
 105   0.0000       0.019852         0.5402

MULLIKEN ATOMIC CHARGES
-----------------------
   0 C :   -0.307063
   1 C :   -0.018684
   2 O :   -0.384535
   3 P :    0.628477
   4 S :   -0.307113
   5 O :   -0.378088
   6 C :   -0.003480
   7 C :   -0.316293
   8 S :   -0.063326
   9 C :   -0.368780
  10 S :   -0.095321
  11 P :    0.631739
  12 S :   -0.342027
  13 O :   -0.372409
  14 C :   -0.002976
  15 C :   -0.316862
  16 O :   -0.350068
  17 C :   -0.004831
  18 C :   -0.290115
  19 H :    0.132755
  20 H :    0.114600
  21 H :    0.119716
  22 H :    0.115724
  23 H :    0.104380
  24 H :    0.112269
  25 H :    0.105751
  26 H :    0.121745
  27 H :    0.113835
  28 H :    0.117994
  29 H :    0.192852
  30 H :    0.189025
  31 H :    0.111772
  32 H :    0.105797
  33 H :    0.118012
  34 H :    0.124484
  35 H :    0.113249
  36 H :    0.099999
  37 H :    0.102257
  38 H :    0.101486
  39 H :    0.119530
  40 H :    0.124523
Sum of atomic charges:    0.0000000

LOEWDIN ATOMIC CHARGES
----------------------
   0 C :   -0.360250
   1 C :   -0.121997
   2 O :   -0.251436
   3 P :    0.565881
   4 S :   -0.297478
   5 O :   -0.249193
   6 C :   -0.119856
   7 C :   -0.365347
   8 S :    0.108243
   9 C :   -0.478672
  10 S :    0.099936
  11 P :    0.573427
  12 S :   -0.328121
  13 O :   -0.244763
  14 C :   -0.118981
  15 C :   -0.369768
  16 O :   -0.233553
  17 C :   -0.114211
  18 C :   -0.357460
  19 H :    0.116046
  20 H :    0.133676
  21 H :    0.125238
  22 H :    0.107247
  23 H :    0.115167
  24 H :    0.109682
  25 H :    0.119175
  26 H :    0.120722
  27 H :    0.131416
  28 H :    0.126376
  29 H :    0.132239
  30 H :    0.131628
  31 H :    0.110729
  32 H :    0.119066
  33 H :    0.124327
  34 H :    0.120066
  35 H :    0.131139
  36 H :    0.112522
  37 H :    0.105144
  38 H :    0.125347
  39 H :    0.122233
  40 H :    0.124417

  Mayer bond orders larger than 0.100000
B(  0-C ,  1-C ) :   1.1678 B(  0-C , 19-H ) :   0.9308 B(  0-C , 20-H ) :   0.9371
B(  0-C , 21-H ) :   0.9432 B(  1-C ,  2-O ) :   0.9088 B(  1-C , 22-H ) :   0.8955
B(  1-C , 23-H ) :   0.9307 B(  2-O ,  3-P ) :   1.0901 B(  3-P ,  4-S ) :   1.6156
B(  3-P ,  5-O ) :   1.1114 B(  3-P ,  8-S ) :   0.9616 B(  4-S ,  8-S ) :   0.1068
B(  5-O ,  6-C ) :   0.9150 B(  6-C ,  7-C ) :   1.1610 B(  6-C , 24-H ) :   0.9135
B(  6-C , 25-H ) :   0.9341 B(  7-C , 26-H ) :   0.9338 B(  7-C , 27-H ) :   0.9392
B(  7-C , 28-H ) :   0.9464 B(  8-S ,  9-C ) :   1.0043 B(  9-C , 10-S ) :   1.0058
B(  9-C , 29-H ) :   0.8842 B(  9-C , 30-H ) :   0.8967 B( 10-S , 11-P ) :   0.9529
B( 10-S , 12-S ) :   0.1059 B( 11-P , 12-S ) :   1.5958 B( 11-P , 13-O ) :   1.1145
B( 11-P , 16-O ) :   1.1492 B( 13-O , 14-C ) :   0.9089 B( 14-C , 15-C ) :   1.1648
B( 14-C , 31-H ) :   0.9154 B( 14-C , 32-H ) :   0.9337 B( 15-C , 33-H ) :   0.9450
B( 15-C , 34-H ) :   0.9348 B( 15-C , 35-H ) :   0.9379 B( 16-O , 17-C ) :   0.8981
B( 17-C , 18-C ) :   1.1657 B( 17-C , 36-H ) :   0.9331 B( 17-C , 37-H ) :   0.9077
B( 18-C , 38-H ) :   0.9395 B( 18-C , 39-H ) :   0.9472 B( 18-C , 40-H ) :   0.9415

Dispersion correction           -0.067484470
FINAL SINGLE POINT ENERGY     -2929.521775514078

DIPOLE MOMENT
-------------

Method             : SCF
Type of density    : Electron Density
Multiplicity       :   1
Irrep              :   0
Energy             : -2929.6387451977188903 Eh
Relativity type    :
Basis              : AO
                                X                 Y                 Z
Electronic contribution:     -8.491850852      -4.185493036      -5.493089193
Nuclear contribution   :      9.357822271       4.692368417       5.701441482
                        -----------------------------------------
Total Dipole Moment    :      0.865971419       0.506875381       0.208352289
                        -----------------------------------------
Magnitude (a.u.)       :      1.024812093
Magnitude (Debye)      :      2.604865330

Rotational constants in cm-1:             0.012756             0.005454             0.004709
Rotational constants in MHz :           382.413590           163.493867           141.159384

                             ****ORCA TERMINATED NORMALLY****
TOTAL RUN TIME: 0 days 0 hours 0 minutes 21 seconds 349 msec
