                         Program Version 6.0.1  -  RELEASE   -
|  1> ! pbe def2-sv(p) def2/J RI DEFGRID1 loosescf d4 GCP(DFT/SV(P)) printgap
|  2> %output
|  3>     printlevel normal
|  4> end
|  5> * xyz 0 1
|  6> C 1.880556959 -3.5450355482 -2.3259561606
|  7> C 3.1293859058 -2.9506599779 -1.6944214213
|  8> O 2.8755034805 -1.611873243 -1.2298826857
|  9> C 2.3311412543 -1.4543346086 -0.0405740248
| 10> O 2.1014407062 -2.348724271 0.7413296146
| 11> C 2.0205486553 0.0070487898 0.2368466708
| 12> C 1.1170908388 0.5629129848 -0.8682527267
| 13> H 1.6852834542 0.694275313 -1.79110395
| 14> C 0.492796654 1.8731371041 -0.4337642272
| 15> O -0.7091927667 1.9888881758 -0.2747382993
| 16> O 1.3722681596 2.8092842113 -0.2449489688
| 17> C 0.9249482453 4.0776234545 0.2896878183
| 18> C 0.8538787518 4.0171809783 1.8063998336
| 19> S -0.2453641299 -0.5784668974 -1.2967442155
| 20> P -1.5678152804 -0.2573627194 0.3165576786
| 21> S -1.064811039 0.3306578954 2.1303435507
| 22> O -2.950536004 0.3378310325 -0.2202896339
| 23> C -3.4457851712 1.6566792681 0.0100869042
| 24> O -1.9647753893 -1.8157376224 0.30357844
| 25> C -2.9181163917 -2.3528204156 1.2225198089
| 26> H 2.1090563777 -4.5288202272 -2.7218417385
| 27> H 1.0924649255 -3.6358642407 -1.581277988
| 28> H 1.5236541237 -2.9038899211 -3.1271177274
| 29> H 3.9308038498 -2.8378483616 -2.4242744805
| 30> H 3.4628044001 -3.5582293247 -0.8482938873
| 31> H 2.9479787954 0.5801322976 0.2630652961
| 32> H 1.5300000647 0.063929558 1.2109604563
| 33> H 1.6760310826 4.7905247022 -0.0488320356
| 34> H -0.0524448842 4.3130043609 -0.13803707
| 35> H 0.5214670339 4.9761893143 2.1890911976
| 36> H 0.1500642997 3.2491633287 2.1237722937
| 37> H 1.8301465919 3.7848265359 2.2218811535
| 38> H -3.0626423292 2.041209378 0.9562523682
| 39> H -4.5291738237 1.565108237 0.044373829
| 40> H -3.1361718783 2.3081312865 -0.8041166134
| 41> H -3.9253958184 -2.0545034275 0.9330915855
| 42> H -2.703112141 -2.0020870652 2.2344681941
| 43> H -2.8056959004 -3.4326338501 1.1664521716
| 44> *
| 45>
| 46>                          ****END OF INPUT****

CARTESIAN COORDINATES (ANGSTROEM)
---------------------------------
  C      1.880557   -3.545036   -2.325956
  C      3.129386   -2.950660   -1.694421
  O      2.875503   -1.611873   -1.229883
  C      2.331141   -1.454335   -0.040574
  O      2.101441   -2.348724    0.741330
  C      2.020549    0.007049    0.236847
  C      1.117091    0.562913   -0.868253
  H      1.685283    0.694275   -1.791104
  C      0.492797    1.873137   -0.433764
  O     -0.709193    1.988888   -0.274738
  O      1.372268    2.809284   -0.244949
  C      0.924948    4.077623    0.289688
  C      0.853879    4.017181    1.806400
  S     -0.245364   -0.578467   -1.296744
  P     -1.567815   -0.257363    0.316558
  S     -1.064811    0.330658    2.130344
  O     -2.950536    0.337831   -0.220290
  C     -3.445785    1.656679    0.010087
  O     -1.964775   -1.815738    0.303578
  C     -2.918116   -2.352820    1.222520
  H      2.109056   -4.528820   -2.721842
  H      1.092465   -3.635864   -1.581278
  H      1.523654   -2.903890   -3.127118
  H      3.930804   -2.837848   -2.424274
  H      3.462804   -3.558229   -0.848294
  H      2.947979    0.580132    0.263065
  H      1.530000    0.063930    1.210960
  H      1.676031    4.790525   -0.048832
  H     -0.052445    4.313004   -0.138037
  H      0.521467    4.976189    2.189091
  H      0.150064    3.249163    2.123772
  H      1.830147    3.784827    2.221881
  H     -3.062642    2.041209    0.956252
  H     -4.529174    1.565108    0.044374
  H     -3.136172    2.308131   -0.804117
  H     -3.925396   -2.054503    0.933092
  H     -2.703112   -2.002087    2.234468
  H     -2.805696   -3.432634    1.166452

 Total Charge           Charge          ....    0
 Multiplicity           Mult            ....    1
 Number of Electrons    NEL             ....  174
 Basis Dimension        Dim             ....  316

ORBITAL ENERGIES
----------------

  NO   OCC          E(Eh)            E(eV)
   0   2.0000     -88.035551     -2395.5691
   1   2.0000     -87.972720     -2393.8594
   2   2.0000     -76.418594     -2079.4557
   3   2.0000     -18.830436      -512.4022
   4   2.0000     -18.799249      -511.5536
   5   2.0000     -18.780811      -511.0518
   6   2.0000     -18.769443      -510.7425
   7   2.0000     -18.766552      -510.6638
   8   2.0000     -18.732270      -509.7310
   9   2.0000     -10.035136      -273.0699
  10   2.0000     -10.005311      -272.2583
  11   2.0000      -9.963667      -271.1252
  12   2.0000      -9.954130      -270.8656
  13   2.0000      -9.944607      -270.6065
  14   2.0000      -9.932414      -270.2747
  15   2.0000      -9.927800      -270.1492
  16   2.0000      -9.905884      -269.5528
  17   2.0000      -9.892127      -269.1785
  18   2.0000      -9.879754      -268.8418
  19   2.0000      -7.680433      -208.9952
  20   2.0000      -7.617696      -207.2880
  21   2.0000      -6.414336      -174.5430
  22   2.0000      -5.708709      -155.3419
  23   2.0000      -5.705140      -155.2448
  24   2.0000      -5.696747      -155.0164
  25   2.0000      -5.646809      -153.6575
  26   2.0000      -5.638553      -153.4328
  27   2.0000      -5.637371      -153.4007
  28   2.0000      -4.636949      -126.1778
  29   2.0000      -4.636362      -126.1618
  30   2.0000      -4.634965      -126.1238
  31   2.0000      -1.040520       -28.3140
  32   2.0000      -1.006991       -27.4016
  33   2.0000      -0.968892       -26.3649
  34   2.0000      -0.945310       -25.7232
  35   2.0000      -0.923701       -25.1352
  36   2.0000      -0.909441       -24.7471
  37   2.0000      -0.769065       -20.9273
  38   2.0000      -0.719021       -19.5655
  39   2.0000      -0.705928       -19.2093
  40   2.0000      -0.685390       -18.6504
  41   2.0000      -0.647853       -17.6290
  42   2.0000      -0.629459       -17.1284
  43   2.0000      -0.620167       -16.8756
  44   2.0000      -0.615670       -16.7532
  45   2.0000      -0.592588       -16.1251
  46   2.0000      -0.568367       -15.4661
  47   2.0000      -0.513946       -13.9852
  48   2.0000      -0.505470       -13.7545
  49   2.0000      -0.495652       -13.4874
  50   2.0000      -0.486959       -13.2508
  51   2.0000      -0.466239       -12.6870
  52   2.0000      -0.461344       -12.5538
  53   2.0000      -0.451934       -12.2977
  54   2.0000      -0.437472       -11.9042
  55   2.0000      -0.436843       -11.8871
  56   2.0000      -0.423403       -11.5214
  57   2.0000      -0.414052       -11.2669
  58   2.0000      -0.406933       -11.0732
  59   2.0000      -0.405688       -11.0393
  60   2.0000      -0.398760       -10.8508
  61   2.0000      -0.392857       -10.6902
  62   2.0000      -0.387419       -10.5422
  63   2.0000      -0.382091       -10.3972
  64   2.0000      -0.375247       -10.2110
  65   2.0000      -0.370525       -10.0825
  66   2.0000      -0.356793        -9.7088
  67   2.0000      -0.354293        -9.6408
  68   2.0000      -0.351036        -9.5522
  69   2.0000      -0.340615        -9.2686
  70   2.0000      -0.334581        -9.1044
  71   2.0000      -0.329657        -8.9704
  72   2.0000      -0.320449        -8.7199
  73   2.0000      -0.312649        -8.5076
  74   2.0000      -0.304973        -8.2987
  75   2.0000      -0.293225        -7.9791
  76   2.0000      -0.290423        -7.9028
  77   2.0000      -0.287018        -7.8102
  78   2.0000      -0.275927        -7.5084
  79   2.0000      -0.261403        -7.1131
  80   2.0000      -0.257892        -7.0176
  81   2.0000      -0.254591        -6.9278
  82   2.0000      -0.246894        -6.7183
  83   2.0000      -0.215334        -5.8595
  84   2.0000      -0.212375        -5.7790
  85   2.0000      -0.192531        -5.2390
  86   2.0000      -0.185516        -5.0481
  87   0.0000      -0.050623        -1.3775
  88   0.0000      -0.041701        -1.1348
  89   0.0000      -0.013426        -0.3654
  90   0.0000       0.006635         0.1805
  91   0.0000       0.033747         0.9183

MULLIKEN ATOMIC CHARGES
-----------------------
   0 C :   -0.304899
   1 C :   -0.012682
   2 O :   -0.241673
   3 C :    0.120461
   4 O :   -0.178498
   5 C :   -0.072170
   6 C :   -0.330232
   7 H :    0.150422
   8 C :    0.233567
   9 O :   -0.198496
  10 O :   -0.213666
  11 C :   -0.013482
  12 C :   -0.318064
  13 S :   -0.059439
  14 P :    0.650797
  15 S :   -0.345668
  16 O :   -0.390221
  17 C :   -0.084362
  18 O :   -0.389450
  19 C :   -0.095389
  20 H :    0.109466
  21 H :    0.138880
  22 H :    0.110932
  23 H :    0.099147
  24 H :    0.109035
  25 H :    0.116628
  26 H :    0.122986
  27 H :    0.110329
  28 H :    0.113420
  29 H :    0.115840
  30 H :    0.147065
  31 H :    0.118146
  32 H :    0.112103
  33 H :    0.114613
  34 H :    0.113227
  35 H :    0.105341
  36 H :    0.114514
  37 H :    0.121469
Sum of atomic charges:    0.0000000

LOEWDIN ATOMIC CHARGES
----------------------
   0 C :   -0.358228
   1 C :   -0.110555
   2 O :   -0.066754
   3 C :    0.020584
   4 O :   -0.150803
   5 C :   -0.255064
   6 C :   -0.262321
   7 H :    0.149658
   8 C :    0.030402
   9 O :   -0.155470
  10 O :   -0.030996
  11 C :   -0.104838
  12 C :   -0.359599
  13 S :    0.136233
  14 P :    0.592258
  15 S :   -0.333530
  16 O :   -0.252443
  17 C :   -0.211835
  18 O :   -0.267473
  19 C :   -0.215577
  20 H :    0.128539
  21 H :    0.133803
  22 H :    0.122076
  23 H :    0.115731
  24 H :    0.120263
  25 H :    0.142355
  26 H :    0.135766
  27 H :    0.121629
  28 H :    0.122119
  29 H :    0.133013
  30 H :    0.133059
  31 H :    0.127481
  32 H :    0.107137
  33 H :    0.115084
  34 H :    0.111573
  35 H :    0.107974
  36 H :    0.108232
  37 H :    0.120517

  Mayer bond orders larger than 0.100000
B(  0-C ,  1-C ) :   1.1762 B(  0-C , 20-H ) :   0.9426 B(  0-C , 21-H ) :   0.9414
B(  0-C , 22-H ) :   0.9476 B(  1-C ,  2-O ) :   0.9163 B(  1-C , 23-H ) :   0.9377
B(  1-C , 24-H ) :   0.9143 B(  2-O ,  3-C ) :   1.1997 B(  3-C ,  4-O ) :   2.0852
B(  3-C ,  5-C ) :   1.0208 B(  5-C ,  6-C ) :   1.0324 B(  5-C , 25-H ) :   0.8744
B(  5-C , 26-H ) :   0.8782 B(  6-C ,  7-H ) :   0.8595 B(  6-C ,  8-C ) :   0.9202
B(  6-C , 13-S ) :   1.0481 B(  8-C ,  9-O ) :   1.9062 B(  8-C , 10-O ) :   1.2943
B(  9-O , 14-P ) :   0.1293 B( 10-O , 11-C ) :   0.8919 B( 11-C , 12-C ) :   1.1772
B( 11-C , 27-H ) :   0.9361 B( 11-C , 28-H ) :   0.9157 B( 12-C , 29-H ) :   0.9408
B( 12-C , 30-H ) :   0.9292 B( 12-C , 31-H ) :   0.9476 B( 13-S , 14-P ) :   0.9262
B( 13-S , 15-S ) :   0.1092 B( 14-P , 15-S ) :   1.5480 B( 14-P , 16-O ) :   1.0954
B( 14-P , 18-O ) :   1.0809 B( 16-O , 17-C ) :   0.9323 B( 17-C , 32-H ) :   0.9345
B( 17-C , 33-H ) :   0.9547 B( 17-C , 34-H ) :   0.9532 B( 18-O , 19-C ) :   0.9406
B( 19-C , 35-H ) :   0.9510 B( 19-C , 36-H ) :   0.9331 B( 19-C , 37-H ) :   0.9607

Dispersion correction           -0.053192836
FINAL SINGLE POINT ENERGY     -1979.012554975509

DIPOLE MOMENT
-------------

Method             : SCF
Type of density    : Electron Density
Multiplicity       :   1
Irrep              :   0
Energy             : -1979.1421472488359541 Eh
Relativity type    :
Basis              : AO
                                X                 Y                 Z
Electronic contribution:     -3.191156561      -2.152332616      -0.498000605
Nuclear contribution   :      3.555819501       3.429265963      -0.453415699
                        -----------------------------------------
Total Dipole Moment    :      0.364662940       1.276933347      -0.951416305
                        -----------------------------------------
Magnitude (a.u.)       :      1.633625054
Magnitude (Debye)      :      4.152344895

Rotational constants in cm-1:             0.011724             0.008474             0.006069
Rotational constants in MHz :           351.477551           254.030946           181.958907

                             ****ORCA TERMINATED NORMALLY****
TOTAL RUN TIME: 0 days 0 hours 0 minutes 49 seconds 832 msec
