                         Program Version 6.0.0  -   RELEASE  -
|  1> ! pbe def2-sv(p) def2/J RI DEFGRID1 loosescf d4 GCP(DFT/SV(P)) printgap
|  2> %output
|  3>     printlevel normal
|  4> end
|  5> * xyz 0 1
|  6> C 3.6760392228 -2.1911113596 -2.4966072485
|  7> C 3.8298692909 -2.0604651226 -0.9946547778
|  8> O 3.8644028035 -0.6564497541 -0.6250314236
|  9> P 2.7378054274 0.0377877784 0.2302967612
| 10> S 3.0892227714 1.9422178013 0.4835225335
| 11> O 2.745976172 -0.8651310838 1.5437729188
| 12> C 2.2174877168 -0.4313665405 2.8090380372
| 13> C 0.7313988984 -0.1440336925 2.7519150754
| 14> S 0.9196938497 -0.4950413237 -0.7773395682
| 15> C 0.2925218414 1.1542603966 -1.1681905075
| 16> S -0.9398452517 1.7588035226 0.0152299565
| 17> P -2.4347334366 0.3516880169 -0.5021017744
| 18> S -2.6429203404 -0.0552800755 -2.4026860073
| 19> O -3.7640229508 0.9604216111 0.1032544447
| 20> C -3.8670901401 1.7036969742 1.340779349
| 21> C -3.497309734 0.8705981347 2.5496823727
| 22> O -2.0168911986 -0.896208029 0.4059373478
| 23> C -2.166546154 -2.2562646958 -0.0320481127
| 24> C -3.6042679165 -2.7130283168 0.1101919196
| 25> H 4.4611954925 -1.6337812351 -2.9997511966
| 26> H 3.7470942986 -3.2386201746 -2.7714875622
| 27> H 2.7109557451 -1.8050139981 -2.815924189
| 28> H 4.7830181487 -2.468396289 -0.6550236125
| 29> H 3.0101372664 -2.5512288028 -0.4657784593
| 30> H 2.4429918281 -1.2620760077 3.4796660556
| 31> H 2.7664128695 0.461270289 3.123281311
| 32> H 0.1933522182 -0.9886218255 2.3271936991
| 33> H 0.3652311779 0.047742637 3.7556171853
| 34> H 0.5480393679 0.7387118086 2.1398696393
| 35> H -0.1676717889 1.097415156 -2.1543415094
| 36> H 1.1161088008 1.8692557013 -1.1460879523
| 37> H -3.2268868533 2.5867137752 1.2648262902
| 38> H -4.9147845038 2.0080271616 1.363167759
| 39> H -4.1138955524 -0.0231851146 2.5941076958
| 40> H -2.450864515 0.5784242932 2.4973482728
| 41> H -3.6564395922 1.4603367061 3.4469866367
| 42> H -1.8362476907 -2.3315422837 -1.0728877891
| 43> H -1.4919532481 -2.8260856096 0.6081635935
| 44> H -3.9282765834 -2.6290942826 1.1439265364
| 45> H -4.2464433237 -2.0910153537 -0.5130637959
| 46> H -3.6907839237 -3.7455925357 -0.2124953218
| 47> *
| 48>
| 49>                          ****END OF INPUT****

CARTESIAN COORDINATES (ANGSTROEM)
---------------------------------
  C      3.676039   -2.191111   -2.496607
  C      3.829869   -2.060465   -0.994655
  O      3.864403   -0.656450   -0.625031
  P      2.737805    0.037788    0.230297
  S      3.089223    1.942218    0.483523
  O      2.745976   -0.865131    1.543773
  C      2.217488   -0.431367    2.809038
  C      0.731399   -0.144034    2.751915
  S      0.919694   -0.495041   -0.777340
  C      0.292522    1.154260   -1.168191
  S     -0.939845    1.758804    0.015230
  P     -2.434733    0.351688   -0.502102
  S     -2.642920   -0.055280   -2.402686
  O     -3.764023    0.960422    0.103254
  C     -3.867090    1.703697    1.340779
  C     -3.497310    0.870598    2.549682
  O     -2.016891   -0.896208    0.405937
  C     -2.166546   -2.256265   -0.032048
  C     -3.604268   -2.713028    0.110192
  H      4.461195   -1.633781   -2.999751
  H      3.747094   -3.238620   -2.771488
  H      2.710956   -1.805014   -2.815924
  H      4.783018   -2.468396   -0.655024
  H      3.010137   -2.551229   -0.465778
  H      2.442992   -1.262076    3.479666
  H      2.766413    0.461270    3.123281
  H      0.193352   -0.988622    2.327194
  H      0.365231    0.047743    3.755617
  H      0.548039    0.738712    2.139870
  H     -0.167672    1.097415   -2.154342
  H      1.116109    1.869256   -1.146088
  H     -3.226887    2.586714    1.264826
  H     -4.914785    2.008027    1.363168
  H     -4.113896   -0.023185    2.594108
  H     -2.450865    0.578424    2.497348
  H     -3.656440    1.460337    3.446987
  H     -1.836248   -2.331542   -1.072888
  H     -1.491953   -2.826086    0.608164
  H     -3.928277   -2.629094    1.143927
  H     -4.246443   -2.091015   -0.513064
  H     -3.690784   -3.745593   -0.212495

 Total Charge           Charge          ....    0
 Multiplicity           Mult            ....    1
 Number of Electrons    NEL             ....  202
 Basis Dimension        Dim             ....  334

ORBITAL ENERGIES
----------------

  NO   OCC          E(Eh)            E(eV)
   0   2.0000     -88.045074     -2395.8283
   1   2.0000     -88.043600     -2395.7882
   2   2.0000     -87.992178     -2394.3889
   3   2.0000     -87.987737     -2394.2680
   4   2.0000     -76.428700     -2079.7307
   5   2.0000     -76.428205     -2079.7172
   6   2.0000     -18.796885      -511.4892
   7   2.0000     -18.792743      -511.3765
   8   2.0000     -18.792296      -511.3644
   9   2.0000     -18.791308      -511.3375
  10   2.0000      -9.964207      -271.1399
  11   2.0000      -9.960152      -271.0295
  12   2.0000      -9.954122      -270.8654
  13   2.0000      -9.954089      -270.8645
  14   2.0000      -9.951327      -270.7894
  15   2.0000      -9.893918      -269.2272
  16   2.0000      -9.887031      -269.0398
  17   2.0000      -9.885742      -269.0047
  18   2.0000      -9.881051      -268.8771
  19   2.0000      -7.689891      -209.2526
  20   2.0000      -7.688148      -209.2051
  21   2.0000      -7.637332      -207.8224
  22   2.0000      -7.632937      -207.7028
  23   2.0000      -6.426260      -174.8674
  24   2.0000      -6.425960      -174.8593
  25   2.0000      -5.717615      -155.5842
  26   2.0000      -5.715972      -155.5395
  27   2.0000      -5.714523      -155.5001
  28   2.0000      -5.712727      -155.4512
  29   2.0000      -5.706913      -155.2930
  30   2.0000      -5.705153      -155.2451
  31   2.0000      -5.666335      -154.1888
  32   2.0000      -5.661970      -154.0700
  33   2.0000      -5.657854      -153.9580
  34   2.0000      -5.657478      -153.9478
  35   2.0000      -5.653695      -153.8449
  36   2.0000      -5.652790      -153.8202
  37   2.0000      -4.648943      -126.5042
  38   2.0000      -4.648761      -126.4992
  39   2.0000      -4.647814      -126.4734
  40   2.0000      -4.647515      -126.4653
  41   2.0000      -4.646840      -126.4469
  42   2.0000      -4.646408      -126.4352
  43   2.0000      -0.988761       -26.9055
  44   2.0000      -0.987128       -26.8611
  45   2.0000      -0.948892       -25.8207
  46   2.0000      -0.944898       -25.7120
  47   2.0000      -0.764795       -20.8111
  48   2.0000      -0.724181       -19.7060
  49   2.0000      -0.714262       -19.4361
  50   2.0000      -0.695288       -18.9197
  51   2.0000      -0.689261       -18.7557
  52   2.0000      -0.677722       -18.4418
  53   2.0000      -0.653587       -17.7850
  54   2.0000      -0.641400       -17.4534
  55   2.0000      -0.601030       -16.3549
  56   2.0000      -0.594004       -16.1637
  57   2.0000      -0.579098       -15.7581
  58   2.0000      -0.577349       -15.7105
  59   2.0000      -0.561967       -15.2919
  60   2.0000      -0.506796       -13.7906
  61   2.0000      -0.497369       -13.5341
  62   2.0000      -0.481607       -13.1052
  63   2.0000      -0.472287       -12.8516
  64   2.0000      -0.462047       -12.5729
  65   2.0000      -0.451038       -12.2734
  66   2.0000      -0.444143       -12.0858
  67   2.0000      -0.437030       -11.8922
  68   2.0000      -0.434231       -11.8160
  69   2.0000      -0.421173       -11.4607
  70   2.0000      -0.414543       -11.2803
  71   2.0000      -0.398949       -10.8560
  72   2.0000      -0.391889       -10.6638
  73   2.0000      -0.389813       -10.6074
  74   2.0000      -0.380847       -10.3634
  75   2.0000      -0.373178       -10.1547
  76   2.0000      -0.369088       -10.0434
  77   2.0000      -0.358442        -9.7537
  78   2.0000      -0.358092        -9.7442
  79   2.0000      -0.354543        -9.6476
  80   2.0000      -0.351303        -9.5595
  81   2.0000      -0.349437        -9.5087
  82   2.0000      -0.345544        -9.4027
  83   2.0000      -0.341776        -9.3002
  84   2.0000      -0.339164        -9.2291
  85   2.0000      -0.319690        -8.6992
  86   2.0000      -0.311635        -8.4800
  87   2.0000      -0.308971        -8.4075
  88   2.0000      -0.302835        -8.2406
  89   2.0000      -0.297290        -8.0897
  90   2.0000      -0.283876        -7.7247
  91   2.0000      -0.278345        -7.5742
  92   2.0000      -0.273190        -7.4339
  93   2.0000      -0.269365        -7.3298
  94   2.0000      -0.257315        -7.0019
  95   2.0000      -0.228735        -6.2242
  96   2.0000      -0.219910        -5.9840
  97   2.0000      -0.214294        -5.8312
  98   2.0000      -0.208797        -5.6816
  99   2.0000      -0.205820        -5.6007
 100   2.0000      -0.201523        -5.4837
 101   0.0000      -0.047447        -1.2911
 102   0.0000      -0.029893        -0.8134
 103   0.0000      -0.015829        -0.4307
 104   0.0000       0.003779         0.1028
 105   0.0000       0.009681         0.2634

MULLIKEN ATOMIC CHARGES
-----------------------
   0 C :   -0.283393
   1 C :   -0.018087
   2 O :   -0.356146
   3 P :    0.597604
   4 S :   -0.303696
   5 O :   -0.382078
   6 C :    0.021916
   7 C :   -0.363315
   8 S :   -0.106289
   9 C :   -0.343215
  10 S :   -0.100581
  11 P :    0.613501
  12 S :   -0.312404
  13 O :   -0.367727
  14 C :   -0.024281
  15 C :   -0.329183
  16 O :   -0.376485
  17 C :   -0.010666
  18 C :   -0.304201
  19 H :    0.121714
  20 H :    0.108908
  21 H :    0.122257
  22 H :    0.114163
  23 H :    0.107057
  24 H :    0.101115
  25 H :    0.109928
  26 H :    0.128350
  27 H :    0.109354
  28 H :    0.144511
  29 H :    0.196083
  30 H :    0.191860
  31 H :    0.124707
  32 H :    0.116966
  33 H :    0.122165
  34 H :    0.148521
  35 H :    0.115274
  36 H :    0.112986
  37 H :    0.101659
  38 H :    0.112961
  39 H :    0.126583
  40 H :    0.111605
Sum of atomic charges:   -0.0000000

LOEWDIN ATOMIC CHARGES
----------------------
   0 C :   -0.358433
   1 C :   -0.112141
   2 O :   -0.240143
   3 P :    0.570811
   4 S :   -0.297894
   5 O :   -0.251934
   6 C :   -0.113041
   7 C :   -0.379637
   8 S :    0.076178
   9 C :   -0.481977
  10 S :    0.093129
  11 P :    0.570393
  12 S :   -0.306772
  13 O :   -0.241366
  14 C :   -0.114376
  15 C :   -0.368249
  16 O :   -0.246884
  17 C :   -0.125219
  18 C :   -0.362920
  19 H :    0.130315
  20 H :    0.129321
  21 H :    0.123173
  22 H :    0.122843
  23 H :    0.106946
  24 H :    0.117349
  25 H :    0.113010
  26 H :    0.123953
  27 H :    0.128658
  28 H :    0.113153
  29 H :    0.130691
  30 H :    0.128371
  31 H :    0.110983
  32 H :    0.125339
  33 H :    0.127511
  34 H :    0.127158
  35 H :    0.132449
  36 H :    0.106767
  37 H :    0.114424
  38 H :    0.121906
  39 H :    0.125640
  40 H :    0.130515

  Mayer bond orders larger than 0.100000
B(  0-C ,  1-C ) :   1.1627 B(  0-C , 19-H ) :   0.9460 B(  0-C , 20-H ) :   0.9398
B(  0-C , 21-H ) :   0.9400 B(  1-C ,  2-O ) :   0.8866 B(  1-C , 22-H ) :   0.9339
B(  1-C , 23-H ) :   0.9189 B(  2-O ,  3-P ) :   1.1463 B(  3-P ,  4-S ) :   1.6324
B(  3-P ,  5-O ) :   1.0911 B(  3-P ,  8-S ) :   0.9320 B(  4-S ,  8-S ) :   0.1116
B(  5-O ,  6-C ) :   0.9092 B(  6-C ,  7-C ) :   1.1596 B(  6-C , 24-H ) :   0.9337
B(  6-C , 25-H ) :   0.9214 B(  7-C , 26-H ) :   0.9387 B(  7-C , 27-H ) :   0.9354
B(  7-C , 28-H ) :   0.9205 B(  8-S ,  9-C ) :   1.0186 B(  9-C , 10-S ) :   1.0093
B(  9-C , 29-H ) :   0.8746 B(  9-C , 30-H ) :   0.8622 B( 10-S , 11-P ) :   0.9590
B( 11-P , 12-S ) :   1.6252 B( 11-P , 13-O ) :   1.1317 B( 11-P , 16-O ) :   1.0731
B( 13-O , 14-C ) :   0.9056 B( 14-C , 15-C ) :   1.1638 B( 14-C , 31-H ) :   0.9189
B( 14-C , 32-H ) :   0.9343 B( 15-C , 33-H ) :   0.9429 B( 15-C , 34-H ) :   0.9322
B( 15-C , 35-H ) :   0.9355 B( 16-O , 17-C ) :   0.9043 B( 17-C , 18-C ) :   1.1639
B( 17-C , 36-H ) :   0.9076 B( 17-C , 37-H ) :   0.9305 B( 18-C , 38-H ) :   0.9457
B( 18-C , 39-H ) :   0.9375 B( 18-C , 40-H ) :   0.9405

Dispersion correction           -0.065121217
FINAL SINGLE POINT ENERGY     -2929.517548345789

DIPOLE MOMENT
-------------

Method             : SCF
Type of density    : Electron Density
Multiplicity       :   1
Irrep              :   0
Energy             : -2929.6380183667338315 Eh
Relativity type    :
Basis              : AO
                                X                 Y                 Z
Electronic contribution:      7.011247960      14.855592047     -11.099839355
Nuclear contribution   :     -7.381918300     -16.171745554      12.479045202
                        -----------------------------------------
Total Dipole Moment    :     -0.370670340      -1.316153507       1.379205847
                        -----------------------------------------
Magnitude (a.u.)       :      1.942129069
Magnitude (Debye)      :      4.936499784

Rotational constants in cm-1:             0.011688             0.004983             0.004548
Rotational constants in MHz :           350.408144           149.398859           136.349280

                             ****ORCA TERMINATED NORMALLY****
TOTAL RUN TIME: 0 days 0 hours 0 minutes 21 seconds 337 msec
