                         Program Version 6.0.1  -  RELEASE   -
|  1> ! pbe def2-sv(p) def2/J RI DEFGRID1 loosescf d4 GCP(DFT/SV(P)) printgap
|  2> %output
|  3>     printlevel normal
|  4> end
|  5> * xyz 0 1
|  6> C 5.2561497642 -2.0411216676 -1.4720030929
|  7> C 4.5501483234 -0.7285759235 -1.1707884359
|  8> O 3.1199588988 -0.8801493288 -1.2484157203
|  9> C 2.478443114 -1.3150189484 -0.179772916
| 10> O 3.0052903238 -1.5962486542 0.8716338465
| 11> C 0.9867037283 -1.4373315095 -0.4395841554
| 12> C 0.4245540131 -0.1314038304 -1.0007682148
| 13> H 0.9557448345 0.1311728952 -1.9203434877
| 14> C 0.557969482 1.0108446112 -0.0130682439
| 15> O -0.3915357441 1.6699493937 0.3604011407
| 16> O 1.7937547356 1.1817698371 0.3734170152
| 17> C 2.0690108925 2.2140107097 1.346495604
| 18> C 2.2522555406 3.5625616208 0.6712950903
| 19> S -1.3240269173 -0.2780423602 -1.480487296
| 20> P -2.3512719046 0.001982332 0.3647129754
| 21> S -1.5164609662 -0.5609667646 2.0483997592
| 22> O -3.0420100121 1.4216208594 0.4155054875
| 23> C -3.8115194241 1.9491642056 -0.6822725483
| 24> O -3.6576732586 -0.8818944328 0.0360863026
| 25> C -3.60346472 -2.3086119614 -0.0237460817
| 26> H 5.0117493543 -2.7792509977 -0.7115096038
| 27> H 4.9491058465 -2.4175130699 -2.4438218587
| 28> H 6.3290282628 -1.879532738 -1.4730779943
| 29> H 4.7843157983 0.029014394 -1.918590321
| 30> H 4.8077264147 -0.3716363119 -0.1699062954
| 31> H 0.4954455425 -1.7048530214 0.4985682939
| 32> H 0.8270759008 -2.2305406966 -1.171803714
| 33> H 1.2432312323 2.2399425351 2.06326374
| 34> H 2.9822263967 1.8784366218 1.8383257983
| 35> H 1.3244787697 3.8726996419 0.1959221807
| 36> H 2.5257281383 4.2982199962 1.4202900455
| 37> H 3.0366321076 3.5044139748 -0.0779700821
| 38> H -4.1142099338 2.9421603992 -0.3602966392
| 39> H -4.678484571 1.3169125177 -0.8656471404
| 40> H -3.1919764022 2.0070946207 -1.5772144737
| 41> H -3.1169068335 -2.6223044045 -0.9471087184
| 42> H -4.6373561343 -2.6435264309 -0.0020294286
| 43> H -3.0597582534 -2.6993044764 0.8383406708
| 44> *
| 45>
| 46>                          ****END OF INPUT****

CARTESIAN COORDINATES (ANGSTROEM)
---------------------------------
  C      5.256150   -2.041122   -1.472003
  C      4.550148   -0.728576   -1.170788
  O      3.119959   -0.880149   -1.248416
  C      2.478443   -1.315019   -0.179773
  O      3.005290   -1.596249    0.871634
  C      0.986704   -1.437332   -0.439584
  C      0.424554   -0.131404   -1.000768
  H      0.955745    0.131173   -1.920343
  C      0.557969    1.010845   -0.013068
  O     -0.391536    1.669949    0.360401
  O      1.793755    1.181770    0.373417
  C      2.069011    2.214011    1.346496
  C      2.252256    3.562562    0.671295
  S     -1.324027   -0.278042   -1.480487
  P     -2.351272    0.001982    0.364713
  S     -1.516461   -0.560967    2.048400
  O     -3.042010    1.421621    0.415505
  C     -3.811519    1.949164   -0.682273
  O     -3.657673   -0.881894    0.036086
  C     -3.603465   -2.308612   -0.023746
  H      5.011749   -2.779251   -0.711510
  H      4.949106   -2.417513   -2.443822
  H      6.329028   -1.879533   -1.473078
  H      4.784316    0.029014   -1.918590
  H      4.807726   -0.371636   -0.169906
  H      0.495446   -1.704853    0.498568
  H      0.827076   -2.230541   -1.171804
  H      1.243231    2.239943    2.063264
  H      2.982226    1.878437    1.838326
  H      1.324479    3.872700    0.195922
  H      2.525728    4.298220    1.420290
  H      3.036632    3.504414   -0.077970
  H     -4.114210    2.942160   -0.360297
  H     -4.678485    1.316913   -0.865647
  H     -3.191976    2.007095   -1.577214
  H     -3.116907   -2.622304   -0.947109
  H     -4.637356   -2.643526   -0.002029
  H     -3.059758   -2.699304    0.838341

 Total Charge           Charge          ....    0
 Multiplicity           Mult            ....    1
 Number of Electrons    NEL             ....  174
 Basis Dimension        Dim             ....  316

ORBITAL ENERGIES
----------------

  NO   OCC          E(Eh)            E(eV)
   0   2.0000     -88.038042     -2395.6369
   1   2.0000     -87.972367     -2393.8498
   2   2.0000     -76.419952     -2079.4926
   3   2.0000     -18.821542      -512.1602
   4   2.0000     -18.803118      -511.6589
   5   2.0000     -18.781290      -511.0649
   6   2.0000     -18.779657      -511.0204
   7   2.0000     -18.752249      -510.2746
   8   2.0000     -18.736886      -509.8566
   9   2.0000     -10.025841      -272.8170
  10   2.0000     -10.009378      -272.3690
  11   2.0000      -9.955292      -270.8973
  12   2.0000      -9.952961      -270.8338
  13   2.0000      -9.951476      -270.7934
  14   2.0000      -9.941907      -270.5330
  15   2.0000      -9.934963      -270.3441
  16   2.0000      -9.906575      -269.5716
  17   2.0000      -9.893502      -269.2159
  18   2.0000      -9.889645      -269.1109
  19   2.0000      -7.682926      -209.0631
  20   2.0000      -7.617515      -207.2831
  21   2.0000      -6.415868      -174.5846
  22   2.0000      -5.710852      -155.4002
  23   2.0000      -5.707333      -155.3044
  24   2.0000      -5.699942      -155.1033
  25   2.0000      -5.646794      -153.6571
  26   2.0000      -5.638194      -153.4231
  27   2.0000      -5.637210      -153.3963
  28   2.0000      -4.638709      -126.2257
  29   2.0000      -4.637943      -126.2049
  30   2.0000      -4.636170      -126.1566
  31   2.0000      -1.030291       -28.0356
  32   2.0000      -1.010431       -27.4952
  33   2.0000      -0.975986       -26.5579
  34   2.0000      -0.934190       -25.4206
  35   2.0000      -0.929110       -25.2824
  36   2.0000      -0.914170       -24.8758
  37   2.0000      -0.768357       -20.9081
  38   2.0000      -0.712817       -19.3967
  39   2.0000      -0.711248       -19.3541
  40   2.0000      -0.687204       -18.6998
  41   2.0000      -0.657381       -17.8882
  42   2.0000      -0.627609       -17.0781
  43   2.0000      -0.625556       -17.0222
  44   2.0000      -0.612128       -16.6568
  45   2.0000      -0.596625       -16.2350
  46   2.0000      -0.570627       -15.5275
  47   2.0000      -0.513949       -13.9853
  48   2.0000      -0.505278       -13.7493
  49   2.0000      -0.499947       -13.6042
  50   2.0000      -0.485421       -13.2090
  51   2.0000      -0.466233       -12.6868
  52   2.0000      -0.463975       -12.6254
  53   2.0000      -0.448310       -12.1991
  54   2.0000      -0.437196       -11.8967
  55   2.0000      -0.430412       -11.7121
  56   2.0000      -0.423234       -11.5168
  57   2.0000      -0.418496       -11.3878
  58   2.0000      -0.417004       -11.3473
  59   2.0000      -0.406666       -11.0659
  60   2.0000      -0.402573       -10.9546
  61   2.0000      -0.394816       -10.7435
  62   2.0000      -0.391255       -10.6466
  63   2.0000      -0.389182       -10.5902
  64   2.0000      -0.379303       -10.3213
  65   2.0000      -0.369510       -10.0549
  66   2.0000      -0.360287        -9.8039
  67   2.0000      -0.355438        -9.6720
  68   2.0000      -0.349644        -9.5143
  69   2.0000      -0.340053        -9.2533
  70   2.0000      -0.338450        -9.2097
  71   2.0000      -0.328603        -8.9417
  72   2.0000      -0.326734        -8.8909
  73   2.0000      -0.315494        -8.5850
  74   2.0000      -0.303746        -8.2653
  75   2.0000      -0.298857        -8.1323
  76   2.0000      -0.292117        -7.9489
  77   2.0000      -0.288147        -7.8409
  78   2.0000      -0.275198        -7.4885
  79   2.0000      -0.264342        -7.1931
  80   2.0000      -0.260303        -7.0832
  81   2.0000      -0.251328        -6.8390
  82   2.0000      -0.240122        -6.5340
  83   2.0000      -0.228944        -6.2299
  84   2.0000      -0.214530        -5.8377
  85   2.0000      -0.191462        -5.2100
  86   2.0000      -0.185769        -5.0550
  87   0.0000      -0.043683        -1.1887
  88   0.0000      -0.034283        -0.9329
  89   0.0000      -0.017719        -0.4822
  90   0.0000       0.006452         0.1756
  91   0.0000       0.028446         0.7740

MULLIKEN ATOMIC CHARGES
-----------------------
   0 C :   -0.305200
   1 C :   -0.009238
   2 O :   -0.246372
   3 C :    0.110094
   4 O :   -0.191913
   5 C :   -0.047387
   6 C :   -0.318722
   7 H :    0.157942
   8 C :    0.213233
   9 O :   -0.184003
  10 O :   -0.221656
  11 C :   -0.007698
  12 C :   -0.309734
  13 S :   -0.097663
  14 P :    0.618457
  15 S :   -0.317962
  16 O :   -0.355738
  17 C :   -0.101842
  18 O :   -0.397512
  19 C :   -0.099311
  20 H :    0.129954
  21 H :    0.112863
  22 H :    0.113008
  23 H :    0.099263
  24 H :    0.106527
  25 H :    0.120607
  26 H :    0.117043
  27 H :    0.126356
  28 H :    0.114126
  29 H :    0.129963
  30 H :    0.119497
  31 H :    0.112645
  32 H :    0.129056
  33 H :    0.121902
  34 H :    0.115274
  35 H :    0.108608
  36 H :    0.120616
  37 H :    0.114917
Sum of atomic charges:    0.0000000

LOEWDIN ATOMIC CHARGES
----------------------
   0 C :   -0.356351
   1 C :   -0.110182
   2 O :   -0.067055
   3 C :    0.023259
   4 O :   -0.159361
   5 C :   -0.250059
   6 C :   -0.268590
   7 H :    0.150750
   8 C :    0.021877
   9 O :   -0.152086
  10 O :   -0.030601
  11 C :   -0.103950
  12 C :   -0.356104
  13 S :    0.094818
  14 P :    0.587426
  15 S :   -0.317380
  16 O :   -0.232625
  17 C :   -0.208796
  18 O :   -0.268581
  19 C :   -0.220718
  20 H :    0.131904
  21 H :    0.124345
  22 H :    0.130708
  23 H :    0.115995
  24 H :    0.119189
  25 H :    0.135508
  26 H :    0.142212
  27 H :    0.129480
  28 H :    0.123394
  29 H :    0.131503
  30 H :    0.134342
  31 H :    0.124251
  32 H :    0.125259
  33 H :    0.114369
  34 H :    0.108708
  35 H :    0.104366
  36 H :    0.120122
  37 H :    0.108654

  Mayer bond orders larger than 0.100000
B(  0-C ,  1-C ) :   1.1748 B(  0-C , 20-H ) :   0.9454 B(  0-C , 21-H ) :   0.9488
B(  0-C , 22-H ) :   0.9441 B(  1-C ,  2-O ) :   0.9180 B(  1-C , 23-H ) :   0.9373
B(  1-C , 24-H ) :   0.9140 B(  2-O ,  3-C ) :   1.1895 B(  3-C ,  4-O ) :   2.0706
B(  3-C ,  5-C ) :   1.0190 B(  5-C ,  6-C ) :   1.0282 B(  5-C , 25-H ) :   0.8770
B(  5-C , 26-H ) :   0.8859 B(  6-C ,  7-H ) :   0.8626 B(  6-C ,  8-C ) :   0.8973
B(  6-C , 13-S ) :   1.0238 B(  8-C ,  9-O ) :   1.9814 B(  8-C , 10-O ) :   1.2637
B(  9-O , 14-P ) :   0.1004 B( 10-O , 11-C ) :   0.8938 B( 11-C , 12-C ) :   1.1733
B( 11-C , 27-H ) :   0.9148 B( 11-C , 28-H ) :   0.9346 B( 12-C , 29-H ) :   0.9450
B( 12-C , 30-H ) :   0.9438 B( 12-C , 31-H ) :   0.9480 B( 13-S , 14-P ) :   0.9363
B( 13-S , 15-S ) :   0.1119 B( 14-P , 15-S ) :   1.6083 B( 14-P , 16-O ) :   1.1291
B( 14-P , 18-O ) :   1.0416 B( 16-O , 17-C ) :   0.9240 B( 17-C , 32-H ) :   0.9597
B( 17-C , 33-H ) :   0.9462 B( 17-C , 34-H ) :   0.9402 B( 18-O , 19-C ) :   0.9406
B( 19-C , 35-H ) :   0.9464 B( 19-C , 36-H ) :   0.9589 B( 19-C , 37-H ) :   0.9320

Dispersion correction           -0.051705889
FINAL SINGLE POINT ENERGY     -1979.013017125641

DIPOLE MOMENT
-------------

Method             : SCF
Type of density    : Electron Density
Multiplicity       :   1
Irrep              :   0
Energy             : -1979.1438891933116793 Eh
Relativity type    :
Basis              : AO
                                X                 Y                 Z
Electronic contribution:    -16.856245355      -2.131738716       5.024029993
Nuclear contribution   :     17.650608119       2.730126942      -6.695463642
                        -----------------------------------------
Total Dipole Moment    :      0.794362764       0.598388226      -1.671433649
                        -----------------------------------------
Magnitude (a.u.)       :      1.944934732
Magnitude (Debye)      :      4.943631213

Rotational constants in cm-1:             0.015730             0.006140             0.005318
Rotational constants in MHz :           471.560355           184.076062           159.427654

                             ****ORCA TERMINATED NORMALLY****
TOTAL RUN TIME: 0 days 0 hours 0 minutes 50 seconds 0 msec
