                         Program Version 6.0.0  -   RELEASE  -
|  1> ! pbe def2-sv(p) def2/J RI DEFGRID1 loosescf d4 GCP(DFT/SV(P)) printgap
|  2> %output
|  3>     printlevel normal
|  4> end
|  5> * xyz 0 1
|  6> C 4.3074495605 1.652624731 -0.6789515019
|  7> C 4.1619980656 1.3312902386 0.7937458027
|  8> O 2.8159536565 0.9335196457 1.1590171159
|  9> P 2.0649455728 -0.3670419967 0.671337663
| 10> S 0.8572173991 -1.0491368535 2.0544688565
| 11> O 3.2505279904 -1.3556529038 0.2927270753
| 12> C 3.055354556 -2.7745891011 0.1780226162
| 13> C 2.2310468557 -3.1382410714 -1.0398860393
| 14> S 1.245877805 0.1559632702 -1.2321478142
| 15> C 0.3625391953 1.6691098485 -0.7616422815
| 16> S -0.9342693302 1.4640198304 0.4963861498
| 17> P -2.1870923008 0.0470317783 -0.4961939178
| 18> S -1.5508882355 -1.781240072 -0.7768978088
| 19> O -2.578461712 0.7241957126 -1.8674485163
| 20> C -3.4894963796 1.8441687237 -2.0271778042
| 21> C -2.7479473343 3.1635817775 -2.1126018579
| 22> O -3.5315708057 0.1526925547 0.3481206338
| 23> C -3.7926417837 -0.6744523431 1.4937735571
| 24> C -2.9682912934 -0.2576292195 2.6945450378
| 25> H 3.6068092827 2.4279640253 -0.9774378966
| 26> H 5.3193179998 2.0018401206 -0.8605866974
| 27> H 4.1275078804 0.7643788135 -1.2800634957
| 28> H 4.3345594129 2.209910928 1.4174663894
| 29> H 4.8429657335 0.5296233843 1.0841124031
| 30> H 4.0690876367 -3.172422888 0.1116528928
| 31> H 2.5703962509 -3.1348772068 1.0911394439
| 32> H 2.2125252717 -4.2172592171 -1.1534706382
| 33> H 1.2051014755 -2.7874537979 -0.9223538063
| 34> H 2.6534981013 -2.6880791336 -1.9347619278
| 35> H -0.0739492063 2.04476136 -1.6846503258
| 36> H 1.0592276045 2.3867886534 -0.3331289687
| 37> H -4.0077052028 1.6219421989 -2.9615336816
| 38> H -4.201164964 1.8403377118 -1.2008503827
| 39> H -2.0079479196 3.1285298079 -2.9079224783
| 40> H -3.4639046899 3.9490468483 -2.334462674
| 41> H -2.2571957626 3.3929057027 -1.1698668045
| 42> H -4.8605366923 -0.540559778 1.6733827832
| 43> H -3.5863043815 -1.7160274162 1.226584375
| 44> H -3.0809876078 0.8075147566 2.8809679052
| 45> H -3.296979639 -0.8135561332 3.5665543623
| 46> H -1.9134096539 -0.4750339827 2.5261206805
| 47> *
| 48>
| 49>                          ****END OF INPUT****

CARTESIAN COORDINATES (ANGSTROEM)
---------------------------------
  C      4.307450    1.652625   -0.678952
  C      4.161998    1.331290    0.793746
  O      2.815954    0.933520    1.159017
  P      2.064946   -0.367042    0.671338
  S      0.857217   -1.049137    2.054469
  O      3.250528   -1.355653    0.292727
  C      3.055355   -2.774589    0.178023
  C      2.231047   -3.138241   -1.039886
  S      1.245878    0.155963   -1.232148
  C      0.362539    1.669110   -0.761642
  S     -0.934269    1.464020    0.496386
  P     -2.187092    0.047032   -0.496194
  S     -1.550888   -1.781240   -0.776898
  O     -2.578462    0.724196   -1.867449
  C     -3.489496    1.844169   -2.027178
  C     -2.747947    3.163582   -2.112602
  O     -3.531571    0.152693    0.348121
  C     -3.792642   -0.674452    1.493774
  C     -2.968291   -0.257629    2.694545
  H      3.606809    2.427964   -0.977438
  H      5.319318    2.001840   -0.860587
  H      4.127508    0.764379   -1.280063
  H      4.334559    2.209911    1.417466
  H      4.842966    0.529623    1.084112
  H      4.069088   -3.172423    0.111653
  H      2.570396   -3.134877    1.091139
  H      2.212525   -4.217259   -1.153471
  H      1.205101   -2.787454   -0.922354
  H      2.653498   -2.688079   -1.934762
  H     -0.073949    2.044761   -1.684650
  H      1.059228    2.386789   -0.333129
  H     -4.007705    1.621942   -2.961534
  H     -4.201165    1.840338   -1.200850
  H     -2.007948    3.128530   -2.907922
  H     -3.463905    3.949047   -2.334463
  H     -2.257196    3.392906   -1.169867
  H     -4.860537   -0.540560    1.673383
  H     -3.586304   -1.716027    1.226584
  H     -3.080988    0.807515    2.880968
  H     -3.296980   -0.813556    3.566554
  H     -1.913410   -0.475034    2.526121

 Total Charge           Charge          ....    0
 Multiplicity           Mult            ....    1
 Number of Electrons    NEL             ....  202
 Basis Dimension        Dim             ....  334

ORBITAL ENERGIES
----------------

  NO   OCC          E(Eh)            E(eV)
   0   2.0000     -88.035579     -2395.5699
   1   2.0000     -88.034786     -2395.5483
   2   2.0000     -87.972945     -2393.8655
   3   2.0000     -87.972767     -2393.8607
   4   2.0000     -76.421430     -2079.5328
   5   2.0000     -76.419986     -2079.4935
   6   2.0000     -18.792083      -511.3586
   7   2.0000     -18.788664      -511.2655
   8   2.0000     -18.788627      -511.2645
   9   2.0000     -18.787489      -511.2336
  10   2.0000      -9.958349      -270.9805
  11   2.0000      -9.957519      -270.9579
  12   2.0000      -9.955514      -270.9033
  13   2.0000      -9.948333      -270.7079
  14   2.0000      -9.945897      -270.6416
  15   2.0000      -9.889969      -269.1197
  16   2.0000      -9.889018      -269.0939
  17   2.0000      -9.876595      -268.7558
  18   2.0000      -9.874336      -268.6943
  19   2.0000      -7.680147      -208.9874
  20   2.0000      -7.679403      -208.9672
  21   2.0000      -7.617857      -207.2924
  22   2.0000      -7.617745      -207.2894
  23   2.0000      -6.418519      -174.6568
  24   2.0000      -6.417157      -174.6197
  25   2.0000      -5.708047      -155.3238
  26   2.0000      -5.707352      -155.3049
  27   2.0000      -5.704794      -155.2353
  28   2.0000      -5.704121      -155.2170
  29   2.0000      -5.696998      -155.0232
  30   2.0000      -5.696114      -154.9991
  31   2.0000      -5.646894      -153.6598
  32   2.0000      -5.646789      -153.6570
  33   2.0000      -5.638642      -153.4352
  34   2.0000      -5.638441      -153.4298
  35   2.0000      -5.637734      -153.4105
  36   2.0000      -5.637698      -153.4096
  37   2.0000      -4.641903      -126.3126
  38   2.0000      -4.640437      -126.2727
  39   2.0000      -4.640127      -126.2643
  40   2.0000      -4.638822      -126.2288
  41   2.0000      -4.638407      -126.2175
  42   2.0000      -4.637098      -126.1818
  43   2.0000      -0.985807       -26.8252
  44   2.0000      -0.983225       -26.7549
  45   2.0000      -0.943064       -25.6621
  46   2.0000      -0.940444       -25.5908
  47   2.0000      -0.757470       -20.6118
  48   2.0000      -0.716299       -19.4915
  49   2.0000      -0.709402       -19.3038
  50   2.0000      -0.687959       -18.7203
  51   2.0000      -0.685405       -18.6508
  52   2.0000      -0.669626       -18.2214
  53   2.0000      -0.646729       -17.5984
  54   2.0000      -0.630068       -17.1450
  55   2.0000      -0.589738       -16.0476
  56   2.0000      -0.583127       -15.8677
  57   2.0000      -0.579036       -15.7564
  58   2.0000      -0.577114       -15.7041
  59   2.0000      -0.557315       -15.1653
  60   2.0000      -0.496599       -13.5131
  61   2.0000      -0.493435       -13.4270
  62   2.0000      -0.469784       -12.7835
  63   2.0000      -0.469507       -12.7759
  64   2.0000      -0.461538       -12.5591
  65   2.0000      -0.445226       -12.1152
  66   2.0000      -0.443294       -12.0626
  67   2.0000      -0.427869       -11.6429
  68   2.0000      -0.423788       -11.5319
  69   2.0000      -0.420138       -11.4325
  70   2.0000      -0.410353       -11.1663
  71   2.0000      -0.397363       -10.8128
  72   2.0000      -0.391933       -10.6651
  73   2.0000      -0.376815       -10.2537
  74   2.0000      -0.372156       -10.1269
  75   2.0000      -0.368887       -10.0379
  76   2.0000      -0.362178        -9.8554
  77   2.0000      -0.358416        -9.7530
  78   2.0000      -0.357181        -9.7194
  79   2.0000      -0.352129        -9.5819
  80   2.0000      -0.347162        -9.4468
  81   2.0000      -0.346961        -9.4413
  82   2.0000      -0.338652        -9.2152
  83   2.0000      -0.332761        -9.0549
  84   2.0000      -0.326179        -8.8758
  85   2.0000      -0.316993        -8.6258
  86   2.0000      -0.313287        -8.5250
  87   2.0000      -0.299951        -8.1621
  88   2.0000      -0.296496        -8.0681
  89   2.0000      -0.289398        -7.8749
  90   2.0000      -0.284495        -7.7415
  91   2.0000      -0.269892        -7.3441
  92   2.0000      -0.264242        -7.1904
  93   2.0000      -0.255503        -6.9526
  94   2.0000      -0.252687        -6.8760
  95   2.0000      -0.241632        -6.5751
  96   2.0000      -0.216515        -5.8917
  97   2.0000      -0.199962        -5.4412
  98   2.0000      -0.184078        -5.0090
  99   2.0000      -0.178116        -4.8468
 100   2.0000      -0.176422        -4.8007
 101   0.0000      -0.046689        -1.2705
 102   0.0000      -0.018893        -0.5141
 103   0.0000      -0.008673        -0.2360
 104   0.0000      -0.001165        -0.0317
 105   0.0000       0.020157         0.5485

MULLIKEN ATOMIC CHARGES
-----------------------
   0 C :   -0.319556
   1 C :    0.008065
   2 O :   -0.375186
   3 P :    0.614036
   4 S :   -0.291760
   5 O :   -0.386305
   6 C :    0.000146
   7 C :   -0.345345
   8 S :   -0.095780
   9 C :   -0.348799
  10 S :   -0.103484
  11 P :    0.617787
  12 S :   -0.289990
  13 O :   -0.370342
  14 C :   -0.008834
  15 C :   -0.315647
  16 O :   -0.387705
  17 C :    0.000897
  18 C :   -0.343794
  19 H :    0.115289
  20 H :    0.112064
  21 H :    0.131693
  22 H :    0.108771
  23 H :    0.110939
  24 H :    0.100617
  25 H :    0.113559
  26 H :    0.113766
  27 H :    0.163968
  28 H :    0.114044
  29 H :    0.185163
  30 H :    0.183176
  31 H :    0.110889
  32 H :    0.115485
  33 H :    0.123257
  34 H :    0.112566
  35 H :    0.125562
  36 H :    0.100034
  37 H :    0.112170
  38 H :    0.112515
  39 H :    0.111873
  40 H :    0.164198
Sum of atomic charges:   -0.0000000

LOEWDIN ATOMIC CHARGES
----------------------
   0 C :   -0.368708
   1 C :   -0.107321
   2 O :   -0.246566
   3 P :    0.569617
   4 S :   -0.297230
   5 O :   -0.247111
   6 C :   -0.119294
   7 C :   -0.374526
   8 S :    0.083469
   9 C :   -0.477393
  10 S :    0.077020
  11 P :    0.566238
  12 S :   -0.295554
  13 O :   -0.246239
  14 C :   -0.109929
  15 C :   -0.366530
  16 O :   -0.248141
  17 C :   -0.118396
  18 C :   -0.374424
  19 H :    0.122550
  20 H :    0.130761
  21 H :    0.122098
  22 H :    0.121114
  23 H :    0.116379
  24 H :    0.116191
  25 H :    0.112346
  26 H :    0.132659
  27 H :    0.126479
  28 H :    0.122473
  29 H :    0.129692
  30 H :    0.129071
  31 H :    0.121901
  32 H :    0.115195
  33 H :    0.124543
  34 H :    0.131673
  35 H :    0.119393
  36 H :    0.115833
  37 H :    0.111583
  38 H :    0.122324
  39 H :    0.131672
  40 H :    0.125090

  Mayer bond orders larger than 0.100000
B(  0-C ,  1-C ) :   1.1692 B(  0-C , 19-H ) :   0.9448 B(  0-C , 20-H ) :   0.9350
B(  0-C , 21-H ) :   0.9361 B(  1-C ,  2-O ) :   0.8988 B(  1-C , 22-H ) :   0.9361
B(  1-C , 23-H ) :   0.9273 B(  2-O ,  3-P ) :   1.1053 B(  3-P ,  4-S ) :   1.6878
B(  3-P ,  5-O ) :   1.0711 B(  3-P ,  8-S ) :   0.9454 B(  4-S ,  8-S ) :   0.1146
B(  5-O ,  6-C ) :   0.9026 B(  6-C ,  7-C ) :   1.1652 B(  6-C , 24-H ) :   0.9331
B(  6-C , 25-H ) :   0.9122 B(  7-C , 26-H ) :   0.9373 B(  7-C , 27-H ) :   0.9210
B(  7-C , 28-H ) :   0.9443 B(  8-S ,  9-C ) :   1.0075 B(  9-C , 10-S ) :   0.9936
B(  9-C , 29-H ) :   0.8970 B(  9-C , 30-H ) :   0.8999 B( 10-S , 11-P ) :   0.9456
B( 10-S , 12-S ) :   0.1151 B( 11-P , 12-S ) :   1.6875 B( 11-P , 13-O ) :   1.1119
B( 11-P , 16-O ) :   1.0767 B( 13-O , 14-C ) :   0.9020 B( 14-C , 15-C ) :   1.1700
B( 14-C , 31-H ) :   0.9357 B( 14-C , 32-H ) :   0.9175 B( 15-C , 33-H ) :   0.9385
B( 15-C , 34-H ) :   0.9368 B( 15-C , 35-H ) :   0.9299 B( 16-O , 17-C ) :   0.9052
B( 17-C , 18-C ) :   1.1654 B( 17-C , 36-H ) :   0.9336 B( 17-C , 37-H ) :   0.9117
B( 18-C , 38-H ) :   0.9442 B( 18-C , 39-H ) :   0.9377 B( 18-C , 40-H ) :   0.9214

Dispersion correction           -0.067858579
FINAL SINGLE POINT ENERGY     -2929.506035566195

DIPOLE MOMENT
-------------

Method             : SCF
Type of density    : Electron Density
Multiplicity       :   1
Irrep              :   0
Energy             : -2929.6231721452863894 Eh
Relativity type    :
Basis              : AO
                                X                 Y                 Z
Electronic contribution:     -2.746992486      -6.156810417       3.517980007
Nuclear contribution   :      3.169466342       7.420539846      -4.060124204
                        -----------------------------------------
Total Dipole Moment    :      0.422473856       1.263729430      -0.542144197
                        -----------------------------------------
Magnitude (a.u.)       :      1.438546684
Magnitude (Debye)      :      3.656495083

Rotational constants in cm-1:             0.011863             0.005545             0.004961
Rotational constants in MHz :           355.632981           166.234344           148.725469

                             ****ORCA TERMINATED NORMALLY****
TOTAL RUN TIME: 0 days 0 hours 0 minutes 21 seconds 128 msec
