                         Program Version 6.0.0  -   RELEASE  -
|  1> ! pbe def2-sv(p) def2/J RI DEFGRID1 loosescf d4 GCP(DFT/SV(P)) printgap
|  2> %output
|  3>     printlevel normal
|  4> end
|  5> * xyz 0 1
|  6> C 3.3405201601 2.4130511186 -1.2937846365
|  7> C 4.0211283813 1.7987741779 -0.087824228
|  8> O 3.7347407962 0.3946467522 0.0182601511
|  9> P 2.353121484 -0.153482097 0.5786043634
| 10> S 1.6471842162 0.85670415 2.1084117577
| 11> O 2.6738106937 -1.6808510049 0.8565874662
| 12> C 3.1354351741 -2.1374175139 2.1460479385
| 13> C 4.5387718483 -1.6539338517 2.4438389307
| 14> S 1.1610723619 -0.3853839455 -1.1574587177
| 15> C -0.1078380595 -1.4732851099 -0.4493111164
| 16> S -1.2799598324 -0.6316083472 0.6366909567
| 17> P -2.6077837017 0.0588034905 -0.8893823099
| 18> S -2.7207688474 -1.0794365704 -2.4757812249
| 19> O -2.169089126 1.5057478671 -1.3309193462
| 20> C -2.0660183126 2.6529992171 -0.451012074
| 21> C -0.6129746974 3.0432628899 -0.2745274403
| 22> O -3.9374787724 0.3743261728 -0.077730978
| 23> C -4.5866931665 -0.5217092277 0.8437624123
| 24> C -4.8893814561 -1.873183264 0.2319588452
| 25> H 3.6255067909 3.456695992 -1.3780984198
| 26> H 3.6271957366 1.8840953153 -2.1988503462
| 27> H 2.2593732766 2.3469311642 -1.1814577375
| 28> H 3.6959018332 2.2912677214 0.8350907974
| 29> H 5.1077179382 1.8455293436 -0.1714144656
| 30> H 2.4348051643 -1.7849017243 2.9101132621
| 31> H 3.0893969518 -3.2247166318 2.070467168
| 32> H 4.5398286773 -0.5713924662 2.5632018276
| 33> H 4.8889961769 -2.110916255 3.3640833243
| 34> H 5.2075506124 -1.918693351 1.6291022101
| 35> H 0.3718399953 -2.2558788266 0.1321481286
| 36> H -0.6569181752 -1.8886949335 -1.2981570919
| 37> H -2.6278645673 3.4412929486 -0.9547844209
| 38> H -2.5364104907 2.4210600715 0.5064179496
| 39> H -0.1431877518 3.1621105313 -1.2475977682
| 40> H -0.5572734648 3.9804472314 0.2698638502
| 41> H -0.0759274357 2.2838311427 0.2905996466
| 42> H -3.9463913689 -0.6290367409 1.7238684124
| 43> H -5.5017458449 0.0089007835 1.113042833
| 44> H -5.4535311186 -2.47108593 0.9404264506
| 45> H -5.467120713 -1.7548819994 -0.6816277707
| 46> H -3.9632534745 -2.391186439 -0.0131221522
| 47> *
| 48>
| 49>                          ****END OF INPUT****

CARTESIAN COORDINATES (ANGSTROEM)
---------------------------------
  C      3.340520    2.413051   -1.293785
  C      4.021128    1.798774   -0.087824
  O      3.734741    0.394647    0.018260
  P      2.353121   -0.153482    0.578604
  S      1.647184    0.856704    2.108412
  O      2.673811   -1.680851    0.856587
  C      3.135435   -2.137418    2.146048
  C      4.538772   -1.653934    2.443839
  S      1.161072   -0.385384   -1.157459
  C     -0.107838   -1.473285   -0.449311
  S     -1.279960   -0.631608    0.636691
  P     -2.607784    0.058803   -0.889382
  S     -2.720769   -1.079437   -2.475781
  O     -2.169089    1.505748   -1.330919
  C     -2.066018    2.652999   -0.451012
  C     -0.612975    3.043263   -0.274527
  O     -3.937479    0.374326   -0.077731
  C     -4.586693   -0.521709    0.843762
  C     -4.889381   -1.873183    0.231959
  H      3.625507    3.456696   -1.378098
  H      3.627196    1.884095   -2.198850
  H      2.259373    2.346931   -1.181458
  H      3.695902    2.291268    0.835091
  H      5.107718    1.845529   -0.171414
  H      2.434805   -1.784902    2.910113
  H      3.089397   -3.224717    2.070467
  H      4.539829   -0.571392    2.563202
  H      4.888996   -2.110916    3.364083
  H      5.207551   -1.918693    1.629102
  H      0.371840   -2.255879    0.132148
  H     -0.656918   -1.888695   -1.298157
  H     -2.627865    3.441293   -0.954784
  H     -2.536410    2.421060    0.506418
  H     -0.143188    3.162111   -1.247598
  H     -0.557273    3.980447    0.269864
  H     -0.075927    2.283831    0.290600
  H     -3.946391   -0.629037    1.723868
  H     -5.501746    0.008901    1.113043
  H     -5.453531   -2.471086    0.940426
  H     -5.467121   -1.754882   -0.681628
  H     -3.963253   -2.391186   -0.013122

 Total Charge           Charge          ....    0
 Multiplicity           Mult            ....    1
 Number of Electrons    NEL             ....  202
 Basis Dimension        Dim             ....  334

ORBITAL ENERGIES
----------------

  NO   OCC          E(Eh)            E(eV)
   0   2.0000     -88.042736     -2395.7647
   1   2.0000     -88.041240     -2395.7239
   2   2.0000     -87.992549     -2394.3990
   3   2.0000     -87.980725     -2394.0772
   4   2.0000     -76.430425     -2079.7776
   5   2.0000     -76.423403     -2079.5865
   6   2.0000     -18.797722      -511.5120
   7   2.0000     -18.797574      -511.5080
   8   2.0000     -18.794071      -511.4127
   9   2.0000     -18.785250      -511.1726
  10   2.0000      -9.957878      -270.9676
  11   2.0000      -9.956820      -270.9389
  12   2.0000      -9.956124      -270.9199
  13   2.0000      -9.953513      -270.8489
  14   2.0000      -9.949722      -270.7457
  15   2.0000      -9.888987      -269.0930
  16   2.0000      -9.887919      -269.0640
  17   2.0000      -9.882404      -268.9139
  18   2.0000      -9.875237      -268.7189
  19   2.0000      -7.687906      -209.1985
  20   2.0000      -7.686015      -209.1471
  21   2.0000      -7.637123      -207.8167
  22   2.0000      -7.626091      -207.5165
  23   2.0000      -6.428087      -174.9172
  24   2.0000      -6.420784      -174.7184
  25   2.0000      -5.715779      -155.5343
  26   2.0000      -5.713629      -155.4757
  27   2.0000      -5.712571      -155.4469
  28   2.0000      -5.710558      -155.3922
  29   2.0000      -5.704715      -155.2332
  30   2.0000      -5.703262      -155.1937
  31   2.0000      -5.665834      -154.1752
  32   2.0000      -5.657756      -153.9554
  33   2.0000      -5.657546      -153.9497
  34   2.0000      -5.655096      -153.8830
  35   2.0000      -5.646709      -153.6548
  36   2.0000      -5.646090      -153.6379
  37   2.0000      -4.650675      -126.5513
  38   2.0000      -4.649866      -126.5293
  39   2.0000      -4.648492      -126.4919
  40   2.0000      -4.643634      -126.3597
  41   2.0000      -4.642691      -126.3340
  42   2.0000      -4.640877      -126.2847
  43   2.0000      -0.992516       -27.0077
  44   2.0000      -0.985914       -26.8281
  45   2.0000      -0.952754       -25.9258
  46   2.0000      -0.941211       -25.6117
  47   2.0000      -0.763150       -20.7664
  48   2.0000      -0.722663       -19.6647
  49   2.0000      -0.710433       -19.3319
  50   2.0000      -0.692240       -18.8368
  51   2.0000      -0.687236       -18.7007
  52   2.0000      -0.674900       -18.3650
  53   2.0000      -0.653846       -17.7921
  54   2.0000      -0.637640       -17.3511
  55   2.0000      -0.603523       -16.4227
  56   2.0000      -0.588458       -16.0128
  57   2.0000      -0.577323       -15.7098
  58   2.0000      -0.571509       -15.5516
  59   2.0000      -0.560950       -15.2642
  60   2.0000      -0.502940       -13.6857
  61   2.0000      -0.497952       -13.5500
  62   2.0000      -0.480748       -13.0818
  63   2.0000      -0.470134       -12.7930
  64   2.0000      -0.461343       -12.5538
  65   2.0000      -0.446452       -12.1486
  66   2.0000      -0.443713       -12.0740
  67   2.0000      -0.435742       -11.8572
  68   2.0000      -0.430622       -11.7178
  69   2.0000      -0.416027       -11.3207
  70   2.0000      -0.412762       -11.2318
  71   2.0000      -0.401085       -10.9141
  72   2.0000      -0.395401       -10.7594
  73   2.0000      -0.391677       -10.6581
  74   2.0000      -0.383186       -10.4270
  75   2.0000      -0.373675       -10.1682
  76   2.0000      -0.361546        -9.8382
  77   2.0000      -0.355593        -9.6762
  78   2.0000      -0.354593        -9.6490
  79   2.0000      -0.351526        -9.5655
  80   2.0000      -0.348895        -9.4939
  81   2.0000      -0.345348        -9.3974
  82   2.0000      -0.342762        -9.3270
  83   2.0000      -0.337382        -9.1806
  84   2.0000      -0.334312        -9.0971
  85   2.0000      -0.322271        -8.7694
  86   2.0000      -0.308664        -8.3992
  87   2.0000      -0.299413        -8.1474
  88   2.0000      -0.295738        -8.0474
  89   2.0000      -0.290072        -7.8933
  90   2.0000      -0.288911        -7.8617
  91   2.0000      -0.279002        -7.5920
  92   2.0000      -0.274128        -7.4594
  93   2.0000      -0.267719        -7.2850
  94   2.0000      -0.260156        -7.0792
  95   2.0000      -0.237634        -6.4663
  96   2.0000      -0.220224        -5.9926
  97   2.0000      -0.211940        -5.7672
  98   2.0000      -0.202629        -5.5138
  99   2.0000      -0.199761        -5.4358
 100   2.0000      -0.194205        -5.2846
 101   0.0000      -0.043122        -1.1734
 102   0.0000      -0.024576        -0.6687
 103   0.0000      -0.012630        -0.3437
 104   0.0000      -0.002934        -0.0798
 105   0.0000       0.014193         0.3862

MULLIKEN ATOMIC CHARGES
-----------------------
   0 C :   -0.337635
   1 C :   -0.008301
   2 O :   -0.368220
   3 P :    0.607550
   4 S :   -0.317845
   5 O :   -0.373524
   6 C :   -0.007034
   7 C :   -0.305330
   8 S :   -0.067532
   9 C :   -0.361446
  10 S :   -0.099555
  11 P :    0.599615
  12 S :   -0.312711
  13 O :   -0.350218
  14 C :    0.002556
  15 C :   -0.328043
  16 O :   -0.381688
  17 C :   -0.009832
  18 C :   -0.307149
  19 H :    0.115888
  20 H :    0.122902
  21 H :    0.148286
  22 H :    0.110116
  23 H :    0.107808
  24 H :    0.111939
  25 H :    0.106826
  26 H :    0.122142
  27 H :    0.113883
  28 H :    0.120139
  29 H :    0.187780
  30 H :    0.195770
  31 H :    0.106209
  32 H :    0.098684
  33 H :    0.126519
  34 H :    0.103138
  35 H :    0.145031
  36 H :    0.113764
  37 H :    0.108717
  38 H :    0.110579
  39 H :    0.127382
  40 H :    0.122840
Sum of atomic charges:    0.0000000

LOEWDIN ATOMIC CHARGES
----------------------
   0 C :   -0.368176
   1 C :   -0.120964
   2 O :   -0.239876
   3 P :    0.569752
   4 S :   -0.312152
   5 O :   -0.241394
   6 C :   -0.118617
   7 C :   -0.364347
   8 S :    0.097742
   9 C :   -0.486273
  10 S :    0.071500
  11 P :    0.567309
  12 S :   -0.306086
  13 O :   -0.234244
  14 C :   -0.109555
  15 C :   -0.368929
  16 O :   -0.245261
  17 C :   -0.115055
  18 C :   -0.368856
  19 H :    0.132974
  20 H :    0.128557
  21 H :    0.125120
  22 H :    0.108240
  23 H :    0.119672
  24 H :    0.110694
  25 H :    0.119130
  26 H :    0.122735
  27 H :    0.131478
  28 H :    0.128113
  29 H :    0.132859
  30 H :    0.127649
  31 H :    0.119328
  32 H :    0.107382
  33 H :    0.125526
  34 H :    0.127363
  35 H :    0.116259
  36 H :    0.108280
  37 H :    0.121055
  38 H :    0.129740
  39 H :    0.130765
  40 H :    0.120560

  Mayer bond orders larger than 0.100000
B(  0-C ,  1-C ) :   1.1637 B(  0-C , 19-H ) :   0.9391 B(  0-C , 20-H ) :   0.9444
B(  0-C , 21-H ) :   0.9277 B(  1-C ,  2-O ) :   0.9072 B(  1-C , 22-H ) :   0.9093
B(  1-C , 23-H ) :   0.9323 B(  2-O ,  3-P ) :   1.1076 B(  3-P ,  4-S ) :   1.6125
B(  3-P ,  5-O ) :   1.1065 B(  3-P ,  8-S ) :   0.9751 B(  4-S ,  8-S ) :   0.1104
B(  5-O ,  6-C ) :   0.9005 B(  6-C ,  7-C ) :   1.1674 B(  6-C , 24-H ) :   0.9149
B(  6-C , 25-H ) :   0.9336 B(  7-C , 26-H ) :   0.9365 B(  7-C , 27-H ) :   0.9386
B(  7-C , 28-H ) :   0.9458 B(  8-S ,  9-C ) :   0.9959 B(  9-C , 10-S ) :   1.0152
B(  9-C , 29-H ) :   0.8936 B(  9-C , 30-H ) :   0.8531 B( 10-S , 11-P ) :   0.9332
B( 10-S , 12-S ) :   0.1125 B( 11-P , 12-S ) :   1.6318 B( 11-P , 13-O ) :   1.1503
B( 11-P , 16-O ) :   1.0906 B( 12-S , 30-H ) :   0.1189 B( 13-O , 14-C ) :   0.8917
B( 14-C , 15-C ) :   1.1649 B( 14-C , 31-H ) :   0.9343 B( 14-C , 32-H ) :   0.9188
B( 15-C , 33-H ) :   0.9360 B( 15-C , 34-H ) :   0.9365 B( 15-C , 35-H ) :   0.9192
B( 16-O , 17-C ) :   0.9107 B( 17-C , 18-C ) :   1.1672 B( 17-C , 36-H ) :   0.9260
B( 17-C , 37-H ) :   0.9332 B( 18-C , 38-H ) :   0.9352 B( 18-C , 39-H ) :   0.9432
B( 18-C , 40-H ) :   0.9324

Dispersion correction           -0.064644712
FINAL SINGLE POINT ENERGY     -2929.520810901074

DIPOLE MOMENT
-------------

Method             : SCF
Type of density    : Electron Density
Multiplicity       :   1
Irrep              :   0
Energy             : -2929.6409631362907930 Eh
Relativity type    :
Basis              : AO
                                X                 Y                 Z
Electronic contribution:     -7.059217725      -5.662221124      -7.726902728
Nuclear contribution   :      7.695436019       5.871618170       8.948539911
                        -----------------------------------------
Total Dipole Moment    :      0.636218293       0.209397046       1.221637183
                        -----------------------------------------
Magnitude (a.u.)       :      1.393204309
Magnitude (Debye)      :      3.541243925

Rotational constants in cm-1:             0.013013             0.004602             0.004196
Rotational constants in MHz :           390.117382           137.955151           125.788375

                             ****ORCA TERMINATED NORMALLY****
TOTAL RUN TIME: 0 days 0 hours 0 minutes 20 seconds 897 msec
