                         Program Version 6.0.1  -  RELEASE   -
|  1> ! pbe def2-sv(p) def2/J RI DEFGRID1 loosescf d4 GCP(DFT/SV(P)) printgap
|  2> %output
|  3>     printlevel normal
|  4> end
|  5> * xyz 0 1
|  6> C 3.1318519248 -3.9773225128 0.2660476409
|  7> C 2.7168051609 -2.5663701752 0.6314505373
|  8> O 2.2585459707 -1.9127166667 -0.567653171
|  9> C 2.070960994 -0.6155230415 -0.5399410698
| 10> O 2.2452194479 0.0921160811 0.4333764756
| 11> C 1.6481878773 -0.0662412253 -1.8894820239
| 12> C 0.4380765809 0.8627194313 -1.7527474713
| 13> H 0.3814867887 1.5272082255 -2.6176257697
| 14> C 0.5185657141 1.6988502474 -0.489797959
| 15> O -0.266700076 1.5568658673 0.432450119
| 16> O 1.4586654798 2.5924118689 -0.5508166941
| 17> C 1.6943461367 3.4270368093 0.6046101347
| 18> C 0.7521538107 4.6188526103 0.6193354201
| 19> S -1.1481927016 -0.0410426835 -1.7507751143
| 20> P -1.6965529525 -0.3946052332 0.2674553533
| 21> S -0.504954938 -1.1782188627 1.624950683
| 22> O -2.7487629333 0.7076843883 0.7241661892
| 23> C -2.6275875325 1.5241713655 1.8887142416
| 24> O -2.8469308969 -1.4622898332 -0.1057053586
| 25> C -2.5344759506 -2.7931768936 -0.5180567579
| 26> H 3.4693272108 -4.4911085541 1.1597182524
| 27> H 2.2878999614 -4.5130516888 -0.1573423287
| 28> H 3.9370560233 -3.9535085913 -0.4621987865
| 29> H 3.5471442548 -1.9846514869 1.0437615416
| 30> H 1.8970265839 -2.5534485316 1.3577586926
| 31> H 1.4222328276 -0.8856016705 -2.5698277168
| 32> H 2.4903282787 0.5123552082 -2.2755542806
| 33> H 1.5771600691 2.8107328891 1.4999798147
| 34> H 2.7328456888 3.7386383551 0.496044925
| 35> H 0.9936296834 5.2520920054 1.4663978568
| 36> H 0.8574806386 5.1908447368 -0.2982287818
| 37> H -0.2786587543 4.284985762 0.7139564275
| 38> H -3.5839266786 1.4712459639 2.4053680086
| 39> H -2.4107514573 2.5457757739 1.5812024899
| 40> H -1.8278522268 1.1567544589 2.5343043625
| 41> H -1.7737389988 -3.2186765291 0.1404469408
| 42> H -2.1798385925 -2.7957725965 -1.5491056619
| 43> H -3.4629597213 -3.3521529862 -0.4325859971
| 44> *
| 45>
| 46>                          ****END OF INPUT****

CARTESIAN COORDINATES (ANGSTROEM)
---------------------------------
  C      3.131852   -3.977323    0.266048
  C      2.716805   -2.566370    0.631451
  O      2.258546   -1.912717   -0.567653
  C      2.070961   -0.615523   -0.539941
  O      2.245219    0.092116    0.433376
  C      1.648188   -0.066241   -1.889482
  C      0.438077    0.862719   -1.752747
  H      0.381487    1.527208   -2.617626
  C      0.518566    1.698850   -0.489798
  O     -0.266700    1.556866    0.432450
  O      1.458665    2.592412   -0.550817
  C      1.694346    3.427037    0.604610
  C      0.752154    4.618853    0.619335
  S     -1.148193   -0.041043   -1.750775
  P     -1.696553   -0.394605    0.267455
  S     -0.504955   -1.178219    1.624951
  O     -2.748763    0.707684    0.724166
  C     -2.627588    1.524171    1.888714
  O     -2.846931   -1.462290   -0.105705
  C     -2.534476   -2.793177   -0.518057
  H      3.469327   -4.491109    1.159718
  H      2.287900   -4.513052   -0.157342
  H      3.937056   -3.953509   -0.462199
  H      3.547144   -1.984651    1.043762
  H      1.897027   -2.553449    1.357759
  H      1.422233   -0.885602   -2.569828
  H      2.490328    0.512355   -2.275554
  H      1.577160    2.810733    1.499980
  H      2.732846    3.738638    0.496045
  H      0.993630    5.252092    1.466398
  H      0.857481    5.190845   -0.298229
  H     -0.278659    4.284986    0.713956
  H     -3.583927    1.471246    2.405368
  H     -2.410751    2.545776    1.581202
  H     -1.827852    1.156754    2.534304
  H     -1.773739   -3.218677    0.140447
  H     -2.179839   -2.795773   -1.549106
  H     -3.462960   -3.352153   -0.432586

 Total Charge           Charge          ....    0
 Multiplicity           Mult            ....    1
 Number of Electrons    NEL             ....  174
 Basis Dimension        Dim             ....  316

ORBITAL ENERGIES
----------------

  NO   OCC          E(Eh)            E(eV)
   0   2.0000     -88.032345     -2395.4819
   1   2.0000     -87.962579     -2393.5835
   2   2.0000     -76.414555     -2079.3458
   3   2.0000     -18.819065      -512.0928
   4   2.0000     -18.804829      -511.7054
   5   2.0000     -18.771112      -510.7879
   6   2.0000     -18.764667      -510.6125
   7   2.0000     -18.760446      -510.4977
   8   2.0000     -18.737896      -509.8841
   9   2.0000     -10.031739      -272.9775
  10   2.0000     -10.012206      -272.4460
  11   2.0000      -9.955780      -270.9105
  12   2.0000      -9.954832      -270.8848
  13   2.0000      -9.940658      -270.4990
  14   2.0000      -9.927940      -270.1530
  15   2.0000      -9.924728      -270.0656
  16   2.0000      -9.917704      -269.8744
  17   2.0000      -9.894692      -269.2483
  18   2.0000      -9.885302      -268.9927
  19   2.0000      -7.677498      -208.9153
  20   2.0000      -7.607629      -207.0141
  21   2.0000      -6.409418      -174.4091
  22   2.0000      -5.705769      -155.2619
  23   2.0000      -5.701647      -155.1497
  24   2.0000      -5.694390      -154.9522
  25   2.0000      -5.636709      -153.3826
  26   2.0000      -5.628580      -153.1614
  27   2.0000      -5.627224      -153.1246
  28   2.0000      -4.631974      -126.0424
  29   2.0000      -4.631618      -126.0327
  30   2.0000      -4.630036      -125.9897
  31   2.0000      -1.031550       -28.0699
  32   2.0000      -1.011367       -27.5207
  33   2.0000      -0.963937       -26.2301
  34   2.0000      -0.937505       -25.5108
  35   2.0000      -0.917978       -24.9795
  36   2.0000      -0.916132       -24.9292
  37   2.0000      -0.767286       -20.8789
  38   2.0000      -0.714772       -19.4499
  39   2.0000      -0.708347       -19.2751
  40   2.0000      -0.684783       -18.6339
  41   2.0000      -0.653239       -17.7755
  42   2.0000      -0.627311       -17.0700
  43   2.0000      -0.613608       -16.6971
  44   2.0000      -0.604307       -16.4440
  45   2.0000      -0.591875       -16.1057
  46   2.0000      -0.563117       -15.3232
  47   2.0000      -0.512641       -13.9497
  48   2.0000      -0.507866       -13.8197
  49   2.0000      -0.499301       -13.5867
  50   2.0000      -0.487896       -13.2763
  51   2.0000      -0.463090       -12.6013
  52   2.0000      -0.457327       -12.4445
  53   2.0000      -0.445504       -12.1228
  54   2.0000      -0.437353       -11.9010
  55   2.0000      -0.430239       -11.7074
  56   2.0000      -0.422441       -11.4952
  57   2.0000      -0.415154       -11.2969
  58   2.0000      -0.413627       -11.2554
  59   2.0000      -0.404212       -10.9992
  60   2.0000      -0.398048       -10.8314
  61   2.0000      -0.392735       -10.6869
  62   2.0000      -0.385231       -10.4827
  63   2.0000      -0.379607       -10.3296
  64   2.0000      -0.371234       -10.1018
  65   2.0000      -0.365514        -9.9461
  66   2.0000      -0.361627        -9.8404
  67   2.0000      -0.354583        -9.6487
  68   2.0000      -0.349284        -9.5045
  69   2.0000      -0.346394        -9.4259
  70   2.0000      -0.338136        -9.2012
  71   2.0000      -0.332916        -9.0591
  72   2.0000      -0.315004        -8.5717
  73   2.0000      -0.308376        -8.3913
  74   2.0000      -0.298995        -8.1361
  75   2.0000      -0.296540        -8.0693
  76   2.0000      -0.285689        -7.7740
  77   2.0000      -0.280324        -7.6280
  78   2.0000      -0.271680        -7.3928
  79   2.0000      -0.257627        -7.0104
  80   2.0000      -0.256890        -6.9903
  81   2.0000      -0.240481        -6.5438
  82   2.0000      -0.237818        -6.4714
  83   2.0000      -0.225111        -6.1256
  84   2.0000      -0.220226        -5.9927
  85   2.0000      -0.184350        -5.0164
  86   2.0000      -0.172935        -4.7058
  87   0.0000      -0.043120        -1.1734
  88   0.0000      -0.030721        -0.8360
  89   0.0000      -0.026186        -0.7126
  90   0.0000       0.005222         0.1421
  91   0.0000       0.034503         0.9389

MULLIKEN ATOMIC CHARGES
-----------------------
   0 C :   -0.274006
   1 C :   -0.038620
   2 O :   -0.216835
   3 C :    0.102080
   4 O :   -0.207247
   5 C :   -0.027899
   6 C :   -0.294571
   7 H :    0.145537
   8 C :    0.233846
   9 O :   -0.208768
  10 O :   -0.217028
  11 C :   -0.005856
  12 C :   -0.319116
  13 S :   -0.106495
  14 P :    0.634883
  15 S :   -0.346589
  16 O :   -0.373448
  17 C :   -0.091957
  18 O :   -0.382764
  19 C :   -0.096944
  20 H :    0.111830
  21 H :    0.116775
  22 H :    0.109424
  23 H :    0.102052
  24 H :    0.130878
  25 H :    0.116078
  26 H :    0.123522
  27 H :    0.128128
  28 H :    0.107345
  29 H :    0.118400
  30 H :    0.114901
  31 H :    0.136772
  32 H :    0.116455
  33 H :    0.111714
  34 H :    0.120151
  35 H :    0.104742
  36 H :    0.105113
  37 H :    0.117515
Sum of atomic charges:   -0.0000000

LOEWDIN ATOMIC CHARGES
----------------------
   0 C :   -0.350348
   1 C :   -0.111043
   2 O :   -0.044536
   3 C :    0.026740
   4 O :   -0.157530
   5 C :   -0.246475
   6 C :   -0.260561
   7 H :    0.147811
   8 C :    0.031866
   9 O :   -0.148645
  10 O :   -0.032690
  11 C :   -0.102046
  12 C :   -0.357226
  13 S :    0.099154
  14 P :    0.581252
  15 S :   -0.330421
  16 O :   -0.243812
  17 C :   -0.209989
  18 O :   -0.266164
  19 C :   -0.223092
  20 H :    0.131131
  21 H :    0.127629
  22 H :    0.123463
  23 H :    0.115402
  24 H :    0.117621
  25 H :    0.136439
  26 H :    0.148797
  27 H :    0.130182
  28 H :    0.121560
  29 H :    0.133736
  30 H :    0.125672
  31 H :    0.129835
  32 H :    0.115928
  33 H :    0.107851
  34 H :    0.110305
  35 H :    0.102064
  36 H :    0.101708
  37 H :    0.118431

  Mayer bond orders larger than 0.100000
B(  0-C ,  1-C ) :   1.1543 B(  0-C , 20-H ) :   0.9443 B(  0-C , 21-H ) :   0.9485
B(  0-C , 22-H ) :   0.9515 B(  1-C ,  2-O ) :   0.8970 B(  1-C , 23-H ) :   0.9264
B(  1-C , 24-H ) :   0.9154 B(  2-O ,  3-C ) :   1.2693 B(  2-O ,  4-O ) :   0.1006
B(  3-C ,  4-O ) :   1.9578 B(  3-C ,  5-C ) :   1.0091 B(  4-O ,  8-C ) :   0.1137
B(  5-C ,  6-C ) :   1.0198 B(  5-C , 25-H ) :   0.9041 B(  5-C , 26-H ) :   0.8746
B(  6-C ,  7-H ) :   0.8778 B(  6-C ,  8-C ) :   0.9111 B(  6-C , 13-S ) :   1.0309
B(  8-C ,  9-O ) :   1.8703 B(  8-C , 10-O ) :   1.2797 B(  9-O , 14-P ) :   0.1575
B( 10-O , 11-C ) :   0.8953 B( 11-C , 12-C ) :   1.1714 B( 11-C , 27-H ) :   0.9167
B( 11-C , 28-H ) :   0.9378 B( 12-C , 29-H ) :   0.9435 B( 12-C , 30-H ) :   0.9462
B( 12-C , 31-H ) :   0.9419 B( 13-S , 14-P ) :   0.9374 B( 13-S , 15-S ) :   0.1143
B( 14-P , 15-S ) :   1.5682 B( 14-P , 16-O ) :   1.1189 B( 14-P , 18-O ) :   1.0515
B( 16-O , 17-C ) :   0.9324 B( 17-C , 32-H ) :   0.9538 B( 17-C , 33-H ) :   0.9547
B( 17-C , 34-H ) :   0.9308 B( 18-O , 19-C ) :   0.9513 B( 19-C , 35-H ) :   0.9282
B( 19-C , 36-H ) :   0.9459 B( 19-C , 37-H ) :   0.9599

Dispersion correction           -0.053513769
FINAL SINGLE POINT ENERGY     -1979.008082119573

DIPOLE MOMENT
-------------

Method             : SCF
Type of density    : Electron Density
Multiplicity       :   1
Irrep              :   0
Energy             : -1979.1380292931603435 Eh
Relativity type    :
Basis              : AO
                                X                 Y                 Z
Electronic contribution:     -9.880079883      -0.377076987      -4.220052357
Nuclear contribution   :     11.018131603       1.107933666       3.556987435
                        -----------------------------------------
Total Dipole Moment    :      1.138051720       0.730856679      -0.663064922
                        -----------------------------------------
Magnitude (a.u.)       :      1.506309495
Magnitude (Debye)      :      3.828734461

Rotational constants in cm-1:             0.010634             0.009662             0.006620
Rotational constants in MHz :           318.813286           289.669164           198.455617

                             ****ORCA TERMINATED NORMALLY****
TOTAL RUN TIME: 0 days 0 hours 0 minutes 33 seconds 870 msec
