                         Program Version 6.0.1  -  RELEASE   -
|  1> ! pbe def2-sv(p) def2/J RI DEFGRID1 loosescf d4 GCP(DFT/SV(P)) printgap
|  2> %output
|  3>     printlevel normal
|  4> end
|  5> * xyz 0 1
|  6> C 4.1147893073 -3.7858108251 -2.278483345
|  7> C 3.4049908452 -3.9334256128 -0.9420598219
|  8> O 3.3002170931 -2.6619245947 -0.2717282526
|  9> C 2.2580973738 -1.897172568 -0.5321631035
| 10> O 1.350077156 -2.1974677416 -1.275368398
| 11> C 2.3376768334 -0.5912904813 0.2329953541
| 12> C 1.038678906 0.1855761404 0.1058714688
| 13> H 0.6911656924 0.1378992411 -0.9378946956
| 14> C 1.187354897 1.6579180473 0.4388852523
| 15> O 2.2024582458 2.2797748321 0.228853018
| 16> O 0.0786276273 2.1564650327 0.943845941
| 17> C 0.0119909461 3.5699489677 1.2245046368
| 18> C -0.6856466993 4.3013354574 0.0911260391
| 19> S -0.2751717447 -0.5817723267 1.1094961518
| 20> P -1.9351695162 0.2911848164 0.1071311306
| 21> S -1.6264464346 1.016381078 -1.6841827485
| 22> O -3.0121545146 -0.8972313732 0.1568609031
| 23> C -2.8411986274 -2.0739520398 -0.6374322715
| 24> O -2.6188233653 1.3300757466 1.0784261605
| 25> C -2.9870042615 0.9888461722 2.4294595147
| 26> H 4.2388366164 -4.7648352597 -2.729326652
| 27> H 3.527058792 -3.161414941 -2.9478288548
| 28> H 5.0907059866 -3.330155801 -2.1356295172
| 29> H 3.9769189286 -4.5569785641 -0.2549386155
| 30> H 2.3987159369 -4.3387279196 -1.0802978419
| 31> H 3.1507299869 0.0109997097 -0.1810323702
| 32> H 2.5744704529 -0.8059018751 1.2755963773
| 33> H -0.556160687 3.6437475966 2.1523166879
| 34> H 1.031953943 3.9375663056 1.3655290231
| 35> H -0.107940983 4.2152518369 -0.8266912223
| 36> H -1.6690300368 3.8694745564 -0.0807156608
| 37> H -0.7914917399 5.3494742312 0.3493492259
| 38> H -1.9653118573 -2.6307895773 -0.3024671324
| 39> H -2.7201464447 -1.8045440635 -1.6878528652
| 40> H -3.7462080688 -2.658490852 -0.4947993686
| 41> H -3.3332771499 1.9186604138 2.8730225126
| 42> H -2.1193099627 0.6019196872 2.9639775009
| 43> H -3.781503712 0.245374294 2.4203130099
| 44> *
| 45>
| 46>                          ****END OF INPUT****

CARTESIAN COORDINATES (ANGSTROEM)
---------------------------------
  C      4.114789   -3.785811   -2.278483
  C      3.404991   -3.933426   -0.942060
  O      3.300217   -2.661925   -0.271728
  C      2.258097   -1.897173   -0.532163
  O      1.350077   -2.197468   -1.275368
  C      2.337677   -0.591290    0.232995
  C      1.038679    0.185576    0.105871
  H      0.691166    0.137899   -0.937895
  C      1.187355    1.657918    0.438885
  O      2.202458    2.279775    0.228853
  O      0.078628    2.156465    0.943846
  C      0.011991    3.569949    1.224505
  C     -0.685647    4.301335    0.091126
  S     -0.275172   -0.581772    1.109496
  P     -1.935170    0.291185    0.107131
  S     -1.626446    1.016381   -1.684183
  O     -3.012155   -0.897231    0.156861
  C     -2.841199   -2.073952   -0.637432
  O     -2.618823    1.330076    1.078426
  C     -2.987004    0.988846    2.429460
  H      4.238837   -4.764835   -2.729327
  H      3.527059   -3.161415   -2.947829
  H      5.090706   -3.330156   -2.135630
  H      3.976919   -4.556979   -0.254939
  H      2.398716   -4.338728   -1.080298
  H      3.150730    0.011000   -0.181032
  H      2.574470   -0.805902    1.275596
  H     -0.556161    3.643748    2.152317
  H      1.031954    3.937566    1.365529
  H     -0.107941    4.215252   -0.826691
  H     -1.669030    3.869475   -0.080716
  H     -0.791492    5.349474    0.349349
  H     -1.965312   -2.630790   -0.302467
  H     -2.720146   -1.804544   -1.687853
  H     -3.746208   -2.658491   -0.494799
  H     -3.333277    1.918660    2.873023
  H     -2.119310    0.601920    2.963978
  H     -3.781504    0.245374    2.420313

 Total Charge           Charge          ....    0
 Multiplicity           Mult            ....    1
 Number of Electrons    NEL             ....  174
 Basis Dimension        Dim             ....  316

ORBITAL ENERGIES
----------------

  NO   OCC          E(Eh)            E(eV)
   0   2.0000     -88.038068     -2395.6376
   1   2.0000     -87.982598     -2394.1282
   2   2.0000     -76.424022     -2079.6034
   3   2.0000     -18.807487      -511.7777
   4   2.0000     -18.804944      -511.7085
   5   2.0000     -18.794892      -511.4350
   6   2.0000     -18.789241      -511.2812
   7   2.0000     -18.743447      -510.0351
   8   2.0000     -18.739161      -509.9185
   9   2.0000     -10.014289      -272.5027
  10   2.0000     -10.013773      -272.4886
  11   2.0000      -9.952003      -270.8078
  12   2.0000      -9.951248      -270.7872
  13   2.0000      -9.946043      -270.6456
  14   2.0000      -9.939738      -270.4740
  15   2.0000      -9.938947      -270.4525
  16   2.0000      -9.913199      -269.7519
  17   2.0000      -9.889790      -269.1149
  18   2.0000      -9.877441      -268.7788
  19   2.0000      -7.682762      -209.0586
  20   2.0000      -7.627685      -207.5599
  21   2.0000      -6.421170      -174.7289
  22   2.0000      -5.710454      -155.3893
  23   2.0000      -5.707560      -155.3106
  24   2.0000      -5.699708      -155.0969
  25   2.0000      -5.656797      -153.9293
  26   2.0000      -5.648202      -153.6954
  27   2.0000      -5.647708      -153.6819
  28   2.0000      -4.643878      -126.3663
  29   2.0000      -4.643026      -126.3432
  30   2.0000      -4.641502      -126.3017
  31   2.0000      -1.014687       -27.6110
  32   2.0000      -1.013513       -27.5791
  33   2.0000      -0.986497       -26.8439
  34   2.0000      -0.941764       -25.6267
  35   2.0000      -0.920433       -25.0462
  36   2.0000      -0.919559       -25.0225
  37   2.0000      -0.763727       -20.7821
  38   2.0000      -0.716041       -19.4845
  39   2.0000      -0.700123       -19.0513
  40   2.0000      -0.693829       -18.8800
  41   2.0000      -0.659087       -17.9347
  42   2.0000      -0.634651       -17.2697
  43   2.0000      -0.621440       -16.9102
  44   2.0000      -0.615372       -16.7451
  45   2.0000      -0.598498       -16.2860
  46   2.0000      -0.559781       -15.2324
  47   2.0000      -0.514447       -13.9988
  48   2.0000      -0.503211       -13.6931
  49   2.0000      -0.496628       -13.5139
  50   2.0000      -0.477547       -12.9947
  51   2.0000      -0.473249       -12.8778
  52   2.0000      -0.465374       -12.6635
  53   2.0000      -0.449217       -12.2238
  54   2.0000      -0.434868       -11.8334
  55   2.0000      -0.432374       -11.7655
  56   2.0000      -0.426098       -11.5947
  57   2.0000      -0.416251       -11.3268
  58   2.0000      -0.412452       -11.2234
  59   2.0000      -0.409991       -11.1564
  60   2.0000      -0.401347       -10.9212
  61   2.0000      -0.399799       -10.8791
  62   2.0000      -0.396290       -10.7836
  63   2.0000      -0.381813       -10.3896
  64   2.0000      -0.379797       -10.3348
  65   2.0000      -0.364275        -9.9124
  66   2.0000      -0.355356        -9.6697
  67   2.0000      -0.353914        -9.6305
  68   2.0000      -0.345870        -9.4116
  69   2.0000      -0.335228        -9.1220
  70   2.0000      -0.334303        -9.0969
  71   2.0000      -0.331353        -9.0166
  72   2.0000      -0.321892        -8.7591
  73   2.0000      -0.312305        -8.4983
  74   2.0000      -0.308500        -8.3947
  75   2.0000      -0.297849        -8.1049
  76   2.0000      -0.295515        -8.0414
  77   2.0000      -0.289427        -7.8757
  78   2.0000      -0.270238        -7.3535
  79   2.0000      -0.265203        -7.2166
  80   2.0000      -0.262695        -7.1483
  81   2.0000      -0.257194        -6.9986
  82   2.0000      -0.244623        -6.6565
  83   2.0000      -0.227889        -6.2012
  84   2.0000      -0.209232        -5.6935
  85   2.0000      -0.202299        -5.5048
  86   2.0000      -0.197032        -5.3615
  87   0.0000      -0.040808        -1.1104
  88   0.0000      -0.027944        -0.7604
  89   0.0000      -0.019549        -0.5319
  90   0.0000       0.011458         0.3118
  91   0.0000       0.018387         0.5003

MULLIKEN ATOMIC CHARGES
-----------------------
   0 C :   -0.304799
   1 C :   -0.011937
   2 O :   -0.231986
   3 C :    0.136448
   4 O :   -0.198950
   5 C :   -0.122385
   6 C :   -0.345992
   7 H :    0.174633
   8 C :    0.244353
   9 O :   -0.196194
  10 O :   -0.226840
  11 C :   -0.015131
  12 C :   -0.296697
  13 S :   -0.106374
  14 P :    0.629643
  15 S :   -0.311581
  16 O :   -0.392607
  17 C :   -0.101531
  18 O :   -0.363011
  19 C :   -0.108757
  20 H :    0.114312
  21 H :    0.128378
  22 H :    0.116282
  23 H :    0.104098
  24 H :    0.109839
  25 H :    0.144756
  26 H :    0.120872
  27 H :    0.098104
  28 H :    0.111553
  29 H :    0.121816
  30 H :    0.131305
  31 H :    0.106110
  32 H :    0.121264
  33 H :    0.122298
  34 H :    0.121116
  35 H :    0.129453
  36 H :    0.121032
  37 H :    0.127105
Sum of atomic charges:    0.0000000

LOEWDIN ATOMIC CHARGES
----------------------
   0 C :   -0.355524
   1 C :   -0.110006
   2 O :   -0.061266
   3 C :    0.033974
   4 O :   -0.161851
   5 C :   -0.251668
   6 C :   -0.278144
   7 H :    0.146443
   8 C :    0.023327
   9 O :   -0.158961
  10 O :   -0.055498
  11 C :   -0.108025
  12 C :   -0.355648
  13 S :    0.092030
  14 P :    0.582098
  15 S :   -0.299694
  16 O :   -0.262841
  17 C :   -0.217052
  18 O :   -0.237825
  19 C :   -0.211125
  20 H :    0.131345
  21 H :    0.131382
  22 H :    0.125863
  23 H :    0.118435
  24 H :    0.120339
  25 H :    0.159701
  26 H :    0.141348
  27 H :    0.115215
  28 H :    0.120096
  29 H :    0.130159
  30 H :    0.128628
  31 H :    0.127029
  32 H :    0.111044
  33 H :    0.114576
  34 H :    0.120209
  35 H :    0.124478
  36 H :    0.109781
  37 H :    0.117627

  Mayer bond orders larger than 0.100000
B(  0-C ,  1-C ) :   1.1747 B(  0-C , 20-H ) :   0.9441 B(  0-C , 21-H ) :   0.9465
B(  0-C , 22-H ) :   0.9488 B(  1-C ,  2-O ) :   0.9137 B(  1-C , 23-H ) :   0.9370
B(  1-C , 24-H ) :   0.9136 B(  2-O ,  3-C ) :   1.2399 B(  3-C ,  4-O ) :   2.0336
B(  3-C ,  5-C ) :   0.9992 B(  5-C ,  6-C ) :   1.0944 B(  5-C , 25-H ) :   0.8673
B(  5-C , 26-H ) :   0.8985 B(  6-C ,  7-H ) :   0.8143 B(  6-C ,  8-C ) :   0.8828
B(  6-C , 13-S ) :   1.0102 B(  8-C ,  9-O ) :   2.0640 B(  8-C , 10-O ) :   1.2522
B( 10-O , 11-C ) :   0.9005 B( 11-C , 12-C ) :   1.1816 B( 11-C , 27-H ) :   0.9347
B( 11-C , 28-H ) :   0.9104 B( 12-C , 29-H ) :   0.9456 B( 12-C , 30-H ) :   0.9406
B( 12-C , 31-H ) :   0.9421 B( 13-S , 14-P ) :   0.9532 B( 13-S , 15-S ) :   0.1150
B( 14-P , 15-S ) :   1.6370 B( 14-P , 16-O ) :   1.0689 B( 14-P , 18-O ) :   1.1183
B( 16-O , 17-C ) :   0.9307 B( 17-C , 32-H ) :   0.9427 B( 17-C , 33-H ) :   0.9393
B( 17-C , 34-H ) :   0.9582 B( 18-O , 19-C ) :   0.9189 B( 19-C , 35-H ) :   0.9590
B( 19-C , 36-H ) :   0.9371 B( 19-C , 37-H ) :   0.9479

Dispersion correction           -0.051416666
FINAL SINGLE POINT ENERGY     -1979.024958734012

DIPOLE MOMENT
-------------

Method             : SCF
Type of density    : Electron Density
Multiplicity       :   1
Irrep              :   0
Energy             : -1979.1555594471469703 Eh
Relativity type    :
Basis              : AO
                                X                 Y                 Z
Electronic contribution:     -7.314548905       3.249959698       1.538717535
Nuclear contribution   :      7.329388793      -4.139259213      -0.309669858
                        -----------------------------------------
Total Dipole Moment    :      0.014839888      -0.889299516       1.229047677
                        -----------------------------------------
Magnitude (a.u.)       :      1.517113062
Magnitude (Debye)      :      3.856194947

Rotational constants in cm-1:             0.013842             0.006427             0.005208
Rotational constants in MHz :           414.982714           192.666719           156.127941

                             ****ORCA TERMINATED NORMALLY****
TOTAL RUN TIME: 0 days 0 hours 0 minutes 30 seconds 476 msec
