                         Program Version 6.0.0  -   RELEASE  -
|  1> ! pbe def2-sv(p) def2/J RI DEFGRID1 loosescf d4 GCP(DFT/SV(P)) printgap
|  2> %output
|  3>     printlevel normal
|  4> end
|  5> * xyz 0 1
|  6> C 2.0854466655 -0.9144594691 -2.4179270571
|  7> C 3.4001596302 -0.8304034788 -1.6696376221
|  8> O 3.2831044287 -1.310304323 -0.3207469272
|  9> P 2.540100505 -0.4913991012 0.823548302
| 10> S 2.8305380346 1.4522154809 0.7787428027
| 11> O 3.0468565317 -1.2332361184 2.1286762468
| 12> C 4.25433855 -0.8477278237 2.8169838411
| 13> C 5.4959007189 -1.1176388162 1.9928430195
| 14> S 0.5457881045 -1.1988481355 0.8594864822
| 15> C -0.3193962627 0.3964046641 0.9308026876
| 16> S -0.798040011 1.0395924658 -0.7048329593
| 17> P -2.8435115713 0.4485205124 -0.6430955393
| 18> S -3.9222448318 0.8757158733 -2.2185438898
| 19> O -3.3710808045 1.0278492401 0.7427357333
| 20> C -4.0030896993 2.3169267447 0.8248330717
| 21> C -3.0196799305 3.4526653469 0.6197492524
| 22> O -2.8151577451 -1.0721136849 -0.1896741921
| 23> C -2.8978391797 -2.1410558321 -1.1490325203
| 24> C -1.6359418503 -2.2596698507 -1.979493408
| 25> H 1.681735518 -1.9218962688 -2.3580768157
| 26> H 1.3649244712 -0.2155941846 -1.9935570706
| 27> H 2.24670328 -0.6546753312 -3.4591901135
| 28> H 3.7622473645 0.2027153476 -1.6422545863
| 29> H 4.1573177406 -1.4772618221 -2.1152119517
| 30> H 4.1827012836 0.2151957475 3.0691041525
| 31> H 4.2353432993 -1.4474863744 3.727882157
| 32> H 5.5151895764 -0.4625997185 1.1229782785
| 33> H 6.3768967197 -0.9255681279 2.5974016553
| 34> H 5.5053129255 -2.1507467406 1.6556415892
| 35> H 0.3466823771 1.1378492796 1.3719490874
| 36> H -1.2156999852 0.2522235849 1.5280715278
| 37> H -4.8000967399 2.3614143076 0.0757363206
| 38> H -4.4355304064 2.3339468853 1.8263734793
| 39> H -2.1905091666 3.3732681761 1.3186375897
| 40> H -2.6273347814 3.4278354261 -0.3965091248
| 41> H -3.5287608238 4.3984050189 0.7759212424
| 42> H -3.0622494816 -3.0291208462 -0.5376271796
| 43> H -3.7659494946 -1.9634225688 -1.7920509884
| 44> H -0.7733995254 -2.3916069742 -1.3309567272
| 45> H -1.7228856524 -3.113043718 -2.6442102033
| 46> H -1.4998032355 -1.3583132044 -2.5770364899
| 47> *
| 48>
| 49>                          ****END OF INPUT****

CARTESIAN COORDINATES (ANGSTROEM)
---------------------------------
  C      2.085447   -0.914459   -2.417927
  C      3.400160   -0.830403   -1.669638
  O      3.283104   -1.310304   -0.320747
  P      2.540101   -0.491399    0.823548
  S      2.830538    1.452215    0.778743
  O      3.046857   -1.233236    2.128676
  C      4.254339   -0.847728    2.816984
  C      5.495901   -1.117639    1.992843
  S      0.545788   -1.198848    0.859486
  C     -0.319396    0.396405    0.930803
  S     -0.798040    1.039592   -0.704833
  P     -2.843512    0.448521   -0.643096
  S     -3.922245    0.875716   -2.218544
  O     -3.371081    1.027849    0.742736
  C     -4.003090    2.316927    0.824833
  C     -3.019680    3.452665    0.619749
  O     -2.815158   -1.072114   -0.189674
  C     -2.897839   -2.141056   -1.149033
  C     -1.635942   -2.259670   -1.979493
  H      1.681736   -1.921896   -2.358077
  H      1.364924   -0.215594   -1.993557
  H      2.246703   -0.654675   -3.459190
  H      3.762247    0.202715   -1.642255
  H      4.157318   -1.477262   -2.115212
  H      4.182701    0.215196    3.069104
  H      4.235343   -1.447486    3.727882
  H      5.515190   -0.462600    1.122978
  H      6.376897   -0.925568    2.597402
  H      5.505313   -2.150747    1.655642
  H      0.346682    1.137849    1.371949
  H     -1.215700    0.252224    1.528072
  H     -4.800097    2.361414    0.075736
  H     -4.435530    2.333947    1.826373
  H     -2.190509    3.373268    1.318638
  H     -2.627335    3.427835   -0.396509
  H     -3.528761    4.398405    0.775921
  H     -3.062249   -3.029121   -0.537627
  H     -3.765949   -1.963423   -1.792051
  H     -0.773400   -2.391607   -1.330957
  H     -1.722886   -3.113044   -2.644210
  H     -1.499803   -1.358313   -2.577036

 Total Charge           Charge          ....    0
 Multiplicity           Mult            ....    1
 Number of Electrons    NEL             ....  202
 Basis Dimension        Dim             ....  334

ORBITAL ENERGIES
----------------

  NO   OCC          E(Eh)            E(eV)
   0   2.0000     -88.046967     -2395.8798
   1   2.0000     -88.043617     -2395.7886
   2   2.0000     -87.998509     -2394.5612
   3   2.0000     -87.990967     -2394.3560
   4   2.0000     -76.431863     -2079.8167
   5   2.0000     -76.427794     -2079.7060
   6   2.0000     -18.797573      -511.5080
   7   2.0000     -18.792914      -511.3812
   8   2.0000     -18.792362      -511.3662
   9   2.0000     -18.791147      -511.3331
  10   2.0000      -9.956599      -270.9328
  11   2.0000      -9.955697      -270.9083
  12   2.0000      -9.954722      -270.8818
  13   2.0000      -9.952900      -270.8322
  14   2.0000      -9.951209      -270.7862
  15   2.0000      -9.887454      -269.0513
  16   2.0000      -9.883663      -268.9481
  17   2.0000      -9.883330      -268.9391
  18   2.0000      -9.879797      -268.8429
  19   2.0000      -7.692048      -209.3113
  20   2.0000      -7.687992      -209.2009
  21   2.0000      -7.643289      -207.9845
  22   2.0000      -7.636106      -207.7890
  23   2.0000      -6.429723      -174.9617
  24   2.0000      -6.425307      -174.8415
  25   2.0000      -5.719860      -155.6453
  26   2.0000      -5.716669      -155.5585
  27   2.0000      -5.716060      -155.5419
  28   2.0000      -5.712392      -155.4421
  29   2.0000      -5.708908      -155.3473
  30   2.0000      -5.704983      -155.2405
  31   2.0000      -5.672027      -154.3437
  32   2.0000      -5.665089      -154.1549
  33   2.0000      -5.664016      -154.1257
  34   2.0000      -5.663569      -154.1135
  35   2.0000      -5.656647      -153.9252
  36   2.0000      -5.656302      -153.9158
  37   2.0000      -4.651966      -126.5864
  38   2.0000      -4.651383      -126.5706
  39   2.0000      -4.650535      -126.5475
  40   2.0000      -4.647553      -126.4664
  41   2.0000      -4.647539      -126.4660
  42   2.0000      -4.645620      -126.4138
  43   2.0000      -0.990828       -26.9618
  44   2.0000      -0.989452       -26.9244
  45   2.0000      -0.949563       -25.8389
  46   2.0000      -0.946250       -25.7488
  47   2.0000      -0.763768       -20.7832
  48   2.0000      -0.723959       -19.6999
  49   2.0000      -0.710164       -19.3245
  50   2.0000      -0.689752       -18.7691
  51   2.0000      -0.682296       -18.5662
  52   2.0000      -0.678543       -18.4641
  53   2.0000      -0.658853       -17.9283
  54   2.0000      -0.643347       -17.5064
  55   2.0000      -0.606804       -16.5120
  56   2.0000      -0.597725       -16.2649
  57   2.0000      -0.575351       -15.6561
  58   2.0000      -0.569125       -15.4867
  59   2.0000      -0.561168       -15.2702
  60   2.0000      -0.496994       -13.5239
  61   2.0000      -0.495265       -13.4769
  62   2.0000      -0.477343       -12.9892
  63   2.0000      -0.467214       -12.7135
  64   2.0000      -0.461948       -12.5702
  65   2.0000      -0.447162       -12.1679
  66   2.0000      -0.445853       -12.1323
  67   2.0000      -0.441907       -12.0249
  68   2.0000      -0.423206       -11.5160
  69   2.0000      -0.422228       -11.4894
  70   2.0000      -0.407933       -11.1004
  71   2.0000      -0.398247       -10.8369
  72   2.0000      -0.397314       -10.8115
  73   2.0000      -0.392150       -10.6710
  74   2.0000      -0.390756       -10.6330
  75   2.0000      -0.383023       -10.4226
  76   2.0000      -0.368983       -10.0405
  77   2.0000      -0.357249        -9.7212
  78   2.0000      -0.352977        -9.6050
  79   2.0000      -0.350954        -9.5499
  80   2.0000      -0.348462        -9.4821
  81   2.0000      -0.344122        -9.3640
  82   2.0000      -0.342043        -9.3075
  83   2.0000      -0.337306        -9.1786
  84   2.0000      -0.333097        -9.0640
  85   2.0000      -0.323207        -8.7949
  86   2.0000      -0.317787        -8.6474
  87   2.0000      -0.301430        -8.2023
  88   2.0000      -0.298039        -8.1101
  89   2.0000      -0.289726        -7.8839
  90   2.0000      -0.288387        -7.8474
  91   2.0000      -0.277470        -7.5504
  92   2.0000      -0.272351        -7.4111
  93   2.0000      -0.266950        -7.2641
  94   2.0000      -0.260242        -7.0816
  95   2.0000      -0.231091        -6.2883
  96   2.0000      -0.221246        -6.0204
  97   2.0000      -0.218761        -5.9528
  98   2.0000      -0.214026        -5.8239
  99   2.0000      -0.208533        -5.6745
 100   2.0000      -0.205534        -5.5929
 101   0.0000      -0.045284        -1.2322
 102   0.0000      -0.034098        -0.9278
 103   0.0000      -0.020292        -0.5522
 104   0.0000       0.006210         0.1690
 105   0.0000       0.010529         0.2865

MULLIKEN ATOMIC CHARGES
-----------------------
   0 C :   -0.337080
   1 C :   -0.004679
   2 O :   -0.370272
   3 P :    0.609451
   4 S :   -0.330449
   5 O :   -0.366943
   6 C :   -0.002516
   7 C :   -0.309097
   8 S :   -0.070577
   9 C :   -0.362035
  10 S :   -0.062505
  11 P :    0.570836
  12 S :   -0.313237
  13 O :   -0.368038
  14 C :   -0.003996
  15 C :   -0.313799
  16 O :   -0.369587
  17 C :    0.002318
  18 C :   -0.342934
  19 H :    0.122937
  20 H :    0.146357
  21 H :    0.113095
  22 H :    0.111005
  23 H :    0.105249
  24 H :    0.111817
  25 H :    0.108240
  26 H :    0.123033
  27 H :    0.113213
  28 H :    0.119389
  29 H :    0.196051
  30 H :    0.198125
  31 H :    0.113761
  32 H :    0.107056
  33 H :    0.115894
  34 H :    0.129420
  35 H :    0.113180
  36 H :    0.106354
  37 H :    0.112264
  38 H :    0.141561
  39 H :    0.109550
  40 H :    0.127586
Sum of atomic charges:    0.0000000

LOEWDIN ATOMIC CHARGES
----------------------
   0 C :   -0.369940
   1 C :   -0.119346
   2 O :   -0.242315
   3 P :    0.571575
   4 S :   -0.311668
   5 O :   -0.244665
   6 C :   -0.114966
   7 C :   -0.365075
   8 S :    0.104466
   9 C :   -0.482563
  10 S :    0.096476
  11 P :    0.570336
  12 S :   -0.314005
  13 O :   -0.242442
  14 C :   -0.118523
  15 C :   -0.367964
  16 O :   -0.242879
  17 C :   -0.116836
  18 C :   -0.374831
  19 H :    0.125903
  20 H :    0.114763
  21 H :    0.132102
  22 H :    0.109631
  23 H :    0.118617
  24 H :    0.111521
  25 H :    0.120614
  26 H :    0.122855
  27 H :    0.130976
  28 H :    0.127639
  29 H :    0.127364
  30 H :    0.135590
  31 H :    0.111337
  32 H :    0.119265
  33 H :    0.124150
  34 H :    0.122472
  35 H :    0.131038
  36 H :    0.119744
  37 H :    0.110392
  38 H :    0.117794
  39 H :    0.129771
  40 H :    0.121627

  Mayer bond orders larger than 0.100000
B(  0-C ,  1-C ) :   1.1630 B(  0-C , 19-H ) :   0.9414 B(  0-C , 20-H ) :   0.9259
B(  0-C , 21-H ) :   0.9367 B(  1-C ,  2-O ) :   0.9087 B(  1-C , 22-H ) :   0.9145
B(  1-C , 23-H ) :   0.9331 B(  2-O ,  3-P ) :   1.1075 B(  3-P ,  4-S ) :   1.5903
B(  3-P ,  5-O ) :   1.1352 B(  3-P ,  8-S ) :   0.9607 B(  4-S ,  8-S ) :   0.1157
B(  5-O ,  6-C ) :   0.9107 B(  6-C ,  7-C ) :   1.1633 B(  6-C , 24-H ) :   0.9194
B(  6-C , 25-H ) :   0.9351 B(  7-C , 26-H ) :   0.9382 B(  7-C , 27-H ) :   0.9380
B(  7-C , 28-H ) :   0.9457 B(  8-S ,  9-C ) :   1.0084 B(  9-C , 10-S ) :   0.9801
B(  9-C , 29-H ) :   0.8652 B(  9-C , 30-H ) :   0.8848 B( 10-S , 11-P ) :   0.9812
B( 11-P , 12-S ) :   1.6373 B( 11-P , 13-O ) :   1.0846 B( 11-P , 16-O ) :   1.0984
B( 13-O , 14-C ) :   0.9101 B( 14-C , 15-C ) :   1.1625 B( 14-C , 31-H ) :   0.9155
B( 14-C , 32-H ) :   0.9345 B( 15-C , 33-H ) :   0.9465 B( 15-C , 34-H ) :   0.9362
B( 15-C , 35-H ) :   0.9381 B( 16-O , 17-C ) :   0.9077 B( 17-C , 18-C ) :   1.1625
B( 17-C , 36-H ) :   0.9333 B( 17-C , 37-H ) :   0.9169 B( 18-C , 38-H ) :   0.9277
B( 18-C , 39-H ) :   0.9367 B( 18-C , 40-H ) :   0.9363

Dispersion correction           -0.064276096
FINAL SINGLE POINT ENERGY     -2929.522738074354

DIPOLE MOMENT
-------------

Method             : SCF
Type of density    : Electron Density
Multiplicity       :   1
Irrep              :   0
Energy             : -2929.6441716962026476 Eh
Relativity type    :
Basis              : AO
                                X                 Y                 Z
Electronic contribution:     -8.676985581       2.661942444       2.325349182
Nuclear contribution   :      9.461966818      -3.260532593      -1.756183861
                        -----------------------------------------
Total Dipole Moment    :      0.784981237      -0.598590149       0.569165321
                        -----------------------------------------
Magnitude (a.u.)       :      1.139497640
Magnitude (Debye)      :      2.896372821

Rotational constants in cm-1:             0.014210             0.004146             0.003796
Rotational constants in MHz :           426.003985           124.291771           113.796583

                             ****ORCA TERMINATED NORMALLY****
TOTAL RUN TIME: 0 days 0 hours 0 minutes 20 seconds 693 msec
