                         Program Version 6.0.0  -   RELEASE  -
|  1> ! pbe def2-sv(p) def2/J RI DEFGRID1 loosescf d4 GCP(DFT/SV(P)) printgap
|  2> %output
|  3>     printlevel normal
|  4> end
|  5> * xyz 0 1
|  6> C 2.8035839071 -0.8547833703 -2.719726882
|  7> C 1.7191891671 0.025734118 -2.1386000662
|  8> O 1.1441014004 -0.5675680986 -0.9601453835
|  9> P 1.9551725966 -0.6332152083 0.4125297962
| 10> S 3.262548245 0.8120881774 0.6618444222
| 11> O 2.5182852529 -2.1149106193 0.3285401856
| 12> C 2.9458436829 -2.9211058322 1.4440771267
| 13> C 3.9304427043 -2.2100049151 2.3485257665
| 14> S 0.3979251443 -0.8258670365 1.8220642999
| 15> C -0.079817891 0.9204675818 1.9766505285
| 16> S -0.1254828967 1.8345304838 0.4068340778
| 17> P -1.774247474 0.9304160115 -0.5474174257
| 18> S -1.8661999021 1.1353479381 -2.4923526419
| 19> O -2.9052076215 1.6584376578 0.2960586368
| 20> C -4.3013436596 1.4489937792 -0.015999323
| 21> C -5.0937243003 2.5729519368 0.6182231481
| 22> O -1.9095011436 -0.5708719163 -0.0371269239
| 23> C -1.712409713 -1.7433234045 -0.8442582918
| 24> C -2.9846049547 -2.5667421604 -0.8284531434
| 25> H 2.4107314903 -1.8461908883 -2.9279674529
| 26> H 3.1752756855 -0.4095231102 -3.6370594958
| 27> H 3.6223251671 -0.9412489438 -2.0058536302
| 28> H 0.8765349479 0.1476428441 -2.8226908822
| 29> H 2.1146584075 1.01317841 -1.8746786066
| 30> H 2.0559979666 -3.2223151821 2.0037739281
| 31> H 3.3984623235 -3.7932632643 0.9688216529
| 32> H 4.7837104105 -1.8523942956 1.7771048571
| 33> H 3.4538442383 -1.3545109055 2.8250417024
| 34> H 4.273948992 -2.8966576977 3.1155361838
| 35> H 0.6593818464 1.4428134809 2.5818099833
| 36> H -1.0601967262 0.9345623342 2.4462862955
| 37> H -4.4155711045 1.441803681 -1.1055117947
| 38> H -4.5953197845 0.4749140658 0.3827413814
| 39> H -6.1481488255 2.4297482418 0.4055136352
| 40> H -4.9393436797 2.576772753 1.6932104505
| 41> H -4.7725166434 3.5289894611 0.2143589458
| 42> H -1.4537905021 -1.4349795284 -1.8622914656
| 43> H -0.8744446242 -2.2901430402 -0.405373613
| 44> H -2.8173435435 -3.4870923689 -1.3782312509
| 45> H -3.2611354912 -2.803684387 0.1949719055
| 46> H -3.793639896 -2.0129950522 -1.2992760304
| 47> *
| 48>
| 49>                          ****END OF INPUT****

CARTESIAN COORDINATES (ANGSTROEM)
---------------------------------
  C      2.803584   -0.854783   -2.719727
  C      1.719189    0.025734   -2.138600
  O      1.144101   -0.567568   -0.960145
  P      1.955173   -0.633215    0.412530
  S      3.262548    0.812088    0.661844
  O      2.518285   -2.114911    0.328540
  C      2.945844   -2.921106    1.444077
  C      3.930443   -2.210005    2.348526
  S      0.397925   -0.825867    1.822064
  C     -0.079818    0.920468    1.976651
  S     -0.125483    1.834530    0.406834
  P     -1.774247    0.930416   -0.547417
  S     -1.866200    1.135348   -2.492353
  O     -2.905208    1.658438    0.296059
  C     -4.301344    1.448994   -0.015999
  C     -5.093724    2.572952    0.618223
  O     -1.909501   -0.570872   -0.037127
  C     -1.712410   -1.743323   -0.844258
  C     -2.984605   -2.566742   -0.828453
  H      2.410731   -1.846191   -2.927967
  H      3.175276   -0.409523   -3.637059
  H      3.622325   -0.941249   -2.005854
  H      0.876535    0.147643   -2.822691
  H      2.114658    1.013178   -1.874679
  H      2.055998   -3.222315    2.003774
  H      3.398462   -3.793263    0.968822
  H      4.783710   -1.852394    1.777105
  H      3.453844   -1.354511    2.825042
  H      4.273949   -2.896658    3.115536
  H      0.659382    1.442813    2.581810
  H     -1.060197    0.934562    2.446286
  H     -4.415571    1.441804   -1.105512
  H     -4.595320    0.474914    0.382741
  H     -6.148149    2.429748    0.405514
  H     -4.939344    2.576773    1.693210
  H     -4.772517    3.528989    0.214359
  H     -1.453791   -1.434980   -1.862291
  H     -0.874445   -2.290143   -0.405374
  H     -2.817344   -3.487092   -1.378231
  H     -3.261135   -2.803684    0.194972
  H     -3.793640   -2.012995   -1.299276

 Total Charge           Charge          ....    0
 Multiplicity           Mult            ....    1
 Number of Electrons    NEL             ....  202
 Basis Dimension        Dim             ....  334

ORBITAL ENERGIES
----------------

  NO   OCC          E(Eh)            E(eV)
   0   2.0000     -88.046200     -2395.8589
   1   2.0000     -88.042667     -2395.7628
   2   2.0000     -87.988040     -2394.2763
   3   2.0000     -87.984435     -2394.1782
   4   2.0000     -76.428704     -2079.7308
   5   2.0000     -76.425160     -2079.6343
   6   2.0000     -18.795444      -511.4500
   7   2.0000     -18.792553      -511.3714
   8   2.0000     -18.790911      -511.3267
   9   2.0000     -18.785607      -511.1823
  10   2.0000      -9.963929      -271.1323
  11   2.0000      -9.961103      -271.0554
  12   2.0000      -9.952983      -270.8344
  13   2.0000      -9.944952      -270.6159
  14   2.0000      -9.936722      -270.3919
  15   2.0000      -9.888772      -269.0872
  16   2.0000      -9.885360      -268.9943
  17   2.0000      -9.885066      -268.9863
  18   2.0000      -9.875060      -268.7140
  19   2.0000      -7.691347      -209.2922
  20   2.0000      -7.687619      -209.1907
  21   2.0000      -7.633085      -207.7068
  22   2.0000      -7.629420      -207.6071
  23   2.0000      -6.425353      -174.8427
  24   2.0000      -6.423124      -174.7821
  25   2.0000      -5.719255      -155.6289
  26   2.0000      -5.715981      -155.5398
  27   2.0000      -5.715819      -155.5353
  28   2.0000      -5.712106      -155.4343
  29   2.0000      -5.708261      -155.3297
  30   2.0000      -5.704039      -155.2148
  31   2.0000      -5.661888      -154.0678
  32   2.0000      -5.658374      -153.9722
  33   2.0000      -5.653690      -153.8447
  34   2.0000      -5.653360      -153.8357
  35   2.0000      -5.650152      -153.7485
  36   2.0000      -5.649488      -153.7304
  37   2.0000      -4.647879      -126.4752
  38   2.0000      -4.647367      -126.4613
  39   2.0000      -4.645769      -126.4178
  40   2.0000      -4.645657      -126.4147
  41   2.0000      -4.644905      -126.3943
  42   2.0000      -4.643593      -126.3586
  43   2.0000      -0.986603       -26.8468
  44   2.0000      -0.985050       -26.8046
  45   2.0000      -0.943954       -25.6863
  46   2.0000      -0.942297       -25.6412
  47   2.0000      -0.766992       -20.8709
  48   2.0000      -0.723801       -19.6956
  49   2.0000      -0.708829       -19.2882
  50   2.0000      -0.688264       -18.7286
  51   2.0000      -0.684373       -18.6227
  52   2.0000      -0.672221       -18.2921
  53   2.0000      -0.653562       -17.7843
  54   2.0000      -0.640212       -17.4210
  55   2.0000      -0.596963       -16.2442
  56   2.0000      -0.589921       -16.0526
  57   2.0000      -0.576916       -15.6987
  58   2.0000      -0.569022       -15.4839
  59   2.0000      -0.561738       -15.2857
  60   2.0000      -0.506731       -13.7889
  61   2.0000      -0.492624       -13.4050
  62   2.0000      -0.481805       -13.1106
  63   2.0000      -0.466488       -12.6938
  64   2.0000      -0.459763       -12.5108
  65   2.0000      -0.444752       -12.1023
  66   2.0000      -0.438643       -11.9361
  67   2.0000      -0.433083       -11.7848
  68   2.0000      -0.426798       -11.6138
  69   2.0000      -0.418567       -11.3898
  70   2.0000      -0.412183       -11.2161
  71   2.0000      -0.396597       -10.7920
  72   2.0000      -0.391514       -10.6536
  73   2.0000      -0.386027       -10.5043
  74   2.0000      -0.382447       -10.4069
  75   2.0000      -0.377726       -10.2785
  76   2.0000      -0.365342        -9.9415
  77   2.0000      -0.358189        -9.7468
  78   2.0000      -0.354050        -9.6342
  79   2.0000      -0.349919        -9.5218
  80   2.0000      -0.348472        -9.4824
  81   2.0000      -0.342322        -9.3151
  82   2.0000      -0.341104        -9.2819
  83   2.0000      -0.340011        -9.2522
  84   2.0000      -0.330526        -8.9941
  85   2.0000      -0.320921        -8.7327
  86   2.0000      -0.311025        -8.4634
  87   2.0000      -0.298758        -8.1296
  88   2.0000      -0.294928        -8.0254
  89   2.0000      -0.289447        -7.8763
  90   2.0000      -0.283669        -7.7190
  91   2.0000      -0.276548        -7.5252
  92   2.0000      -0.272725        -7.4212
  93   2.0000      -0.266989        -7.2651
  94   2.0000      -0.255628        -6.9560
  95   2.0000      -0.231154        -6.2900
  96   2.0000      -0.222265        -6.0481
  97   2.0000      -0.207434        -5.6446
  98   2.0000      -0.205432        -5.5901
  99   2.0000      -0.199680        -5.4336
 100   2.0000      -0.194477        -5.2920
 101   0.0000      -0.049069        -1.3352
 102   0.0000      -0.022932        -0.6240
 103   0.0000      -0.011840        -0.3222
 104   0.0000      -0.005087        -0.1384
 105   0.0000       0.014200         0.3864

MULLIKEN ATOMIC CHARGES
-----------------------
   0 C :   -0.297877
   1 C :   -0.022553
   2 O :   -0.369625
   3 P :    0.611186
   4 S :   -0.320216
   5 O :   -0.374416
   6 C :   -0.012003
   7 C :   -0.309944
   8 S :   -0.111506
   9 C :   -0.317332
  10 S :   -0.061501
  11 P :    0.631958
  12 S :   -0.327527
  13 O :   -0.376878
  14 C :   -0.021139
  15 C :   -0.273344
  16 O :   -0.382920
  17 C :   -0.010508
  18 C :   -0.281716
  19 H :    0.108962
  20 H :    0.110605
  21 H :    0.118159
  22 H :    0.116424
  23 H :    0.114967
  24 H :    0.112712
  25 H :    0.110537
  26 H :    0.128002
  27 H :    0.125321
  28 H :    0.111237
  29 H :    0.191915
  30 H :    0.182064
  31 H :    0.105165
  32 H :    0.101632
  33 H :    0.110691
  34 H :    0.113912
  35 H :    0.123219
  36 H :    0.110184
  37 H :    0.100132
  38 H :    0.110122
  39 H :    0.111586
  40 H :    0.110314
Sum of atomic charges:    0.0000000

LOEWDIN ATOMIC CHARGES
----------------------
   0 C :   -0.363376
   1 C :   -0.130985
   2 O :   -0.239970
   3 P :    0.568521
   4 S :   -0.319693
   5 O :   -0.244373
   6 C :   -0.113408
   7 C :   -0.370149
   8 S :    0.083879
   9 C :   -0.465423
  10 S :    0.116631
  11 P :    0.567704
  12 S :   -0.312948
  13 O :   -0.253803
  14 C :   -0.120938
  15 C :   -0.349490
  16 O :   -0.242417
  17 C :   -0.125580
  18 C :   -0.354811
  19 H :    0.122748
  20 H :    0.129944
  21 H :    0.119852
  22 H :    0.112070
  23 H :    0.108966
  24 H :    0.108828
  25 H :    0.122126
  26 H :    0.130300
  27 H :    0.121071
  28 H :    0.129898
  29 H :    0.139240
  30 H :    0.135432
  31 H :    0.108299
  32 H :    0.109846
  33 H :    0.130314
  34 H :    0.125888
  35 H :    0.130648
  36 H :    0.105789
  37 H :    0.103102
  38 H :    0.130178
  39 H :    0.123590
  40 H :    0.122500

  Mayer bond orders larger than 0.100000
B(  0-C ,  1-C ) :   1.1638 B(  0-C , 19-H ) :   0.9471 B(  0-C , 20-H ) :   0.9407
B(  0-C , 21-H ) :   0.9352 B(  1-C ,  2-O ) :   0.8906 B(  1-C , 22-H ) :   0.9148
B(  1-C , 23-H ) :   0.9125 B(  2-O ,  3-P ) :   1.0943 B(  3-P ,  4-S ) :   1.6109
B(  3-P ,  5-O ) :   1.1042 B(  3-P ,  8-S ) :   0.9601 B(  4-S ,  8-S ) :   0.1106
B(  5-O ,  6-C ) :   0.9145 B(  6-C ,  7-C ) :   1.1653 B(  6-C , 24-H ) :   0.9280
B(  6-C , 25-H ) :   0.9341 B(  7-C , 26-H ) :   0.9421 B(  7-C , 27-H ) :   0.9331
B(  7-C , 28-H ) :   0.9342 B(  8-S ,  9-C ) :   0.9824 B(  9-C , 10-S ) :   1.0051
B(  9-C , 29-H ) :   0.9010 B(  9-C , 30-H ) :   0.9058 B( 10-S , 11-P ) :   0.9670
B( 11-P , 12-S ) :   1.6410 B( 11-P , 13-O ) :   1.1028 B( 11-P , 16-O ) :   1.0972
B( 13-O , 14-C ) :   0.9040 B( 14-C , 15-C ) :   1.1618 B( 14-C , 31-H ) :   0.9115
B( 14-C , 32-H ) :   0.9288 B( 15-C , 33-H ) :   0.9417 B( 15-C , 34-H ) :   0.9508
B( 15-C , 35-H ) :   0.9503 B( 16-O , 17-C ) :   0.8992 B( 17-C , 18-C ) :   1.1580
B( 17-C , 36-H ) :   0.9047 B( 17-C , 37-H ) :   0.9193 B( 18-C , 38-H ) :   0.9421
B( 18-C , 39-H ) :   0.9495 B( 18-C , 40-H ) :   0.9466

Dispersion correction           -0.067373393
FINAL SINGLE POINT ENERGY     -2929.517490431130

DIPOLE MOMENT
-------------

Method             : SCF
Type of density    : Electron Density
Multiplicity       :   1
Irrep              :   0
Energy             : -2929.6361842929545674 Eh
Relativity type    :
Basis              : AO
                                X                 Y                 Z
Electronic contribution:      6.258957575      12.496826636       1.403262821
Nuclear contribution   :     -7.081857141     -13.841798362      -0.562408838
                        -----------------------------------------
Total Dipole Moment    :     -0.822899567      -1.344971726       0.840853982
                        -----------------------------------------
Magnitude (a.u.)       :      1.786938181
Magnitude (Debye)      :      4.542035894

Rotational constants in cm-1:             0.012960             0.005141             0.005024
Rotational constants in MHz :           388.517185           154.131568           150.621299

                             ****ORCA TERMINATED NORMALLY****
TOTAL RUN TIME: 0 days 0 hours 0 minutes 21 seconds 827 msec
