                         Program Version 6.0.0  -   RELEASE  -
|  1> ! pbe def2-sv(p) def2/J RI DEFGRID1 loosescf d4 GCP(DFT/SV(P)) printgap
|  2> %output
|  3>     printlevel normal
|  4> end
|  5> * xyz 0 1
|  6> C 3.1565499489 -2.9634272495 -1.0518585998
|  7> C 3.7170022461 -1.8081757296 -1.8517037931
|  8> O 3.9049630415 -0.6129001788 -1.0535845624
|  9> P 2.8183830619 0.1151657278 -0.1839105967
| 10> S 3.3091720341 1.9670013034 0.2175516898
| 11> O 2.7335203098 -0.8241535086 1.0994862891
| 12> C 2.1359368125 -0.4354992735 2.3493632774
| 13> C 0.9372530365 -1.3141596229 2.6493660908
| 14> S 1.0070921559 -0.1248094299 -1.3001794196
| 15> C 0.2490677013 1.4675781614 -0.9148004166
| 16> S -0.6037988888 1.4738123981 0.6839827345
| 17> P -2.2249162648 0.2573916036 0.0683159288
| 18> S -2.9092522334 0.6223329475 -1.7384282105
| 19> O -3.2379110818 0.3736417062 1.2842426306
| 20> C -3.9637269326 1.5789756584 1.5950479742
| 21> C -5.2937342888 1.6219618187 0.8672763581
| 22> O -1.6477710509 -1.1971143529 0.29462534
| 23> C -2.1268473459 -2.3362505367 -0.4495438761
| 24> C -3.5336671907 -2.7082303021 -0.0333305915
| 25> H 3.1238384481 -3.847591484 -1.6809293906
| 26> H 3.7811248031 -3.1589672165 -0.1843252077
| 27> H 2.1478948996 -2.7298348797 -0.7164959758
| 28> H 3.0599154151 -1.5571227031 -2.6882911391
| 29> H 4.7221191541 -2.0193945537 -2.2195849972
| 30> H 2.9175306065 -0.5694853848 3.1005305959
| 31> H 1.8603625389 0.6237563879 2.3099367576
| 32> H 0.1621345667 -1.1796340732 1.898951875
| 33> H 1.2368488427 -2.3581278601 2.6627821891
| 34> H 0.5344894717 -1.0423508394 3.6196362327
| 35> H -0.4719602891 1.6756718884 -1.7058874711
| 36> H 1.024012093 2.2338863437 -0.8629694121
| 37> H -4.1046778834 1.5372760144 2.6766987772
| 38> H -3.3477063717 2.4469646129 1.342494603
| 39> H -5.8837671781 0.7437792077 1.1143452475
| 40> H -5.8358986806 2.5134585946 1.1655914161
| 41> H -5.1366498542 1.6475030747 -0.2088418343
| 42> H -2.0844603588 -2.0979361792 -1.5170305812
| 43> H -1.4096681781 -3.124195851 -0.2174183821
| 44> H -3.5769203331 -2.8723328323 1.039997548
| 45> H -4.2167950973 -1.9001161107 -0.2931345659
| 46> H -3.8393407099 -3.6108388374 -0.5528405658
| 47> *
| 48>
| 49>                          ****END OF INPUT****

CARTESIAN COORDINATES (ANGSTROEM)
---------------------------------
  C      3.156550   -2.963427   -1.051859
  C      3.717002   -1.808176   -1.851704
  O      3.904963   -0.612900   -1.053585
  P      2.818383    0.115166   -0.183911
  S      3.309172    1.967001    0.217552
  O      2.733520   -0.824154    1.099486
  C      2.135937   -0.435499    2.349363
  C      0.937253   -1.314160    2.649366
  S      1.007092   -0.124809   -1.300179
  C      0.249068    1.467578   -0.914800
  S     -0.603799    1.473812    0.683983
  P     -2.224916    0.257392    0.068316
  S     -2.909252    0.622333   -1.738428
  O     -3.237911    0.373642    1.284243
  C     -3.963727    1.578976    1.595048
  C     -5.293734    1.621962    0.867276
  O     -1.647771   -1.197114    0.294625
  C     -2.126847   -2.336251   -0.449544
  C     -3.533667   -2.708230   -0.033331
  H      3.123838   -3.847591   -1.680929
  H      3.781125   -3.158967   -0.184325
  H      2.147895   -2.729835   -0.716496
  H      3.059915   -1.557123   -2.688291
  H      4.722119   -2.019395   -2.219585
  H      2.917531   -0.569485    3.100531
  H      1.860363    0.623756    2.309937
  H      0.162135   -1.179634    1.898952
  H      1.236849   -2.358128    2.662782
  H      0.534489   -1.042351    3.619636
  H     -0.471960    1.675672   -1.705887
  H      1.024012    2.233886   -0.862969
  H     -4.104678    1.537276    2.676699
  H     -3.347706    2.446965    1.342495
  H     -5.883767    0.743779    1.114345
  H     -5.835899    2.513459    1.165591
  H     -5.136650    1.647503   -0.208842
  H     -2.084460   -2.097936   -1.517031
  H     -1.409668   -3.124196   -0.217418
  H     -3.576920   -2.872333    1.039998
  H     -4.216795   -1.900116   -0.293135
  H     -3.839341   -3.610839   -0.552841

 Total Charge           Charge          ....    0
 Multiplicity           Mult            ....    1
 Number of Electrons    NEL             ....  202
 Basis Dimension        Dim             ....  334

ORBITAL ENERGIES
----------------

  NO   OCC          E(Eh)            E(eV)
   0   2.0000     -88.047137     -2395.8844
   1   2.0000     -88.042638     -2395.7620
   2   2.0000     -87.995545     -2394.4805
   3   2.0000     -87.983509     -2394.1530
   4   2.0000     -76.433406     -2079.8587
   5   2.0000     -76.425888     -2079.6541
   6   2.0000     -18.800674      -511.5924
   7   2.0000     -18.797591      -511.5084
   8   2.0000     -18.794190      -511.4159
   9   2.0000     -18.786700      -511.2121
  10   2.0000      -9.961445      -271.0647
  11   2.0000      -9.961192      -271.0578
  12   2.0000      -9.956475      -270.9295
  13   2.0000      -9.952384      -270.8181
  14   2.0000      -9.945712      -270.6366
  15   2.0000      -9.891798      -269.1695
  16   2.0000      -9.888156      -269.0704
  17   2.0000      -9.886307      -269.0201
  18   2.0000      -9.876138      -268.7434
  19   2.0000      -7.692100      -209.3127
  20   2.0000      -7.687452      -209.1862
  21   2.0000      -7.640327      -207.9039
  22   2.0000      -7.628769      -207.5894
  23   2.0000      -6.430970      -174.9956
  24   2.0000      -6.423320      -174.7874
  25   2.0000      -5.719823      -155.6443
  26   2.0000      -5.716671      -155.5585
  27   2.0000      -5.715279      -155.5206
  28   2.0000      -5.711938      -155.4297
  29   2.0000      -5.709179      -155.3547
  30   2.0000      -5.704563      -155.2291
  31   2.0000      -5.669092      -154.2638
  32   2.0000      -5.660954      -154.0424
  33   2.0000      -5.660668      -154.0346
  34   2.0000      -5.657773      -153.9558
  35   2.0000      -5.649423      -153.7286
  36   2.0000      -5.648746      -153.7102
  37   2.0000      -4.653420      -126.6260
  38   2.0000      -4.652790      -126.6089
  39   2.0000      -4.651473      -126.5730
  40   2.0000      -4.645989      -126.4238
  41   2.0000      -4.645065      -126.3986
  42   2.0000      -4.643720      -126.3621
  43   2.0000      -0.995056       -27.0768
  44   2.0000      -0.985964       -26.8294
  45   2.0000      -0.953773       -25.9535
  46   2.0000      -0.943022       -25.6609
  47   2.0000      -0.766140       -20.8477
  48   2.0000      -0.724763       -19.7218
  49   2.0000      -0.713884       -19.4258
  50   2.0000      -0.692188       -18.8354
  51   2.0000      -0.689601       -18.7650
  52   2.0000      -0.677025       -18.4228
  53   2.0000      -0.653221       -17.7751
  54   2.0000      -0.639096       -17.3907
  55   2.0000      -0.603884       -16.4325
  56   2.0000      -0.597400       -16.2561
  57   2.0000      -0.576238       -15.6802
  58   2.0000      -0.571213       -15.5435
  59   2.0000      -0.561907       -15.2903
  60   2.0000      -0.507051       -13.7976
  61   2.0000      -0.495778       -13.4908
  62   2.0000      -0.482121       -13.1192
  63   2.0000      -0.477388       -12.9904
  64   2.0000      -0.461849       -12.5676
  65   2.0000      -0.447721       -12.1831
  66   2.0000      -0.445714       -12.1285
  67   2.0000      -0.439857       -11.9691
  68   2.0000      -0.429485       -11.6869
  69   2.0000      -0.412117       -11.2143
  70   2.0000      -0.410249       -11.1635
  71   2.0000      -0.403720       -10.9858
  72   2.0000      -0.396566       -10.7911
  73   2.0000      -0.392543       -10.6816
  74   2.0000      -0.383797       -10.4436
  75   2.0000      -0.378727       -10.3057
  76   2.0000      -0.365430        -9.9439
  77   2.0000      -0.357624        -9.7314
  78   2.0000      -0.356656        -9.7051
  79   2.0000      -0.354865        -9.6564
  80   2.0000      -0.351862        -9.5746
  81   2.0000      -0.348648        -9.4872
  82   2.0000      -0.344370        -9.3708
  83   2.0000      -0.340181        -9.2568
  84   2.0000      -0.329659        -8.9705
  85   2.0000      -0.326473        -8.8838
  86   2.0000      -0.314556        -8.5595
  87   2.0000      -0.303358        -8.2548
  88   2.0000      -0.294596        -8.0164
  89   2.0000      -0.292456        -7.9581
  90   2.0000      -0.286740        -7.8026
  91   2.0000      -0.281854        -7.6696
  92   2.0000      -0.276447        -7.5225
  93   2.0000      -0.270898        -7.3715
  94   2.0000      -0.255836        -6.9617
  95   2.0000      -0.237253        -6.4560
  96   2.0000      -0.220810        -6.0085
  97   2.0000      -0.215469        -5.8632
  98   2.0000      -0.207852        -5.6559
  99   2.0000      -0.203405        -5.5349
 100   2.0000      -0.198129        -5.3914
 101   0.0000      -0.048117        -1.3093
 102   0.0000      -0.028175        -0.7667
 103   0.0000      -0.008994        -0.2447
 104   0.0000      -0.003043        -0.0828
 105   0.0000       0.012802         0.3484

MULLIKEN ATOMIC CHARGES
-----------------------
   0 C :   -0.317024
   1 C :   -0.009771
   2 O :   -0.359828
   3 P :    0.603223
   4 S :   -0.310814
   5 O :   -0.375103
   6 C :   -0.002484
   7 C :   -0.317233
   8 S :   -0.117852
   9 C :   -0.362900
  10 S :   -0.078115
  11 P :    0.614504
  12 S :   -0.329665
  13 O :   -0.369822
  14 C :   -0.014208
  15 C :   -0.298915
  16 O :   -0.354458
  17 C :   -0.002241
  18 C :   -0.308794
  19 H :    0.114961
  20 H :    0.126638
  21 H :    0.128793
  22 H :    0.118276
  23 H :    0.115536
  24 H :    0.103300
  25 H :    0.104240
  26 H :    0.146188
  27 H :    0.104089
  28 H :    0.103429
  29 H :    0.195465
  30 H :    0.197362
  31 H :    0.110645
  32 H :    0.107034
  33 H :    0.115257
  34 H :    0.110718
  35 H :    0.132293
  36 H :    0.114137
  37 H :    0.106746
  38 H :    0.117622
  39 H :    0.125146
  40 H :    0.113623
Sum of atomic charges:   -0.0000000

LOEWDIN ATOMIC CHARGES
----------------------
   0 C :   -0.367763
   1 C :   -0.112257
   2 O :   -0.233796
   3 P :    0.571569
   4 S :   -0.305943
   5 O :   -0.246844
   6 C :   -0.117352
   7 C :   -0.367811
   8 S :    0.065979
   9 C :   -0.488993
  10 S :    0.093949
  11 P :    0.571851
  12 S :   -0.313897
  13 O :   -0.242098
  14 C :   -0.115292
  15 C :   -0.364474
  16 O :   -0.229073
  17 C :   -0.117265
  18 C :   -0.364765
  19 H :    0.132018
  20 H :    0.131094
  21 H :    0.119115
  22 H :    0.111665
  23 H :    0.125175
  24 H :    0.116347
  25 H :    0.101254
  26 H :    0.120427
  27 H :    0.120963
  28 H :    0.127797
  29 H :    0.128689
  30 H :    0.128587
  31 H :    0.120621
  32 H :    0.108646
  33 H :    0.125971
  34 H :    0.130396
  35 H :    0.124996
  36 H :    0.110742
  37 H :    0.118654
  38 H :    0.126934
  39 H :    0.122878
  40 H :    0.131304

  Mayer bond orders larger than 0.100000
B(  0-C ,  1-C ) :   1.1683 B(  0-C , 19-H ) :   0.9346 B(  0-C , 20-H ) :   0.9422
B(  0-C , 21-H ) :   0.9361 B(  1-C ,  2-O ) :   0.9011 B(  1-C , 22-H ) :   0.9217
B(  1-C , 23-H ) :   0.9340 B(  2-O ,  3-P ) :   1.1547 B(  3-P ,  4-S ) :   1.6388
B(  3-P ,  5-O ) :   1.0920 B(  3-P ,  8-S ) :   0.9257 B(  4-S ,  8-S ) :   0.1102
B(  4-S , 30-H ) :   0.1017 B(  5-O ,  6-C ) :   0.9018 B(  6-C ,  7-C ) :   1.1636
B(  6-C , 24-H ) :   0.9354 B(  6-C , 25-H ) :   0.9017 B(  7-C , 26-H ) :   0.9217
B(  7-C , 27-H ) :   0.9466 B(  7-C , 28-H ) :   0.9403 B(  8-S ,  9-C ) :   1.0196
B(  9-C , 10-S ) :   1.0011 B(  9-C , 29-H ) :   0.8688 B(  9-C , 30-H ) :   0.8584
B( 10-S , 11-P ) :   0.9630 B( 10-S , 12-S ) :   0.1089 B( 11-P , 12-S ) :   1.5955
B( 11-P , 13-O ) :   1.1171 B( 11-P , 16-O ) :   1.1158 B( 13-O , 14-C ) :   0.9035
B( 14-C , 15-C ) :   1.1672 B( 14-C , 31-H ) :   0.9356 B( 14-C , 32-H ) :   0.9172
B( 15-C , 33-H ) :   0.9468 B( 15-C , 34-H ) :   0.9389 B( 15-C , 35-H ) :   0.9317
B( 16-O , 17-C ) :   0.8968 B( 17-C , 18-C ) :   1.1649 B( 17-C , 36-H ) :   0.9147
B( 17-C , 37-H ) :   0.9328 B( 18-C , 38-H ) :   0.9463 B( 18-C , 39-H ) :   0.9341
B( 18-C , 40-H ) :   0.9389

Dispersion correction           -0.065103332
FINAL SINGLE POINT ENERGY     -2929.521416043407

DIPOLE MOMENT
-------------

Method             : SCF
Type of density    : Electron Density
Multiplicity       :   1
Irrep              :   0
Energy             : -2929.6418829998274305 Eh
Relativity type    :
Basis              : AO
                                X                 Y                 Z
Electronic contribution:     13.971879279      16.526310846      -7.257447032
Nuclear contribution   :    -14.916836665     -17.973171516       7.772654992
                        -----------------------------------------
Total Dipole Moment    :     -0.944957386      -1.446860669       0.515207961
                        -----------------------------------------
Magnitude (a.u.)       :      1.803271888
Magnitude (Debye)      :      4.583552878

Rotational constants in cm-1:             0.012932             0.004772             0.004450
Rotational constants in MHz :           387.684112           143.074044           133.406170

                             ****ORCA TERMINATED NORMALLY****
TOTAL RUN TIME: 0 days 0 hours 0 minutes 21 seconds 41 msec
