                         Program Version 6.0.0  -   RELEASE  -
|  1> ! pbe def2-sv(p) def2/J RI DEFGRID1 loosescf d4 GCP(DFT/SV(P)) printgap
|  2> %output
|  3>     printlevel normal
|  4> end
|  5> * xyz 0 1
|  6> C 1.3857714021 0.5297887753 -2.7620213866
|  7> C 2.4326314136 0.873559503 -1.7208661774
|  8> O 2.7993229833 -0.2909014461 -0.9599357324
|  9> P 2.2231598876 -0.6411559908 0.4777909137
| 10> S 2.3235051195 0.7936950175 1.819066011
| 11> O 3.0536404939 -1.9393044781 0.8389065572
| 12> C 4.3152108284 -1.8827051683 1.5347373853
| 13> C 5.4082342596 -1.2855018603 0.6738513739
| 14> S 0.3565649998 -1.5525721579 0.1263191463
| 15> C -0.496727667 -1.0611151806 1.6672531236
| 16> S -2.2554680228 -0.7411072359 1.3979242515
| 17> P -2.063499957 0.7577471373 -0.0849389765
| 18> S -0.5971150559 2.0431383431 0.0293159636
| 19> O -3.5321564797 1.3520909025 0.1109872385
| 20> C -3.8689161594 2.6922706655 -0.2957092596
| 21> C -3.9441547598 2.8167328444 -1.8044969712
| 22> O -2.0451920078 0.0208735886 -1.4936615197
| 23> C -3.0624443787 -0.9381202062 -1.8732735179
| 24> C -2.4835697099 -2.338138421 -1.9039162652
| 25> H 0.4427520743 0.2686749131 -2.2858253464
| 26> H 1.2256511111 1.3937037755 -3.3990900903
| 27> H 1.7232393742 -0.309544312 -3.3633418157
| 28> H 2.0736667141 1.6544862179 -1.0420593423
| 29> H 3.3618840979 1.2015281704 -2.1909755535
| 30> H 4.179061138 -1.295152901 2.4484366769
| 31> H 4.5194773435 -2.9240100371 1.7868011487
| 32> H 5.1929686138 -0.2354256815 0.4802679862
| 33> H 6.358482258 -1.3613057324 1.1930596782
| 34> H 5.4683725397 -1.8122292965 -0.274739312
| 35> H -0.0102816765 -0.1604211413 2.0531132008
| 36> H -0.4442297903 -1.8746853994 2.3865399052
| 37> H -4.8344981215 2.8771589329 0.1770922201
| 38> H -3.1194698748 3.3788786136 0.1106800238
| 39> H -4.6655441081 2.1103751857 -2.2069648267
| 40> H -4.2447480511 3.8262731558 -2.0668657157
| 41> H -2.9653443142 2.6145085459 -2.2387859295
| 42> H -3.8975605807 -0.8695935867 -1.1703209152
| 43> H -3.3875993718 -0.6240233753 -2.8666711867
| 44> H -1.6182253666 -2.3705611084 -2.5594977423
| 45> H -2.1710965168 -2.6460265367 -0.9089193538
| 46> H -3.2396874207 -3.0253246288 -2.2695820683
| 47> *
| 48>
| 49>                          ****END OF INPUT****

CARTESIAN COORDINATES (ANGSTROEM)
---------------------------------
  C      1.385771    0.529789   -2.762021
  C      2.432631    0.873560   -1.720866
  O      2.799323   -0.290901   -0.959936
  P      2.223160   -0.641156    0.477791
  S      2.323505    0.793695    1.819066
  O      3.053640   -1.939304    0.838907
  C      4.315211   -1.882705    1.534737
  C      5.408234   -1.285502    0.673851
  S      0.356565   -1.552572    0.126319
  C     -0.496728   -1.061115    1.667253
  S     -2.255468   -0.741107    1.397924
  P     -2.063500    0.757747   -0.084939
  S     -0.597115    2.043138    0.029316
  O     -3.532156    1.352091    0.110987
  C     -3.868916    2.692271   -0.295709
  C     -3.944155    2.816733   -1.804497
  O     -2.045192    0.020874   -1.493662
  C     -3.062444   -0.938120   -1.873274
  C     -2.483570   -2.338138   -1.903916
  H      0.442752    0.268675   -2.285825
  H      1.225651    1.393704   -3.399090
  H      1.723239   -0.309544   -3.363342
  H      2.073667    1.654486   -1.042059
  H      3.361884    1.201528   -2.190976
  H      4.179061   -1.295153    2.448437
  H      4.519477   -2.924010    1.786801
  H      5.192969   -0.235426    0.480268
  H      6.358482   -1.361306    1.193060
  H      5.468373   -1.812229   -0.274739
  H     -0.010282   -0.160421    2.053113
  H     -0.444230   -1.874685    2.386540
  H     -4.834498    2.877159    0.177092
  H     -3.119470    3.378879    0.110680
  H     -4.665544    2.110375   -2.206965
  H     -4.244748    3.826273   -2.066866
  H     -2.965344    2.614509   -2.238786
  H     -3.897561   -0.869594   -1.170321
  H     -3.387599   -0.624023   -2.866671
  H     -1.618225   -2.370561   -2.559498
  H     -2.171097   -2.646027   -0.908919
  H     -3.239687   -3.025325   -2.269582

 Total Charge           Charge          ....    0
 Multiplicity           Mult            ....    1
 Number of Electrons    NEL             ....  202
 Basis Dimension        Dim             ....  334

ORBITAL ENERGIES
----------------

  NO   OCC          E(Eh)            E(eV)
   0   2.0000     -88.046646     -2395.8710
   1   2.0000     -88.039492     -2395.6764
   2   2.0000     -87.985868     -2394.2172
   3   2.0000     -87.982810     -2394.1340
   4   2.0000     -76.426587     -2079.6732
   5   2.0000     -76.420892     -2079.5182
   6   2.0000     -18.794358      -511.4205
   7   2.0000     -18.793939      -511.4091
   8   2.0000     -18.787397      -511.2311
   9   2.0000     -18.782540      -511.0989
  10   2.0000      -9.958705      -270.9901
  11   2.0000      -9.954695      -270.8810
  12   2.0000      -9.953013      -270.8353
  13   2.0000      -9.946208      -270.6501
  14   2.0000      -9.942050      -270.5369
  15   2.0000      -9.888760      -269.0868
  16   2.0000      -9.886404      -269.0227
  17   2.0000      -9.879249      -268.8280
  18   2.0000      -9.870944      -268.6021
  19   2.0000      -7.691818      -209.3050
  20   2.0000      -7.684232      -209.0986
  21   2.0000      -7.630826      -207.6453
  22   2.0000      -7.627684      -207.5598
  23   2.0000      -6.424309      -174.8143
  24   2.0000      -6.418691      -174.6615
  25   2.0000      -5.719749      -155.6423
  26   2.0000      -5.716359      -155.5500
  27   2.0000      -5.712095      -155.4340
  28   2.0000      -5.708884      -155.3466
  29   2.0000      -5.708692      -155.3414
  30   2.0000      -5.701058      -155.1337
  31   2.0000      -5.659867      -154.0128
  32   2.0000      -5.656516      -153.9216
  33   2.0000      -5.651539      -153.7862
  34   2.0000      -5.650718      -153.7639
  35   2.0000      -5.648423      -153.7014
  36   2.0000      -5.647824      -153.6851
  37   2.0000      -4.647206      -126.4569
  38   2.0000      -4.645829      -126.4194
  39   2.0000      -4.644725      -126.3894
  40   2.0000      -4.641032      -126.2889
  41   2.0000      -4.640352      -126.2704
  42   2.0000      -4.639421      -126.2451
  43   2.0000      -0.987281       -26.8653
  44   2.0000      -0.980626       -26.6842
  45   2.0000      -0.946521       -25.7562
  46   2.0000      -0.939020       -25.5520
  47   2.0000      -0.762754       -20.7556
  48   2.0000      -0.721157       -19.6237
  49   2.0000      -0.706811       -19.2333
  50   2.0000      -0.694131       -18.8883
  51   2.0000      -0.679886       -18.5006
  52   2.0000      -0.671158       -18.2631
  53   2.0000      -0.650702       -17.7065
  54   2.0000      -0.632962       -17.2238
  55   2.0000      -0.599500       -16.3132
  56   2.0000      -0.589585       -16.0434
  57   2.0000      -0.577268       -15.7082
  58   2.0000      -0.562270       -15.3002
  59   2.0000      -0.558209       -15.1897
  60   2.0000      -0.502996       -13.6872
  61   2.0000      -0.490350       -13.3431
  62   2.0000      -0.480585       -13.0774
  63   2.0000      -0.469801       -12.7839
  64   2.0000      -0.452477       -12.3125
  65   2.0000      -0.448383       -12.2011
  66   2.0000      -0.438971       -11.9450
  67   2.0000      -0.429122       -11.6770
  68   2.0000      -0.428801       -11.6683
  69   2.0000      -0.411428       -11.1955
  70   2.0000      -0.404144       -10.9973
  71   2.0000      -0.393393       -10.7048
  72   2.0000      -0.391179       -10.6445
  73   2.0000      -0.384967       -10.4755
  74   2.0000      -0.378934       -10.3113
  75   2.0000      -0.374692       -10.1959
  76   2.0000      -0.368810       -10.0358
  77   2.0000      -0.359557        -9.7840
  78   2.0000      -0.351794        -9.5728
  79   2.0000      -0.349539        -9.5115
  80   2.0000      -0.346961        -9.4413
  81   2.0000      -0.342025        -9.3070
  82   2.0000      -0.337876        -9.1941
  83   2.0000      -0.335786        -9.1372
  84   2.0000      -0.326640        -8.8883
  85   2.0000      -0.320404        -8.7186
  86   2.0000      -0.311308        -8.4711
  87   2.0000      -0.307262        -8.3610
  88   2.0000      -0.285613        -7.7719
  89   2.0000      -0.282790        -7.6951
  90   2.0000      -0.279744        -7.6122
  91   2.0000      -0.273915        -7.4536
  92   2.0000      -0.271526        -7.3886
  93   2.0000      -0.268070        -7.2946
  94   2.0000      -0.257432        -7.0051
  95   2.0000      -0.230256        -6.2656
  96   2.0000      -0.225210        -6.1283
  97   2.0000      -0.210773        -5.7354
  98   2.0000      -0.199666        -5.4332
  99   2.0000      -0.197510        -5.3745
 100   2.0000      -0.189718        -5.1625
 101   0.0000      -0.046493        -1.2652
 102   0.0000      -0.034004        -0.9253
 103   0.0000      -0.003448        -0.0938
 104   0.0000       0.009613         0.2616
 105   0.0000       0.019964         0.5432

MULLIKEN ATOMIC CHARGES
-----------------------
   0 C :   -0.314823
   1 C :   -0.010972
   2 O :   -0.373506
   3 P :    0.629567
   4 S :   -0.317476
   5 O :   -0.368374
   6 C :   -0.003499
   7 C :   -0.304891
   8 S :   -0.112632
   9 C :   -0.342272
  10 S :   -0.098202
  11 P :    0.618575
  12 S :   -0.297367
  13 O :   -0.389664
  14 C :   -0.006162
  15 C :   -0.316031
  16 O :   -0.360683
  17 C :   -0.028928
  18 C :   -0.280212
  19 H :    0.147413
  20 H :    0.104171
  21 H :    0.103455
  22 H :    0.120399
  23 H :    0.099269
  24 H :    0.108572
  25 H :    0.102681
  26 H :    0.122832
  27 H :    0.109518
  28 H :    0.116058
  29 H :    0.210040
  30 H :    0.181263
  31 H :    0.106941
  32 H :    0.116476
  33 H :    0.112699
  34 H :    0.115211
  35 H :    0.130199
  36 H :    0.107124
  37 H :    0.109971
  38 H :    0.122306
  39 H :    0.122105
  40 H :    0.108850
Sum of atomic charges:   -0.0000000

LOEWDIN ATOMIC CHARGES
----------------------
   0 C :   -0.368588
   1 C :   -0.117228
   2 O :   -0.240751
   3 P :    0.570290
   4 S :   -0.303055
   5 O :   -0.246600
   6 C :   -0.117985
   7 C :   -0.364310
   8 S :    0.085488
   9 C :   -0.475948
  10 S :    0.088510
  11 P :    0.566253
  12 S :   -0.286369
  13 O :   -0.258124
  14 C :   -0.116944
  15 C :   -0.365486
  16 O :   -0.240439
  17 C :   -0.119220
  18 C :   -0.360256
  19 H :    0.120957
  20 H :    0.128641
  21 H :    0.120272
  22 H :    0.108276
  23 H :    0.115231
  24 H :    0.108910
  25 H :    0.117601
  26 H :    0.123598
  27 H :    0.128992
  28 H :    0.126179
  29 H :    0.124008
  30 H :    0.134974
  31 H :    0.119405
  32 H :    0.112615
  33 H :    0.122603
  34 H :    0.132182
  35 H :    0.126090
  36 H :    0.107619
  37 H :    0.119168
  38 H :    0.128841
  39 H :    0.115384
  40 H :    0.129214

  Mayer bond orders larger than 0.100000
B(  0-C ,  1-C ) :   1.1723 B(  0-C , 19-H ) :   0.9231 B(  0-C , 20-H ) :   0.9401
B(  0-C , 21-H ) :   0.9462 B(  1-C ,  2-O ) :   0.8984 B(  1-C , 22-H ) :   0.9045
B(  1-C , 23-H ) :   0.9343 B(  2-O ,  3-P ) :   1.1203 B(  3-P ,  4-S ) :   1.6102
B(  3-P ,  5-O ) :   1.1277 B(  3-P ,  8-S ) :   0.9516 B(  4-S ,  8-S ) :   0.1170
B(  5-O ,  6-C ) :   0.9132 B(  6-C ,  7-C ) :   1.1635 B(  6-C , 24-H ) :   0.9151
B(  6-C , 25-H ) :   0.9351 B(  7-C , 26-H ) :   0.9377 B(  7-C , 27-H ) :   0.9389
B(  7-C , 28-H ) :   0.9465 B(  8-S ,  9-C ) :   0.9938 B(  9-C , 10-S ) :   1.0095
B(  9-C , 29-H ) :   0.8511 B(  9-C , 30-H ) :   0.9106 B( 10-S , 11-P ) :   0.9432
B( 10-S , 12-S ) :   0.1046 B( 11-P , 12-S ) :   1.6482 B( 11-P , 13-O ) :   1.0822
B( 11-P , 16-O ) :   1.0848 B( 13-O , 14-C ) :   0.9085 B( 14-C , 15-C ) :   1.1608
B( 14-C , 31-H ) :   0.9347 B( 14-C , 32-H ) :   0.9143 B( 15-C , 33-H ) :   0.9462
B( 15-C , 34-H ) :   0.9391 B( 15-C , 35-H ) :   0.9360 B( 16-O , 17-C ) :   0.8970
B( 17-C , 18-C ) :   1.1681 B( 17-C , 36-H ) :   0.9135 B( 17-C , 37-H ) :   0.9320
B( 18-C , 38-H ) :   0.9458 B( 18-C , 39-H ) :   0.9311 B( 18-C , 40-H ) :   0.9388

Dispersion correction           -0.066857606
FINAL SINGLE POINT ENERGY     -2929.521868814694

DIPOLE MOMENT
-------------

Method             : SCF
Type of density    : Electron Density
Multiplicity       :   1
Irrep              :   0
Energy             : -2929.6404829934936060 Eh
Relativity type    :
Basis              : AO
                                X                 Y                 Z
Electronic contribution:     -0.578619696      -0.217093044      16.593766181
Nuclear contribution   :     -0.183051093      -0.304012673     -17.552815818
                        -----------------------------------------
Total Dipole Moment    :     -0.761670789      -0.521105717      -0.959049637
                        -----------------------------------------
Magnitude (a.u.)       :      1.330965726
Magnitude (Debye)      :      3.383046021

Rotational constants in cm-1:             0.013884             0.004823             0.004696
Rotational constants in MHz :           416.245829           144.581165           140.790906

                             ****ORCA TERMINATED NORMALLY****
TOTAL RUN TIME: 0 days 0 hours 0 minutes 21 seconds 483 msec
