                         Program Version 6.0.0  -   RELEASE  -
|  1> ! pbe def2-sv(p) def2/J RI DEFGRID1 loosescf d4 GCP(DFT/SV(P)) printgap
|  2> %output
|  3>     printlevel normal
|  4> end
|  5> * xyz 0 1
|  6> C 5.3142735094 -1.573282326 -1.383308537
|  7> C 3.8967059743 -1.5709556974 -1.9220812927
|  8> O 2.9450894919 -1.7157685119 -0.8475338003
|  9> P 2.2048534375 -0.4697700474 -0.1924222971
| 10> S 3.3507104203 1.0430071466 0.3135472245
| 11> O 1.4073195374 -1.1791944371 0.9724708925
| 12> C 1.9515902894 -1.3095880774 2.3096170558
| 13> C 1.4258379278 -0.2135344142 3.2144960241
| 14> S 0.6707044946 -0.0401558736 -1.580300941
| 15> C 0.1650382005 1.5314315289 -0.8283340912
| 16> S -0.7579942362 1.3056103543 0.7076832735
| 17> P -2.4837975006 0.4373925646 -0.1999151049
| 18> S -3.0161592293 1.2014227842 -1.9177527181
| 19> O -3.5735538634 0.4726920374 0.9582799941
| 20> C -4.4496366394 1.5957326201 1.1713383294
| 21> C -3.700603871 2.8397802386 1.6019035457
| 22> O -2.1825533331 -1.106174326 -0.3097639326
| 23> C -1.8986026436 -1.9457564661 0.8377191517
| 24> C -1.2387943059 -3.2103509319 0.3295464468
| 25> H 5.4742835402 -0.7085718112 -0.7429325359
| 26> H 5.4927854172 -2.4768205315 -0.8072468681
| 27> H 6.0120524524 -1.5319194432 -2.2133667002
| 28> H 3.7150593174 -2.428677938 -2.572186794
| 29> H 3.6869275277 -0.6483100434 -2.4704535957
| 30> H 1.6266184209 -2.2966211021 2.6415272467
| 31> H 3.0427549999 -1.2787861438 2.2574393108
| 32> H 1.7584647238 0.7593296234 2.8590577284
| 33> H 0.3396735556 -0.2194329333 3.2318702992
| 34> H 1.8028722025 -0.3714059349 4.2197498303
| 35> H -0.4668587094 2.037299162 -1.5585034641
| 36> H 1.0507928386 2.1202642038 -0.5875977908
| 37> H -5.0019485791 1.7805261034 0.2451541573
| 38> H -5.1314253165 1.2460865891 1.9478938067
| 39> H -3.0621843579 2.6232723757 2.4547523741
| 40> H -3.0823125133 3.2048217697 0.7832467752
| 41> H -4.4149409966 3.6109118663 1.8718643519
| 42> H -1.2400251223 -1.3970680201 1.5170281104
| 43> H -2.845309056 -2.1547144344 1.3392954247
| 44> H -1.8751621656 -3.6891829656 -0.409180569
| 45> H -0.283132726 -2.9746524015 -0.1329059849
| 46> H -1.0773586445 -3.8880932506 1.1616385868
| 47> *
| 48>
| 49>                          ****END OF INPUT****

CARTESIAN COORDINATES (ANGSTROEM)
---------------------------------
  C      5.314274   -1.573282   -1.383309
  C      3.896706   -1.570956   -1.922081
  O      2.945089   -1.715769   -0.847534
  P      2.204853   -0.469770   -0.192422
  S      3.350710    1.043007    0.313547
  O      1.407320   -1.179194    0.972471
  C      1.951590   -1.309588    2.309617
  C      1.425838   -0.213534    3.214496
  S      0.670704   -0.040156   -1.580301
  C      0.165038    1.531432   -0.828334
  S     -0.757994    1.305610    0.707683
  P     -2.483798    0.437393   -0.199915
  S     -3.016159    1.201423   -1.917753
  O     -3.573554    0.472692    0.958280
  C     -4.449637    1.595733    1.171338
  C     -3.700604    2.839780    1.601904
  O     -2.182553   -1.106174   -0.309764
  C     -1.898603   -1.945756    0.837719
  C     -1.238794   -3.210351    0.329546
  H      5.474284   -0.708572   -0.742933
  H      5.492785   -2.476821   -0.807247
  H      6.012052   -1.531919   -2.213367
  H      3.715059   -2.428678   -2.572187
  H      3.686928   -0.648310   -2.470454
  H      1.626618   -2.296621    2.641527
  H      3.042755   -1.278786    2.257439
  H      1.758465    0.759330    2.859058
  H      0.339674   -0.219433    3.231870
  H      1.802872   -0.371406    4.219750
  H     -0.466859    2.037299   -1.558503
  H      1.050793    2.120264   -0.587598
  H     -5.001949    1.780526    0.245154
  H     -5.131425    1.246087    1.947894
  H     -3.062184    2.623272    2.454752
  H     -3.082313    3.204822    0.783247
  H     -4.414941    3.610912    1.871864
  H     -1.240025   -1.397068    1.517028
  H     -2.845309   -2.154714    1.339295
  H     -1.875162   -3.689183   -0.409181
  H     -0.283133   -2.974652   -0.132906
  H     -1.077359   -3.888093    1.161639

 Total Charge           Charge          ....    0
 Multiplicity           Mult            ....    1
 Number of Electrons    NEL             ....  202
 Basis Dimension        Dim             ....  334

ORBITAL ENERGIES
----------------

  NO   OCC          E(Eh)            E(eV)
   0   2.0000     -88.042992     -2395.7716
   1   2.0000     -88.041105     -2395.7203
   2   2.0000     -87.992491     -2394.3974
   3   2.0000     -87.985961     -2394.2197
   4   2.0000     -76.430605     -2079.7825
   5   2.0000     -76.425422     -2079.6415
   6   2.0000     -18.796438      -511.4771
   7   2.0000     -18.796341      -511.4744
   8   2.0000     -18.795613      -511.4546
   9   2.0000     -18.788384      -511.2579
  10   2.0000      -9.959215      -271.0040
  11   2.0000      -9.957227      -270.9499
  12   2.0000      -9.954962      -270.8883
  13   2.0000      -9.951964      -270.8067
  14   2.0000      -9.950948      -270.7791
  15   2.0000      -9.885186      -268.9896
  16   2.0000      -9.884722      -268.9769
  17   2.0000      -9.884165      -268.9618
  18   2.0000      -9.881730      -268.8955
  19   2.0000      -7.688282      -209.2088
  20   2.0000      -7.685908      -209.1442
  21   2.0000      -7.637416      -207.8247
  22   2.0000      -7.631262      -207.6572
  23   2.0000      -6.428263      -174.9219
  24   2.0000      -6.422913      -174.7763
  25   2.0000      -5.716067      -155.5421
  26   2.0000      -5.713638      -155.4760
  27   2.0000      -5.712931      -155.4568
  28   2.0000      -5.710509      -155.3908
  29   2.0000      -5.705169      -155.2455
  30   2.0000      -5.702944      -155.1850
  31   2.0000      -5.666185      -154.1847
  32   2.0000      -5.660195      -154.0217
  33   2.0000      -5.658095      -153.9646
  34   2.0000      -5.657666      -153.9529
  35   2.0000      -5.651801      -153.7933
  36   2.0000      -5.651455      -153.7839
  37   2.0000      -4.650833      -126.5556
  38   2.0000      -4.649983      -126.5325
  39   2.0000      -4.648743      -126.4987
  40   2.0000      -4.645832      -126.4195
  41   2.0000      -4.644545      -126.3845
  42   2.0000      -4.643208      -126.3481
  43   2.0000      -0.991476       -26.9794
  44   2.0000      -0.987606       -26.8741
  45   2.0000      -0.949621       -25.8405
  46   2.0000      -0.943543       -25.6751
  47   2.0000      -0.765350       -20.8262
  48   2.0000      -0.723381       -19.6842
  49   2.0000      -0.711048       -19.3486
  50   2.0000      -0.689097       -18.7513
  51   2.0000      -0.688854       -18.7447
  52   2.0000      -0.676502       -18.4085
  53   2.0000      -0.651992       -17.7416
  54   2.0000      -0.639062       -17.3898
  55   2.0000      -0.599247       -16.3063
  56   2.0000      -0.591425       -16.0935
  57   2.0000      -0.576081       -15.6760
  58   2.0000      -0.568520       -15.4702
  59   2.0000      -0.559836       -15.2339
  60   2.0000      -0.510168       -13.8824
  61   2.0000      -0.502159       -13.6644
  62   2.0000      -0.480660       -13.0794
  63   2.0000      -0.474247       -12.9049
  64   2.0000      -0.460524       -12.5315
  65   2.0000      -0.447328       -12.1724
  66   2.0000      -0.440349       -11.9825
  67   2.0000      -0.436918       -11.8891
  68   2.0000      -0.429712       -11.6931
  69   2.0000      -0.419585       -11.4175
  70   2.0000      -0.406265       -11.0550
  71   2.0000      -0.401579       -10.9275
  72   2.0000      -0.390054       -10.6139
  73   2.0000      -0.388099       -10.5607
  74   2.0000      -0.377996       -10.2858
  75   2.0000      -0.372580       -10.1384
  76   2.0000      -0.365515        -9.9462
  77   2.0000      -0.362486        -9.8637
  78   2.0000      -0.355036        -9.6610
  79   2.0000      -0.351894        -9.5755
  80   2.0000      -0.351162        -9.5556
  81   2.0000      -0.344847        -9.3838
  82   2.0000      -0.341881        -9.3031
  83   2.0000      -0.337272        -9.1776
  84   2.0000      -0.334303        -9.0969
  85   2.0000      -0.318230        -8.6595
  86   2.0000      -0.311163        -8.4672
  87   2.0000      -0.302198        -8.2232
  88   2.0000      -0.300411        -8.1746
  89   2.0000      -0.295444        -8.0394
  90   2.0000      -0.293429        -7.9846
  91   2.0000      -0.282156        -7.6778
  92   2.0000      -0.269402        -7.3308
  93   2.0000      -0.265200        -7.2165
  94   2.0000      -0.259145        -7.0517
  95   2.0000      -0.235151        -6.3988
  96   2.0000      -0.220826        -6.0090
  97   2.0000      -0.213204        -5.8016
  98   2.0000      -0.205284        -5.5861
  99   2.0000      -0.203944        -5.5496
 100   2.0000      -0.200562        -5.4576
 101   0.0000      -0.045083        -1.2268
 102   0.0000      -0.024618        -0.6699
 103   0.0000      -0.005869        -0.1597
 104   0.0000      -0.001073        -0.0292
 105   0.0000       0.012290         0.3344

MULLIKEN ATOMIC CHARGES
-----------------------
   0 C :   -0.291400
   1 C :   -0.009394
   2 O :   -0.376765
   3 P :    0.608041
   4 S :   -0.333626
   5 O :   -0.364713
   6 C :   -0.001634
   7 C :   -0.299723
   8 S :   -0.056351
   9 C :   -0.378787
  10 S :   -0.093816
  11 P :    0.605995
  12 S :   -0.313676
  13 O :   -0.387516
  14 C :    0.001207
  15 C :   -0.318781
  16 O :   -0.353113
  17 C :   -0.024491
  18 C :   -0.282106
  19 H :    0.127587
  20 H :    0.111645
  21 H :    0.109763
  22 H :    0.109833
  23 H :    0.105426
  24 H :    0.105419
  25 H :    0.107307
  26 H :    0.126538
  27 H :    0.125171
  28 H :    0.108520
  29 H :    0.195014
  30 H :    0.191794
  31 H :    0.113596
  32 H :    0.104545
  33 H :    0.116741
  34 H :    0.129838
  35 H :    0.114414
  36 H :    0.117578
  37 H :    0.103648
  38 H :    0.117751
  39 H :    0.127288
  40 H :    0.101233
Sum of atomic charges:    0.0000000

LOEWDIN ATOMIC CHARGES
----------------------
   0 C :   -0.361878
   1 C :   -0.115403
   2 O :   -0.248898
   3 P :    0.569312
   4 S :   -0.321465
   5 O :   -0.236258
   6 C :   -0.111660
   7 C :   -0.363180
   8 S :    0.097538
   9 C :   -0.489013
  10 S :    0.083141
  11 P :    0.570885
  12 S :   -0.310875
  13 O :   -0.250408
  14 C :   -0.115155
  15 C :   -0.371060
  16 O :   -0.233874
  17 C :   -0.115470
  18 C :   -0.352128
  19 H :    0.124852
  20 H :    0.124801
  21 H :    0.129864
  22 H :    0.119948
  23 H :    0.109870
  24 H :    0.117928
  25 H :    0.111181
  26 H :    0.124592
  27 H :    0.120824
  28 H :    0.128956
  29 H :    0.129453
  30 H :    0.128066
  31 H :    0.113835
  32 H :    0.118532
  33 H :    0.122920
  34 H :    0.122270
  35 H :    0.131799
  36 H :    0.104079
  37 H :    0.112372
  38 H :    0.128251
  39 H :    0.125431
  40 H :    0.126027

  Mayer bond orders larger than 0.100000
B(  0-C ,  1-C ) :   1.1671 B(  0-C , 19-H ) :   0.9347 B(  0-C , 20-H ) :   0.9477
B(  0-C , 21-H ) :   0.9399 B(  1-C ,  2-O ) :   0.8994 B(  1-C , 22-H ) :   0.9350
B(  1-C , 23-H ) :   0.9154 B(  2-O ,  3-P ) :   1.1111 B(  3-P ,  4-S ) :   1.5833
B(  3-P ,  5-O ) :   1.1197 B(  3-P ,  8-S ) :   0.9788 B(  4-S ,  8-S ) :   0.1095
B(  5-O ,  6-C ) :   0.8848 B(  6-C ,  7-C ) :   1.1715 B(  6-C , 24-H ) :   0.9326
B(  6-C , 25-H ) :   0.9148 B(  7-C , 26-H ) :   0.9335 B(  7-C , 27-H ) :   0.9437
B(  7-C , 28-H ) :   0.9380 B(  8-S ,  9-C ) :   1.0030 B(  9-C , 10-S ) :   1.0058
B(  9-C , 29-H ) :   0.8737 B(  9-C , 30-H ) :   0.8715 B( 10-S , 11-P ) :   0.9463
B( 10-S , 12-S ) :   0.1078 B( 11-P , 12-S ) :   1.6370 B( 11-P , 13-O ) :   1.0860
B( 11-P , 16-O ) :   1.1425 B( 13-O , 14-C ) :   0.9068 B( 14-C , 15-C ) :   1.1660
B( 14-C , 31-H ) :   0.9197 B( 14-C , 32-H ) :   0.9346 B( 15-C , 33-H ) :   0.9438
B( 15-C , 34-H ) :   0.9345 B( 15-C , 35-H ) :   0.9367 B( 16-O , 17-C ) :   0.8884
B( 17-C , 18-C ) :   1.1684 B( 17-C , 36-H ) :   0.9044 B( 17-C , 37-H ) :   0.9303
B( 18-C , 38-H ) :   0.9483 B( 18-C , 39-H ) :   0.9404 B( 18-C , 40-H ) :   0.9406

Dispersion correction           -0.065981259
FINAL SINGLE POINT ENERGY     -2929.525335353098

DIPOLE MOMENT
-------------

Method             : SCF
Type of density    : Electron Density
Multiplicity       :   1
Irrep              :   0
Energy             : -2929.6444342618710834 Eh
Relativity type    :
Basis              : AO
                                X                 Y                 Z
Electronic contribution:     -5.197995438       7.442152952     -13.298154017
Nuclear contribution   :      5.401525938      -8.269897549      14.540193724
                        -----------------------------------------
Total Dipole Moment    :      0.203530501      -0.827744597       1.242039707
                        -----------------------------------------
Magnitude (a.u.)       :      1.506402475
Magnitude (Debye)      :      3.828970798

Rotational constants in cm-1:             0.013430             0.004743             0.004658
Rotational constants in MHz :           402.622624           142.181780           139.640724

                             ****ORCA TERMINATED NORMALLY****
TOTAL RUN TIME: 0 days 0 hours 0 minutes 21 seconds 544 msec
