                         Program Version 6.0.0  -   RELEASE  -
|  1> ! pbe def2-sv(p) def2/J RI DEFGRID1 loosescf d4 GCP(DFT/SV(P)) printgap
|  2> %output
|  3>     printlevel normal
|  4> end
|  5> * xyz 0 1
|  6> C 3.746231575 -2.2227607309 1.343150978
|  7> C 2.4336904099 -2.1349681816 0.591942446
|  8> O 1.9340298925 -0.7846429359 0.5964294618
|  9> P 2.4853365075 0.3281674184 -0.4098966544
| 10> S 3.3407985902 -0.3959658621 -2.0109161352
| 11> O 3.4686840698 1.2720880165 0.3941047342
| 12> C 3.0874139182 2.2644849163 1.3756303807
| 13> C 2.3323682255 1.6694869266 2.5454909417
| 14> S 0.75437995 1.5091839961 -0.7131365695
| 15> C -0.0484138196 0.3520202219 -1.8508623825
| 16> S -0.8604687375 -1.0146505185 -0.9970722818
| 17> P -2.3587828947 0.1776865047 -0.0389745621
| 18> S -2.9938130425 1.6627277895 -1.1490486111
| 19> O -1.8050246997 0.6719457476 1.3482396563
| 20> C -1.7816573085 -0.0945755739 2.5800170895
| 21> C -0.8970091931 -1.3187038743 2.483021225
| 22> O -3.4564052193 -0.8875655499 0.3808857758
| 23> C -4.3148717468 -1.4965196974 -0.6064890946
| 24> C -5.490895235 -2.1165560901 0.1202313744
| 25> H 4.0972794844 -3.2496302431 1.3383747919
| 26> H 4.4881808219 -1.5914738328 0.8543280853
| 27> H 3.6202499895 -1.8899593929 2.3697951704
| 28> H 1.646840541 -2.7214714251 1.0677090655
| 29> H 2.5595934539 -2.4603698062 -0.4453866022
| 30> H 4.0439221242 2.6890142369 1.6849282671
| 31> H 2.488581363 3.0292235224 0.8736429537
| 32> H 2.9079189784 0.865822763 2.9969163236
| 33> H 2.1585714827 2.4453568106 3.2847054451
| 34> H 1.3728289915 1.2796577249 2.2116417534
| 35> H 0.6978712203 -0.0762628792 -2.5214257732
| 36> H -0.7966126106 0.9251328125 -2.3993419314
| 37> H -1.4009362025 0.6229793466 3.308778801
| 38> H -2.8077532457 -0.3698300823 2.8288903744
| 39> H -0.8415893399 -1.7938770851 3.4574693809
| 40> H -1.308053635 -2.0248097279 1.7638768684
| 41> H 0.1029016153 -1.0364183056 2.1641481591
| 42> H -4.6390545702 -0.7231405403 -1.3104883548
| 43> H -3.7331432639 -2.2493284743 -1.144802509
| 44> H -5.1411563783 -2.8605124176 0.8298148028
| 45> H -6.0459620548 -1.3507295632 0.6546579092
| 46> H -6.1448200881 -2.5910194757 -0.6039471846
| 47> *
| 48>
| 49>                          ****END OF INPUT****

CARTESIAN COORDINATES (ANGSTROEM)
---------------------------------
  C      3.746232   -2.222761    1.343151
  C      2.433690   -2.134968    0.591942
  O      1.934030   -0.784643    0.596429
  P      2.485337    0.328167   -0.409897
  S      3.340799   -0.395966   -2.010916
  O      3.468684    1.272088    0.394105
  C      3.087414    2.264485    1.375630
  C      2.332368    1.669487    2.545491
  S      0.754380    1.509184   -0.713137
  C     -0.048414    0.352020   -1.850862
  S     -0.860469   -1.014651   -0.997072
  P     -2.358783    0.177687   -0.038975
  S     -2.993813    1.662728   -1.149049
  O     -1.805025    0.671946    1.348240
  C     -1.781657   -0.094576    2.580017
  C     -0.897009   -1.318704    2.483021
  O     -3.456405   -0.887566    0.380886
  C     -4.314872   -1.496520   -0.606489
  C     -5.490895   -2.116556    0.120231
  H      4.097279   -3.249630    1.338375
  H      4.488181   -1.591474    0.854328
  H      3.620250   -1.889959    2.369795
  H      1.646841   -2.721471    1.067709
  H      2.559593   -2.460370   -0.445387
  H      4.043922    2.689014    1.684928
  H      2.488581    3.029224    0.873643
  H      2.907919    0.865823    2.996916
  H      2.158571    2.445357    3.284705
  H      1.372829    1.279658    2.211642
  H      0.697871   -0.076263   -2.521426
  H     -0.796613    0.925133   -2.399342
  H     -1.400936    0.622979    3.308779
  H     -2.807753   -0.369830    2.828890
  H     -0.841589   -1.793877    3.457469
  H     -1.308054   -2.024810    1.763877
  H      0.102902   -1.036418    2.164148
  H     -4.639055   -0.723141   -1.310488
  H     -3.733143   -2.249328   -1.144803
  H     -5.141156   -2.860512    0.829815
  H     -6.045962   -1.350730    0.654658
  H     -6.144820   -2.591019   -0.603947

 Total Charge           Charge          ....    0
 Multiplicity           Mult            ....    1
 Number of Electrons    NEL             ....  202
 Basis Dimension        Dim             ....  334

ORBITAL ENERGIES
----------------

  NO   OCC          E(Eh)            E(eV)
   0   2.0000     -88.041349     -2395.7269
   1   2.0000     -88.039917     -2395.6879
   2   2.0000     -87.984904     -2394.1910
   3   2.0000     -87.983988     -2394.1660
   4   2.0000     -76.428654     -2079.7294
   5   2.0000     -76.426068     -2079.6590
   6   2.0000     -18.801602      -511.6176
   7   2.0000     -18.796693      -511.4840
   8   2.0000     -18.793904      -511.4081
   9   2.0000     -18.792401      -511.3672
  10   2.0000      -9.963452      -271.1193
  11   2.0000      -9.960685      -271.0440
  12   2.0000      -9.958692      -270.9898
  13   2.0000      -9.950663      -270.7713
  14   2.0000      -9.950490      -270.7666
  15   2.0000      -9.893917      -269.2272
  16   2.0000      -9.893913      -269.2271
  17   2.0000      -9.889651      -269.1111
  18   2.0000      -9.886371      -269.0218
  19   2.0000      -7.686370      -209.1567
  20   2.0000      -7.684901      -209.1168
  21   2.0000      -7.630163      -207.6273
  22   2.0000      -7.629290      -207.6035
  23   2.0000      -6.426031      -174.8612
  24   2.0000      -6.423900      -174.8032
  25   2.0000      -5.714166      -155.4904
  26   2.0000      -5.712611      -155.4480
  27   2.0000      -5.711053      -155.4057
  28   2.0000      -5.709580      -155.3656
  29   2.0000      -5.703244      -155.1932
  30   2.0000      -5.701920      -155.1571
  31   2.0000      -5.659134      -153.9929
  32   2.0000      -5.658317      -153.9706
  33   2.0000      -5.650864      -153.7678
  34   2.0000      -5.650158      -153.7486
  35   2.0000      -5.650092      -153.7468
  36   2.0000      -5.649078      -153.7192
  37   2.0000      -4.649214      -126.5116
  38   2.0000      -4.647582      -126.4671
  39   2.0000      -4.646802      -126.4459
  40   2.0000      -4.646125      -126.4275
  41   2.0000      -4.645438      -126.4088
  42   2.0000      -4.644237      -126.3761
  43   2.0000      -0.993975       -27.0474
  44   2.0000      -0.986317       -26.8391
  45   2.0000      -0.949500       -25.8372
  46   2.0000      -0.948441       -25.8084
  47   2.0000      -0.764431       -20.8012
  48   2.0000      -0.724745       -19.7213
  49   2.0000      -0.714699       -19.4479
  50   2.0000      -0.697970       -18.9927
  51   2.0000      -0.695010       -18.9122
  52   2.0000      -0.675958       -18.3938
  53   2.0000      -0.650344       -17.6968
  54   2.0000      -0.636708       -17.3257
  55   2.0000      -0.599466       -16.3123
  56   2.0000      -0.595643       -16.2083
  57   2.0000      -0.579001       -15.7554
  58   2.0000      -0.578236       -15.7346
  59   2.0000      -0.561980       -15.2923
  60   2.0000      -0.511393       -13.9157
  61   2.0000      -0.497340       -13.5333
  62   2.0000      -0.480554       -13.0765
  63   2.0000      -0.479523       -13.0485
  64   2.0000      -0.461586       -12.5604
  65   2.0000      -0.449694       -12.2368
  66   2.0000      -0.448356       -12.2004
  67   2.0000      -0.439018       -11.9463
  68   2.0000      -0.433025       -11.7832
  69   2.0000      -0.416950       -11.3458
  70   2.0000      -0.414381       -11.2759
  71   2.0000      -0.404585       -11.0093
  72   2.0000      -0.392955       -10.6928
  73   2.0000      -0.389312       -10.5937
  74   2.0000      -0.378483       -10.2990
  75   2.0000      -0.374445       -10.1892
  76   2.0000      -0.372985       -10.1494
  77   2.0000      -0.360621        -9.8130
  78   2.0000      -0.358800        -9.7635
  79   2.0000      -0.355403        -9.6710
  80   2.0000      -0.352259        -9.5855
  81   2.0000      -0.349687        -9.5155
  82   2.0000      -0.347765        -9.4632
  83   2.0000      -0.345286        -9.3957
  84   2.0000      -0.337945        -9.1960
  85   2.0000      -0.324554        -8.8316
  86   2.0000      -0.314242        -8.5510
  87   2.0000      -0.308974        -8.4076
  88   2.0000      -0.307579        -8.3697
  89   2.0000      -0.298200        -8.1144
  90   2.0000      -0.282354        -7.6832
  91   2.0000      -0.279583        -7.6078
  92   2.0000      -0.276486        -7.5236
  93   2.0000      -0.268124        -7.2960
  94   2.0000      -0.256510        -6.9800
  95   2.0000      -0.232345        -6.3224
  96   2.0000      -0.218926        -5.9573
  97   2.0000      -0.210754        -5.7349
  98   2.0000      -0.202081        -5.4989
  99   2.0000      -0.197372        -5.3708
 100   2.0000      -0.196866        -5.3570
 101   0.0000      -0.047012        -1.2793
 102   0.0000      -0.023957        -0.6519
 103   0.0000      -0.003333        -0.0907
 104   0.0000       0.001836         0.0500
 105   0.0000       0.013251         0.3606

MULLIKEN ATOMIC CHARGES
-----------------------
   0 C :   -0.308053
   1 C :   -0.009000
   2 O :   -0.380237
   3 P :    0.613677
   4 S :   -0.314748
   5 O :   -0.371411
   6 C :   -0.018148
   7 C :   -0.340885
   8 S :   -0.081600
   9 C :   -0.365566
  10 S :   -0.102770
  11 P :    0.615384
  12 S :   -0.317330
  13 O :   -0.358951
  14 C :    0.015378
  15 C :   -0.372566
  16 O :   -0.389954
  17 C :   -0.010768
  18 C :   -0.281482
  19 H :    0.112715
  20 H :    0.126319
  21 H :    0.112471
  22 H :    0.104692
  23 H :    0.114706
  24 H :    0.116289
  25 H :    0.126013
  26 H :    0.121475
  27 H :    0.115924
  28 H :    0.153264
  29 H :    0.186302
  30 H :    0.200381
  31 H :    0.109480
  32 H :    0.111100
  33 H :    0.109986
  34 H :    0.119549
  35 H :    0.171191
  36 H :    0.110052
  37 H :    0.105831
  38 H :    0.114038
  39 H :    0.121763
  40 H :    0.115489
Sum of atomic charges:    0.0000000

LOEWDIN ATOMIC CHARGES
----------------------
   0 C :   -0.362351
   1 C :   -0.124729
   2 O :   -0.246983
   3 P :    0.573501
   4 S :   -0.310942
   5 O :   -0.242482
   6 C :   -0.112925
   7 C :   -0.370852
   8 S :    0.089394
   9 C :   -0.486816
  10 S :    0.064719
  11 P :    0.571007
  12 S :   -0.311396
  13 O :   -0.234298
  14 C :   -0.105405
  15 C :   -0.376773
  16 O :   -0.249386
  17 C :   -0.119415
  18 C :   -0.350441
  19 H :    0.130969
  20 H :    0.126130
  21 H :    0.121012
  22 H :    0.114204
  23 H :    0.108536
  24 H :    0.125116
  25 H :    0.114000
  26 H :    0.126347
  27 H :    0.132950
  28 H :    0.124528
  29 H :    0.128004
  30 H :    0.130368
  31 H :    0.121088
  32 H :    0.114692
  33 H :    0.129804
  34 H :    0.117444
  35 H :    0.131805
  36 H :    0.111528
  37 H :    0.110310
  38 H :    0.125419
  39 H :    0.129465
  40 H :    0.132851

  Mayer bond orders larger than 0.100000
B(  0-C ,  1-C ) :   1.1651 B(  0-C , 19-H ) :   0.9403 B(  0-C , 20-H ) :   0.9379
B(  0-C , 21-H ) :   0.9458 B(  1-C ,  2-O ) :   0.8919 B(  1-C , 22-H ) :   0.9281
B(  1-C , 23-H ) :   0.9058 B(  2-O ,  3-P ) :   1.0673 B(  3-P ,  4-S ) :   1.6235
B(  3-P ,  5-O ) :   1.1285 B(  3-P ,  8-S ) :   0.9655 B(  5-O ,  6-C ) :   0.9049
B(  6-C ,  7-C ) :   1.1657 B(  6-C , 24-H ) :   0.9348 B(  6-C , 25-H ) :   0.9213
B(  7-C , 26-H ) :   0.9425 B(  7-C , 27-H ) :   0.9341 B(  7-C , 28-H ) :   0.9264
B(  8-S ,  9-C ) :   1.0075 B(  9-C , 10-S ) :   1.0100 B(  9-C , 29-H ) :   0.8667
B(  9-C , 30-H ) :   0.8703 B( 10-S , 11-P ) :   0.9403 B( 10-S , 12-S ) :   0.1143
B( 11-P , 12-S ) :   1.6447 B( 11-P , 13-O ) :   1.1406 B( 11-P , 16-O ) :   1.0764
B( 13-O , 14-C ) :   0.8935 B( 14-C , 15-C ) :   1.1727 B( 14-C , 31-H ) :   0.9312
B( 14-C , 32-H ) :   0.9289 B( 15-C , 33-H ) :   0.9337 B( 15-C , 34-H ) :   0.9375
B( 15-C , 35-H ) :   0.9170 B( 16-O , 17-C ) :   0.8975 B( 17-C , 18-C ) :   1.1600
B( 17-C , 36-H ) :   0.9098 B( 17-C , 37-H ) :   0.9285 B( 18-C , 38-H ) :   0.9514
B( 18-C , 39-H ) :   0.9506 B( 18-C , 40-H ) :   0.9415

Dispersion correction           -0.065712462
FINAL SINGLE POINT ENERGY     -2929.516412829787

DIPOLE MOMENT
-------------

Method             : SCF
Type of density    : Electron Density
Multiplicity       :   1
Irrep              :   0
Energy             : -2929.6374161425437705 Eh
Relativity type    :
Basis              : AO
                                X                 Y                 Z
Electronic contribution:      2.140796459      13.590753882     -20.433351608
Nuclear contribution   :     -2.626948773     -14.695025564      22.408222462
                        -----------------------------------------
Total Dipole Moment    :     -0.486152314      -1.104271681       1.974870854
                        -----------------------------------------
Magnitude (a.u.)       :      2.314276325
Magnitude (Debye)      :      5.882422935

Rotational constants in cm-1:             0.012707             0.004842             0.004713
Rotational constants in MHz :           380.952879           145.167276           141.285637

                             ****ORCA TERMINATED NORMALLY****
TOTAL RUN TIME: 0 days 0 hours 0 minutes 21 seconds 942 msec
