                         Program Version 6.0.0  -   RELEASE  -
|  1> ! pbe def2-sv(p) def2/J RI DEFGRID1 loosescf d4 GCP(DFT/SV(P)) printgap
|  2> %output
|  3>     printlevel normal
|  4> end
|  5> * xyz 0 1
|  6> C 2.975990179 -2.9940572389 -1.318452696
|  7> C 4.0812329087 -2.2222719774 -0.6299033176
|  8> O 3.893810764 -0.7879562317 -0.7145125576
|  9> P 2.7016153244 0.0303264158 -0.096103194
| 10> S 3.1892858779 1.9244170945 0.0068486395
| 11> O 2.4568564918 -0.7676926502 1.260543324
| 12> C 1.3538657833 -0.5836293069 2.1630965382
| 13> C 1.4472519188 0.7177965805 2.9339053967
| 14> S 0.9797355531 -0.3759186642 -1.3104354314
| 15> C 0.2810689141 1.2856202167 -1.3709603571
| 16> S -0.7099950743 1.7024735848 0.0887630559
| 17> P -2.2848532055 0.3486906839 -0.3255594154
| 18> S -2.8298628251 0.1443395199 -2.1889583022
| 19> O -3.4707024204 0.8633623034 0.5873237718
| 20> C -3.3080460764 1.0756261115 2.0137622499
| 21> C -4.6872680432 1.2725396309 2.6071048996
| 22> O -1.7034852909 -0.9688324746 0.3788141638
| 23> C -2.0580221091 -2.2891378154 -0.0751009041
| 24> C -3.4836782516 -2.634298009 0.3037171832
| 25> H 3.2153926493 -4.0527052468 -1.2972567211
| 26> H 2.0271326827 -2.8349760745 -0.8089702132
| 27> H 2.8724151599 -2.6708193351 -2.3511348017
| 28> H 5.0433660248 -2.374665033 -1.1212461889
| 29> H 4.1542078773 -2.494658952 0.4243560135
| 30> H 0.4187291545 -0.6359627377 1.5973362486
| 31> H 1.4253631056 -1.4437462186 2.8319948274
| 32> H 2.413910268 0.7936404952 3.4251270186
| 33> H 1.3309932866 1.5683835856 2.2649989808
| 34> H 0.6606790513 0.7489448055 3.6809297731
| 35> H -0.3520645379 1.3302076757 -2.2567659933
| 36> H 1.0900412841 2.0165516418 -1.4141839213
| 37> H -2.8046495925 0.2049694706 2.4409765282
| 38> H -2.6801059333 1.9593976836 2.1528480389
| 39> H -5.1744780134 2.1227073087 2.1386607274
| 40> H -5.2972172185 0.3886572181 2.4437348044
| 41> H -4.593796395 1.4543058884 3.6728544579
| 42> H -1.9224716648 -2.3323198868 -1.1600038902
| 43> H -1.3357850471 -2.9439383878 0.4140511786
| 44> H -3.6175081259 -2.5734861831 1.380654549
| 45> H -4.168384661 -1.9369810542 -0.1791400893
| 46> H -3.7128221626 -3.6409941988 -0.0309772871
| 47> *
| 48>
| 49>                          ****END OF INPUT****

CARTESIAN COORDINATES (ANGSTROEM)
---------------------------------
  C      2.975990   -2.994057   -1.318453
  C      4.081233   -2.222272   -0.629903
  O      3.893811   -0.787956   -0.714513
  P      2.701615    0.030326   -0.096103
  S      3.189286    1.924417    0.006849
  O      2.456856   -0.767693    1.260543
  C      1.353866   -0.583629    2.163097
  C      1.447252    0.717797    2.933905
  S      0.979736   -0.375919   -1.310435
  C      0.281069    1.285620   -1.370960
  S     -0.709995    1.702474    0.088763
  P     -2.284853    0.348691   -0.325559
  S     -2.829863    0.144340   -2.188958
  O     -3.470702    0.863362    0.587324
  C     -3.308046    1.075626    2.013762
  C     -4.687268    1.272540    2.607105
  O     -1.703485   -0.968832    0.378814
  C     -2.058022   -2.289138   -0.075101
  C     -3.483678   -2.634298    0.303717
  H      3.215393   -4.052705   -1.297257
  H      2.027133   -2.834976   -0.808970
  H      2.872415   -2.670819   -2.351135
  H      5.043366   -2.374665   -1.121246
  H      4.154208   -2.494659    0.424356
  H      0.418729   -0.635963    1.597336
  H      1.425363   -1.443746    2.831995
  H      2.413910    0.793640    3.425127
  H      1.330993    1.568384    2.264999
  H      0.660679    0.748945    3.680930
  H     -0.352065    1.330208   -2.256766
  H      1.090041    2.016552   -1.414184
  H     -2.804650    0.204969    2.440977
  H     -2.680106    1.959398    2.152848
  H     -5.174478    2.122707    2.138661
  H     -5.297217    0.388657    2.443735
  H     -4.593796    1.454306    3.672854
  H     -1.922472   -2.332320   -1.160004
  H     -1.335785   -2.943938    0.414051
  H     -3.617508   -2.573486    1.380655
  H     -4.168385   -1.936981   -0.179140
  H     -3.712822   -3.640994   -0.030977

 Total Charge           Charge          ....    0
 Multiplicity           Mult            ....    1
 Number of Electrons    NEL             ....  202
 Basis Dimension        Dim             ....  334

ORBITAL ENERGIES
----------------

  NO   OCC          E(Eh)            E(eV)
   0   2.0000     -88.044139     -2395.8028
   1   2.0000     -88.041798     -2395.7391
   2   2.0000     -87.992088     -2394.3864
   3   2.0000     -87.983992     -2394.1661
   4   2.0000     -76.429720     -2079.7584
   5   2.0000     -76.427063     -2079.6861
   6   2.0000     -18.800339      -511.5832
   7   2.0000     -18.797475      -511.5053
   8   2.0000     -18.793400      -511.3944
   9   2.0000     -18.791880      -511.3531
  10   2.0000      -9.966308      -271.1970
  11   2.0000      -9.959469      -271.0109
  12   2.0000      -9.956268      -270.9238
  13   2.0000      -9.951942      -270.8061
  14   2.0000      -9.950927      -270.7785
  15   2.0000      -9.897673      -269.3294
  16   2.0000      -9.894126      -269.2328
  17   2.0000      -9.891099      -269.1505
  18   2.0000      -9.878563      -268.8094
  19   2.0000      -7.689121      -209.2316
  20   2.0000      -7.686249      -209.1535
  21   2.0000      -7.637291      -207.8213
  22   2.0000      -7.629184      -207.6007
  23   2.0000      -6.427736      -174.9076
  24   2.0000      -6.424221      -174.8119
  25   2.0000      -5.716839      -155.5631
  26   2.0000      -5.714182      -155.4908
  27   2.0000      -5.713818      -155.4809
  28   2.0000      -5.710709      -155.3963
  29   2.0000      -5.706075      -155.2702
  30   2.0000      -5.703346      -155.1959
  31   2.0000      -5.666332      -154.1887
  32   2.0000      -5.658233      -153.9684
  33   2.0000      -5.657950      -153.9606
  34   2.0000      -5.657244      -153.9414
  35   2.0000      -5.649579      -153.7329
  36   2.0000      -5.649388      -153.7277
  37   2.0000      -4.650623      -126.5499
  38   2.0000      -4.649136      -126.5094
  39   2.0000      -4.648220      -126.4845
  40   2.0000      -4.647116      -126.4545
  41   2.0000      -4.645990      -126.4238
  42   2.0000      -4.644446      -126.3818
  43   2.0000      -0.991937       -26.9920
  44   2.0000      -0.988865       -26.9084
  45   2.0000      -0.951239       -25.8845
  46   2.0000      -0.943886       -25.6844
  47   2.0000      -0.764564       -20.8048
  48   2.0000      -0.726662       -19.7735
  49   2.0000      -0.715925       -19.4813
  50   2.0000      -0.698125       -18.9969
  51   2.0000      -0.691235       -18.8095
  52   2.0000      -0.676870       -18.4186
  53   2.0000      -0.653882       -17.7930
  54   2.0000      -0.640322       -17.4241
  55   2.0000      -0.597977       -16.2718
  56   2.0000      -0.591440       -16.0939
  57   2.0000      -0.581057       -15.8114
  58   2.0000      -0.580595       -15.7988
  59   2.0000      -0.563110       -15.3230
  60   2.0000      -0.512718       -13.9518
  61   2.0000      -0.498062       -13.5530
  62   2.0000      -0.486410       -13.2359
  63   2.0000      -0.473412       -12.8822
  64   2.0000      -0.460914       -12.5421
  65   2.0000      -0.450655       -12.2629
  66   2.0000      -0.448986       -12.2175
  67   2.0000      -0.439993       -11.9728
  68   2.0000      -0.427458       -11.6317
  69   2.0000      -0.421352       -11.4656
  70   2.0000      -0.409847       -11.1525
  71   2.0000      -0.403605       -10.9827
  72   2.0000      -0.400312       -10.8930
  73   2.0000      -0.394137       -10.7250
  74   2.0000      -0.384867       -10.4728
  75   2.0000      -0.373858       -10.1732
  76   2.0000      -0.366299        -9.9675
  77   2.0000      -0.364293        -9.9129
  78   2.0000      -0.357955        -9.7405
  79   2.0000      -0.354604        -9.6493
  80   2.0000      -0.353913        -9.6305
  81   2.0000      -0.347437        -9.4543
  82   2.0000      -0.345949        -9.4137
  83   2.0000      -0.341703        -9.2982
  84   2.0000      -0.335013        -9.1162
  85   2.0000      -0.326274        -8.8784
  86   2.0000      -0.320479        -8.7207
  87   2.0000      -0.314583        -8.5602
  88   2.0000      -0.297234        -8.0881
  89   2.0000      -0.292129        -7.9492
  90   2.0000      -0.287303        -7.8179
  91   2.0000      -0.277983        -7.5643
  92   2.0000      -0.276618        -7.5272
  93   2.0000      -0.272169        -7.4061
  94   2.0000      -0.259271        -7.0551
  95   2.0000      -0.234541        -6.3822
  96   2.0000      -0.218389        -5.9427
  97   2.0000      -0.214530        -5.8377
  98   2.0000      -0.205719        -5.5979
  99   2.0000      -0.201268        -5.4768
 100   2.0000      -0.198657        -5.4057
 101   0.0000      -0.046479        -1.2648
 102   0.0000      -0.027327        -0.7436
 103   0.0000      -0.006581        -0.1791
 104   0.0000       0.001335         0.0363
 105   0.0000       0.005328         0.1450

MULLIKEN ATOMIC CHARGES
-----------------------
   0 C :   -0.334846
   1 C :    0.006620
   2 O :   -0.359760
   3 P :    0.618601
   4 S :   -0.311251
   5 O :   -0.383503
   6 C :   -0.040977
   7 C :   -0.304792
   8 S :   -0.117718
   9 C :   -0.342652
  10 S :   -0.102487
  11 P :    0.617470
  12 S :   -0.304087
  13 O :   -0.369474
  14 C :   -0.040183
  15 C :   -0.274217
  16 O :   -0.379761
  17 C :   -0.005685
  18 C :   -0.313234
  19 H :    0.117655
  20 H :    0.128146
  21 H :    0.132511
  22 H :    0.112936
  23 H :    0.110973
  24 H :    0.138216
  25 H :    0.096613
  26 H :    0.115123
  27 H :    0.136570
  28 H :    0.099039
  29 H :    0.193977
  30 H :    0.196514
  31 H :    0.108495
  32 H :    0.120053
  33 H :    0.127104
  34 H :    0.120267
  35 H :    0.113472
  36 H :    0.116181
  37 H :    0.101567
  38 H :    0.109653
  39 H :    0.131498
  40 H :    0.115374
Sum of atomic charges:   -0.0000000

LOEWDIN ATOMIC CHARGES
----------------------
   0 C :   -0.371382
   1 C :   -0.108350
   2 O :   -0.235036
   3 P :    0.570002
   4 S :   -0.299262
   5 O :   -0.246459
   6 C :   -0.125263
   7 C :   -0.368301
   8 S :    0.076254
   9 C :   -0.486783
  10 S :    0.086950
  11 P :    0.569758
  12 S :   -0.300210
  13 O :   -0.244009
  14 C :   -0.119720
  15 C :   -0.348275
  16 O :   -0.251138
  17 C :   -0.122221
  18 C :   -0.365615
  19 H :    0.133613
  20 H :    0.115743
  21 H :    0.130810
  22 H :    0.123986
  23 H :    0.115073
  24 H :    0.105356
  25 H :    0.115003
  26 H :    0.126462
  27 H :    0.117189
  28 H :    0.124876
  29 H :    0.131141
  30 H :    0.128942
  31 H :    0.108878
  32 H :    0.112710
  33 H :    0.132890
  34 H :    0.128986
  35 H :    0.131868
  36 H :    0.110744
  37 H :    0.115280
  38 H :    0.121239
  39 H :    0.125894
  40 H :    0.132378

  Mayer bond orders larger than 0.100000
B(  0-C ,  1-C ) :   1.1691 B(  0-C , 19-H ) :   0.9355 B(  0-C , 20-H ) :   0.9317
B(  0-C , 21-H ) :   0.9423 B(  1-C ,  2-O ) :   0.9007 B(  1-C , 22-H ) :   0.9336
B(  1-C , 23-H ) :   0.9270 B(  2-O ,  3-P ) :   1.1445 B(  3-P ,  4-S ) :   1.6509
B(  3-P ,  5-O ) :   1.0730 B(  3-P ,  8-S ) :   0.9297 B(  4-S ,  8-S ) :   0.1140
B(  5-O ,  6-C ) :   0.9095 B(  6-C ,  7-C ) :   1.1668 B(  6-C , 24-H ) :   0.8963
B(  6-C , 25-H ) :   0.9347 B(  7-C , 26-H ) :   0.9445 B(  7-C , 27-H ) :   0.9277
B(  7-C , 28-H ) :   0.9383 B(  8-S ,  9-C ) :   1.0164 B(  9-C , 10-S ) :   1.0032
B(  9-C , 29-H ) :   0.8748 B(  9-C , 30-H ) :   0.8603 B( 10-S , 11-P ) :   0.9647
B( 10-S , 12-S ) :   0.1014 B( 11-P , 12-S ) :   1.6406 B( 11-P , 13-O ) :   1.1225
B( 11-P , 16-O ) :   1.0573 B( 13-O , 14-C ) :   0.8992 B( 14-C , 15-C ) :   1.1663
B( 14-C , 31-H ) :   0.9181 B( 14-C , 32-H ) :   0.9228 B( 15-C , 33-H ) :   0.9490
B( 15-C , 34-H ) :   0.9508 B( 15-C , 35-H ) :   0.9399 B( 16-O , 17-C ) :   0.9018
B( 17-C , 18-C ) :   1.1615 B( 17-C , 36-H ) :   0.9128 B( 17-C , 37-H ) :   0.9327
B( 18-C , 38-H ) :   0.9468 B( 18-C , 39-H ) :   0.9340 B( 18-C , 40-H ) :   0.9398

Dispersion correction           -0.065375769
FINAL SINGLE POINT ENERGY     -2929.519293416386

DIPOLE MOMENT
-------------

Method             : SCF
Type of density    : Electron Density
Multiplicity       :   1
Irrep              :   0
Energy             : -2929.6400348150309583 Eh
Relativity type    :
Basis              : AO
                                X                 Y                 Z
Electronic contribution:     10.105682834      14.960445801     -16.084788610
Nuclear contribution   :    -10.699674335     -16.736463813      17.618234254
                        -----------------------------------------
Total Dipole Moment    :     -0.593991501      -1.776018012       1.533445644
                        -----------------------------------------
Magnitude (a.u.)       :      2.420438271
Magnitude (Debye)      :      6.152265156

Rotational constants in cm-1:             0.011966             0.005011             0.004649
Rotational constants in MHz :           358.718749           150.217405           139.376779

                             ****ORCA TERMINATED NORMALLY****
TOTAL RUN TIME: 0 days 0 hours 0 minutes 21 seconds 885 msec
