                         Program Version 6.0.0  -   RELEASE  -
|  1> ! r2scan-3c def2/J RI DEFGRID2 scfconv6 printgap
|  2> %output
|  3>     printlevel normal
|  4> end
|  5> * xyz 0 1
|  6> C 4.1417115314 1.9334116133 -1.5508439535
|  7> C 4.4547642348 0.5247709323 -1.0892687111
|  8> O 3.2671839433 -0.2770006927 -0.9519827859
|  9> P 2.1830847528 -0.00509453 0.1754559361
| 10> S 2.9083396897 0.5156052097 1.9240856138
| 11> O 1.3309021187 -1.3397804039 0.1354540522
| 12> C 1.5968222476 -2.459877282 0.9991711288
| 13> C 2.9299981953 -3.107000308 0.6904378335
| 14> S 0.8092911497 1.3082286661 -0.7280493507
| 15> C -0.0376793903 1.8128680581 0.7959080832
| 16> S -0.87682602 0.4412724802 1.6471674642
| 17> P -2.1431277984 -0.2134449408 0.0927552678
| 18> S -1.5648907168 -1.4509203914 -1.3170922897
| 19> O -2.7721590137 1.151156378 -0.4313574455
| 20> C -2.9196829945 1.5322761717 -1.8148456075
| 21> C -2.1761830757 2.8240427474 -2.0888583684
| 22> O -3.2144737795 -0.8324123424 1.0922924722
| 23> C -4.1831220342 -1.8096126433 0.6689234488
| 24> C -5.2162116705 -1.2074896623 -0.2621152093
| 25> H 3.5300557219 1.9088757649 -2.4493127184
| 26> H 3.6002906861 2.4690447396 -0.7721086357
| 27> H 5.069350969 2.4569070441 -1.7588347121
| 28> H 4.9718115607 0.5420922793 -0.124408889
| 29> H 5.0522409867 -0.0180881284 -1.8228029975
| 30> H 1.5609174015 -2.1101617716 2.0367317416
| 31> H 0.7616656267 -3.1367711697 0.8090621431
| 32> H 3.0441055671 -4.001568315 1.2945918287
| 33> H 2.9822239144 -3.3693637938 -0.3632073928
| 34> H 3.7387874502 -2.4150407231 0.9237018211
| 35> H -0.762164822 2.575647379 0.522285418
| 36> H 0.6938534482 2.1963671699 1.5074470145
| 37> H -2.5472840181 0.7185603518 -2.4467259868
| 38> H -3.9930356916 1.6570361339 -1.9737211761
| 39> H -2.3897979511 3.1402819634 -3.1047039111
| 40> H -2.5035738233 3.5974560605 -1.3995597724
| 41> H -1.1025990261 2.6775528252 -1.9843675906
| 42> H -3.6553026707 -2.6331449344 0.1765493343
| 43> H -4.6298636805 -2.158315122 1.6009630509
| 44> H -5.6604753442 -0.32571452 0.1924047249
| 45> H -4.7433976261 -0.9257383833 -1.2024981763
| 46> H -5.991325678 -1.9402213955 -0.4633241107
| 47> *
| 48>
| 49>                          ****END OF INPUT****

CARTESIAN COORDINATES (ANGSTROEM)
---------------------------------
  C      4.141712    1.933412   -1.550844
  C      4.454764    0.524771   -1.089269
  O      3.267184   -0.277001   -0.951983
  P      2.183085   -0.005095    0.175456
  S      2.908340    0.515605    1.924086
  O      1.330902   -1.339780    0.135454
  C      1.596822   -2.459877    0.999171
  C      2.929998   -3.107000    0.690438
  S      0.809291    1.308229   -0.728049
  C     -0.037679    1.812868    0.795908
  S     -0.876826    0.441272    1.647167
  P     -2.143128   -0.213445    0.092755
  S     -1.564891   -1.450920   -1.317092
  O     -2.772159    1.151156   -0.431357
  C     -2.919683    1.532276   -1.814846
  C     -2.176183    2.824043   -2.088858
  O     -3.214474   -0.832412    1.092292
  C     -4.183122   -1.809613    0.668923
  C     -5.216212   -1.207490   -0.262115
  H      3.530056    1.908876   -2.449313
  H      3.600291    2.469045   -0.772109
  H      5.069351    2.456907   -1.758835
  H      4.971812    0.542092   -0.124409
  H      5.052241   -0.018088   -1.822803
  H      1.560917   -2.110162    2.036732
  H      0.761666   -3.136771    0.809062
  H      3.044106   -4.001568    1.294592
  H      2.982224   -3.369364   -0.363207
  H      3.738787   -2.415041    0.923702
  H     -0.762165    2.575647    0.522285
  H      0.693853    2.196367    1.507447
  H     -2.547284    0.718560   -2.446726
  H     -3.993036    1.657036   -1.973721
  H     -2.389798    3.140282   -3.104704
  H     -2.503574    3.597456   -1.399560
  H     -1.102599    2.677553   -1.984368
  H     -3.655303   -2.633145    0.176549
  H     -4.629864   -2.158315    1.600963
  H     -5.660475   -0.325715    0.192405
  H     -4.743398   -0.925738   -1.202498
  H     -5.991326   -1.940221   -0.463324

 Total Charge           Charge          ....    0
 Multiplicity           Mult            ....    1
 Number of Electrons    NEL             ....  202
 Basis Dimension        Dim             ....  539

ORBITAL ENERGIES
----------------

  NO   OCC          E(Eh)            E(eV)
   0   2.0000     -88.574636     -2410.2384
   1   2.0000     -88.570947     -2410.1380
   2   2.0000     -88.519189     -2408.7296
   3   2.0000     -88.513651     -2408.5789
   4   2.0000     -76.911255     -2092.8617
   5   2.0000     -76.910279     -2092.8351
   6   2.0000     -18.992410      -516.8098
   7   2.0000     -18.991760      -516.7921
   8   2.0000     -18.985979      -516.6348
   9   2.0000     -18.979617      -516.4616
  10   2.0000     -10.107615      -275.0422
  11   2.0000     -10.099304      -274.8160
  12   2.0000     -10.098085      -274.7829
  13   2.0000     -10.094681      -274.6902
  14   2.0000     -10.087630      -274.4984
  15   2.0000     -10.035800      -273.0880
  16   2.0000     -10.029938      -272.9285
  17   2.0000     -10.028771      -272.8967
  18   2.0000     -10.021581      -272.7011
  19   2.0000      -7.869401      -214.1373
  20   2.0000      -7.865139      -214.0213
  21   2.0000      -7.813980      -212.6292
  22   2.0000      -7.808430      -212.4782
  23   2.0000      -6.589822      -179.3182
  24   2.0000      -6.588480      -179.2817
  25   2.0000      -5.816251      -158.2682
  26   2.0000      -5.813298      -158.1879
  27   2.0000      -5.812399      -158.1634
  28   2.0000      -5.808889      -158.0679
  29   2.0000      -5.806404      -158.0003
  30   2.0000      -5.801980      -157.8799
  31   2.0000      -5.761539      -156.7794
  32   2.0000      -5.756122      -156.6320
  33   2.0000      -5.754359      -156.5841
  34   2.0000      -5.753972      -156.5735
  35   2.0000      -5.748636      -156.4283
  36   2.0000      -5.748460      -156.4236
  37   2.0000      -4.735145      -128.8498
  38   2.0000      -4.734681      -128.8372
  39   2.0000      -4.734109      -128.8217
  40   2.0000      -4.733794      -128.8131
  41   2.0000      -4.733399      -128.8023
  42   2.0000      -4.732089      -128.7667
  43   2.0000      -1.045689       -28.4547
  44   2.0000      -1.044680       -28.4272
  45   2.0000      -1.009456       -27.4687
  46   2.0000      -1.005714       -27.3669
  47   2.0000      -0.801105       -21.7992
  48   2.0000      -0.759042       -20.6546
  49   2.0000      -0.746386       -20.3102
  50   2.0000      -0.733604       -19.9624
  51   2.0000      -0.726993       -19.7825
  52   2.0000      -0.705965       -19.2103
  53   2.0000      -0.683900       -18.6099
  54   2.0000      -0.668396       -18.1880
  55   2.0000      -0.632564       -17.2130
  56   2.0000      -0.623947       -16.9785
  57   2.0000      -0.607654       -16.5351
  58   2.0000      -0.601145       -16.3580
  59   2.0000      -0.589949       -16.0533
  60   2.0000      -0.522463       -14.2170
  61   2.0000      -0.513831       -13.9821
  62   2.0000      -0.496300       -13.5050
  63   2.0000      -0.488052       -13.2806
  64   2.0000      -0.474587       -12.9142
  65   2.0000      -0.457818       -12.4579
  66   2.0000      -0.456598       -12.4247
  67   2.0000      -0.453583       -12.3426
  68   2.0000      -0.444058       -12.0834
  69   2.0000      -0.428203       -11.6520
  70   2.0000      -0.416147       -11.3239
  71   2.0000      -0.414145       -11.2695
  72   2.0000      -0.408381       -11.1126
  73   2.0000      -0.405245       -11.0273
  74   2.0000      -0.398959       -10.8562
  75   2.0000      -0.390738       -10.6325
  76   2.0000      -0.386048       -10.5049
  77   2.0000      -0.376505       -10.2452
  78   2.0000      -0.370746       -10.0885
  79   2.0000      -0.367509       -10.0004
  80   2.0000      -0.360393        -9.8068
  81   2.0000      -0.358470        -9.7545
  82   2.0000      -0.354540        -9.6475
  83   2.0000      -0.351704        -9.5704
  84   2.0000      -0.345564        -9.4033
  85   2.0000      -0.334313        -9.0971
  86   2.0000      -0.322276        -8.7696
  87   2.0000      -0.309655        -8.4261
  88   2.0000      -0.307516        -8.3679
  89   2.0000      -0.295425        -8.0389
  90   2.0000      -0.292996        -7.9728
  91   2.0000      -0.289820        -7.8864
  92   2.0000      -0.282642        -7.6911
  93   2.0000      -0.278525        -7.5791
  94   2.0000      -0.275111        -7.4862
  95   2.0000      -0.247220        -6.7272
  96   2.0000      -0.227054        -6.1785
  97   2.0000      -0.221086        -6.0161
  98   2.0000      -0.217416        -5.9162
  99   2.0000      -0.207550        -5.6477
 100   2.0000      -0.205087        -5.5807
 101   0.0000      -0.049843        -1.3563
 102   0.0000      -0.024217        -0.6590
 103   0.0000      -0.001989        -0.0541
 104   0.0000       0.007073         0.1925
 105   0.0000       0.018555         0.5049

MULLIKEN ATOMIC CHARGES
-----------------------
   0 C :   -0.455915
   1 C :   -0.149789
   2 O :   -0.301399
   3 P :    0.700572
   4 S :   -0.485592
   5 O :   -0.254445
   6 C :   -0.161524
   7 C :   -0.448286
   8 S :   -0.135148
   9 C :   -0.232114
  10 S :   -0.121600
  11 P :    0.720538
  12 S :   -0.471869
  13 O :   -0.307581
  14 C :   -0.117899
  15 C :   -0.486427
  16 O :   -0.302813
  17 C :   -0.150757
  18 C :   -0.451508
  19 H :    0.156415
  20 H :    0.176603
  21 H :    0.147981
  22 H :    0.172665
  23 H :    0.149223
  24 H :    0.171113
  25 H :    0.162561
  26 H :    0.145688
  27 H :    0.158746
  28 H :    0.165483
  29 H :    0.191428
  30 H :    0.213309
  31 H :    0.184722
  32 H :    0.147774
  33 H :    0.150445
  34 H :    0.159705
  35 H :    0.163801
  36 H :    0.174331
  37 H :    0.149139
  38 H :    0.159329
  39 H :    0.164781
  40 H :    0.148316
Sum of atomic charges:   -0.0000000

LOEWDIN ATOMIC CHARGES
----------------------
   0 C :   -0.407554
   1 C :    0.019986
   2 O :   -0.657180
   3 P :    0.376902
   4 S :   -0.131847
   5 O :   -0.681323
   6 C :    0.018529
   7 C :   -0.400358
   8 S :    0.159960
   9 C :   -0.411468
  10 S :    0.203376
  11 P :    0.388317
  12 S :   -0.105981
  13 O :   -0.676781
  14 C :    0.014032
  15 C :   -0.398267
  16 O :   -0.681707
  17 C :    0.017969
  18 C :   -0.400300
  19 H :    0.160353
  20 H :    0.165101
  21 H :    0.159250
  22 H :    0.179712
  23 H :    0.179898
  24 H :    0.179803
  25 H :    0.185078
  26 H :    0.158625
  27 H :    0.161538
  28 H :    0.163214
  29 H :    0.183312
  30 H :    0.191545
  31 H :    0.186285
  32 H :    0.174517
  33 H :    0.162351
  34 H :    0.158598
  35 H :    0.162335
  36 H :    0.179970
  37 H :    0.179393
  38 H :    0.160578
  39 H :    0.162393
  40 H :    0.159847

  Mayer bond orders larger than 0.100000
B(  0-C ,  1-C ) :   0.9208 B(  0-C , 19-H ) :   0.9687 B(  0-C , 20-H ) :   0.9634
B(  0-C , 21-H ) :   0.9584 B(  1-C ,  2-O ) :   0.8125 B(  1-C , 22-H ) :   0.9677
B(  1-C , 23-H ) :   0.9577 B(  2-O ,  3-P ) :   1.0665 B(  3-P ,  4-S ) :   1.7385
B(  3-P ,  5-O ) :   1.1653 B(  3-P ,  8-S ) :   1.0673 B(  5-O ,  6-C ) :   0.7930
B(  6-C ,  7-C ) :   0.9163 B(  6-C , 24-H ) :   0.9670 B(  6-C , 25-H ) :   0.9590
B(  7-C , 26-H ) :   0.9621 B(  7-C , 27-H ) :   0.9723 B(  7-C , 28-H ) :   0.9617
B(  8-S ,  9-C ) :   0.9121 B(  9-C , 10-S ) :   0.9021 B(  9-C , 29-H ) :   0.9098
B(  9-C , 30-H ) :   0.9120 B( 10-S , 11-P ) :   1.0861 B( 11-P , 12-S ) :   1.7526
B( 11-P , 13-O ) :   1.0888 B( 11-P , 16-O ) :   1.1527 B( 13-O , 14-C ) :   0.7529
B( 14-C , 15-C ) :   0.9359 B( 14-C , 31-H ) :   0.9513 B( 14-C , 32-H ) :   0.9567
B( 15-C , 33-H ) :   0.9600 B( 15-C , 34-H ) :   0.9755 B( 15-C , 35-H ) :   0.9628
B( 16-O , 17-C ) :   0.8094 B( 17-C , 18-C ) :   0.9130 B( 17-C , 36-H ) :   0.9656
B( 17-C , 37-H ) :   0.9599 B( 18-C , 38-H ) :   0.9715 B( 18-C , 39-H ) :   0.9617
B( 18-C , 40-H ) :   0.9622

Dispersion correction           -0.022017769
FINAL SINGLE POINT ENERGY     -2932.457085400727

DIPOLE MOMENT
-------------

Method             : SCF
Type of density    : Electron Density
Multiplicity       :   1
Irrep              :   0
Energy             : -2932.4818328998271681 Eh
Relativity type    :
Basis              : AO
                                X                 Y                 Z
Electronic contribution:      2.379083672      -0.636737349       9.654396051
Nuclear contribution   :     -2.882870307       1.002169525     -10.420109963
                        -----------------------------------------
Total Dipole Moment    :     -0.503786635       0.365432177      -0.765713912
                        -----------------------------------------
Magnitude (a.u.)       :      0.986741833
Magnitude (Debye)      :      2.508098417

Rotational constants in cm-1:             0.012890             0.005282             0.004637
Rotational constants in MHz :           386.425554           158.349812           139.009333

                             ****ORCA TERMINATED NORMALLY****
TOTAL RUN TIME: 0 days 0 hours 1 minutes 20 seconds 550 msec
