                         Program Version 6.0.0  -   RELEASE  -
|  1> ! r2scan-3c def2/J RI DEFGRID2 scfconv6 printgap
|  2> %output
|  3>     printlevel normal
|  4> end
|  5> %cpcm
|  6>     smd true
|  7>     smdsolvent "water"
|  8> end
|  9> * xyz 0 1
| 10> C 4.1417115314 1.9334116133 -1.5508439535
| 11> C 4.4547642348 0.5247709323 -1.0892687111
| 12> O 3.2671839433 -0.2770006927 -0.9519827859
| 13> P 2.1830847528 -0.00509453 0.1754559361
| 14> S 2.9083396897 0.5156052097 1.9240856138
| 15> O 1.3309021187 -1.3397804039 0.1354540522
| 16> C 1.5968222476 -2.459877282 0.9991711288
| 17> C 2.9299981953 -3.107000308 0.6904378335
| 18> S 0.8092911497 1.3082286661 -0.7280493507
| 19> C -0.0376793903 1.8128680581 0.7959080832
| 20> S -0.87682602 0.4412724802 1.6471674642
| 21> P -2.1431277984 -0.2134449408 0.0927552678
| 22> S -1.5648907168 -1.4509203914 -1.3170922897
| 23> O -2.7721590137 1.151156378 -0.4313574455
| 24> C -2.9196829945 1.5322761717 -1.8148456075
| 25> C -2.1761830757 2.8240427474 -2.0888583684
| 26> O -3.2144737795 -0.8324123424 1.0922924722
| 27> C -4.1831220342 -1.8096126433 0.6689234488
| 28> C -5.2162116705 -1.2074896623 -0.2621152093
| 29> H 3.5300557219 1.9088757649 -2.4493127184
| 30> H 3.6002906861 2.4690447396 -0.7721086357
| 31> H 5.069350969 2.4569070441 -1.7588347121
| 32> H 4.9718115607 0.5420922793 -0.124408889
| 33> H 5.0522409867 -0.0180881284 -1.8228029975
| 34> H 1.5609174015 -2.1101617716 2.0367317416
| 35> H 0.7616656267 -3.1367711697 0.8090621431
| 36> H 3.0441055671 -4.001568315 1.2945918287
| 37> H 2.9822239144 -3.3693637938 -0.3632073928
| 38> H 3.7387874502 -2.4150407231 0.9237018211
| 39> H -0.762164822 2.575647379 0.522285418
| 40> H 0.6938534482 2.1963671699 1.5074470145
| 41> H -2.5472840181 0.7185603518 -2.4467259868
| 42> H -3.9930356916 1.6570361339 -1.9737211761
| 43> H -2.3897979511 3.1402819634 -3.1047039111
| 44> H -2.5035738233 3.5974560605 -1.3995597724
| 45> H -1.1025990261 2.6775528252 -1.9843675906
| 46> H -3.6553026707 -2.6331449344 0.1765493343
| 47> H -4.6298636805 -2.158315122 1.6009630509
| 48> H -5.6604753442 -0.32571452 0.1924047249
| 49> H -4.7433976261 -0.9257383833 -1.2024981763
| 50> H -5.991325678 -1.9402213955 -0.4633241107
| 51> *
| 52>
| 53>                          ****END OF INPUT****

CARTESIAN COORDINATES (ANGSTROEM)
---------------------------------
  C      4.141712    1.933412   -1.550844
  C      4.454764    0.524771   -1.089269
  O      3.267184   -0.277001   -0.951983
  P      2.183085   -0.005095    0.175456
  S      2.908340    0.515605    1.924086
  O      1.330902   -1.339780    0.135454
  C      1.596822   -2.459877    0.999171
  C      2.929998   -3.107000    0.690438
  S      0.809291    1.308229   -0.728049
  C     -0.037679    1.812868    0.795908
  S     -0.876826    0.441272    1.647167
  P     -2.143128   -0.213445    0.092755
  S     -1.564891   -1.450920   -1.317092
  O     -2.772159    1.151156   -0.431357
  C     -2.919683    1.532276   -1.814846
  C     -2.176183    2.824043   -2.088858
  O     -3.214474   -0.832412    1.092292
  C     -4.183122   -1.809613    0.668923
  C     -5.216212   -1.207490   -0.262115
  H      3.530056    1.908876   -2.449313
  H      3.600291    2.469045   -0.772109
  H      5.069351    2.456907   -1.758835
  H      4.971812    0.542092   -0.124409
  H      5.052241   -0.018088   -1.822803
  H      1.560917   -2.110162    2.036732
  H      0.761666   -3.136771    0.809062
  H      3.044106   -4.001568    1.294592
  H      2.982224   -3.369364   -0.363207
  H      3.738787   -2.415041    0.923702
  H     -0.762165    2.575647    0.522285
  H      0.693853    2.196367    1.507447
  H     -2.547284    0.718560   -2.446726
  H     -3.993036    1.657036   -1.973721
  H     -2.389798    3.140282   -3.104704
  H     -2.503574    3.597456   -1.399560
  H     -1.102599    2.677553   -1.984368
  H     -3.655303   -2.633145    0.176549
  H     -4.629864   -2.158315    1.600963
  H     -5.660475   -0.325715    0.192405
  H     -4.743398   -0.925738   -1.202498
  H     -5.991326   -1.940221   -0.463324

 Total Charge           Charge          ....    0
 Multiplicity           Mult            ....    1
 Number of Electrons    NEL             ....  202
 Basis Dimension        Dim             ....  539

ORBITAL ENERGIES
----------------

  NO   OCC          E(Eh)            E(eV)
   0   2.0000     -88.578168     -2410.3345
   1   2.0000     -88.576893     -2410.2998
   2   2.0000     -88.527149     -2408.9462
   3   2.0000     -88.521853     -2408.8021
   4   2.0000     -76.917295     -2093.0260
   5   2.0000     -76.916444     -2093.0029
   6   2.0000     -18.995699      -516.8993
   7   2.0000     -18.993770      -516.8467
   8   2.0000     -18.991006      -516.7715
   9   2.0000     -18.986408      -516.6464
  10   2.0000     -10.105678      -274.9895
  11   2.0000     -10.089785      -274.5570
  12   2.0000     -10.088313      -274.5170
  13   2.0000     -10.087236      -274.4876
  14   2.0000     -10.086969      -274.4804
  15   2.0000     -10.020099      -272.6608
  16   2.0000     -10.018685      -272.6223
  17   2.0000     -10.018343      -272.6130
  18   2.0000     -10.017730      -272.5963
  19   2.0000      -7.872856      -214.2313
  20   2.0000      -7.871194      -214.1861
  21   2.0000      -7.822214      -212.8533
  22   2.0000      -7.816925      -212.7093
  23   2.0000      -6.595974      -179.4856
  24   2.0000      -6.594670      -179.4501
  25   2.0000      -5.819714      -158.3625
  26   2.0000      -5.818372      -158.3260
  27   2.0000      -5.816749      -158.2818
  28   2.0000      -5.814876      -158.2308
  29   2.0000      -5.809874      -158.0947
  30   2.0000      -5.808189      -158.0489
  31   2.0000      -5.769716      -157.0019
  32   2.0000      -5.764567      -156.8618
  33   2.0000      -5.762559      -156.8072
  34   2.0000      -5.762245      -156.7987
  35   2.0000      -5.757090      -156.6584
  36   2.0000      -5.756994      -156.6558
  37   2.0000      -4.741284      -129.0169
  38   2.0000      -4.740838      -129.0047
  39   2.0000      -4.740206      -128.9876
  40   2.0000      -4.739964      -128.9810
  41   2.0000      -4.739606      -128.9712
  42   2.0000      -4.738388      -128.9381
  43   2.0000      -1.050563       -28.5873
  44   2.0000      -1.047430       -28.5020
  45   2.0000      -1.011522       -27.5249
  46   2.0000      -1.010694       -27.5024
  47   2.0000      -0.803100       -21.8535
  48   2.0000      -0.756307       -20.5802
  49   2.0000      -0.742093       -20.1934
  50   2.0000      -0.723927       -19.6991
  51   2.0000      -0.722571       -19.6622
  52   2.0000      -0.706216       -19.2171
  53   2.0000      -0.687526       -18.7085
  54   2.0000      -0.675143       -18.3716
  55   2.0000      -0.632702       -17.2167
  56   2.0000      -0.620872       -16.8948
  57   2.0000      -0.599488       -16.3129
  58   2.0000      -0.598424       -16.2839
  59   2.0000      -0.588865       -16.0238
  60   2.0000      -0.518553       -14.1105
  61   2.0000      -0.512471       -13.9451
  62   2.0000      -0.493753       -13.4357
  63   2.0000      -0.487997       -13.2791
  64   2.0000      -0.474611       -12.9148
  65   2.0000      -0.455157       -12.3854
  66   2.0000      -0.453472       -12.3396
  67   2.0000      -0.449762       -12.2387
  68   2.0000      -0.441343       -12.0096
  69   2.0000      -0.425296       -11.5729
  70   2.0000      -0.416730       -11.3398
  71   2.0000      -0.410867       -11.1803
  72   2.0000      -0.406232       -11.0541
  73   2.0000      -0.403576       -10.9819
  74   2.0000      -0.398329       -10.8391
  75   2.0000      -0.389006       -10.5854
  76   2.0000      -0.383552       -10.4370
  77   2.0000      -0.368166       -10.0183
  78   2.0000      -0.365667        -9.9503
  79   2.0000      -0.361520        -9.8375
  80   2.0000      -0.353969        -9.6320
  81   2.0000      -0.352189        -9.5836
  82   2.0000      -0.347880        -9.4663
  83   2.0000      -0.345340        -9.3972
  84   2.0000      -0.342865        -9.3298
  85   2.0000      -0.331458        -9.0194
  86   2.0000      -0.321069        -8.7367
  87   2.0000      -0.305240        -8.3060
  88   2.0000      -0.302900        -8.2423
  89   2.0000      -0.298318        -8.1177
  90   2.0000      -0.296387        -8.0651
  91   2.0000      -0.288903        -7.8614
  92   2.0000      -0.285772        -7.7763
  93   2.0000      -0.279718        -7.6115
  94   2.0000      -0.275270        -7.4905
  95   2.0000      -0.252526        -6.8716
  96   2.0000      -0.233657        -6.3581
  97   2.0000      -0.229497        -6.2449
  98   2.0000      -0.226477        -6.1628
  99   2.0000      -0.215561        -5.8657
 100   2.0000      -0.212967        -5.7951
 101   0.0000      -0.055164        -1.5011
 102   0.0000      -0.030103        -0.8192
 103   0.0000      -0.006830        -0.1859
 104   0.0000       0.002975         0.0809
 105   0.0000       0.015261         0.4153

MULLIKEN ATOMIC CHARGES
-----------------------
   0 C :   -0.489403
   1 C :   -0.151167
   2 O :   -0.328213
   3 P :    0.729440
   4 S :   -0.534552
   5 O :   -0.277599
   6 C :   -0.163950
   7 C :   -0.484908
   8 S :   -0.136098
   9 C :   -0.243553
  10 S :   -0.157925
  11 P :    0.749788
  12 S :   -0.521134
  13 O :   -0.322545
  14 C :   -0.123373
  15 C :   -0.491204
  16 O :   -0.334354
  17 C :   -0.151021
  18 C :   -0.481639
  19 H :    0.169725
  20 H :    0.173388
  21 H :    0.173014
  22 H :    0.178458
  23 H :    0.175599
  24 H :    0.175742
  25 H :    0.177559
  26 H :    0.171462
  27 H :    0.169417
  28 H :    0.168515
  29 H :    0.231226
  30 H :    0.233396
  31 H :    0.179697
  32 H :    0.174476
  33 H :    0.172430
  34 H :    0.172176
  35 H :    0.156090
  36 H :    0.176277
  37 H :    0.173750
  38 H :    0.169701
  39 H :    0.169107
  40 H :    0.172204
Sum of atomic charges:   -0.0000000

LOEWDIN ATOMIC CHARGES
----------------------
   0 C :   -0.409898
   1 C :    0.025512
   2 O :   -0.671916
   3 P :    0.380097
   4 S :   -0.161412
   5 O :   -0.697903
   6 C :    0.019767
   7 C :   -0.403448
   8 S :    0.162503
   9 C :   -0.401224
  10 S :    0.182352
  11 P :    0.391287
  12 S :   -0.137631
  13 O :   -0.682279
  14 C :    0.020994
  15 C :   -0.396781
  16 O :   -0.699333
  17 C :    0.021830
  18 C :   -0.402173
  19 H :    0.163786
  20 H :    0.161658
  21 H :    0.168528
  22 H :    0.181667
  23 H :    0.191020
  24 H :    0.181137
  25 H :    0.190333
  26 H :    0.168062
  27 H :    0.163917
  28 H :    0.162411
  29 H :    0.197911
  30 H :    0.197862
  31 H :    0.184940
  32 H :    0.186012
  33 H :    0.170234
  34 H :    0.164485
  35 H :    0.159942
  36 H :    0.180781
  37 H :    0.189419
  38 H :    0.164147
  39 H :    0.162796
  40 H :    0.168608

  Mayer bond orders larger than 0.100000
B(  0-C ,  1-C ) :   0.9084 B(  0-C , 19-H ) :   0.9656 B(  0-C , 20-H ) :   0.9638
B(  0-C , 21-H ) :   0.9531 B(  1-C ,  2-O ) :   0.8002 B(  1-C , 22-H ) :   0.9657
B(  1-C , 23-H ) :   0.9481 B(  2-O ,  3-P ) :   1.0729 B(  3-P ,  4-S ) :   1.6933
B(  3-P ,  5-O ) :   1.1684 B(  3-P ,  8-S ) :   1.0879 B(  5-O ,  6-C ) :   0.7834
B(  6-C ,  7-C ) :   0.9084 B(  6-C , 24-H ) :   0.9621 B(  6-C , 25-H ) :   0.9529
B(  7-C , 26-H ) :   0.9562 B(  7-C , 27-H ) :   0.9709 B(  7-C , 28-H ) :   0.9604
B(  8-S ,  9-C ) :   0.9110 B(  9-C , 10-S ) :   0.8894 B(  9-C , 29-H ) :   0.8998
B(  9-C , 30-H ) :   0.9066 B( 10-S , 11-P ) :   1.0986 B( 11-P , 12-S ) :   1.7151
B( 11-P , 13-O ) :   1.1048 B( 11-P , 16-O ) :   1.1565 B( 13-O , 14-C ) :   0.7430
B( 14-C , 15-C ) :   0.9424 B( 14-C , 31-H ) :   0.9523 B( 14-C , 32-H ) :   0.9472
B( 15-C , 33-H ) :   0.9561 B( 15-C , 34-H ) :   0.9694 B( 15-C , 35-H ) :   0.9600
B( 16-O , 17-C ) :   0.7978 B( 17-C , 18-C ) :   0.9067 B( 17-C , 36-H ) :   0.9618
B( 17-C , 37-H ) :   0.9512 B( 18-C , 38-H ) :   0.9690 B( 18-C , 39-H ) :   0.9593
B( 18-C , 40-H ) :   0.9568

Dispersion correction           -0.022017769
FINAL SINGLE POINT ENERGY     -2932.465742372651

DIPOLE MOMENT
-------------

Method             : SCF
Type of density    : Electron Density
Multiplicity       :   1
Irrep              :   0
Energy             : -2932.4904898717504693 Eh
Relativity type    :
Basis              : AO
                                X                 Y                 Z
Electronic contribution:      2.160218159      -0.310850113       9.371946621
Nuclear contribution   :     -2.882870307       1.002169525     -10.420109963
                        -----------------------------------------
Total Dipole Moment    :     -0.722652148       0.691319412      -1.048163342
                        -----------------------------------------
Magnitude (a.u.)       :      1.448721867
Magnitude (Debye)      :      3.682358344

Rotational constants in cm-1:             0.012890             0.005282             0.004637
Rotational constants in MHz :           386.425554           158.349812           139.009333

                             ****ORCA TERMINATED NORMALLY****
TOTAL RUN TIME: 0 days 0 hours 1 minutes 56 seconds 85 msec
