                         Program Version 6.0.0  -   RELEASE  -
|  1> ! pbe def2-sv(p) def2/J RI DEFGRID1 loosescf d4 GCP(DFT/SV(P)) printgap
|  2> %output
|  3>     printlevel normal
|  4> end
|  5> * xyz 0 1
|  6> C 2.127164954 2.8372268986 1.5430910002
|  7> C 2.8383789798 1.5047851102 1.4284684909
|  8> O 1.8436463749 0.4470997823 1.4869470777
|  9> P 1.9351446775 -0.8676150155 0.6238338912
| 10> S 0.4202212061 -2.0324669067 1.0486510337
| 11> O 3.3998986503 -1.3698026381 0.9822635296
| 12> C 4.1727338546 -2.3163989465 0.2210130214
| 13> C 3.4342753765 -3.6157032418 -0.0225075591
| 14> S 2.1384055628 -0.2805425426 -1.4190511048
| 15> C 0.3870063328 -0.0927939445 -1.7866490635
| 16> S -0.3482153388 1.2741207642 -0.8309272017
| 17> P -2.3084112623 0.5030924662 -0.5215087886
| 18> S -2.6064426825 -1.3621982893 -1.0233991197
| 19> O -3.2760661689 1.4314279308 -1.3454605501
| 20> C -3.2680176035 2.8809493521 -1.2643401803
| 21> C -2.7198899722 3.4682003514 -2.5497116518
| 22> O -2.6428973706 0.9837250449 0.9604791772
| 23> C -1.9865922347 0.5346075985 2.1565630867
| 24> C -2.5867860322 -0.7598485894 2.6660583852
| 25> H 1.5625028055 2.879749491 2.4698869291
| 26> H 2.8642582226 3.6335146304 1.5341521269
| 27> H 1.4435000546 2.9699973523 0.7080821772
| 28> H 3.5245390839 1.3385706888 2.260486536
| 29> H 3.3842812226 1.4258446832 0.4841237165
| 30> H 4.4503219404 -1.8458829764 -0.72618215
| 31> H 5.0619462426 -2.4720302761 0.8343832154
| 32> H 4.0902981246 -4.3154019628 -0.5301883336
| 33> H 3.1050706542 -4.0484611793 0.9194501555
| 34> H 2.5562301861 -3.4399226814 -0.6430610682
| 35> H -0.1534402476 -1.0115435211 -1.5377332552
| 36> H 0.318364739 0.129049633 -2.848739961
| 37> H -4.3122062541 3.1584697411 -1.1127895993
| 38> H -2.6769204014 3.1898889867 -0.3996220388
| 39> H -3.2753117578 3.0812777121 -3.3994619373
| 40> H -2.8209500649 4.5483119513 -2.5166895145
| 41> H -1.6698185682 3.2130173489 -2.6680862763
| 42> H -0.9153162159 0.4150269282 1.9653322038
| 43> H -2.1420738866 1.3497792891 2.8660693317
| 44> H -2.1330732735 -1.0143825302 3.6185146032
| 45> H -3.6610076275 -0.6529772768 2.789650122
| 46> H -2.3913947302 -1.5684774667 1.9635566267
| 47> *
| 48>
| 49>                          ****END OF INPUT****

CARTESIAN COORDINATES (ANGSTROEM)
---------------------------------
  C      2.127165    2.837227    1.543091
  C      2.838379    1.504785    1.428468
  O      1.843646    0.447100    1.486947
  P      1.935145   -0.867615    0.623834
  S      0.420221   -2.032467    1.048651
  O      3.399899   -1.369803    0.982264
  C      4.172734   -2.316399    0.221013
  C      3.434275   -3.615703   -0.022508
  S      2.138406   -0.280543   -1.419051
  C      0.387006   -0.092794   -1.786649
  S     -0.348215    1.274121   -0.830927
  P     -2.308411    0.503092   -0.521509
  S     -2.606443   -1.362198   -1.023399
  O     -3.276066    1.431428   -1.345461
  C     -3.268018    2.880949   -1.264340
  C     -2.719890    3.468200   -2.549712
  O     -2.642897    0.983725    0.960479
  C     -1.986592    0.534608    2.156563
  C     -2.586786   -0.759849    2.666058
  H      1.562503    2.879749    2.469887
  H      2.864258    3.633515    1.534152
  H      1.443500    2.969997    0.708082
  H      3.524539    1.338571    2.260487
  H      3.384281    1.425845    0.484124
  H      4.450322   -1.845883   -0.726182
  H      5.061946   -2.472030    0.834383
  H      4.090298   -4.315402   -0.530188
  H      3.105071   -4.048461    0.919450
  H      2.556230   -3.439923   -0.643061
  H     -0.153440   -1.011544   -1.537733
  H      0.318365    0.129050   -2.848740
  H     -4.312206    3.158470   -1.112790
  H     -2.676920    3.189889   -0.399622
  H     -3.275312    3.081278   -3.399462
  H     -2.820950    4.548312   -2.516690
  H     -1.669819    3.213017   -2.668086
  H     -0.915316    0.415027    1.965332
  H     -2.142074    1.349779    2.866069
  H     -2.133073   -1.014383    3.618515
  H     -3.661008   -0.652977    2.789650
  H     -2.391395   -1.568477    1.963557

 Total Charge           Charge          ....    0
 Multiplicity           Mult            ....    1
 Number of Electrons    NEL             ....  202
 Basis Dimension        Dim             ....  334

ORBITAL ENERGIES
----------------

  NO   OCC          E(Eh)            E(eV)
   0   2.0000     -88.051178     -2395.9944
   1   2.0000     -88.041636     -2395.7347
   2   2.0000     -87.983067     -2394.1410
   3   2.0000     -87.978865     -2394.0266
   4   2.0000     -76.428225     -2079.7177
   5   2.0000     -76.420757     -2079.5145
   6   2.0000     -18.796924      -511.4903
   7   2.0000     -18.792761      -511.3770
   8   2.0000     -18.785727      -511.1856
   9   2.0000     -18.784539      -511.1533
  10   2.0000      -9.962016      -271.0802
  11   2.0000      -9.957787      -270.9652
  12   2.0000      -9.954945      -270.8878
  13   2.0000      -9.954331      -270.8711
  14   2.0000      -9.940165      -270.4856
  15   2.0000      -9.889475      -269.1063
  16   2.0000      -9.885048      -268.9858
  17   2.0000      -9.885017      -268.9850
  18   2.0000      -9.866602      -268.4839
  19   2.0000      -7.695945      -209.4173
  20   2.0000      -7.686031      -209.1475
  21   2.0000      -7.627920      -207.5663
  22   2.0000      -7.624106      -207.4625
  23   2.0000      -6.425235      -174.8395
  24   2.0000      -6.418131      -174.6462
  25   2.0000      -5.723686      -155.7494
  26   2.0000      -5.720223      -155.6552
  27   2.0000      -5.713849      -155.4817
  28   2.0000      -5.713372      -155.4687
  29   2.0000      -5.710544      -155.3918
  30   2.0000      -5.703123      -155.1899
  31   2.0000      -5.657024      -153.9355
  32   2.0000      -5.653183      -153.8309
  33   2.0000      -5.648318      -153.6986
  34   2.0000      -5.648108      -153.6928
  35   2.0000      -5.644652      -153.5988
  36   2.0000      -5.644110      -153.5840
  37   2.0000      -4.648053      -126.4800
  38   2.0000      -4.647341      -126.4606
  39   2.0000      -4.645211      -126.4026
  40   2.0000      -4.640777      -126.2820
  41   2.0000      -4.640061      -126.2625
  42   2.0000      -4.638431      -126.2181
  43   2.0000      -0.991244       -26.9731
  44   2.0000      -0.981602       -26.7108
  45   2.0000      -0.947023       -25.7698
  46   2.0000      -0.936672       -25.4881
  47   2.0000      -0.764566       -20.8049
  48   2.0000      -0.721849       -19.6425
  49   2.0000      -0.711935       -19.3727
  50   2.0000      -0.692902       -18.8548
  51   2.0000      -0.682824       -18.5806
  52   2.0000      -0.673813       -18.3354
  53   2.0000      -0.650409       -17.6985
  54   2.0000      -0.633716       -17.2443
  55   2.0000      -0.591249       -16.0887
  56   2.0000      -0.581591       -15.8259
  57   2.0000      -0.574824       -15.6418
  58   2.0000      -0.570206       -15.5161
  59   2.0000      -0.566018       -15.4021
  60   2.0000      -0.510673       -13.8961
  61   2.0000      -0.498746       -13.5716
  62   2.0000      -0.476976       -12.9792
  63   2.0000      -0.469479       -12.7752
  64   2.0000      -0.455535       -12.3957
  65   2.0000      -0.446265       -12.1435
  66   2.0000      -0.439505       -11.9595
  67   2.0000      -0.435359       -11.8467
  68   2.0000      -0.430975       -11.7274
  69   2.0000      -0.417665       -11.3652
  70   2.0000      -0.415283       -11.3004
  71   2.0000      -0.397481       -10.8160
  72   2.0000      -0.390849       -10.6355
  73   2.0000      -0.389339       -10.5944
  74   2.0000      -0.381535       -10.3821
  75   2.0000      -0.362486        -9.8637
  76   2.0000      -0.355992        -9.6870
  77   2.0000      -0.355717        -9.6795
  78   2.0000      -0.353950        -9.6315
  79   2.0000      -0.349780        -9.5180
  80   2.0000      -0.348332        -9.4786
  81   2.0000      -0.342999        -9.3335
  82   2.0000      -0.341494        -9.2925
  83   2.0000      -0.334657        -9.1065
  84   2.0000      -0.322820        -8.7844
  85   2.0000      -0.321366        -8.7448
  86   2.0000      -0.310192        -8.4408
  87   2.0000      -0.299573        -8.1518
  88   2.0000      -0.298700        -8.1280
  89   2.0000      -0.291450        -7.9308
  90   2.0000      -0.282743        -7.6938
  91   2.0000      -0.280331        -7.6282
  92   2.0000      -0.271640        -7.3917
  93   2.0000      -0.263654        -7.1744
  94   2.0000      -0.256089        -6.9685
  95   2.0000      -0.238450        -6.4886
  96   2.0000      -0.220279        -5.9941
  97   2.0000      -0.209570        -5.7027
  98   2.0000      -0.199536        -5.4297
  99   2.0000      -0.194154        -5.2832
 100   2.0000      -0.185752        -5.0546
 101   0.0000      -0.044659        -1.2152
 102   0.0000      -0.033613        -0.9147
 103   0.0000      -0.014149        -0.3850
 104   0.0000       0.008118         0.2209
 105   0.0000       0.016455         0.4478

MULLIKEN ATOMIC CHARGES
-----------------------
   0 C :   -0.288254
   1 C :   -0.008457
   2 O :   -0.348034
   3 P :    0.587974
   4 S :   -0.289831
   5 O :   -0.378794
   6 C :   -0.012242
   7 C :   -0.309952
   8 S :   -0.123005
   9 C :   -0.337273
  10 S :   -0.138698
  11 P :    0.610063
  12 S :   -0.289838
  13 O :   -0.357272
  14 C :   -0.011494
  15 C :   -0.284711
  16 O :   -0.379384
  17 C :   -0.028408
  18 C :   -0.296242
  19 H :    0.118912
  20 H :    0.108876
  21 H :    0.126849
  22 H :    0.109894
  23 H :    0.098308
  24 H :    0.112788
  25 H :    0.109923
  26 H :    0.112273
  27 H :    0.128520
  28 H :    0.129485
  29 H :    0.214956
  30 H :    0.180971
  31 H :    0.111912
  32 H :    0.101403
  33 H :    0.120364
  34 H :    0.107149
  35 H :    0.115559
  36 H :    0.128781
  37 H :    0.093872
  38 H :    0.105127
  39 H :    0.107153
  40 H :    0.140777
Sum of atomic charges:    0.0000000

LOEWDIN ATOMIC CHARGES
----------------------
   0 C :   -0.354828
   1 C :   -0.114666
   2 O :   -0.234970
   3 P :    0.562361
   4 S :   -0.282172
   5 O :   -0.247552
   6 C :   -0.114809
   7 C :   -0.368640
   8 S :    0.065615
   9 C :   -0.478450
  10 S :    0.061515
  11 P :    0.562527
  12 S :   -0.282977
  13 O :   -0.239838
  14 C :   -0.112927
  15 C :   -0.359963
  16 O :   -0.244677
  17 C :   -0.122342
  18 C :   -0.363690
  19 H :    0.128284
  20 H :    0.129101
  21 H :    0.121201
  22 H :    0.117540
  23 H :    0.102154
  24 H :    0.107742
  25 H :    0.121727
  26 H :    0.130592
  27 H :    0.131471
  28 H :    0.122957
  29 H :    0.124748
  30 H :    0.134540
  31 H :    0.122197
  32 H :    0.105984
  33 H :    0.129333
  34 H :    0.128246
  35 H :    0.118941
  36 H :    0.106104
  37 H :    0.112839
  38 H :    0.128672
  39 H :    0.122330
  40 H :    0.123778

  Mayer bond orders larger than 0.100000
B(  0-C ,  1-C ) :   1.1648 B(  0-C , 19-H ) :   0.9490 B(  0-C , 20-H ) :   0.9405
B(  0-C , 21-H ) :   0.9408 B(  1-C ,  2-O ) :   0.8881 B(  1-C , 22-H ) :   0.9337
B(  1-C , 23-H ) :   0.9115 B(  2-O ,  3-P ) :   1.1233 B(  3-P ,  4-S ) :   1.6615
B(  3-P ,  5-O ) :   1.0869 B(  3-P ,  8-S ) :   0.9265 B(  4-S ,  8-S ) :   0.1087
B(  5-O ,  6-C ) :   0.9136 B(  6-C ,  7-C ) :   1.1664 B(  6-C , 24-H ) :   0.9268
B(  6-C , 25-H ) :   0.9333 B(  7-C , 26-H ) :   0.9349 B(  7-C , 27-H ) :   0.9430
B(  7-C , 28-H ) :   0.9324 B(  8-S ,  9-C ) :   1.0072 B(  9-C , 10-S ) :   0.9928
B(  9-C , 29-H ) :   0.8397 B(  9-C , 30-H ) :   0.9094 B( 10-S , 11-P ) :   0.9299
B( 10-S , 12-S ) :   0.1173 B( 11-P , 12-S ) :   1.6676 B( 11-P , 13-O ) :   1.1341
B( 11-P , 16-O ) :   1.0991 B( 13-O , 14-C ) :   0.8935 B( 14-C , 15-C ) :   1.1625
B( 14-C , 31-H ) :   0.9350 B( 14-C , 32-H ) :   0.9184 B( 15-C , 33-H ) :   0.9464
B( 15-C , 34-H ) :   0.9405 B( 15-C , 35-H ) :   0.9394 B( 16-O , 17-C ) :   0.9019
B( 17-C , 18-C ) :   1.1723 B( 17-C , 36-H ) :   0.9021 B( 17-C , 37-H ) :   0.9353
B( 18-C , 38-H ) :   0.9391 B( 18-C , 39-H ) :   0.9462 B( 18-C , 40-H ) :   0.9305

Dispersion correction           -0.065872111
FINAL SINGLE POINT ENERGY     -2929.518404626748

DIPOLE MOMENT
-------------

Method             : SCF
Type of density    : Electron Density
Multiplicity       :   1
Irrep              :   0
Energy             : -2929.6370540859702487 Eh
Relativity type    :
Basis              : AO
                                X                 Y                 Z
Electronic contribution:     -4.532529507      -9.182551759      -5.560995733
Nuclear contribution   :      6.160836203      10.702881252       5.662079017
                        -----------------------------------------
Total Dipole Moment    :      1.628306696       1.520329493       0.101083284
                        -----------------------------------------
Magnitude (a.u.)       :      2.230022936
Magnitude (Debye)      :      5.668267838

Rotational constants in cm-1:             0.011720             0.005268             0.004926
Rotational constants in MHz :           351.342444           157.920624           147.678608

                             ****ORCA TERMINATED NORMALLY****
TOTAL RUN TIME: 0 days 0 hours 0 minutes 21 seconds 237 msec
