                         Program Version 6.0.1  -  RELEASE   -
|  1> ! pbe def2-sv(p) def2/J RI DEFGRID1 loosescf d4 GCP(DFT/SV(P)) printgap
|  2> %output
|  3>     printlevel normal
|  4> end
|  5> * xyz 0 1
|  6> C 2.1571460436 -4.0238049044 -0.024766666
|  7> C 2.2720309376 -2.5651752385 0.3716112677
|  8> O 1.8101289248 -1.7639627061 -0.7321592358
|  9> C 2.1042621115 -0.4804917561 -0.741076043
| 10> O 2.7028127734 0.096686754 0.1407176908
| 11> C 1.6235098699 0.1947991847 -2.0147217344
| 12> C 0.3010903159 0.9351239565 -1.7946473905
| 13> H 0.0647008106 1.5142425399 -2.6924370771
| 14> C 0.357323918 1.883113433 -0.6140605392
| 15> O -0.4696846954 1.8545475396 0.2808801498
| 16> O 1.3425129092 2.7264793535 -0.7017172979
| 17> C 1.5422098908 3.6723212684 0.3724193947
| 18> C 2.2266461626 3.0185795063 1.5602428432
| 19> S -1.1096514539 -0.1990391982 -1.5813333938
| 20> P -1.5639906149 -0.2865294958 0.5031089335
| 21> S -0.2345410231 -0.4979404345 1.9325607975
| 22> O -2.7388995323 0.7239581705 0.8306189808
| 23> C -3.9745168435 0.739551067 0.091353318
| 24> O -2.4523974192 -1.6338105507 0.3932617334
| 25> C -1.853380696 -2.9218767208 0.2538127891
| 26> H 2.7671146421 -4.221455703 -0.9012217789
| 27> H 2.4990744661 -4.6422622253 0.7981249795
| 28> H 1.123730126 -4.2692060328 -0.250661476
| 29> H 3.3051752622 -2.2779283027 0.5909088197
| 30> H 1.6611571104 -2.3257104365 1.2483447697
| 31> H 1.4824835758 -0.5596609358 -2.7873009485
| 32> H 2.3785258726 0.9232383449 -2.3133209439
| 33> H 2.1684288743 4.4433985951 -0.0755030604
| 34> H 0.5696090536 4.0802188798 0.6616634734
| 35> H 2.4531841636 3.7724192148 2.3065030198
| 36> H 1.5803964976 2.2634585464 2.0052068236
| 37> H 3.1431538685 2.5281868566 1.2435992102
| 38> H -3.7741935202 0.777086414 -0.9796739608
| 39> H -4.4868464471 1.6402991514 0.4197832325
| 40> H -4.5566918726 -0.1488265661 0.3295074053
| 41> H -1.4156693625 -3.0243370338 -0.7396206189
| 42> H -2.6596883564 -3.6373393764 0.3938087365
| 43> H -1.0848234386 -3.0584262176 1.0170190153
| 44> *
| 45>
| 46>                          ****END OF INPUT****

CARTESIAN COORDINATES (ANGSTROEM)
---------------------------------
  C      2.157146   -4.023805   -0.024767
  C      2.272031   -2.565175    0.371611
  O      1.810129   -1.763963   -0.732159
  C      2.104262   -0.480492   -0.741076
  O      2.702813    0.096687    0.140718
  C      1.623510    0.194799   -2.014722
  C      0.301090    0.935124   -1.794647
  H      0.064701    1.514243   -2.692437
  C      0.357324    1.883113   -0.614061
  O     -0.469685    1.854548    0.280880
  O      1.342513    2.726479   -0.701717
  C      1.542210    3.672321    0.372419
  C      2.226646    3.018580    1.560243
  S     -1.109651   -0.199039   -1.581333
  P     -1.563991   -0.286529    0.503109
  S     -0.234541   -0.497940    1.932561
  O     -2.738900    0.723958    0.830619
  C     -3.974517    0.739551    0.091353
  O     -2.452397   -1.633811    0.393262
  C     -1.853381   -2.921877    0.253813
  H      2.767115   -4.221456   -0.901222
  H      2.499074   -4.642262    0.798125
  H      1.123730   -4.269206   -0.250661
  H      3.305175   -2.277928    0.590909
  H      1.661157   -2.325710    1.248345
  H      1.482484   -0.559661   -2.787301
  H      2.378526    0.923238   -2.313321
  H      2.168429    4.443399   -0.075503
  H      0.569609    4.080219    0.661663
  H      2.453184    3.772419    2.306503
  H      1.580396    2.263459    2.005207
  H      3.143154    2.528187    1.243599
  H     -3.774194    0.777086   -0.979674
  H     -4.486846    1.640299    0.419783
  H     -4.556692   -0.148827    0.329507
  H     -1.415669   -3.024337   -0.739621
  H     -2.659688   -3.637339    0.393809
  H     -1.084823   -3.058426    1.017019

 Total Charge           Charge          ....    0
 Multiplicity           Mult            ....    1
 Number of Electrons    NEL             ....  174
 Basis Dimension        Dim             ....  316

ORBITAL ENERGIES
----------------

  NO   OCC          E(Eh)            E(eV)
   0   2.0000     -88.036960     -2395.6075
   1   2.0000     -87.967544     -2393.7186
   2   2.0000     -76.419667     -2079.4849
   3   2.0000     -18.819931      -512.1164
   4   2.0000     -18.800013      -511.5744
   5   2.0000     -18.776844      -510.9439
   6   2.0000     -18.776693      -510.9398
   7   2.0000     -18.759192      -510.4636
   8   2.0000     -18.734346      -509.7875
   9   2.0000     -10.028728      -272.8956
  10   2.0000     -10.007937      -272.3298
  11   2.0000      -9.959001      -270.9982
  12   2.0000      -9.951812      -270.8026
  13   2.0000      -9.938715      -270.4462
  14   2.0000      -9.936556      -270.3874
  15   2.0000      -9.933706      -270.3099
  16   2.0000      -9.915734      -269.8208
  17   2.0000      -9.884808      -268.9793
  18   2.0000      -9.872621      -268.6477
  19   2.0000      -7.681817      -209.0329
  20   2.0000      -7.612517      -207.1471
  21   2.0000      -6.414711      -174.5532
  22   2.0000      -5.709944      -155.3755
  23   2.0000      -5.705935      -155.2664
  24   2.0000      -5.698919      -155.0755
  25   2.0000      -5.641822      -153.5218
  26   2.0000      -5.633244      -153.2884
  27   2.0000      -5.632106      -153.2574
  28   2.0000      -4.637875      -126.2030
  29   2.0000      -4.636829      -126.1745
  30   2.0000      -4.634860      -126.1209
  31   2.0000      -1.030924       -28.0529
  32   2.0000      -1.006241       -27.3812
  33   2.0000      -0.972478       -26.4625
  34   2.0000      -0.937317       -25.5057
  35   2.0000      -0.925508       -25.1844
  36   2.0000      -0.911616       -24.8063
  37   2.0000      -0.769523       -20.9398
  38   2.0000      -0.708276       -19.2732
  39   2.0000      -0.705116       -19.1872
  40   2.0000      -0.685467       -18.6525
  41   2.0000      -0.656450       -17.8629
  42   2.0000      -0.625729       -17.0269
  43   2.0000      -0.620707       -16.8903
  44   2.0000      -0.608244       -16.5512
  45   2.0000      -0.588199       -16.0057
  46   2.0000      -0.563728       -15.3398
  47   2.0000      -0.510752       -13.8983
  48   2.0000      -0.506235       -13.7753
  49   2.0000      -0.496867       -13.5204
  50   2.0000      -0.489122       -13.3097
  51   2.0000      -0.467361       -12.7175
  52   2.0000      -0.459819       -12.5123
  53   2.0000      -0.446083       -12.1385
  54   2.0000      -0.436355       -11.8738
  55   2.0000      -0.425056       -11.5664
  56   2.0000      -0.424044       -11.5388
  57   2.0000      -0.416924       -11.3451
  58   2.0000      -0.410007       -11.1568
  59   2.0000      -0.404919       -11.0184
  60   2.0000      -0.403398       -10.9770
  61   2.0000      -0.400146       -10.8885
  62   2.0000      -0.388118       -10.5612
  63   2.0000      -0.381268       -10.3748
  64   2.0000      -0.372145       -10.1266
  65   2.0000      -0.361699        -9.8423
  66   2.0000      -0.355916        -9.6850
  67   2.0000      -0.353545        -9.6205
  68   2.0000      -0.343821        -9.3558
  69   2.0000      -0.337229        -9.1765
  70   2.0000      -0.332964        -9.0604
  71   2.0000      -0.328839        -8.9482
  72   2.0000      -0.313273        -8.5246
  73   2.0000      -0.308478        -8.3941
  74   2.0000      -0.299289        -8.1441
  75   2.0000      -0.296319        -8.0632
  76   2.0000      -0.288832        -7.8595
  77   2.0000      -0.284916        -7.7529
  78   2.0000      -0.273958        -7.4548
  79   2.0000      -0.261055        -7.1037
  80   2.0000      -0.255846        -6.9619
  81   2.0000      -0.248621        -6.7653
  82   2.0000      -0.241749        -6.5783
  83   2.0000      -0.223942        -6.0938
  84   2.0000      -0.218421        -5.9435
  85   2.0000      -0.186536        -5.0759
  86   2.0000      -0.177937        -4.8419
  87   0.0000      -0.042366        -1.1528
  88   0.0000      -0.035508        -0.9662
  89   0.0000      -0.028055        -0.7634
  90   0.0000       0.000413         0.0112
  91   0.0000       0.029770         0.8101

MULLIKEN ATOMIC CHARGES
-----------------------
   0 C :   -0.280469
   1 C :   -0.041032
   2 O :   -0.223819
   3 C :    0.094479
   4 O :   -0.200436
   5 C :   -0.025176
   6 C :   -0.306393
   7 H :    0.155415
   8 C :    0.226183
   9 O :   -0.188837
  10 O :   -0.212440
  11 C :   -0.015210
  12 C :   -0.313446
  13 S :   -0.110686
  14 P :    0.630184
  15 S :   -0.313539
  16 O :   -0.363944
  17 C :   -0.098072
  18 O :   -0.404898
  19 C :   -0.111459
  20 H :    0.108910
  21 H :    0.111147
  22 H :    0.113103
  23 H :    0.102120
  24 H :    0.130276
  25 H :    0.112734
  26 H :    0.120337
  27 H :    0.102816
  28 H :    0.110935
  29 H :    0.106408
  30 H :    0.148958
  31 H :    0.129523
  32 H :    0.108519
  33 H :    0.125084
  34 H :    0.121644
  35 H :    0.116243
  36 H :    0.117416
  37 H :    0.117422
Sum of atomic charges:   -0.0000000

LOEWDIN ATOMIC CHARGES
----------------------
   0 C :   -0.350736
   1 C :   -0.116442
   2 O :   -0.052380
   3 C :    0.022147
   4 O :   -0.157792
   5 C :   -0.245707
   6 C :   -0.259601
   7 H :    0.150694
   8 C :    0.027331
   9 O :   -0.142538
  10 O :   -0.030834
  11 C :   -0.102668
  12 C :   -0.360587
  13 S :    0.089892
  14 P :    0.585668
  15 S :   -0.303962
  16 O :   -0.240415
  17 C :   -0.209499
  18 O :   -0.272044
  19 C :   -0.223191
  20 H :    0.123558
  21 H :    0.130906
  22 H :    0.123105
  23 H :    0.115601
  24 H :    0.112494
  25 H :    0.135623
  26 H :    0.145182
  27 H :    0.118555
  28 H :    0.120970
  29 H :    0.127728
  30 H :    0.136159
  31 H :    0.131546
  32 H :    0.104569
  33 H :    0.122674
  34 H :    0.115073
  35 H :    0.104553
  36 H :    0.118674
  37 H :    0.105695

  Mayer bond orders larger than 0.100000
B(  0-C ,  1-C ) :   1.1539 B(  0-C , 20-H ) :   0.9505 B(  0-C , 21-H ) :   0.9444
B(  0-C , 22-H ) :   0.9466 B(  1-C ,  2-O ) :   0.8974 B(  1-C , 23-H ) :   0.9244
B(  1-C , 24-H ) :   0.9068 B(  2-O ,  3-C ) :   1.2462 B(  2-O ,  4-O ) :   0.1029
B(  3-C ,  4-O ) :   2.0117 B(  3-C ,  5-C ) :   1.0030 B(  5-C ,  6-C ) :   1.0450
B(  5-C , 25-H ) :   0.9000 B(  5-C , 26-H ) :   0.8783 B(  6-C ,  7-H ) :   0.8717
B(  6-C ,  8-C ) :   0.9105 B(  6-C , 13-S ) :   1.0318 B(  8-C ,  9-O ) :   1.9141
B(  8-C , 10-O ) :   1.2892 B(  9-O , 14-P ) :   0.1564 B( 10-O , 11-C ) :   0.8952
B( 11-C , 12-C ) :   1.1805 B( 11-C , 27-H ) :   0.9369 B( 11-C , 28-H ) :   0.9209
B( 12-C , 29-H ) :   0.9388 B( 12-C , 30-H ) :   0.9321 B( 12-C , 31-H ) :   0.9383
B( 13-S , 14-P ) :   0.9386 B( 13-S , 15-S ) :   0.1114 B( 14-P , 15-S ) :   1.5932
B( 14-P , 16-O ) :   1.1124 B( 14-P , 18-O ) :   1.0109 B( 16-O , 17-C ) :   0.9287
B( 17-C , 32-H ) :   0.9378 B( 17-C , 33-H ) :   0.9590 B( 17-C , 34-H ) :   0.9483
B( 18-O , 19-C ) :   0.9472 B( 19-C , 35-H ) :   0.9423 B( 19-C , 36-H ) :   0.9561
B( 19-C , 37-H ) :   0.9285

Dispersion correction           -0.055195824
FINAL SINGLE POINT ENERGY     -1979.009736118040

DIPOLE MOMENT
-------------

Method             : SCF
Type of density    : Electron Density
Multiplicity       :   1
Irrep              :   0
Energy             : -1979.1382868400728512 Eh
Relativity type    :
Basis              : AO
                                X                 Y                 Z
Electronic contribution:     -8.212251501       5.632523170      -1.233820874
Nuclear contribution   :      8.211719631      -5.531998305      -0.198821484
                        -----------------------------------------
Total Dipole Moment    :     -0.000531870       0.100524865      -1.432642358
                        -----------------------------------------
Magnitude (a.u.)       :      1.436164913
Magnitude (Debye)      :      3.650441104

Rotational constants in cm-1:             0.011115             0.010232             0.007139
Rotational constants in MHz :           333.206624           306.733062           214.009904

                             ****ORCA TERMINATED NORMALLY****
TOTAL RUN TIME: 0 days 0 hours 0 minutes 34 seconds 17 msec
