                         Program Version 6.0.0  -   RELEASE  -
|  1> ! pbe def2-sv(p) def2/J RI DEFGRID1 loosescf d4 GCP(DFT/SV(P)) printgap
|  2> %output
|  3>     printlevel normal
|  4> end
|  5> * xyz 0 1
|  6> C 0.0223628498 -2.4439637186 0.0946766775
|  7> C 1.2091942614 -1.738879682 -0.0004245889
|  8> C 1.1788160749 -0.349231405 -0.0597712605
|  9> C -0.0224634071 0.3409992727 -0.0240903974
| 10> C -1.2029646953 -0.3857566235 0.0697848604
| 11> C -1.1894843609 -1.7725779514 0.1314538814
| 12> C -2.4946138266 0.3779924772 0.1227218589
| 13> F -2.5882614597 1.3052010279 -0.8505566805
| 14> F -3.5825797407 -0.396122686 0.0080252872
| 15> F -2.641268939 1.0555675427 1.2824753712
| 16> C 2.4799878911 0.3934458047 -0.1568912409
| 17> F 3.2191664873 -0.0014572257 -1.2132952195
| 18> F 2.3390788972 1.7213168332 -0.2755740111
| 19> F 3.2641644982 0.1959778684 0.9238276302
| 20> H 0.0396773683 -3.5199644025 0.1408502976
| 21> H 2.1563730949 -2.2541592993 -0.0299061732
| 22> H -0.0447313467 1.4186936347 -0.0720251581
| 23> H -2.1170749193 -2.3178068369 0.2043443794
| 24> *
| 25>
| 26>                          ****END OF INPUT****

CARTESIAN COORDINATES (ANGSTROEM)
---------------------------------
  C      0.022363   -2.443964    0.094677
  C      1.209194   -1.738880   -0.000425
  C      1.178816   -0.349231   -0.059771
  C     -0.022463    0.340999   -0.024090
  C     -1.202965   -0.385757    0.069785
  C     -1.189484   -1.772578    0.131454
  C     -2.494614    0.377992    0.122722
  F     -2.588261    1.305201   -0.850557
  F     -3.582580   -0.396123    0.008025
  F     -2.641269    1.055568    1.282475
  C      2.479988    0.393446   -0.156891
  F      3.219166   -0.001457   -1.213295
  F      2.339079    1.721317   -0.275574
  F      3.264164    0.195978    0.923828
  H      0.039677   -3.519964    0.140850
  H      2.156373   -2.254159   -0.029906
  H     -0.044731    1.418694   -0.072025
  H     -2.117075   -2.317807    0.204344

 Total Charge           Charge          ....    0
 Multiplicity           Mult            ....    1
 Number of Electrons    NEL             ....  106
 Basis Dimension        Dim             ....  204

ORBITAL ENERGIES
----------------

  NO   OCC          E(Eh)            E(eV)
   0   2.0000     -24.297371      -661.1651
   1   2.0000     -24.297054      -661.1565
   2   2.0000     -24.291047      -660.9930
   3   2.0000     -24.290350      -660.9740
   4   2.0000     -24.289265      -660.9445
   5   2.0000     -24.287873      -660.9066
   6   2.0000     -10.133973      -275.7594
   7   2.0000     -10.133749      -275.7533
   8   2.0000      -9.941825      -270.5308
   9   2.0000      -9.941368      -270.5184
  10   2.0000      -9.934726      -270.3376
  11   2.0000      -9.934271      -270.3253
  12   2.0000      -9.934232      -270.3242
  13   2.0000      -9.931206      -270.2419
  14   2.0000      -1.196343       -32.5542
  15   2.0000      -1.196249       -32.5516
  16   2.0000      -1.105411       -30.0798
  17   2.0000      -1.105216       -30.0745
  18   2.0000      -1.098478       -29.8911
  19   2.0000      -1.097985       -29.8777
  20   2.0000      -0.823065       -22.3967
  21   2.0000      -0.740477       -20.1494
  22   2.0000      -0.721314       -19.6280
  23   2.0000      -0.642149       -17.4738
  24   2.0000      -0.636843       -17.3294
  25   2.0000      -0.584692       -15.9103
  26   2.0000      -0.579878       -15.7793
  27   2.0000      -0.547934       -14.9100
  28   2.0000      -0.533536       -14.5182
  29   2.0000      -0.528798       -14.3893
  30   2.0000      -0.528186       -14.3727
  31   2.0000      -0.523446       -14.2437
  32   2.0000      -0.479397       -13.0450
  33   2.0000      -0.473051       -12.8724
  34   2.0000      -0.444861       -12.1053
  35   2.0000      -0.423077       -11.5125
  36   2.0000      -0.404941       -11.0190
  37   2.0000      -0.404257       -11.0004
  38   2.0000      -0.403353       -10.9758
  39   2.0000      -0.400278       -10.8921
  40   2.0000      -0.382008       -10.3950
  41   2.0000      -0.375587       -10.2203
  42   2.0000      -0.370797       -10.0899
  43   2.0000      -0.364749        -9.9253
  44   2.0000      -0.361219        -9.8293
  45   2.0000      -0.359584        -9.7848
  46   2.0000      -0.349841        -9.5196
  47   2.0000      -0.341667        -9.2972
  48   2.0000      -0.341574        -9.2947
  49   2.0000      -0.334310        -9.0970
  50   2.0000      -0.325945        -8.8694
  51   2.0000      -0.269073        -7.3218
  52   2.0000      -0.267205        -7.2710
  53   0.0000      -0.085372        -2.3231
  54   0.0000      -0.076756        -2.0886
  55   0.0000       0.032303         0.8790
  56   0.0000       0.046048         1.2530
  57   0.0000       0.077606         2.1118

MULLIKEN ATOMIC CHARGES
-----------------------
   0 C :   -0.040052
   1 C :   -0.070865
   2 C :   -0.016443
   3 C :   -0.143680
   4 C :   -0.020123
   5 C :   -0.076963
   6 C :    0.444225
   7 F :   -0.140970
   8 F :   -0.128751
   9 F :   -0.142376
  10 C :    0.446131
  11 F :   -0.142216
  12 F :   -0.126795
  13 F :   -0.142502
  14 H :    0.073641
  15 H :    0.076096
  16 H :    0.079223
  17 H :    0.072419
Sum of atomic charges:   -0.0000000

LOEWDIN ATOMIC CHARGES
----------------------
   0 C :   -0.106051
   1 C :   -0.087066
   2 C :   -0.083176
   3 C :   -0.083024
   4 C :   -0.083642
   5 C :   -0.094085
   6 C :    0.128024
   7 F :   -0.046764
   8 F :   -0.037211
   9 F :   -0.052355
  10 C :    0.128432
  11 F :   -0.049089
  12 F :   -0.036146
  13 F :   -0.050853
  14 H :    0.134765
  15 H :    0.138262
  16 H :    0.142288
  17 H :    0.137692

  Mayer bond orders larger than 0.100000
B(  0-C ,  1-C ) :   1.3754 B(  0-C ,  5-C ) :   1.3460 B(  0-C , 14-H ) :   0.9656
B(  1-C ,  2-C ) :   1.3634 B(  1-C , 15-H ) :   0.9657 B(  2-C ,  3-C ) :   1.3724
B(  2-C , 10-C ) :   0.9425 B(  3-C ,  4-C ) :   1.3250 B(  3-C , 16-H ) :   0.9663
B(  4-C ,  5-C ) :   1.4027 B(  4-C ,  6-C ) :   0.9426 B(  5-C , 17-H ) :   0.9640
B(  6-C ,  7-F ) :   1.1663 B(  6-C ,  8-F ) :   1.1789 B(  6-C ,  9-F ) :   1.1793
B( 10-C , 11-F ) :   1.1705 B( 10-C , 12-F ) :   1.1795 B( 10-C , 13-F ) :   1.1751

Dispersion correction           -0.020433600
FINAL SINGLE POINT ENERGY      -904.634964110546

DIPOLE MOMENT
-------------

Method             : SCF
Type of density    : Electron Density
Multiplicity       :   1
Irrep              :   0
Energy             :  -904.7196950413745071 Eh
Relativity type    :
Basis              : AO
                                X                 Y                 Z
Electronic contribution:     -0.044890270       8.876714022      -0.327506372
Nuclear contribution   :      0.022584032      -9.856091118       0.344131734
                        -----------------------------------------
Total Dipole Moment    :     -0.022306238      -0.979377096       0.016625362
                        -----------------------------------------
Magnitude (a.u.)       :      0.979772150
Magnitude (Debye)      :      2.490382892

Rotational constants in cm-1:             0.044301             0.012726             0.011019
Rotational constants in MHz :          1328.099108           381.527184           330.327979

                             ****ORCA TERMINATED NORMALLY****
TOTAL RUN TIME: 0 days 0 hours 0 minutes 14 seconds 295 msec
