                         Program Version 6.0.0  -   RELEASE  -
|  1> ! wb97x-v def2-tzvp def2/J RIJCOSX DEFGRID2 scfconv7 GCP(DFT/TZ) printgap
|  2> %output
|  3>     printlevel normal
|  4> end
|  5> * xyz 0 1
|  6> C -2.426160034936473 -0.7065259151042073 -8.700750410071487e-05
|  7> C -2.426180503033013 0.7064488717189258 4.644818922040076e-05
|  8> C -1.2401068518562308 1.4018097184665645 9.526340978451876e-05
|  9> C -1.9685969384048817e-05 0.7160506542982952 2.8825160406142466e-05
| 10> C 1.2400534594598245 1.4018432107757397 -7.929662657529052e-05
| 11> C 2.426141420710546 0.7065125796559693 -0.00011447811898011872
| 12> C 2.4261593984427487 -0.7064664775106498 2.4021450351173138e-05
| 13> C 1.240088355827124 -1.40182151573882 9.866391663756507e-05
| 14> C 1.9001779419914858e-07 -0.7160589423758843 3.7489295303485495e-05
| 15> C -1.2400666801354097 -1.4018510872116843 -5.563002582426118e-05
| 16> H -3.370583289792425 -1.241793166558753 -0.00019707350615146636
| 17> H -3.370620547781576 1.2416880632782066 9.0763921167913e-05
| 18> H -1.2357315951307692 2.48834720820735 0.00017553856473759313
| 19> H 1.23564807734039 2.4883807534058033 -0.00016275059297573514
| 20> H 3.370572224467176 1.2417684887880056 -0.00024498250177275825
| 21> H 3.3706064324991174 -1.2416926959722474 7.394135416641264e-05
| 22> H 1.2356963867872353 -2.4883576100340465 0.00018771806953986908
| 23> H -1.2356609196490047 -2.488386811777615 -0.00012411521177608557
| 24> *
| 25>
| 26>                          ****END OF INPUT****

CARTESIAN COORDINATES (ANGSTROEM)
---------------------------------
  C     -2.426160   -0.706526   -0.000087
  C     -2.426181    0.706449    0.000046
  C     -1.240107    1.401810    0.000095
  C     -0.000020    0.716051    0.000029
  C      1.240053    1.401843   -0.000079
  C      2.426141    0.706513   -0.000114
  C      2.426159   -0.706466    0.000024
  C      1.240088   -1.401822    0.000099
  C      0.000000   -0.716059    0.000037
  C     -1.240067   -1.401851   -0.000056
  H     -3.370583   -1.241793   -0.000197
  H     -3.370621    1.241688    0.000091
  H     -1.235732    2.488347    0.000176
  H      1.235648    2.488381   -0.000163
  H      3.370572    1.241768   -0.000245
  H      3.370606   -1.241693    0.000074
  H      1.235696   -2.488358    0.000188
  H     -1.235661   -2.488387   -0.000124

 Total Charge           Charge          ....    0
 Multiplicity           Mult            ....    1
 Number of Electrons    NEL             ....   68
 Basis Dimension        Dim             ....  358

ORBITAL ENERGIES
----------------

  NO   OCC          E(Eh)            E(eV)
   0   2.0000     -12.063424      -328.2625
   1   2.0000     -12.061706      -328.2157
   2   2.0000     -12.055577      -328.0489
   3   2.0000     -12.055410      -328.0444
   4   2.0000     -12.055312      -328.0417
   5   2.0000     -12.054749      -328.0264
   6   2.0000     -12.053802      -328.0006
   7   2.0000     -12.053260      -327.9859
   8   2.0000     -12.052431      -327.9633
   9   2.0000     -12.052011      -327.9519
  10   2.0000      -1.402966       -38.1767
  11   2.0000      -1.349627       -36.7252
  12   2.0000      -1.303889       -35.4806
  13   2.0000      -1.271384       -34.5961
  14   2.0000      -1.248651       -33.9775
  15   2.0000      -1.135942       -30.9105
  16   2.0000      -1.124089       -30.5880
  17   2.0000      -1.088392       -29.6166
  18   2.0000      -1.002766       -27.2866
  19   2.0000      -0.978029       -26.6135
  20   2.0000      -0.976700       -26.5774
  21   2.0000      -0.913840       -24.8668
  22   2.0000      -0.909216       -24.7410
  23   2.0000      -0.901807       -24.5394
  24   2.0000      -0.878438       -23.9035
  25   2.0000      -0.862397       -23.4670
  26   2.0000      -0.833495       -22.6805
  27   2.0000      -0.820417       -22.3247
  28   2.0000      -0.797760       -21.7082
  29   2.0000      -0.794133       -21.6095
  30   2.0000      -0.727495       -19.7961
  31   2.0000      -0.681160       -18.5353
  32   2.0000      -0.629420       -17.1274
  33   2.0000      -0.599404       -16.3106
  34   0.0000      -0.283386        -7.7113
  35   0.0000      -0.257332        -7.0024
  36   0.0000      -0.198269        -5.3952
  37   0.0000      -0.129677        -3.5287
  38   0.0000      -0.044499        -1.2109

MULLIKEN ATOMIC CHARGES
-----------------------
   0 C :   -0.110339
   1 C :   -0.110574
   2 C :   -0.201977
   3 C :    0.162753
   4 C :   -0.202276
   5 C :   -0.110441
   6 C :   -0.110433
   7 C :   -0.202147
   8 C :    0.162788
   9 C :   -0.202283
  10 H :    0.117935
  11 H :    0.117949
  12 H :    0.113306
  13 H :    0.113340
  14 H :    0.117938
  15 H :    0.117944
  16 H :    0.113271
  17 H :    0.113247
Sum of atomic charges:   -0.0000000

LOEWDIN ATOMIC CHARGES
----------------------
   0 C :   -0.140483
   1 C :   -0.140483
   2 C :   -0.100868
   3 C :   -0.091438
   4 C :   -0.100868
   5 C :   -0.140484
   6 C :   -0.140483
   7 C :   -0.100868
   8 C :   -0.091440
   9 C :   -0.100868
  10 H :    0.141975
  11 H :    0.141975
  12 H :    0.145096
  13 H :    0.145096
  14 H :    0.141975
  15 H :    0.141975
  16 H :    0.145096
  17 H :    0.145096

  Mayer bond orders larger than 0.100000
B(  0-C ,  1-C ) :   1.2656 B(  0-C ,  9-C ) :   1.5769 B(  0-C , 10-H ) :   0.9752
B(  1-C ,  2-C ) :   1.5770 B(  1-C , 11-H ) :   0.9752 B(  2-C ,  3-C ) :   1.2155
B(  2-C , 12-H ) :   0.9796 B(  3-C ,  4-C ) :   1.2153 B(  3-C ,  8-C ) :   1.2653
B(  4-C ,  5-C ) :   1.5771 B(  4-C , 13-H ) :   0.9796 B(  5-C ,  6-C ) :   1.2655
B(  5-C , 14-H ) :   0.9752 B(  6-C ,  7-C ) :   1.5768 B(  6-C , 15-H ) :   0.9752
B(  7-C ,  8-C ) :   1.2152 B(  7-C , 16-H ) :   0.9798 B(  8-C ,  9-C ) :   1.2152
B(  9-C , 17-H ) :   0.9798

FINAL SINGLE POINT ENERGY      -385.903601939102

DIPOLE MOMENT
-------------

Method             : SCF
Type of density    : Electron Density
Multiplicity       :   1
Irrep              :   0
Energy             :  -385.9123110206021465 Eh
Relativity type    :
Basis              : AO
                                X                 Y                 Z
Electronic contribution:      0.000001769      -0.000000280       0.000141808
Nuclear contribution   :     -0.000000427       0.000001188      -0.000172665
                        -----------------------------------------
Total Dipole Moment    :      0.000001342       0.000000909      -0.000030856
                        -----------------------------------------
Magnitude (a.u.)       :      0.000030899
Magnitude (Debye)      :      0.000078538

Rotational constants in cm-1:             0.104129             0.041253             0.029547
Rotational constants in MHz :          3121.694124          1236.720789           885.795434

                             ****ORCA TERMINATED NORMALLY****
TOTAL RUN TIME: 0 days 0 hours 3 minutes 49 seconds 0 msec
