                         Program Version 6.0.0  -   RELEASE  -
|  1> ! wb97x-v def2-tzvp def2/J RIJCOSX DEFGRID2 scfconv7 GCP(DFT/TZ) printgap
|  2> %output
|  3>     printlevel normal
|  4> end
|  5> %cpcm
|  6>     smd true
|  7>     smdsolvent "water"
|  8> end
|  9> * xyz 0 1
| 10> C -2.426160034936473 -0.7065259151042073 -8.700750410071487e-05
| 11> C -2.426180503033013 0.7064488717189258 4.644818922040076e-05
| 12> C -1.2401068518562308 1.4018097184665645 9.526340978451876e-05
| 13> C -1.9685969384048817e-05 0.7160506542982952 2.8825160406142466e-05
| 14> C 1.2400534594598245 1.4018432107757397 -7.929662657529052e-05
| 15> C 2.426141420710546 0.7065125796559693 -0.00011447811898011872
| 16> C 2.4261593984427487 -0.7064664775106498 2.4021450351173138e-05
| 17> C 1.240088355827124 -1.40182151573882 9.866391663756507e-05
| 18> C 1.9001779419914858e-07 -0.7160589423758843 3.7489295303485495e-05
| 19> C -1.2400666801354097 -1.4018510872116843 -5.563002582426118e-05
| 20> H -3.370583289792425 -1.241793166558753 -0.00019707350615146636
| 21> H -3.370620547781576 1.2416880632782066 9.0763921167913e-05
| 22> H -1.2357315951307692 2.48834720820735 0.00017553856473759313
| 23> H 1.23564807734039 2.4883807534058033 -0.00016275059297573514
| 24> H 3.370572224467176 1.2417684887880056 -0.00024498250177275825
| 25> H 3.3706064324991174 -1.2416926959722474 7.394135416641264e-05
| 26> H 1.2356963867872353 -2.4883576100340465 0.00018771806953986908
| 27> H -1.2356609196490047 -2.488386811777615 -0.00012411521177608557
| 28> *
| 29>
| 30>                          ****END OF INPUT****

CARTESIAN COORDINATES (ANGSTROEM)
---------------------------------
  C     -2.426160   -0.706526   -0.000087
  C     -2.426181    0.706449    0.000046
  C     -1.240107    1.401810    0.000095
  C     -0.000020    0.716051    0.000029
  C      1.240053    1.401843   -0.000079
  C      2.426141    0.706513   -0.000114
  C      2.426159   -0.706466    0.000024
  C      1.240088   -1.401822    0.000099
  C      0.000000   -0.716059    0.000037
  C     -1.240067   -1.401851   -0.000056
  H     -3.370583   -1.241793   -0.000197
  H     -3.370621    1.241688    0.000091
  H     -1.235732    2.488347    0.000176
  H      1.235648    2.488381   -0.000163
  H      3.370572    1.241768   -0.000245
  H      3.370606   -1.241693    0.000074
  H      1.235696   -2.488358    0.000188
  H     -1.235661   -2.488387   -0.000124

 Total Charge           Charge          ....    0
 Multiplicity           Mult            ....    1
 Number of Electrons    NEL             ....   68
 Basis Dimension        Dim             ....  358

ORBITAL ENERGIES
----------------

  NO   OCC          E(Eh)            E(eV)
   0   2.0000     -12.063140      -328.2547
   1   2.0000     -12.061380      -328.2068
   2   2.0000     -12.052471      -327.9644
   3   2.0000     -12.052305      -327.9599
   4   2.0000     -12.052301      -327.9598
   5   2.0000     -12.051782      -327.9457
   6   2.0000     -12.050759      -327.9178
   7   2.0000     -12.050247      -327.9039
   8   2.0000     -12.049305      -327.8783
   9   2.0000     -12.048933      -327.8681
  10   2.0000      -1.402762       -38.1711
  11   2.0000      -1.348415       -36.6922
  12   2.0000      -1.302619       -35.4461
  13   2.0000      -1.270249       -34.5652
  14   2.0000      -1.246832       -33.9280
  15   2.0000      -1.133683       -30.8491
  16   2.0000      -1.122098       -30.5338
  17   2.0000      -1.085923       -29.5495
  18   2.0000      -0.999593       -27.2003
  19   2.0000      -0.975203       -26.5366
  20   2.0000      -0.974383       -26.5143
  21   2.0000      -0.910459       -24.7748
  22   2.0000      -0.906004       -24.6536
  23   2.0000      -0.896646       -24.3990
  24   2.0000      -0.874006       -23.7829
  25   2.0000      -0.857658       -23.3381
  26   2.0000      -0.828941       -22.5566
  27   2.0000      -0.816480       -22.2176
  28   2.0000      -0.799022       -21.7425
  29   2.0000      -0.790036       -21.4980
  30   2.0000      -0.727451       -19.7949
  31   2.0000      -0.681447       -18.5431
  32   2.0000      -0.630074       -17.1452
  33   2.0000      -0.598962       -16.2986
  34   0.0000      -0.282680        -7.6921
  35   0.0000      -0.257773        -7.0144
  36   0.0000      -0.198154        -5.3920
  37   0.0000      -0.128451        -3.4953
  38   0.0000      -0.035600        -0.9687

MULLIKEN ATOMIC CHARGES
-----------------------
   0 C :   -0.149057
   1 C :   -0.149313
   2 C :   -0.243672
   3 C :    0.142687
   4 C :   -0.243970
   5 C :   -0.149162
   6 C :   -0.149160
   7 C :   -0.243843
   8 C :    0.142752
   9 C :   -0.243997
  10 H :    0.161994
  11 H :    0.162010
  12 H :    0.159701
  13 H :    0.159728
  14 H :    0.161996
  15 H :    0.162002
  16 H :    0.159663
  17 H :    0.159641
Sum of atomic charges:   -0.0000000

LOEWDIN ATOMIC CHARGES
----------------------
   0 C :   -0.147934
   1 C :   -0.147935
   2 C :   -0.107654
   3 C :   -0.104472
   4 C :   -0.107655
   5 C :   -0.147936
   6 C :   -0.147935
   7 C :   -0.107654
   8 C :   -0.104473
   9 C :   -0.107655
  10 H :    0.151791
  11 H :    0.151792
  12 H :    0.156034
  13 H :    0.156034
  14 H :    0.151792
  15 H :    0.151792
  16 H :    0.156034
  17 H :    0.156034

  Mayer bond orders larger than 0.100000
B(  0-C ,  1-C ) :   1.2457 B(  0-C ,  9-C ) :   1.5551 B(  0-C , 10-H ) :   0.9781
B(  1-C ,  2-C ) :   1.5551 B(  1-C , 11-H ) :   0.9781 B(  2-C ,  3-C ) :   1.2018
B(  2-C , 12-H ) :   0.9856 B(  3-C ,  4-C ) :   1.2016 B(  3-C ,  8-C ) :   1.2337
B(  4-C ,  5-C ) :   1.5552 B(  4-C , 13-H ) :   0.9855 B(  5-C ,  6-C ) :   1.2456
B(  5-C , 14-H ) :   0.9781 B(  6-C ,  7-C ) :   1.5549 B(  6-C , 15-H ) :   0.9781
B(  7-C ,  8-C ) :   1.2015 B(  7-C , 16-H ) :   0.9857 B(  8-C ,  9-C ) :   1.2014
B(  9-C , 17-H ) :   0.9857

FINAL SINGLE POINT ENERGY      -385.907228591938

DIPOLE MOMENT
-------------

Method             : SCF
Type of density    : Electron Density
Multiplicity       :   1
Irrep              :   0
Energy             :  -385.9159376734381226 Eh
Relativity type    :
Basis              : AO
                                X                 Y                 Z
Electronic contribution:      0.000001453      -0.000000822       0.000129581
Nuclear contribution   :     -0.000000427       0.000001188      -0.000172665
                        -----------------------------------------
Total Dipole Moment    :      0.000001025       0.000000367      -0.000043083
                        -----------------------------------------
Magnitude (a.u.)       :      0.000043097
Magnitude (Debye)      :      0.000109544

Rotational constants in cm-1:             0.104129             0.041253             0.029547
Rotational constants in MHz :          3121.694124          1236.720789           885.795434

                             ****ORCA TERMINATED NORMALLY****
TOTAL RUN TIME: 0 days 0 hours 3 minutes 44 seconds 978 msec
