                         Program Version 6.0.0  -   RELEASE  -
|  1> ! pbe def2-sv(p) def2/J RI DEFGRID1 loosescf d4 GCP(DFT/SV(P)) printgap
|  2> %output
|  3>     printlevel normal
|  4> end
|  5> * xyz 0 1
|  6> C 3.0482524926 0.2758319838 -3.3156444717
|  7> C 3.4273316168 0.7496714525 -1.9269271266
|  8> O 2.9939885088 -0.2354486344 -0.9620434217
|  9> P 2.1592905537 0.0859902951 0.3385223059
| 10> S 1.2044493024 1.8080880958 0.3313308229
| 11> O 3.2771926372 0.0380033862 1.4697258389
| 12> C 3.0597128561 0.5434574287 2.7972910847
| 13> C 2.0365305694 -0.2789010328 3.5541918948
| 14> S 1.2103728796 -1.7837098517 0.5816356682
| 15> C 0.4559810452 -1.9837017444 -1.0677110105
| 16> S -0.2969967283 -0.4793481154 -1.742420566
| 17> P -1.8705511232 -0.1752095096 -0.3604190117
| 18> S -1.584586941 -0.089077461 1.5814084797
| 19> O -2.7739132345 -1.3881270471 -0.8286164623
| 20> C -3.8547928317 -1.9027384507 -0.0248399429
| 21> C -5.024884616 -0.9430359879 0.015822267
| 22> O -2.5933457364 1.0810146148 -1.005747012
| 23> C -2.3571055213 2.4510760727 -0.6225186601
| 24> C -3.4165793045 2.9179142748 0.356703874
| 25> H 3.4063133671 0.9953472925 -4.0445718089
| 26> H 3.498856033 -0.6920728877 -3.5149607765
| 27> H 1.9667915024 0.1892254286 -3.3991445068
| 28> H 2.9541028944 1.7089459148 -1.6913255442
| 29> H 4.5092359399 0.8399986911 -1.8134711381
| 30> H 4.0449122978 0.4919812221 3.262475943
| 31> H 2.7354231508 1.5867966484 2.7223025795
| 32> H 2.3148666732 -1.3299400321 3.5471141136
| 33> H 1.9741649536 0.0730142601 4.5788277969
| 34> H 1.0539783536 -0.1759623297 3.0907342269
| 35> H -0.2969377614 -2.7623543205 -0.9649757969
| 36> H 1.2278376717 -2.2732437812 -1.7774734153
| 37> H -4.1176959221 -2.8434084251 -0.5104811306
| 38> H -3.4759119194 -2.0936116225 0.9845695395
| 39> H -5.3317531418 -0.6829970933 -0.9938282616
| 40> H -5.8544485007 -1.4070851824 0.5399844734
| 41> H -4.7368441213 -0.0340531478 0.5415663489
| 42> H -1.3574611559 2.5486000409 -0.1903197
| 43> H -2.4018636429 3.0112610968 -1.5580633467
| 44> H -3.341162361 2.3551463064 1.2850860932
| 45> H -3.2606159484 3.9700772131 0.5715526465
| 46> H -4.4071743866 2.7781484669 -0.0675022501
| 47> *
| 48>
| 49>                          ****END OF INPUT****

CARTESIAN COORDINATES (ANGSTROEM)
---------------------------------
  C      3.048252    0.275832   -3.315644
  C      3.427332    0.749671   -1.926927
  O      2.993989   -0.235449   -0.962043
  P      2.159291    0.085990    0.338522
  S      1.204449    1.808088    0.331331
  O      3.277193    0.038003    1.469726
  C      3.059713    0.543457    2.797291
  C      2.036531   -0.278901    3.554192
  S      1.210373   -1.783710    0.581636
  C      0.455981   -1.983702   -1.067711
  S     -0.296997   -0.479348   -1.742421
  P     -1.870551   -0.175210   -0.360419
  S     -1.584587   -0.089077    1.581408
  O     -2.773913   -1.388127   -0.828616
  C     -3.854793   -1.902738   -0.024840
  C     -5.024885   -0.943036    0.015822
  O     -2.593346    1.081015   -1.005747
  C     -2.357106    2.451076   -0.622519
  C     -3.416579    2.917914    0.356704
  H      3.406313    0.995347   -4.044572
  H      3.498856   -0.692073   -3.514961
  H      1.966792    0.189225   -3.399145
  H      2.954103    1.708946   -1.691326
  H      4.509236    0.839999   -1.813471
  H      4.044912    0.491981    3.262476
  H      2.735423    1.586797    2.722303
  H      2.314867   -1.329940    3.547114
  H      1.974165    0.073014    4.578828
  H      1.053978   -0.175962    3.090734
  H     -0.296938   -2.762354   -0.964976
  H      1.227838   -2.273244   -1.777473
  H     -4.117696   -2.843408   -0.510481
  H     -3.475912   -2.093612    0.984570
  H     -5.331753   -0.682997   -0.993828
  H     -5.854449   -1.407085    0.539984
  H     -4.736844   -0.034053    0.541566
  H     -1.357461    2.548600   -0.190320
  H     -2.401864    3.011261   -1.558063
  H     -3.341162    2.355146    1.285086
  H     -3.260616    3.970077    0.571553
  H     -4.407174    2.778148   -0.067502

 Total Charge           Charge          ....    0
 Multiplicity           Mult            ....    1
 Number of Electrons    NEL             ....  202
 Basis Dimension        Dim             ....  334

ORBITAL ENERGIES
----------------

  NO   OCC          E(Eh)            E(eV)
   0   2.0000     -88.040419     -2395.7016
   1   2.0000     -88.035110     -2395.5571
   2   2.0000     -87.981798     -2394.1064
   3   2.0000     -87.978375     -2394.0133
   4   2.0000     -76.423782     -2079.5968
   5   2.0000     -76.422010     -2079.5486
   6   2.0000     -18.789059      -511.2763
   7   2.0000     -18.788543      -511.2622
   8   2.0000     -18.788223      -511.2535
   9   2.0000     -18.783708      -511.1307
  10   2.0000      -9.958791      -270.9925
  11   2.0000      -9.949059      -270.7277
  12   2.0000      -9.948347      -270.7083
  13   2.0000      -9.946563      -270.6597
  14   2.0000      -9.944209      -270.5957
  15   2.0000      -9.885077      -268.9866
  16   2.0000      -9.882620      -268.9198
  17   2.0000      -9.877724      -268.7865
  18   2.0000      -9.876083      -268.7419
  19   2.0000      -7.685273      -209.1269
  20   2.0000      -7.680443      -208.9955
  21   2.0000      -7.626385      -207.5245
  22   2.0000      -7.623039      -207.4334
  23   2.0000      -6.421015      -174.7247
  24   2.0000      -6.419138      -174.6736
  25   2.0000      -5.713294      -155.4666
  26   2.0000      -5.709889      -155.3740
  27   2.0000      -5.708657      -155.3404
  28   2.0000      -5.704992      -155.2407
  29   2.0000      -5.701936      -155.1576
  30   2.0000      -5.696954      -155.0220
  31   2.0000      -5.655308      -153.8888
  32   2.0000      -5.651896      -153.7959
  33   2.0000      -5.646905      -153.6601
  34   2.0000      -5.646684      -153.6541
  35   2.0000      -5.643725      -153.5736
  36   2.0000      -5.643216      -153.5597
  37   2.0000      -4.643560      -126.3577
  38   2.0000      -4.642812      -126.3373
  39   2.0000      -4.641822      -126.3104
  40   2.0000      -4.641512      -126.3020
  41   2.0000      -4.640999      -126.2880
  42   2.0000      -4.639466      -126.2463
  43   2.0000      -0.983114       -26.7519
  44   2.0000      -0.980852       -26.6903
  45   2.0000      -0.943030       -25.6611
  46   2.0000      -0.940777       -25.5998
  47   2.0000      -0.761388       -20.7184
  48   2.0000      -0.718304       -19.5460
  49   2.0000      -0.705953       -19.2100
  50   2.0000      -0.683633       -18.6026
  51   2.0000      -0.680904       -18.5283
  52   2.0000      -0.665547       -18.1104
  53   2.0000      -0.649947       -17.6860
  54   2.0000      -0.634869       -17.2757
  55   2.0000      -0.597529       -16.2596
  56   2.0000      -0.588358       -16.0100
  57   2.0000      -0.567829       -15.4514
  58   2.0000      -0.565870       -15.3981
  59   2.0000      -0.561024       -15.2662
  60   2.0000      -0.499619       -13.5953
  61   2.0000      -0.494482       -13.4555
  62   2.0000      -0.473699       -12.8900
  63   2.0000      -0.466370       -12.6906
  64   2.0000      -0.453778       -12.3479
  65   2.0000      -0.437146       -11.8953
  66   2.0000      -0.434466       -11.8224
  67   2.0000      -0.430854       -11.7241
  68   2.0000      -0.423965       -11.5367
  69   2.0000      -0.412371       -11.2212
  70   2.0000      -0.403846       -10.9892
  71   2.0000      -0.395062       -10.7502
  72   2.0000      -0.389911       -10.6100
  73   2.0000      -0.386364       -10.5135
  74   2.0000      -0.381544       -10.3823
  75   2.0000      -0.373264       -10.1570
  76   2.0000      -0.366019        -9.9599
  77   2.0000      -0.354649        -9.6505
  78   2.0000      -0.352310        -9.5868
  79   2.0000      -0.349000        -9.4968
  80   2.0000      -0.345122        -9.3912
  81   2.0000      -0.340561        -9.2671
  82   2.0000      -0.337776        -9.1914
  83   2.0000      -0.333741        -9.0815
  84   2.0000      -0.328672        -8.9436
  85   2.0000      -0.320737        -8.7277
  86   2.0000      -0.304509        -8.2861
  87   2.0000      -0.292901        -7.9702
  88   2.0000      -0.291022        -7.9191
  89   2.0000      -0.280503        -7.6329
  90   2.0000      -0.279024        -7.5926
  91   2.0000      -0.273410        -7.4399
  92   2.0000      -0.265956        -7.2370
  93   2.0000      -0.259181        -7.0527
  94   2.0000      -0.255732        -6.9588
  95   2.0000      -0.246791        -6.7155
  96   2.0000      -0.221057        -6.0153
  97   2.0000      -0.211043        -5.7428
  98   2.0000      -0.186620        -5.0782
  99   2.0000      -0.184826        -5.0294
 100   2.0000      -0.180861        -4.9215
 101   0.0000      -0.049649        -1.3510
 102   0.0000      -0.031263        -0.8507
 103   0.0000      -0.009627        -0.2620
 104   0.0000       0.003052         0.0831
 105   0.0000       0.022968         0.6250

MULLIKEN ATOMIC CHARGES
-----------------------
   0 C :   -0.304481
   1 C :   -0.000987
   2 O :   -0.374261
   3 P :    0.620196
   4 S :   -0.332452
   5 O :   -0.368781
   6 C :    0.002786
   7 C :   -0.344069
   8 S :   -0.090818
   9 C :   -0.322929
  10 S :   -0.103697
  11 P :    0.629915
  12 S :   -0.305811
  13 O :   -0.372562
  14 C :   -0.005632
  15 C :   -0.313890
  16 O :   -0.378968
  17 C :   -0.022016
  18 C :   -0.298980
  19 H :    0.111251
  20 H :    0.114038
  21 H :    0.129556
  22 H :    0.108724
  23 H :    0.104589
  24 H :    0.101805
  25 H :    0.109200
  26 H :    0.118309
  27 H :    0.112106
  28 H :    0.153733
  29 H :    0.180075
  30 H :    0.186962
  31 H :    0.101805
  32 H :    0.109539
  33 H :    0.117234
  34 H :    0.110884
  35 H :    0.129850
  36 H :    0.134827
  37 H :    0.102803
  38 H :    0.129060
  39 H :    0.108848
  40 H :    0.112240
Sum of atomic charges:   -0.0000000

LOEWDIN ATOMIC CHARGES
----------------------
   0 C :   -0.357992
   1 C :   -0.116585
   2 O :   -0.244481
   3 P :    0.569631
   4 S :   -0.315151
   5 O :   -0.246270
   6 C :   -0.120359
   7 C :   -0.374234
   8 S :    0.087382
   9 C :   -0.469056
  10 S :    0.093758
  11 P :    0.568873
  12 S :   -0.302933
  13 O :   -0.244664
  14 C :   -0.120825
  15 C :   -0.364529
  16 O :   -0.245561
  17 C :   -0.116554
  18 C :   -0.362161
  19 H :    0.130912
  20 H :    0.123974
  21 H :    0.120553
  22 H :    0.106777
  23 H :    0.116174
  24 H :    0.117110
  25 H :    0.108980
  26 H :    0.123499
  27 H :    0.131242
  28 H :    0.124514
  29 H :    0.133191
  30 H :    0.134562
  31 H :    0.116758
  32 H :    0.108719
  33 H :    0.126636
  34 H :    0.129983
  35 H :    0.124567
  36 H :    0.109937
  37 H :    0.117301
  38 H :    0.124295
  39 H :    0.129526
  40 H :    0.122501

  Mayer bond orders larger than 0.100000
B(  0-C ,  1-C ) :   1.1641 B(  0-C , 19-H ) :   0.9405 B(  0-C , 20-H ) :   0.9493
B(  0-C , 21-H ) :   0.9401 B(  1-C ,  2-O ) :   0.8965 B(  1-C , 22-H ) :   0.8992
B(  1-C , 23-H ) :   0.9338 B(  2-O ,  3-P ) :   1.1204 B(  3-P ,  4-S ) :   1.5835
B(  3-P ,  5-O ) :   1.1181 B(  3-P ,  8-S ) :   0.9764 B(  4-S ,  8-S ) :   0.1148
B(  5-O ,  6-C ) :   0.9105 B(  6-C ,  7-C ) :   1.1627 B(  6-C , 24-H ) :   0.9331
B(  6-C , 25-H ) :   0.9130 B(  7-C , 26-H ) :   0.9435 B(  7-C , 27-H ) :   0.9377
B(  7-C , 28-H ) :   0.9256 B(  8-S ,  9-C ) :   0.9870 B(  9-C , 10-S ) :   1.0137
B(  9-C , 29-H ) :   0.9063 B(  9-C , 30-H ) :   0.9071 B( 10-S , 11-P ) :   0.9365
B( 10-S , 12-S ) :   0.1181 B( 11-P , 12-S ) :   1.6267 B( 11-P , 13-O ) :   1.1114
B( 11-P , 16-O ) :   1.1209 B( 13-O , 14-C ) :   0.9086 B( 14-C , 15-C ) :   1.1656
B( 14-C , 31-H ) :   0.9341 B( 14-C , 32-H ) :   0.9114 B( 15-C , 33-H ) :   0.9464
B( 15-C , 34-H ) :   0.9386 B( 15-C , 35-H ) :   0.9337 B( 16-O , 17-C ) :   0.8927
B( 17-C , 18-C ) :   1.1707 B( 17-C , 36-H ) :   0.9041 B( 17-C , 37-H ) :   0.9354
B( 18-C , 38-H ) :   0.9326 B( 18-C , 39-H ) :   0.9392 B( 18-C , 40-H ) :   0.9444

Dispersion correction           -0.068219965
FINAL SINGLE POINT ENERGY     -2929.513044743597

DIPOLE MOMENT
-------------

Method             : SCF
Type of density    : Electron Density
Multiplicity       :   1
Irrep              :   0
Energy             : -2929.6283053383244805 Eh
Relativity type    :
Basis              : AO
                                X                 Y                 Z
Electronic contribution:      8.472628060      -6.156416253      -1.039594039
Nuclear contribution   :     -8.605438999       5.955145722       0.539266395
                        -----------------------------------------
Total Dipole Moment    :     -0.132810939      -0.201270531      -0.500327644
                        -----------------------------------------
Magnitude (a.u.)       :      0.555406449
Magnitude (Debye)      :      1.411731001

Rotational constants in cm-1:             0.011487             0.005653             0.005303
Rotational constants in MHz :           344.384379           169.482521           158.982963

                             ****ORCA TERMINATED NORMALLY****
TOTAL RUN TIME: 0 days 0 hours 0 minutes 21 seconds 245 msec
