                         Program Version 6.0.0  -   RELEASE  -
|  1> ! pbe def2-sv(p) def2/J RI DEFGRID1 loosescf d4 GCP(DFT/SV(P)) printgap
|  2> %output
|  3>     printlevel normal
|  4> end
|  5> * xyz 0 1
|  6> C 4.1252639089 -1.862162476 -1.90084906
|  7> C 4.6450800735 -1.2526394581 -0.6146556375
|  8> O 3.5931814972 -0.9892977151 0.3293502004
|  9> P 2.4824732617 0.1205826756 0.0838985099
| 10> S 3.1359411458 1.7642562935 -0.7550087345
| 11> O 1.9387102919 0.4030382768 1.5358362828
| 12> C 1.1087479815 -0.4647432613 2.3448358793
| 13> C 1.6982434775 -1.8469759872 2.523308808
| 14> S 0.9212474651 -0.9023159433 -0.9556360128
| 15> C 0.1352085188 0.5739971666 -1.6293381507
| 16> S -0.7123714815 1.5626250025 -0.3657226233
| 17> P -2.4586885305 0.3702101312 -0.2695917315
| 18> S -3.1544162114 -0.3688378545 -1.9356634655
| 19> O -3.5245217992 1.3201043798 0.4187840374
| 20> C -3.2682647787 1.9896296979 1.6792528047
| 21> C -4.5998109744 2.4525598272 2.2330266311
| 22> O -2.0281198409 -0.6915465939 0.8500172312
| 23> C -2.5941529134 -2.0217796498 0.9138341333
| 24> C -1.6803426752 -3.029630442 0.2481710897
| 25> H 3.5317813772 -1.1308427807 -2.4472935113
| 26> H 4.9650907629 -2.1624864367 -2.5191529684
| 27> H 3.5056176806 -2.7293659784 -1.6876339275
| 28> H 5.169916605 -0.3140838968 -0.8188678755
| 29> H 5.3053202926 -1.9387142234 -0.0822839898
| 30> H 1.042224795 0.0719493425 3.2924716855
| 31> H 0.1190965614 -0.517459026 1.8830532338
| 32> H 2.7040690045 -1.7773824269 2.9289423666
| 33> H 1.0732345267 -2.4137488981 3.2068938751
| 34> H 1.7431841231 -2.3639725146 1.5665959801
| 35> H -0.5891537583 0.2466484506 -2.3760852638
| 36> H 0.8974120872 1.2212501792 -2.064704131
| 37> H -2.7725226656 1.2882606873 2.3551655231
| 38> H -2.5999870646 2.8315807068 1.481095534
| 39> H -4.4327905862 2.9822633707 3.1653167101
| 40> H -5.0850713389 3.1165707814 1.5235315081
| 41> H -5.2487647411 1.6001968561 2.4129185586
| 42> H -2.7037095243 -2.2232428466 1.9806162158
| 43> H -3.5774051305 -2.0147603777 0.4351278759
| 44> H -2.1027934951 -4.0221968465 0.3648604211
| 45> H -1.5855964396 -2.8061747881 -0.8123022524
| 46> H -0.6925313299 -3.0014936177 0.6978846697
| 47> *
| 48>
| 49>                          ****END OF INPUT****

CARTESIAN COORDINATES (ANGSTROEM)
---------------------------------
  C      4.125264   -1.862162   -1.900849
  C      4.645080   -1.252639   -0.614656
  O      3.593181   -0.989298    0.329350
  P      2.482473    0.120583    0.083899
  S      3.135941    1.764256   -0.755009
  O      1.938710    0.403038    1.535836
  C      1.108748   -0.464743    2.344836
  C      1.698243   -1.846976    2.523309
  S      0.921247   -0.902316   -0.955636
  C      0.135209    0.573997   -1.629338
  S     -0.712371    1.562625   -0.365723
  P     -2.458689    0.370210   -0.269592
  S     -3.154416   -0.368838   -1.935663
  O     -3.524522    1.320104    0.418784
  C     -3.268265    1.989630    1.679253
  C     -4.599811    2.452560    2.233027
  O     -2.028120   -0.691547    0.850017
  C     -2.594153   -2.021780    0.913834
  C     -1.680343   -3.029630    0.248171
  H      3.531781   -1.130843   -2.447294
  H      4.965091   -2.162486   -2.519153
  H      3.505618   -2.729366   -1.687634
  H      5.169917   -0.314084   -0.818868
  H      5.305320   -1.938714   -0.082284
  H      1.042225    0.071949    3.292472
  H      0.119097   -0.517459    1.883053
  H      2.704069   -1.777382    2.928942
  H      1.073235   -2.413749    3.206894
  H      1.743184   -2.363973    1.566596
  H     -0.589154    0.246648   -2.376085
  H      0.897412    1.221250   -2.064704
  H     -2.772523    1.288261    2.355166
  H     -2.599987    2.831581    1.481096
  H     -4.432791    2.982263    3.165317
  H     -5.085071    3.116571    1.523532
  H     -5.248765    1.600197    2.412919
  H     -2.703710   -2.223243    1.980616
  H     -3.577405   -2.014760    0.435128
  H     -2.102793   -4.022197    0.364860
  H     -1.585596   -2.806175   -0.812302
  H     -0.692531   -3.001494    0.697885

 Total Charge           Charge          ....    0
 Multiplicity           Mult            ....    1
 Number of Electrons    NEL             ....  202
 Basis Dimension        Dim             ....  334

ORBITAL ENERGIES
----------------

  NO   OCC          E(Eh)            E(eV)
   0   2.0000     -88.044274     -2395.8065
   1   2.0000     -88.043858     -2395.7952
   2   2.0000     -87.991314     -2394.3654
   3   2.0000     -87.985100     -2394.1963
   4   2.0000     -76.428890     -2079.7358
   5   2.0000     -76.427409     -2079.6955
   6   2.0000     -18.797395      -511.5031
   7   2.0000     -18.797288      -511.5002
   8   2.0000     -18.794912      -511.4356
   9   2.0000     -18.789621      -511.2916
  10   2.0000      -9.963090      -271.1095
  11   2.0000      -9.958473      -270.9838
  12   2.0000      -9.953989      -270.8618
  13   2.0000      -9.953457      -270.8473
  14   2.0000      -9.952864      -270.8312
  15   2.0000      -9.895276      -269.2641
  16   2.0000      -9.889710      -269.1127
  17   2.0000      -9.885301      -268.9927
  18   2.0000      -9.884952      -268.9832
  19   2.0000      -7.688990      -209.2281
  20   2.0000      -7.688859      -209.2245
  21   2.0000      -7.636591      -207.8022
  22   2.0000      -7.630362      -207.6327
  23   2.0000      -6.427047      -174.8889
  24   2.0000      -6.424663      -174.8240
  25   2.0000      -5.716743      -155.5605
  26   2.0000      -5.716555      -155.5554
  27   2.0000      -5.713726      -155.4784
  28   2.0000      -5.713446      -155.4708
  29   2.0000      -5.705978      -155.2676
  30   2.0000      -5.705855      -155.2642
  31   2.0000      -5.665625      -154.1695
  32   2.0000      -5.659317      -153.9979
  33   2.0000      -5.657378      -153.9451
  34   2.0000      -5.656399      -153.9184
  35   2.0000      -5.650914      -153.7692
  36   2.0000      -5.650508      -153.7581
  37   2.0000      -4.649966      -126.5320
  38   2.0000      -4.648410      -126.4897
  39   2.0000      -4.647525      -126.4656
  40   2.0000      -4.647430      -126.4630
  41   2.0000      -4.646483      -126.4372
  42   2.0000      -4.644944      -126.3953
  43   2.0000      -0.989695       -26.9310
  44   2.0000      -0.987236       -26.8640
  45   2.0000      -0.948730       -25.8162
  46   2.0000      -0.945667       -25.7329
  47   2.0000      -0.766299       -20.8521
  48   2.0000      -0.725882       -19.7523
  49   2.0000      -0.713526       -19.4160
  50   2.0000      -0.696352       -18.9487
  51   2.0000      -0.691424       -18.8146
  52   2.0000      -0.677777       -18.4432
  53   2.0000      -0.653188       -17.7741
  54   2.0000      -0.640384       -17.4257
  55   2.0000      -0.600621       -16.3437
  56   2.0000      -0.591095       -16.0845
  57   2.0000      -0.578668       -15.7464
  58   2.0000      -0.576935       -15.6992
  59   2.0000      -0.560949       -15.2642
  60   2.0000      -0.516064       -14.0428
  61   2.0000      -0.493049       -13.4165
  62   2.0000      -0.485421       -13.2090
  63   2.0000      -0.472301       -12.8520
  64   2.0000      -0.462127       -12.5751
  65   2.0000      -0.448609       -12.2073
  66   2.0000      -0.445323       -12.1178
  67   2.0000      -0.442353       -12.0370
  68   2.0000      -0.434336       -11.8189
  69   2.0000      -0.419701       -11.4206
  70   2.0000      -0.404826       -11.0159
  71   2.0000      -0.402070       -10.9409
  72   2.0000      -0.398537       -10.8448
  73   2.0000      -0.386664       -10.5217
  74   2.0000      -0.379923       -10.3382
  75   2.0000      -0.373704       -10.1690
  76   2.0000      -0.370263       -10.0754
  77   2.0000      -0.365381        -9.9425
  78   2.0000      -0.360855        -9.8194
  79   2.0000      -0.355224        -9.6661
  80   2.0000      -0.351848        -9.5743
  81   2.0000      -0.347498        -9.4559
  82   2.0000      -0.344537        -9.3753
  83   2.0000      -0.343455        -9.3459
  84   2.0000      -0.337839        -9.1931
  85   2.0000      -0.323145        -8.7932
  86   2.0000      -0.314905        -8.5690
  87   2.0000      -0.312028        -8.4907
  88   2.0000      -0.294480        -8.0132
  89   2.0000      -0.292305        -7.9540
  90   2.0000      -0.290004        -7.8914
  91   2.0000      -0.277929        -7.5628
  92   2.0000      -0.274907        -7.4806
  93   2.0000      -0.267049        -7.2668
  94   2.0000      -0.262341        -7.1387
  95   2.0000      -0.234613        -6.3841
  96   2.0000      -0.218829        -5.9546
  97   2.0000      -0.214540        -5.8379
  98   2.0000      -0.204961        -5.5773
  99   2.0000      -0.203338        -5.5331
 100   2.0000      -0.201658        -5.4874
 101   0.0000      -0.046755        -1.2723
 102   0.0000      -0.028562        -0.7772
 103   0.0000      -0.006532        -0.1777
 104   0.0000       0.001576         0.0429
 105   0.0000       0.009339         0.2541

MULLIKEN ATOMIC CHARGES
-----------------------
   0 C :   -0.314268
   1 C :   -0.003000
   2 O :   -0.375325
   3 P :    0.603397
   4 S :   -0.316597
   5 O :   -0.353968
   6 C :   -0.038723
   7 C :   -0.315938
   8 S :   -0.104449
   9 C :   -0.361393
  10 S :   -0.083420
  11 P :    0.614805
  12 S :   -0.304993
  13 O :   -0.368586
  14 C :   -0.036685
  15 C :   -0.273872
  16 O :   -0.386282
  17 C :   -0.010023
  18 C :   -0.297817
  19 H :    0.127507
  20 H :    0.113902
  21 H :    0.115165
  22 H :    0.114953
  23 H :    0.104721
  24 H :    0.104633
  25 H :    0.144706
  26 H :    0.122409
  27 H :    0.110498
  28 H :    0.128364
  29 H :    0.191584
  30 H :    0.197301
  31 H :    0.107169
  32 H :    0.119830
  33 H :    0.113498
  34 H :    0.126697
  35 H :    0.117753
  36 H :    0.100100
  37 H :    0.110570
  38 H :    0.108827
  39 H :    0.124404
  40 H :    0.122542
Sum of atomic charges:   -0.0000000

LOEWDIN ATOMIC CHARGES
----------------------
   0 C :   -0.369998
   1 C :   -0.117856
   2 O :   -0.242264
   3 P :    0.573464
   4 S :   -0.311930
   5 O :   -0.232531
   6 C :   -0.122630
   7 C :   -0.366998
   8 S :    0.084628
   9 C :   -0.486358
  10 S :    0.088310
  11 P :    0.570617
  12 S :   -0.301921
  13 O :   -0.246472
  14 C :   -0.119676
  15 C :   -0.348582
  16 O :   -0.255454
  17 C :   -0.116892
  18 C :   -0.363552
  19 H :    0.121621
  20 H :    0.131488
  21 H :    0.122786
  22 H :    0.113206
  23 H :    0.118573
  24 H :    0.120821
  25 H :    0.109250
  26 H :    0.128742
  27 H :    0.129118
  28 H :    0.117006
  29 H :    0.128603
  30 H :    0.129669
  31 H :    0.109638
  32 H :    0.114294
  33 H :    0.131721
  34 H :    0.132489
  35 H :    0.128273
  36 H :    0.114679
  37 H :    0.110995
  38 H :    0.129364
  39 H :    0.122788
  40 H :    0.120969

  Mayer bond orders larger than 0.100000
B(  0-C ,  1-C ) :   1.1656 B(  0-C , 19-H ) :   0.9349 B(  0-C , 20-H ) :   0.9374
B(  0-C , 21-H ) :   0.9452 B(  1-C ,  2-O ) :   0.9056 B(  1-C , 22-H ) :   0.9160
B(  1-C , 23-H ) :   0.9340 B(  2-O ,  3-P ) :   1.0915 B(  3-P ,  4-S ) :   1.6214
B(  3-P ,  5-O ) :   1.1534 B(  3-P ,  8-S ) :   0.9348 B(  4-S ,  8-S ) :   0.1081
B(  5-O ,  6-C ) :   0.8958 B(  6-C ,  7-C ) :   1.1737 B(  6-C , 24-H ) :   0.9332
B(  6-C , 25-H ) :   0.8961 B(  7-C , 26-H ) :   0.9413 B(  7-C , 27-H ) :   0.9359
B(  7-C , 28-H ) :   0.9284 B(  8-S ,  9-C ) :   1.0082 B(  9-C , 10-S ) :   1.0095
B(  9-C , 29-H ) :   0.8680 B(  9-C , 30-H ) :   0.8697 B( 10-S , 11-P ) :   0.9721
B( 10-S , 12-S ) :   0.1020 B( 11-P , 12-S ) :   1.6324 B( 11-P , 13-O ) :   1.1277
B( 11-P , 16-O ) :   1.0601 B( 13-O , 14-C ) :   0.9018 B( 14-C , 15-C ) :   1.1659
B( 14-C , 31-H ) :   0.9192 B( 14-C , 32-H ) :   0.9244 B( 15-C , 33-H ) :   0.9402
B( 15-C , 34-H ) :   0.9495 B( 15-C , 35-H ) :   0.9509 B( 16-O , 17-C ) :   0.8863
B( 17-C , 18-C ) :   1.1743 B( 17-C , 36-H ) :   0.9334 B( 17-C , 37-H ) :   0.9114
B( 18-C , 38-H ) :   0.9372 B( 18-C , 39-H ) :   0.9342 B( 18-C , 40-H ) :   0.9409

Dispersion correction           -0.065645161
FINAL SINGLE POINT ENERGY     -2929.520190016968

DIPOLE MOMENT
-------------

Method             : SCF
Type of density    : Electron Density
Multiplicity       :   1
Irrep              :   0
Energy             : -2929.6406422613754330 Eh
Relativity type    :
Basis              : AO
                                X                 Y                 Z
Electronic contribution:      1.119999251      14.372089420     -12.336235573
Nuclear contribution   :     -1.278008555     -15.561823392      13.918967731
                        -----------------------------------------
Total Dipole Moment    :     -0.158009304      -1.189733972       1.582732159
                        -----------------------------------------
Magnitude (a.u.)       :      1.986321965
Magnitude (Debye)      :      5.048829199

Rotational constants in cm-1:             0.012556             0.004780             0.004662
Rotational constants in MHz :           376.428186           143.290820           139.767464

                             ****ORCA TERMINATED NORMALLY****
TOTAL RUN TIME: 0 days 0 hours 0 minutes 21 seconds 713 msec
