                         Program Version 6.0.0  -   RELEASE  -
|  1> ! pbe def2-sv(p) def2/J RI DEFGRID1 loosescf d4 GCP(DFT/SV(P)) printgap
|  2> %output
|  3>     printlevel normal
|  4> end
|  5> * xyz 0 1
|  6> C 4.8672790692 -1.5492138461 0.664227141
|  7> C 4.4974945232 -1.5181990602 -0.8046878462
|  8> O 3.0714578909 -1.4334105314 -1.0045593121
|  9> P 2.2262227578 -0.17995072 -0.5294984566
| 10> S 3.0876573324 1.5780782663 -0.6505338559
| 11> O 1.7392270243 -0.5918773339 0.9302798626
| 12> C 1.6877598103 0.2922107519 2.0716253044
| 13> C 0.5821339066 -0.1818304506 2.9917286622
| 14> S 0.5825656809 -0.5553321305 -1.8061185753
| 15> C -0.0973146259 1.1287329509 -1.7599386037
| 16> S -0.7192151509 1.5845237407 -0.1302692275
| 17> P -2.4478361577 0.315613764 -0.1065812726
| 18> S -3.192950738 -0.087325768 -1.8680697324
| 19> O -3.4739814552 1.0612560727 0.8206508761
| 20> C -3.3739275261 1.2209699879 2.260410536
| 21> C -2.5060412343 2.4044244567 2.6342286786
| 22> O -2.043665411 -0.9457497453 0.7815809621
| 23> C -1.5903279107 -2.2082208343 0.2643638913
| 24> C -2.3551847572 -3.3156232095 0.9616877407
| 25> H 4.6296737688 -0.5900537076 1.1239568736
| 26> H 4.3168758824 -2.3358093463 1.17403043
| 27> H 5.9330057633 -1.7306722136 0.7634479034
| 28> H 4.7760452582 -2.4421429971 -1.3132176913
| 29> H 4.9665745212 -0.6636962351 -1.3022605049
| 30> H 2.6599269265 0.244325681 2.5685057217
| 31> H 1.5166012023 1.3156976062 1.7256361465
| 32> H -0.3745754709 -0.1470099082 2.478387892
| 33> H 0.7741917455 -1.2027365393 3.308875204
| 34> H 0.5444759295 0.4653484975 3.8617069659
| 35> H -0.9131520109 1.1540703124 -2.4822798557
| 36> H 0.6829565274 1.8467096583 -2.010780133
| 37> H -4.4093447644 1.3763775661 2.5675413991
| 38> H -2.9951335785 0.2930413771 2.6910192498
| 39> H -2.5347971226 2.5361506904 3.711306384
| 40> H -1.4763058554 2.2433177718 2.3222158383
| 41> H -2.8745182692 3.3061920708 2.1530537224
| 42> H -1.7570772799 -2.2339223995 -0.8175189348
| 43> H -0.5170795297 -2.2752735614 0.462917791
| 44> H -3.4165136921 -3.229011915 0.7429394472
| 45> H -1.9949066249 -4.2740935162 0.6026572435
| 46> H -2.2084480327 -3.2550415175 2.0361665481
| 47> *
| 48>
| 49>                          ****END OF INPUT****

CARTESIAN COORDINATES (ANGSTROEM)
---------------------------------
  C      4.867279   -1.549214    0.664227
  C      4.497495   -1.518199   -0.804688
  O      3.071458   -1.433411   -1.004559
  P      2.226223   -0.179951   -0.529498
  S      3.087657    1.578078   -0.650534
  O      1.739227   -0.591877    0.930280
  C      1.687760    0.292211    2.071625
  C      0.582134   -0.181830    2.991729
  S      0.582566   -0.555332   -1.806119
  C     -0.097315    1.128733   -1.759939
  S     -0.719215    1.584524   -0.130269
  P     -2.447836    0.315614   -0.106581
  S     -3.192951   -0.087326   -1.868070
  O     -3.473981    1.061256    0.820651
  C     -3.373928    1.220970    2.260411
  C     -2.506041    2.404424    2.634229
  O     -2.043665   -0.945750    0.781581
  C     -1.590328   -2.208221    0.264364
  C     -2.355185   -3.315623    0.961688
  H      4.629674   -0.590054    1.123957
  H      4.316876   -2.335809    1.174030
  H      5.933006   -1.730672    0.763448
  H      4.776045   -2.442143   -1.313218
  H      4.966575   -0.663696   -1.302261
  H      2.659927    0.244326    2.568506
  H      1.516601    1.315698    1.725636
  H     -0.374575   -0.147010    2.478388
  H      0.774192   -1.202737    3.308875
  H      0.544476    0.465348    3.861707
  H     -0.913152    1.154070   -2.482280
  H      0.682957    1.846710   -2.010780
  H     -4.409345    1.376378    2.567541
  H     -2.995134    0.293041    2.691019
  H     -2.534797    2.536151    3.711306
  H     -1.476306    2.243318    2.322216
  H     -2.874518    3.306192    2.153054
  H     -1.757077   -2.233922   -0.817519
  H     -0.517080   -2.275274    0.462918
  H     -3.416514   -3.229012    0.742939
  H     -1.994907   -4.274094    0.602657
  H     -2.208448   -3.255042    2.036167

 Total Charge           Charge          ....    0
 Multiplicity           Mult            ....    1
 Number of Electrons    NEL             ....  202
 Basis Dimension        Dim             ....  334

ORBITAL ENERGIES
----------------

  NO   OCC          E(Eh)            E(eV)
   0   2.0000     -88.042406     -2395.7557
   1   2.0000     -88.040190     -2395.6954
   2   2.0000     -87.992943     -2394.4097
   3   2.0000     -87.988090     -2394.2777
   4   2.0000     -76.429882     -2079.7628
   5   2.0000     -76.428842     -2079.7345
   6   2.0000     -18.798094      -511.5221
   7   2.0000     -18.794350      -511.4203
   8   2.0000     -18.793896      -511.4079
   9   2.0000     -18.793584      -511.3994
  10   2.0000      -9.963811      -271.1291
  11   2.0000      -9.957671      -270.9620
  12   2.0000      -9.954102      -270.8649
  13   2.0000      -9.951324      -270.7893
  14   2.0000      -9.947698      -270.6906
  15   2.0000      -9.895746      -269.2769
  16   2.0000      -9.890910      -269.1453
  17   2.0000      -9.888762      -269.0869
  18   2.0000      -9.885191      -268.9897
  19   2.0000      -7.686757      -209.1673
  20   2.0000      -7.685254      -209.1264
  21   2.0000      -7.637863      -207.8368
  22   2.0000      -7.633314      -207.7130
  23   2.0000      -6.427181      -174.8925
  24   2.0000      -6.426419      -174.8717
  25   2.0000      -5.714638      -155.5032
  26   2.0000      -5.713127      -155.4621
  27   2.0000      -5.711273      -155.4117
  28   2.0000      -5.710001      -155.3770
  29   2.0000      -5.703845      -155.2095
  30   2.0000      -5.701967      -155.1584
  31   2.0000      -5.666676      -154.1981
  32   2.0000      -5.662339      -154.0801
  33   2.0000      -5.658792      -153.9836
  34   2.0000      -5.657842      -153.9577
  35   2.0000      -5.653715      -153.8454
  36   2.0000      -5.653532      -153.8404
  37   2.0000      -4.650190      -126.5381
  38   2.0000      -4.648788      -126.4999
  39   2.0000      -4.648690      -126.4973
  40   2.0000      -4.648067      -126.4803
  41   2.0000      -4.647516      -126.4653
  42   2.0000      -4.647167      -126.4558
  43   2.0000      -0.991234       -26.9728
  44   2.0000      -0.986989       -26.8573
  45   2.0000      -0.946987       -25.7688
  46   2.0000      -0.946571       -25.7575
  47   2.0000      -0.764345       -20.7989
  48   2.0000      -0.726956       -19.7815
  49   2.0000      -0.715626       -19.4732
  50   2.0000      -0.694098       -18.8874
  51   2.0000      -0.692772       -18.8513
  52   2.0000      -0.673663       -18.3313
  53   2.0000      -0.652889       -17.7660
  54   2.0000      -0.640010       -17.4156
  55   2.0000      -0.604878       -16.4596
  56   2.0000      -0.593718       -16.1559
  57   2.0000      -0.578355       -15.7378
  58   2.0000      -0.572694       -15.5838
  59   2.0000      -0.560349       -15.2479
  60   2.0000      -0.508184       -13.8284
  61   2.0000      -0.500128       -13.6092
  62   2.0000      -0.483228       -13.1493
  63   2.0000      -0.479986       -13.0611
  64   2.0000      -0.460271       -12.5246
  65   2.0000      -0.451697       -12.2913
  66   2.0000      -0.442853       -12.0506
  67   2.0000      -0.438376       -11.9288
  68   2.0000      -0.431191       -11.7333
  69   2.0000      -0.417908       -11.3719
  70   2.0000      -0.403814       -10.9884
  71   2.0000      -0.400076       -10.8866
  72   2.0000      -0.392001       -10.6669
  73   2.0000      -0.388849       -10.5811
  74   2.0000      -0.382484       -10.4079
  75   2.0000      -0.376504       -10.2452
  76   2.0000      -0.370229       -10.0744
  77   2.0000      -0.364042        -9.9061
  78   2.0000      -0.362114        -9.8536
  79   2.0000      -0.356388        -9.6978
  80   2.0000      -0.354649        -9.6505
  81   2.0000      -0.352818        -9.6007
  82   2.0000      -0.344623        -9.3777
  83   2.0000      -0.340512        -9.2658
  84   2.0000      -0.339048        -9.2260
  85   2.0000      -0.322991        -8.7890
  86   2.0000      -0.310350        -8.4451
  87   2.0000      -0.304530        -8.2867
  88   2.0000      -0.299893        -8.1605
  89   2.0000      -0.294505        -8.0139
  90   2.0000      -0.286494        -7.7959
  91   2.0000      -0.279870        -7.6157
  92   2.0000      -0.275846        -7.5061
  93   2.0000      -0.268279        -7.3002
  94   2.0000      -0.260395        -7.0857
  95   2.0000      -0.233932        -6.3656
  96   2.0000      -0.219041        -5.9604
  97   2.0000      -0.214137        -5.8270
  98   2.0000      -0.207535        -5.6473
  99   2.0000      -0.203391        -5.5345
 100   2.0000      -0.200630        -5.4594
 101   0.0000      -0.048924        -1.3313
 102   0.0000      -0.027386        -0.7452
 103   0.0000      -0.003898        -0.1061
 104   0.0000       0.000953         0.0259
 105   0.0000       0.005998         0.1632

MULLIKEN ATOMIC CHARGES
-----------------------
   0 C :   -0.322244
   1 C :    0.002012
   2 O :   -0.379209
   3 P :    0.629251
   4 S :   -0.333306
   5 O :   -0.381110
   6 C :   -0.009933
   7 C :   -0.319980
   8 S :   -0.074315
   9 C :   -0.353562
  10 S :   -0.132301
  11 P :    0.634526
  12 S :   -0.307608
  13 O :   -0.361682
  14 C :   -0.017436
  15 C :   -0.325616
  16 O :   -0.391709
  17 C :   -0.023836
  18 C :   -0.274207
  19 H :    0.126567
  20 H :    0.118834
  21 H :    0.115707
  22 H :    0.109272
  23 H :    0.114688
  24 H :    0.105065
  25 H :    0.116467
  26 H :    0.141654
  27 H :    0.112318
  28 H :    0.107480
  29 H :    0.195283
  30 H :    0.194276
  31 H :    0.114356
  32 H :    0.121453
  33 H :    0.115590
  34 H :    0.142654
  35 H :    0.128616
  36 H :    0.114996
  37 H :    0.111439
  38 H :    0.115976
  39 H :    0.111131
  40 H :    0.108444
Sum of atomic charges:    0.0000000

LOEWDIN ATOMIC CHARGES
----------------------
   0 C :   -0.367139
   1 C :   -0.112437
   2 O :   -0.248151
   3 P :    0.572233
   4 S :   -0.319749
   5 O :   -0.250882
   6 C :   -0.117403
   7 C :   -0.361492
   8 S :    0.101314
   9 C :   -0.485427
  10 S :    0.072359
  11 P :    0.572847
  12 S :   -0.299938
  13 O :   -0.235743
  14 C :   -0.109323
  15 C :   -0.364856
  16 O :   -0.246407
  17 C :   -0.126338
  18 C :   -0.352755
  19 H :    0.121561
  20 H :    0.126815
  21 H :    0.132395
  22 H :    0.121202
  23 H :    0.114008
  24 H :    0.109644
  25 H :    0.103318
  26 H :    0.119931
  27 H :    0.125093
  28 H :    0.128403
  29 H :    0.130640
  30 H :    0.131110
  31 H :    0.124654
  32 H :    0.113990
  33 H :    0.133025
  34 H :    0.117085
  35 H :    0.133100
  36 H :    0.105187
  37 H :    0.108298
  38 H :    0.126858
  39 H :    0.130696
  40 H :    0.122275

  Mayer bond orders larger than 0.100000
B(  0-C ,  1-C ) :   1.1609 B(  0-C , 19-H ) :   0.9301 B(  0-C , 20-H ) :   0.9457
B(  0-C , 21-H ) :   0.9370 B(  1-C ,  2-O ) :   0.9117 B(  1-C , 22-H ) :   0.9354
B(  1-C , 23-H ) :   0.9214 B(  2-O ,  3-P ) :   1.1260 B(  3-P ,  4-S ) :   1.5997
B(  3-P ,  5-O ) :   1.0930 B(  3-P ,  8-S ) :   0.9533 B(  4-S ,  8-S ) :   0.1049
B(  5-O ,  6-C ) :   0.8966 B(  6-C ,  7-C ) :   1.1671 B(  6-C , 24-H ) :   0.9278
B(  6-C , 25-H ) :   0.9053 B(  7-C , 26-H ) :   0.9204 B(  7-C , 27-H ) :   0.9461
B(  7-C , 28-H ) :   0.9390 B(  8-S ,  9-C ) :   1.0055 B(  9-C , 10-S ) :   1.0067
B(  9-C , 29-H ) :   0.8743 B(  9-C , 30-H ) :   0.8788 B( 10-S , 11-P ) :   0.9243
B( 10-S , 12-S ) :   0.1073 B( 11-P , 12-S ) :   1.6507 B( 11-P , 13-O ) :   1.1525
B( 11-P , 16-O ) :   1.0629 B( 13-O , 14-C ) :   0.8977 B( 14-C , 15-C ) :   1.1693
B( 14-C , 31-H ) :   0.9331 B( 14-C , 32-H ) :   0.9186 B( 15-C , 33-H ) :   0.9368
B( 15-C , 34-H ) :   0.9264 B( 15-C , 35-H ) :   0.9445 B( 16-O , 17-C ) :   0.8897
B( 17-C , 18-C ) :   1.1561 B( 17-C , 36-H ) :   0.9037 B( 17-C , 37-H ) :   0.9233
B( 18-C , 38-H ) :   0.9484 B( 18-C , 39-H ) :   0.9419 B( 18-C , 40-H ) :   0.9510

Dispersion correction           -0.066720191
FINAL SINGLE POINT ENERGY     -2929.522850342404

DIPOLE MOMENT
-------------

Method             : SCF
Type of density    : Electron Density
Multiplicity       :   1
Irrep              :   0
Energy             : -2929.6425823605013647 Eh
Relativity type    :
Basis              : AO
                                X                 Y                 Z
Electronic contribution:     -4.586732254       8.545981355     -23.569203395
Nuclear contribution   :      5.193571388      -9.227236453      25.457932191
                        -----------------------------------------
Total Dipole Moment    :      0.606839134      -0.681255097       1.888728797
                        -----------------------------------------
Magnitude (a.u.)       :      2.097536343
Magnitude (Debye)      :      5.331513681

Rotational constants in cm-1:             0.012000             0.005211             0.005040
Rotational constants in MHz :           359.749828           156.235934           151.094955

                             ****ORCA TERMINATED NORMALLY****
TOTAL RUN TIME: 0 days 0 hours 0 minutes 21 seconds 616 msec
