                         Program Version 6.0.0  -   RELEASE  -
|  1> ! pbe def2-sv(p) def2/J RI DEFGRID1 loosescf d4 GCP(DFT/SV(P)) printgap
|  2> %output
|  3>     printlevel normal
|  4> end
|  5> * xyz 0 1
|  6> C 2.4656173507 -0.4499083156 -3.0346753756
|  7> C 3.2726631378 0.2346623145 -1.9500056756
|  8> O 2.4151255526 0.8305553139 -0.9466225559
|  9> P 1.948063208 0.098403081 0.3787847487
| 10> S 0.9697828984 1.3302321207 1.5365488058
| 11> O 3.2917186063 -0.4932439368 1.0306825957
| 12> C 4.2307485195 0.3670784367 1.7090336721
| 13> C 4.0571939641 0.2584875364 3.2112461173
| 14> S 1.0935533087 -1.7694458416 -0.091693401
| 15> C -0.2476655947 -1.7982027454 1.1404519324
| 16> S -1.901200086 -1.8856591455 0.397309685
| 17> P -2.0912913878 0.0552579826 -0.3839886563
| 18> S -0.7461718701 0.7933289928 -1.6182510309
| 19> O -2.317290399 0.8452289373 0.9681849027
| 20> C -2.4389377817 2.2840492924 0.9989469835
| 21> C -2.3446247829 2.723846939 2.4441896362
| 22> O -3.5530521143 0.0592052021 -1.0095505549
| 23> C -3.802988195 -0.2782597935 -2.3857591853
| 24> C -3.4937847786 -1.732513811 -2.675183515
| 25> H 1.6864762157 0.2199217775 -3.3910550324
| 26> H 3.1246369753 -0.7088788608 -3.8571360487
| 27> H 1.9953174864 -1.3540634711 -2.6552273542
| 28> H 3.8280671181 1.0847650651 -2.3504794162
| 29> H 3.9572331147 -0.4652009775 -1.4628353726
| 30> H 5.2155934509 0.013768559 1.3971150265
| 31> H 4.087748227 1.39898206 1.3712307663
| 32> H 4.1466625306 -0.7792099706 3.5194402424
| 33> H 4.8218506396 0.8502115495 3.7041325588
| 34> H 3.0770652959 0.630118449 3.5022804479
| 35> H -0.1741480917 -0.9050572591 1.7658634484
| 36> H -0.1439403359 -2.707135949 1.7267724316
| 37> H -1.63058211 2.714735278 0.3979096364
| 38> H -3.4006420935 2.551552194 0.5542117703
| 39> H -2.4847711649 3.7982330867 2.4991806721
| 40> H -3.1083480484 2.224807388 3.0330665362
| 41> H -1.3646600877 2.4693660356 2.8410616671
| 42> H -4.8612039069 -0.0521547188 -2.5221300012
| 43> H -3.1946353142 0.3779495688 -3.0164610563
| 44> H -3.7952323866 -1.9701745939 -3.6902124006
| 45> H -2.4233489709 -1.9093047199 -2.5731841839
| 46> H -4.0222654027 -2.3774932319 -1.9777496142
| 47> *
| 48>
| 49>                          ****END OF INPUT****

CARTESIAN COORDINATES (ANGSTROEM)
---------------------------------
  C      2.465617   -0.449908   -3.034675
  C      3.272663    0.234662   -1.950006
  O      2.415126    0.830555   -0.946623
  P      1.948063    0.098403    0.378785
  S      0.969783    1.330232    1.536549
  O      3.291719   -0.493244    1.030683
  C      4.230749    0.367078    1.709034
  C      4.057194    0.258488    3.211246
  S      1.093553   -1.769446   -0.091693
  C     -0.247666   -1.798203    1.140452
  S     -1.901200   -1.885659    0.397310
  P     -2.091291    0.055258   -0.383989
  S     -0.746172    0.793329   -1.618251
  O     -2.317290    0.845229    0.968185
  C     -2.438938    2.284049    0.998947
  C     -2.344625    2.723847    2.444190
  O     -3.553052    0.059205   -1.009551
  C     -3.802988   -0.278260   -2.385759
  C     -3.493785   -1.732514   -2.675184
  H      1.686476    0.219922   -3.391055
  H      3.124637   -0.708879   -3.857136
  H      1.995317   -1.354063   -2.655227
  H      3.828067    1.084765   -2.350479
  H      3.957233   -0.465201   -1.462835
  H      5.215593    0.013769    1.397115
  H      4.087748    1.398982    1.371231
  H      4.146663   -0.779210    3.519440
  H      4.821851    0.850212    3.704133
  H      3.077065    0.630118    3.502280
  H     -0.174148   -0.905057    1.765863
  H     -0.143940   -2.707136    1.726772
  H     -1.630582    2.714735    0.397910
  H     -3.400642    2.551552    0.554212
  H     -2.484771    3.798233    2.499181
  H     -3.108348    2.224807    3.033067
  H     -1.364660    2.469366    2.841062
  H     -4.861204   -0.052155   -2.522130
  H     -3.194635    0.377950   -3.016461
  H     -3.795232   -1.970175   -3.690212
  H     -2.423349   -1.909305   -2.573184
  H     -4.022265   -2.377493   -1.977750

 Total Charge           Charge          ....    0
 Multiplicity           Mult            ....    1
 Number of Electrons    NEL             ....  202
 Basis Dimension        Dim             ....  334

ORBITAL ENERGIES
----------------

  NO   OCC          E(Eh)            E(eV)
   0   2.0000     -88.039732     -2395.6829
   1   2.0000     -88.038706     -2395.6550
   2   2.0000     -87.983169     -2394.1437
   3   2.0000     -87.977732     -2393.9958
   4   2.0000     -76.422433     -2079.5601
   5   2.0000     -76.418308     -2079.4479
   6   2.0000     -18.790105      -511.3047
   7   2.0000     -18.785456      -511.1782
   8   2.0000     -18.782520      -511.0983
   9   2.0000     -18.779621      -511.0195
  10   2.0000      -9.955692      -270.9081
  11   2.0000      -9.955278      -270.8969
  12   2.0000      -9.949674      -270.7444
  13   2.0000      -9.947332      -270.6807
  14   2.0000      -9.939893      -270.4782
  15   2.0000      -9.881505      -268.8894
  16   2.0000      -9.880867      -268.8721
  17   2.0000      -9.878157      -268.7983
  18   2.0000      -9.875472      -268.7252
  19   2.0000      -7.685400      -209.1304
  20   2.0000      -7.684129      -209.0958
  21   2.0000      -7.628246      -207.5751
  22   2.0000      -7.622287      -207.4130
  23   2.0000      -6.420164      -174.7016
  24   2.0000      -6.416051      -174.5896
  25   2.0000      -5.713258      -155.4657
  26   2.0000      -5.712110      -155.4344
  27   2.0000      -5.709933      -155.3752
  28   2.0000      -5.708910      -155.3473
  29   2.0000      -5.702239      -155.1658
  30   2.0000      -5.700621      -155.1218
  31   2.0000      -5.657224      -153.9409
  32   2.0000      -5.651116      -153.7747
  33   2.0000      -5.649206      -153.7227
  34   2.0000      -5.647875      -153.6865
  35   2.0000      -5.642877      -153.5505
  36   2.0000      -5.642622      -153.5436
  37   2.0000      -4.643131      -126.3460
  38   2.0000      -4.641553      -126.3031
  39   2.0000      -4.640674      -126.2792
  40   2.0000      -4.638644      -126.2239
  41   2.0000      -4.637776      -126.2003
  42   2.0000      -4.636490      -126.1653
  43   2.0000      -0.980572       -26.6827
  44   2.0000      -0.978860       -26.6361
  45   2.0000      -0.937028       -25.4978
  46   2.0000      -0.936840       -25.4927
  47   2.0000      -0.760725       -20.7004
  48   2.0000      -0.718663       -19.5558
  49   2.0000      -0.704692       -19.1756
  50   2.0000      -0.688010       -18.7217
  51   2.0000      -0.681125       -18.5344
  52   2.0000      -0.669420       -18.2158
  53   2.0000      -0.648277       -17.6405
  54   2.0000      -0.631390       -17.1810
  55   2.0000      -0.593893       -16.1607
  56   2.0000      -0.581231       -15.8161
  57   2.0000      -0.573922       -15.6172
  58   2.0000      -0.563257       -15.3270
  59   2.0000      -0.552491       -15.0340
  60   2.0000      -0.504950       -13.7404
  61   2.0000      -0.495843       -13.4926
  62   2.0000      -0.470821       -12.8117
  63   2.0000      -0.466530       -12.6949
  64   2.0000      -0.450803       -12.2670
  65   2.0000      -0.443317       -12.0633
  66   2.0000      -0.437854       -11.9146
  67   2.0000      -0.429576       -11.6893
  68   2.0000      -0.421737       -11.4760
  69   2.0000      -0.420486       -11.4420
  70   2.0000      -0.408872       -11.1260
  71   2.0000      -0.387488       -10.5441
  72   2.0000      -0.384747       -10.4695
  73   2.0000      -0.380919       -10.3653
  74   2.0000      -0.375380       -10.2146
  75   2.0000      -0.367471        -9.9994
  76   2.0000      -0.363014        -9.8781
  77   2.0000      -0.353447        -9.6178
  78   2.0000      -0.348909        -9.4943
  79   2.0000      -0.347095        -9.4449
  80   2.0000      -0.344802        -9.3825
  81   2.0000      -0.343134        -9.3371
  82   2.0000      -0.335195        -9.1211
  83   2.0000      -0.332842        -9.0571
  84   2.0000      -0.326668        -8.8891
  85   2.0000      -0.310314        -8.4441
  86   2.0000      -0.305868        -8.3231
  87   2.0000      -0.302101        -8.2206
  88   2.0000      -0.291450        -7.9307
  89   2.0000      -0.282255        -7.6806
  90   2.0000      -0.276597        -7.5266
  91   2.0000      -0.270653        -7.3648
  92   2.0000      -0.266227        -7.2444
  93   2.0000      -0.264158        -7.1881
  94   2.0000      -0.254930        -6.9370
  95   2.0000      -0.235606        -6.4112
  96   2.0000      -0.218446        -5.9442
  97   2.0000      -0.206965        -5.6318
  98   2.0000      -0.201213        -5.4753
  99   2.0000      -0.188316        -5.1243
 100   2.0000      -0.181109        -4.9282
 101   0.0000      -0.039997        -1.0884
 102   0.0000      -0.032081        -0.8730
 103   0.0000      -0.008942        -0.2433
 104   0.0000       0.002889         0.0786
 105   0.0000       0.022816         0.6208

MULLIKEN ATOMIC CHARGES
-----------------------
   0 C :   -0.300053
   1 C :   -0.031085
   2 O :   -0.359747
   3 P :    0.632643
   4 S :   -0.313353
   5 O :   -0.386929
   6 C :   -0.015019
   7 C :   -0.282236
   8 S :   -0.087628
   9 C :   -0.348386
  10 S :   -0.085980
  11 P :    0.616148
  12 S :   -0.326402
  13 O :   -0.368737
  14 C :   -0.003196
  15 C :   -0.286292
  16 O :   -0.377888
  17 C :   -0.001208
  18 C :   -0.322752
  19 H :    0.136694
  20 H :    0.107123
  21 H :    0.131948
  22 H :    0.109601
  23 H :    0.104552
  24 H :    0.100117
  25 H :    0.104459
  26 H :    0.110873
  27 H :    0.104864
  28 H :    0.122723
  29 H :    0.198226
  30 H :    0.184257
  31 H :    0.114567
  32 H :    0.097579
  33 H :    0.106117
  34 H :    0.111698
  35 H :    0.129889
  36 H :    0.102922
  37 H :    0.109591
  38 H :    0.112395
  39 H :    0.129165
  40 H :    0.118738
Sum of atomic charges:    0.0000000

LOEWDIN ATOMIC CHARGES
----------------------
   0 C :   -0.363480
   1 C :   -0.115626
   2 O :   -0.235235
   3 P :    0.575165
   4 S :   -0.291480
   5 O :   -0.264523
   6 C :   -0.120020
   7 C :   -0.360724
   8 S :    0.087991
   9 C :   -0.477019
  10 S :    0.090281
  11 P :    0.566202
  12 S :   -0.312881
  13 O :   -0.241529
  14 C :   -0.118293
  15 C :   -0.352178
  16 O :   -0.247481
  17 C :   -0.121061
  18 C :   -0.371751
  19 H :    0.131527
  20 H :    0.128370
  21 H :    0.119951
  22 H :    0.121270
  23 H :    0.108201
  24 H :    0.114017
  25 H :    0.108640
  26 H :    0.124836
  27 H :    0.127227
  28 H :    0.123743
  29 H :    0.125280
  30 H :    0.138717
  31 H :    0.110777
  32 H :    0.109242
  33 H :    0.128577
  34 H :    0.124986
  35 H :    0.124743
  36 H :    0.117620
  37 H :    0.109313
  38 H :    0.130844
  39 H :    0.121947
  40 H :    0.123815

  Mayer bond orders larger than 0.100000
B(  0-C ,  1-C ) :   1.1717 B(  0-C , 19-H ) :   0.9395 B(  0-C , 20-H ) :   0.9374
B(  0-C , 21-H ) :   0.9354 B(  1-C ,  2-O ) :   0.9079 B(  1-C , 22-H ) :   0.9343
B(  1-C , 23-H ) :   0.9180 B(  2-O ,  3-P ) :   1.1202 B(  3-P ,  4-S ) :   1.6005
B(  3-P ,  5-O ) :   1.0702 B(  3-P ,  8-S ) :   0.9590 B(  4-S ,  8-S ) :   0.1110
B(  4-S , 29-H ) :   0.1043 B(  5-O ,  6-C ) :   0.9019 B(  6-C ,  7-C ) :   1.1718
B(  6-C , 24-H ) :   0.9334 B(  6-C , 25-H ) :   0.9130 B(  7-C , 26-H ) :   0.9476
B(  7-C , 27-H ) :   0.9408 B(  7-C , 28-H ) :   0.9352 B(  8-S ,  9-C ) :   1.0020
B(  9-C , 10-S ) :   0.9956 B(  9-C , 29-H ) :   0.8526 B(  9-C , 30-H ) :   0.9116
B( 10-S , 11-P ) :   0.9678 B( 10-S , 12-S ) :   0.1207 B( 11-P , 12-S ) :   1.6184
B( 11-P , 13-O ) :   1.1309 B( 11-P , 16-O ) :   1.0991 B( 13-O , 14-C ) :   0.8929
B( 14-C , 15-C ) :   1.1650 B( 14-C , 31-H ) :   0.9100 B( 14-C , 32-H ) :   0.9303
B( 15-C , 33-H ) :   0.9415 B( 15-C , 34-H ) :   0.9491 B( 15-C , 35-H ) :   0.9456
B( 16-O , 17-C ) :   0.9101 B( 17-C , 18-C ) :   1.1647 B( 17-C , 36-H ) :   0.9331
B( 17-C , 37-H ) :   0.9128 B( 18-C , 38-H ) :   0.9380 B( 18-C , 39-H ) :   0.9327
B( 18-C , 40-H ) :   0.9442

Dispersion correction           -0.067066163
FINAL SINGLE POINT ENERGY     -2929.513777392886

DIPOLE MOMENT
-------------

Method             : SCF
Type of density    : Electron Density
Multiplicity       :   1
Irrep              :   0
Energy             : -2929.6309333315193726 Eh
Relativity type    :
Basis              : AO
                                X                 Y                 Z
Electronic contribution:     -4.643057134      -4.977533347       0.809108814
Nuclear contribution   :      5.149363787       4.715486198      -1.112187844
                        -----------------------------------------
Total Dipole Moment    :      0.506306653      -0.262047148      -0.303079030
                        -----------------------------------------
Magnitude (a.u.)       :      0.645656281
Magnitude (Debye)      :      1.641127844

Rotational constants in cm-1:             0.011436             0.005747             0.004948
Rotational constants in MHz :           342.838600           172.279319           148.325697

                             ****ORCA TERMINATED NORMALLY****
TOTAL RUN TIME: 0 days 0 hours 0 minutes 21 seconds 244 msec
