                         Program Version 6.0.0  -   RELEASE  -
|  1> ! r2scan-3c def2/J RI DEFGRID2 scfconv6 printgap
|  2> %output
|  3>     printlevel normal
|  4> end
|  5> * xyz 0 1
|  6> C -1.4455893365 0.0144150951 -0.0005317312
|  7> C 0.0514394913 -0.0877684718 2.3685e-06
|  8> O 0.6598248061 -1.1344064111 0.0004954347
|  9> O 0.7200028488 1.0653359371 1.34693e-05
| 10> H -1.7783473965 0.5529471549 -0.884785304
| 11> H -1.8748334624 -0.9825551219 -0.0025971296
| 12> H -1.7788519232 0.5492406658 0.8858016089
| 13> H 0.142380812 1.8508348264 -0.0001892455
| 14> *
| 15>
| 16>                          ****END OF INPUT****

CARTESIAN COORDINATES (ANGSTROEM)
---------------------------------
  C     -1.445589    0.014415   -0.000532
  C      0.051439   -0.087768    0.000002
  O      0.659825   -1.134406    0.000495
  O      0.720003    1.065336    0.000013
  H     -1.778347    0.552947   -0.884785
  H     -1.874833   -0.982555   -0.002597
  H     -1.778852    0.549241    0.885802
  H      0.142381    1.850835   -0.000189

 Total Charge           Charge          ....    0
 Multiplicity           Mult            ....    1
 Number of Electrons    NEL             ....   32
 Basis Dimension        Dim             ....  106

ORBITAL ENERGIES
----------------

  NO   OCC          E(Eh)            E(eV)
   0   2.0000     -19.009365      -517.2711
   1   2.0000     -18.932663      -515.1840
   2   2.0000     -10.167161      -276.6625
   3   2.0000     -10.055329      -273.6194
   4   2.0000      -1.077266       -29.3139
   5   2.0000      -0.983757       -26.7694
   6   2.0000      -0.730301       -19.8725
   7   2.0000      -0.600844       -16.3498
   8   2.0000      -0.488819       -13.3014
   9   2.0000      -0.449028       -12.2187
  10   2.0000      -0.435260       -11.8440
  11   2.0000      -0.387262       -10.5379
  12   2.0000      -0.374370       -10.1871
  13   2.0000      -0.347444        -9.4544
  14   2.0000      -0.293807        -7.9949
  15   2.0000      -0.241298        -6.5661
  16   0.0000      -0.022249        -0.6054
  17   0.0000       0.035967         0.9787
  18   0.0000       0.100764         2.7419
  19   0.0000       0.141124         3.8402
  20   0.0000       0.156019         4.2455

MULLIKEN ATOMIC CHARGES
-----------------------
   0 C :   -0.519509
   1 C :    0.385725
   2 O :   -0.377568
   3 O :   -0.338150
   4 H :    0.166637
   5 H :    0.186456
   6 H :    0.166881
   7 H :    0.329529
Sum of atomic charges:   -0.0000000

LOEWDIN ATOMIC CHARGES
----------------------
   0 C :   -0.363682
   1 C :    0.334427
   2 O :   -0.390226
   3 O :   -0.402976
   4 H :    0.172933
   5 H :    0.182034
   6 H :    0.173051
   7 H :    0.294439

  Mayer bond orders larger than 0.100000
B(  0-C ,  1-C ) :   0.9544 B(  0-C ,  4-H ) :   0.9526 B(  0-C ,  5-H ) :   0.9620
B(  0-C ,  6-H ) :   0.9524 B(  1-C ,  2-O ) :   1.9864 B(  1-C ,  3-O ) :   1.0612
B(  3-O ,  7-H ) :   0.8701

Dispersion correction           -0.001226276
FINAL SINGLE POINT ENERGY      -229.042948658016

DIPOLE MOMENT
-------------

Method             : SCF
Type of density    : Electron Density
Multiplicity       :   1
Irrep              :   0
Energy             :  -229.0467264540200176 Eh
Relativity type    :
Basis              : AO
                                X                 Y                 Z
Electronic contribution:      3.674286622      -0.639995051       0.001161989
Nuclear contribution   :     -4.942141927       1.847616763      -0.001653083
                        -----------------------------------------
Total Dipole Moment    :     -1.267855305       1.207621711      -0.000491094
                        -----------------------------------------
Magnitude (a.u.)       :      1.750944749
Magnitude (Debye)      :      4.450547860

Rotational constants in cm-1:             0.370847             0.324717             0.178933
Rotational constants in MHz :         11117.706899          9734.760119          5364.277162

                             ****ORCA TERMINATED NORMALLY****
TOTAL RUN TIME: 0 days 0 hours 0 minutes 19 seconds 551 msec
