                         Program Version 6.0.0  -   RELEASE  -
|  1> ! pbe def2-sv(p) def2/J RI DEFGRID1 loosescf d4 GCP(DFT/SV(P)) printgap
|  2> %output
|  3>     printlevel normal
|  4> end
|  5> * xyz 0 1
|  6> C 5.5573576083 -0.4192199006 -1.7329120718
|  7> C 4.4584577355 -1.2537633691 -1.1062357325
|  8> O 3.1818136157 -0.58040922 -1.2102993006
|  9> P 2.6192344232 0.3168598688 -0.0267253029
| 10> S 3.7726160465 1.7333069767 0.6802018033
| 11> O 2.2457442452 -0.8068900176 1.0471897616
| 12> C 2.1288368694 -0.515252864 2.4483575184
| 13> C 0.9226355929 0.3489601519 2.7524394123
| 14> S 0.8319591267 0.9349650137 -0.9541548875
| 15> C 0.164398404 -0.6914415754 -1.4364903861
| 16> S -0.7261738738 -1.5316639803 -0.1069171894
| 17> P -2.3812041668 -0.2177377515 -0.0667732924
| 18> S -2.9732942051 0.4500597689 -1.8190145975
| 19> O -1.8963606891 0.8860136577 0.9569917542
| 20> C -2.4058667075 2.2327413283 0.929850202
| 21> C -3.846357672 2.2820779204 1.3927953661
| 22> O -3.4373222959 -1.0055250547 0.8201890782
| 23> C -4.1029613866 -2.2037306567 0.3733107701
| 24> C -5.3948129254 -1.8776974921 -0.3512677122
| 25> H 5.3088553004 -0.1896288111 -2.765365058
| 26> H 5.6797707025 0.5141410663 -1.1874954244
| 27> H 6.4900200346 -0.9733991136 -1.701198215
| 28> H 4.6705852899 -1.4618350705 -0.054455813
| 29> H 4.317292527 -2.1934384908 -1.6434182709
| 30> H 2.051915696 -1.4971606972 2.9166761514
| 31> H 3.0453348235 -0.0114152278 2.7726655766
| 32> H 0.0071550048 -0.1323361667 2.4171771848
| 33> H 0.86444166 0.52361471 3.8218871522
| 34> H 1.0220471312 1.3080333536 2.2426361263
| 35> H 0.9771522227 -1.3391309649 -1.7491537599
| 36> H -0.5272344078 -0.4926336762 -2.2562095065
| 37> H -1.7412787145 2.7816294218 1.5980786434
| 38> H -2.3081174765 2.6229211045 -0.0885347017
| 39> H -3.9396398067 1.8305175076 2.3767837782
| 40> H -4.1798918883 3.3141855389 1.4322753915
| 41> H -4.473767814 1.7321288255 0.6919185931
| 42> H -3.4249850265 -2.7745569337 -0.2676342083
| 43> H -4.2934493297 -2.7636205476 1.2908094792
| 44> H -5.189409828 -1.3039655292 -1.2522996726
| 45> H -5.8931214952 -2.801490741 -0.6268792621
| 46> H -6.0486691038 -1.2958927474 0.2924789983
| 47> *
| 48>
| 49>                          ****END OF INPUT****

CARTESIAN COORDINATES (ANGSTROEM)
---------------------------------
  C      5.557358   -0.419220   -1.732912
  C      4.458458   -1.253763   -1.106236
  O      3.181814   -0.580409   -1.210299
  P      2.619234    0.316860   -0.026725
  S      3.772616    1.733307    0.680202
  O      2.245744   -0.806890    1.047190
  C      2.128837   -0.515253    2.448358
  C      0.922636    0.348960    2.752439
  S      0.831959    0.934965   -0.954155
  C      0.164398   -0.691442   -1.436490
  S     -0.726174   -1.531664   -0.106917
  P     -2.381204   -0.217738   -0.066773
  S     -2.973294    0.450060   -1.819015
  O     -1.896361    0.886014    0.956992
  C     -2.405867    2.232741    0.929850
  C     -3.846358    2.282078    1.392795
  O     -3.437322   -1.005525    0.820189
  C     -4.102961   -2.203731    0.373311
  C     -5.394813   -1.877697   -0.351268
  H      5.308855   -0.189629   -2.765365
  H      5.679771    0.514141   -1.187495
  H      6.490020   -0.973399   -1.701198
  H      4.670585   -1.461835   -0.054456
  H      4.317293   -2.193438   -1.643418
  H      2.051916   -1.497161    2.916676
  H      3.045335   -0.011415    2.772666
  H      0.007155   -0.132336    2.417177
  H      0.864442    0.523615    3.821887
  H      1.022047    1.308033    2.242636
  H      0.977152   -1.339131   -1.749154
  H     -0.527234   -0.492634   -2.256210
  H     -1.741279    2.781629    1.598079
  H     -2.308117    2.622921   -0.088535
  H     -3.939640    1.830518    2.376784
  H     -4.179892    3.314186    1.432275
  H     -4.473768    1.732129    0.691919
  H     -3.424985   -2.774557   -0.267634
  H     -4.293449   -2.763621    1.290809
  H     -5.189410   -1.303966   -1.252300
  H     -5.893121   -2.801491   -0.626879
  H     -6.048669   -1.295893    0.292479

 Total Charge           Charge          ....    0
 Multiplicity           Mult            ....    1
 Number of Electrons    NEL             ....  202
 Basis Dimension        Dim             ....  334

ORBITAL ENERGIES
----------------

  NO   OCC          E(Eh)            E(eV)
   0   2.0000     -88.046327     -2395.8624
   1   2.0000     -88.041203     -2395.7229
   2   2.0000     -87.994508     -2394.4523
   3   2.0000     -87.986124     -2394.2242
   4   2.0000     -76.431984     -2079.8200
   5   2.0000     -76.425138     -2079.6337
   6   2.0000     -18.799932      -511.5722
   7   2.0000     -18.794318      -511.4194
   8   2.0000     -18.792782      -511.3776
   9   2.0000     -18.788946      -511.2732
  10   2.0000      -9.960732      -271.0453
  11   2.0000      -9.956309      -270.9249
  12   2.0000      -9.956094      -270.9191
  13   2.0000      -9.951778      -270.8016
  14   2.0000      -9.945684      -270.6358
  15   2.0000      -9.885718      -269.0040
  16   2.0000      -9.884587      -268.9733
  17   2.0000      -9.881023      -268.8763
  18   2.0000      -9.873079      -268.6601
  19   2.0000      -7.691651      -209.3005
  20   2.0000      -7.686479      -209.1597
  21   2.0000      -7.639300      -207.8759
  22   2.0000      -7.631275      -207.6575
  23   2.0000      -6.429557      -174.9571
  24   2.0000      -6.422867      -174.7751
  25   2.0000      -5.719388      -155.6325
  26   2.0000      -5.716164      -155.5447
  27   2.0000      -5.714754      -155.5064
  28   2.0000      -5.710808      -155.3990
  29   2.0000      -5.708671      -155.3408
  30   2.0000      -5.703206      -155.1921
  31   2.0000      -5.668062      -154.2358
  32   2.0000      -5.660229      -154.0227
  33   2.0000      -5.659924      -154.0144
  34   2.0000      -5.659651      -154.0069
  35   2.0000      -5.652038      -153.7998
  36   2.0000      -5.651254      -153.7784
  37   2.0000      -4.651976      -126.5867
  38   2.0000      -4.651339      -126.5694
  39   2.0000      -4.650131      -126.5365
  40   2.0000      -4.645418      -126.4083
  41   2.0000      -4.644757      -126.3903
  42   2.0000      -4.643257      -126.3495
  43   2.0000      -0.992772       -27.0147
  44   2.0000      -0.985723       -26.8229
  45   2.0000      -0.951336       -25.8872
  46   2.0000      -0.942653       -25.6509
  47   2.0000      -0.765994       -20.8437
  48   2.0000      -0.724226       -19.7072
  49   2.0000      -0.708542       -19.2804
  50   2.0000      -0.689423       -18.7602
  51   2.0000      -0.681554       -18.5460
  52   2.0000      -0.675241       -18.3743
  53   2.0000      -0.656616       -17.8674
  54   2.0000      -0.640903       -17.4398
  55   2.0000      -0.601861       -16.3775
  56   2.0000      -0.589464       -16.0401
  57   2.0000      -0.573945       -15.6178
  58   2.0000      -0.572442       -15.5769
  59   2.0000      -0.563236       -15.3264
  60   2.0000      -0.504101       -13.7173
  61   2.0000      -0.500120       -13.6090
  62   2.0000      -0.479420       -13.0457
  63   2.0000      -0.465493       -12.6667
  64   2.0000      -0.462542       -12.5864
  65   2.0000      -0.444937       -12.1073
  66   2.0000      -0.443494       -12.0681
  67   2.0000      -0.434791       -11.8313
  68   2.0000      -0.429022       -11.6743
  69   2.0000      -0.414330       -11.2745
  70   2.0000      -0.408881       -11.1262
  71   2.0000      -0.400411       -10.8957
  72   2.0000      -0.394297       -10.7294
  73   2.0000      -0.392697       -10.6858
  74   2.0000      -0.383839       -10.4448
  75   2.0000      -0.375377       -10.2145
  76   2.0000      -0.367889       -10.0108
  77   2.0000      -0.355931        -9.6854
  78   2.0000      -0.352254        -9.5853
  79   2.0000      -0.350629        -9.5411
  80   2.0000      -0.350205        -9.5296
  81   2.0000      -0.341111        -9.2821
  82   2.0000      -0.338144        -9.2014
  83   2.0000      -0.337087        -9.1726
  84   2.0000      -0.331185        -9.0120
  85   2.0000      -0.321158        -8.7392
  86   2.0000      -0.310718        -8.4551
  87   2.0000      -0.302469        -8.2306
  88   2.0000      -0.294463        -8.0127
  89   2.0000      -0.291407        -7.9296
  90   2.0000      -0.288572        -7.8524
  91   2.0000      -0.278882        -7.5888
  92   2.0000      -0.276023        -7.5110
  93   2.0000      -0.271072        -7.3763
  94   2.0000      -0.257236        -6.9997
  95   2.0000      -0.233919        -6.3653
  96   2.0000      -0.219496        -5.9728
  97   2.0000      -0.212091        -5.7713
  98   2.0000      -0.208019        -5.6605
  99   2.0000      -0.206779        -5.6267
 100   2.0000      -0.200622        -5.4592
 101   0.0000      -0.042610        -1.1595
 102   0.0000      -0.022102        -0.6014
 103   0.0000      -0.014297        -0.3890
 104   0.0000       0.002215         0.0603
 105   0.0000       0.008623         0.2346

MULLIKEN ATOMIC CHARGES
-----------------------
   0 C :   -0.289225
   1 C :   -0.005826
   2 O :   -0.382260
   3 P :    0.608163
   4 S :   -0.321349
   5 O :   -0.381549
   6 C :   -0.000998
   7 C :   -0.325888
   8 S :   -0.055755
   9 C :   -0.375223
  10 S :   -0.072162
  11 P :    0.611928
  12 S :   -0.330640
  13 O :   -0.353493
  14 C :   -0.005991
  15 C :   -0.307659
  16 O :   -0.370686
  17 C :   -0.013307
  18 C :   -0.297604
  19 H :    0.115066
  20 H :    0.130709
  21 H :    0.107148
  22 H :    0.102978
  23 H :    0.104679
  24 H :    0.099721
  25 H :    0.107371
  26 H :    0.136135
  27 H :    0.104161
  28 H :    0.119866
  29 H :    0.192149
  30 H :    0.198175
  31 H :    0.111181
  32 H :    0.116154
  33 H :    0.116238
  34 H :    0.113836
  35 H :    0.123202
  36 H :    0.103748
  37 H :    0.109913
  38 H :    0.131921
  39 H :    0.109528
  40 H :    0.115648
Sum of atomic charges:    0.0000000

LOEWDIN ATOMIC CHARGES
----------------------
   0 C :   -0.361575
   1 C :   -0.111753
   2 O :   -0.250277
   3 P :    0.566498
   4 S :   -0.318520
   5 O :   -0.250539
   6 C :   -0.122160
   7 C :   -0.372549
   8 S :    0.099417
   9 C :   -0.482975
  10 S :    0.095242
  11 P :    0.570711
  12 S :   -0.313892
  13 O :   -0.228338
  14 C :   -0.117011
  15 C :   -0.364616
  16 O :   -0.243111
  17 C :   -0.115538
  18 C :   -0.364391
  19 H :    0.127051
  20 H :    0.126319
  21 H :    0.128426
  22 H :    0.110509
  23 H :    0.117416
  24 H :    0.116717
  25 H :    0.106745
  26 H :    0.119190
  27 H :    0.127377
  28 H :    0.119001
  29 H :    0.135809
  30 H :    0.130731
  31 H :    0.120990
  32 H :    0.111566
  33 H :    0.126197
  34 H :    0.131331
  35 H :    0.121910
  36 H :    0.106996
  37 H :    0.120262
  38 H :    0.124807
  39 H :    0.129809
  40 H :    0.126219

  Mayer bond orders larger than 0.100000
B(  0-C ,  1-C ) :   1.1706 B(  0-C , 19-H ) :   0.9468 B(  0-C , 20-H ) :   0.9332
B(  0-C , 21-H ) :   0.9398 B(  1-C ,  2-O ) :   0.8938 B(  1-C , 22-H ) :   0.9166
B(  1-C , 23-H ) :   0.9358 B(  2-O ,  3-P ) :   1.0951 B(  3-P ,  4-S ) :   1.6396
B(  3-P ,  5-O ) :   1.0822 B(  3-P ,  8-S ) :   0.9861 B(  5-O ,  6-C ) :   0.9049
B(  6-C ,  7-C ) :   1.1642 B(  6-C , 24-H ) :   0.9322 B(  6-C , 25-H ) :   0.9145
B(  7-C , 26-H ) :   0.9315 B(  7-C , 27-H ) :   0.9380 B(  7-C , 28-H ) :   0.9343
B(  8-S ,  9-C ) :   0.9831 B(  9-C , 10-S ) :   1.0036 B(  9-C , 29-H ) :   0.8902
B(  9-C , 30-H ) :   0.8711 B( 10-S , 11-P ) :   0.9654 B( 10-S , 12-S ) :   0.1112
B( 11-P , 12-S ) :   1.5943 B( 11-P , 13-O ) :   1.1302 B( 11-P , 16-O ) :   1.1146
B( 13-O , 14-C ) :   0.9000 B( 14-C , 15-C ) :   1.1633 B( 14-C , 31-H ) :   0.9323
B( 14-C , 32-H ) :   0.9153 B( 15-C , 33-H ) :   0.9464 B( 15-C , 34-H ) :   0.9393
B( 15-C , 35-H ) :   0.9349 B( 16-O , 17-C ) :   0.9051 B( 17-C , 18-C ) :   1.1672
B( 17-C , 36-H ) :   0.9166 B( 17-C , 37-H ) :   0.9357 B( 18-C , 38-H ) :   0.9313
B( 18-C , 39-H ) :   0.9390 B( 18-C , 40-H ) :   0.9467

Dispersion correction           -0.064523623
FINAL SINGLE POINT ENERGY     -2929.524182399075

DIPOLE MOMENT
-------------

Method             : SCF
Type of density    : Electron Density
Multiplicity       :   1
Irrep              :   0
Energy             : -2929.6452570239512170 Eh
Relativity type    :
Basis              : AO
                                X                 Y                 Z
Electronic contribution:      6.825809170       3.155992757      -7.321347447
Nuclear contribution   :     -7.353519243      -4.475529298       7.921123160
                        -----------------------------------------
Total Dipole Moment    :     -0.527710073      -1.319536541       0.599775713
                        -----------------------------------------
Magnitude (a.u.)       :      1.542525692
Magnitude (Debye)      :      3.920788718

Rotational constants in cm-1:             0.014758             0.004261             0.004037
Rotational constants in MHz :           442.420942           127.729431           121.034573

                             ****ORCA TERMINATED NORMALLY****
TOTAL RUN TIME: 0 days 0 hours 0 minutes 21 seconds 21 msec
