                         Program Version 6.0.1  -  RELEASE   -
|  1> ! pbe def2-sv(p) def2/J RI DEFGRID1 loosescf d4 GCP(DFT/SV(P)) printgap
|  2> %output
|  3>     printlevel normal
|  4> end
|  5> * xyz 0 1
|  6> C 2.2409121511 -2.8019697257 0.5649227642
|  7> C 3.2808842072 -1.9285770497 -0.1194282005
|  8> O 2.6629172044 -0.7523232157 -0.6761459174
|  9> C 2.1018798518 -0.8455994043 -1.873239431
| 10> O 2.1658165069 -1.821180823 -2.5827768042
| 11> C 1.3664610576 0.4318353884 -2.2335752032
| 12> C 0.2862744797 0.7194057695 -1.1919553401
| 13> H -0.2536478331 1.6356960245 -1.4476539636
| 14> C 0.8730769335 0.8808760996 0.1996020578
| 15> O 0.5260405053 0.2017037214 1.1457034021
| 16> O 1.7507187538 1.8420179656 0.2483610635
| 17> C 2.3673368247 2.118197341 1.5234215036
| 18> C 3.4643128782 3.1389040754 1.3001141912
| 19> S -0.9184678142 -0.6543309336 -1.1359665024
| 20> P -2.0672093644 0.0103327647 0.5267622795
| 21> S -2.0363915033 1.9279406899 0.9181024911
| 22> O -3.5272285884 -0.5018466383 0.0902043971
| 23> C -4.2397767719 0.1134037951 -0.9864961847
| 24> O -1.8453182744 -0.9263470082 1.7776611676
| 25> C -1.9192699553 -2.3621919145 1.6886123688
| 26> H 1.6726525024 -2.2092371243 1.279578
| 27> H 1.5561880795 -3.2124355456 -0.1746597625
| 28> H 2.7340607343 -3.616745668 1.0839505728
| 29> H 3.7803021716 -2.4734650941 -0.9253063828
| 30> H 4.0117092661 -1.544383762 0.5923727198
| 31> H 0.9175709818 0.3065706135 -3.218064358
| 32> H 2.0706417106 1.2649902487 -2.2409495448
| 33> H 1.590645309 2.4912924393 2.1986009579
| 34> H 2.7545051084 1.1775907135 1.9259089819
| 35> H 4.2152501831 2.7390836492 0.6256484081
| 36> H 3.0466299372 4.0431040495 0.868313082
| 37> H 3.927682633 3.3780574023 2.2513096587
| 38> H -4.2328187076 1.1981593578 -0.8674962663
| 39> H -5.2550809071 -0.2692043119 -0.922722494
| 40> H -3.783778936 -0.1611702731 -1.9375815558
| 41> H -1.6122296641 -2.7218898254 2.6671246371
| 42> H -1.2402042325 -2.7242423461 0.9163063458
| 43> H -2.9396699625 -2.6662430143 1.4621029535
| 44> *
| 45>
| 46>                          ****END OF INPUT****

CARTESIAN COORDINATES (ANGSTROEM)
---------------------------------
  C      2.240912   -2.801970    0.564923
  C      3.280884   -1.928577   -0.119428
  O      2.662917   -0.752323   -0.676146
  C      2.101880   -0.845599   -1.873239
  O      2.165817   -1.821181   -2.582777
  C      1.366461    0.431835   -2.233575
  C      0.286274    0.719406   -1.191955
  H     -0.253648    1.635696   -1.447654
  C      0.873077    0.880876    0.199602
  O      0.526041    0.201704    1.145703
  O      1.750719    1.842018    0.248361
  C      2.367337    2.118197    1.523422
  C      3.464313    3.138904    1.300114
  S     -0.918468   -0.654331   -1.135967
  P     -2.067209    0.010333    0.526762
  S     -2.036392    1.927941    0.918102
  O     -3.527229   -0.501847    0.090204
  C     -4.239777    0.113404   -0.986496
  O     -1.845318   -0.926347    1.777661
  C     -1.919270   -2.362192    1.688612
  H      1.672653   -2.209237    1.279578
  H      1.556188   -3.212436   -0.174660
  H      2.734061   -3.616746    1.083951
  H      3.780302   -2.473465   -0.925306
  H      4.011709   -1.544384    0.592373
  H      0.917571    0.306571   -3.218064
  H      2.070642    1.264990   -2.240950
  H      1.590645    2.491292    2.198601
  H      2.754505    1.177591    1.925909
  H      4.215250    2.739084    0.625648
  H      3.046630    4.043104    0.868313
  H      3.927683    3.378057    2.251310
  H     -4.232819    1.198159   -0.867496
  H     -5.255081   -0.269204   -0.922722
  H     -3.783779   -0.161170   -1.937582
  H     -1.612230   -2.721890    2.667125
  H     -1.240204   -2.724242    0.916306
  H     -2.939670   -2.666243    1.462103

 Total Charge           Charge          ....    0
 Multiplicity           Mult            ....    1
 Number of Electrons    NEL             ....  174
 Basis Dimension        Dim             ....  316

ORBITAL ENERGIES
----------------

  NO   OCC          E(Eh)            E(eV)
   0   2.0000     -88.039541     -2395.6777
   1   2.0000     -87.976153     -2393.9528
   2   2.0000     -76.421884     -2079.5452
   3   2.0000     -18.812895      -511.9249
   4   2.0000     -18.809037      -511.8199
   5   2.0000     -18.785249      -511.1726
   6   2.0000     -18.783812      -511.1335
   7   2.0000     -18.743167      -510.0275
   8   2.0000     -18.741431      -509.9803
   9   2.0000     -10.018781      -272.6249
  10   2.0000     -10.016095      -272.5518
  11   2.0000      -9.952919      -270.8327
  12   2.0000      -9.951062      -270.7822
  13   2.0000      -9.950873      -270.7770
  14   2.0000      -9.944759      -270.6107
  15   2.0000      -9.937844      -270.4225
  16   2.0000      -9.920115      -269.9400
  17   2.0000      -9.893106      -269.2051
  18   2.0000      -9.883492      -268.9435
  19   2.0000      -7.684033      -209.0932
  20   2.0000      -7.621510      -207.3918
  21   2.0000      -6.418177      -174.6475
  22   2.0000      -5.711790      -155.4257
  23   2.0000      -5.708642      -155.3401
  24   2.0000      -5.701117      -155.1353
  25   2.0000      -5.650698      -153.7633
  26   2.0000      -5.642109      -153.5296
  27   2.0000      -5.641337      -153.5086
  28   2.0000      -4.640936      -126.2863
  29   2.0000      -4.640193      -126.2661
  30   2.0000      -4.638504      -126.2201
  31   2.0000      -1.023771       -27.8582
  32   2.0000      -1.014244       -27.5990
  33   2.0000      -0.979722       -26.6596
  34   2.0000      -0.934394       -25.4261
  35   2.0000      -0.923029       -25.1169
  36   2.0000      -0.920820       -25.0568
  37   2.0000      -0.770652       -20.9705
  38   2.0000      -0.713739       -19.4218
  39   2.0000      -0.711430       -19.3590
  40   2.0000      -0.690501       -18.7895
  41   2.0000      -0.658236       -17.9115
  42   2.0000      -0.630301       -17.1514
  43   2.0000      -0.620879       -16.8950
  44   2.0000      -0.615158       -16.7393
  45   2.0000      -0.596533       -16.2325
  46   2.0000      -0.564022       -15.3478
  47   2.0000      -0.517357       -14.0780
  48   2.0000      -0.506442       -13.7810
  49   2.0000      -0.503020       -13.6879
  50   2.0000      -0.481236       -13.0951
  51   2.0000      -0.468852       -12.7581
  52   2.0000      -0.467061       -12.7094
  53   2.0000      -0.453899       -12.3512
  54   2.0000      -0.440589       -11.9890
  55   2.0000      -0.429513       -11.6876
  56   2.0000      -0.425360       -11.5746
  57   2.0000      -0.422569       -11.4987
  58   2.0000      -0.412574       -11.2267
  59   2.0000      -0.409607       -11.1460
  60   2.0000      -0.401233       -10.9181
  61   2.0000      -0.395573       -10.7641
  62   2.0000      -0.388199       -10.5634
  63   2.0000      -0.381491       -10.3809
  64   2.0000      -0.376918       -10.2565
  65   2.0000      -0.370707       -10.0875
  66   2.0000      -0.365666        -9.9503
  67   2.0000      -0.358849        -9.7648
  68   2.0000      -0.352007        -9.5786
  69   2.0000      -0.341266        -9.2863
  70   2.0000      -0.334920        -9.1136
  71   2.0000      -0.330390        -8.9904
  72   2.0000      -0.323183        -8.7943
  73   2.0000      -0.316979        -8.6254
  74   2.0000      -0.309486        -8.4215
  75   2.0000      -0.296883        -8.0786
  76   2.0000      -0.294058        -8.0017
  77   2.0000      -0.290797        -7.9130
  78   2.0000      -0.272138        -7.4052
  79   2.0000      -0.264685        -7.2024
  80   2.0000      -0.261177        -7.1070
  81   2.0000      -0.254560        -6.9269
  82   2.0000      -0.234528        -6.3818
  83   2.0000      -0.226555        -6.1649
  84   2.0000      -0.219254        -5.9662
  85   2.0000      -0.197633        -5.3779
  86   2.0000      -0.191425        -5.2089
  87   0.0000      -0.040209        -1.0941
  88   0.0000      -0.036223        -0.9857
  89   0.0000      -0.019736        -0.5370
  90   0.0000       0.004081         0.1111
  91   0.0000       0.024396         0.6638

MULLIKEN ATOMIC CHARGES
-----------------------
   0 C :   -0.330916
   1 C :   -0.008633
   2 O :   -0.243386
   3 C :    0.097574
   4 O :   -0.185112
   5 C :   -0.050724
   6 C :   -0.327327
   7 H :    0.153033
   8 C :    0.231069
   9 O :   -0.198921
  10 O :   -0.224754
  11 C :   -0.026571
  12 C :   -0.276166
  13 S :   -0.093943
  14 P :    0.623396
  15 S :   -0.329970
  16 O :   -0.394758
  17 C :   -0.099448
  18 O :   -0.351890
  19 C :   -0.108930
  20 H :    0.141442
  21 H :    0.129241
  22 H :    0.108913
  23 H :    0.109353
  24 H :    0.101272
  25 H :    0.121147
  26 H :    0.134164
  27 H :    0.119877
  28 H :    0.106707
  29 H :    0.114666
  30 H :    0.119669
  31 H :    0.113846
  32 H :    0.114903
  33 H :    0.122017
  34 H :    0.111157
  35 H :    0.130168
  36 H :    0.124500
  37 H :    0.123333
Sum of atomic charges:   -0.0000000

LOEWDIN ATOMIC CHARGES
----------------------
   0 C :   -0.363075
   1 C :   -0.108568
   2 O :   -0.056333
   3 C :    0.025899
   4 O :   -0.152456
   5 C :   -0.241684
   6 C :   -0.263506
   7 H :    0.142922
   8 C :    0.001033
   9 O :   -0.165044
  10 O :   -0.041564
  11 C :   -0.101761
  12 C :   -0.350844
  13 S :    0.095835
  14 P :    0.589146
  15 S :   -0.321189
  16 O :   -0.265989
  17 C :   -0.219660
  18 O :   -0.229336
  19 C :   -0.208042
  20 H :    0.131598
  21 H :    0.128687
  22 H :    0.128179
  23 H :    0.120278
  24 H :    0.116217
  25 H :    0.141886
  26 H :    0.149977
  27 H :    0.124542
  28 H :    0.116940
  29 H :    0.126129
  30 H :    0.128988
  31 H :    0.132338
  32 H :    0.109275
  33 H :    0.120754
  34 H :    0.106147
  35 H :    0.125918
  36 H :    0.110925
  37 H :    0.115436

  Mayer bond orders larger than 0.100000
B(  0-C ,  1-C ) :   1.1760 B(  0-C , 20-H ) :   0.9361 B(  0-C , 21-H ) :   0.9409
B(  0-C , 22-H ) :   0.9412 B(  1-C ,  2-O ) :   0.9069 B(  1-C , 23-H ) :   0.9153
B(  1-C , 24-H ) :   0.9363 B(  2-O ,  3-C ) :   1.1935 B(  3-C ,  4-O ) :   2.0756
B(  3-C ,  5-C ) :   0.9990 B(  5-C ,  6-C ) :   1.0559 B(  5-C , 25-H ) :   0.9051
B(  5-C , 26-H ) :   0.8829 B(  6-C ,  7-H ) :   0.8612 B(  6-C ,  8-C ) :   0.8749
B(  6-C , 13-S ) :   1.0357 B(  8-C ,  9-O ) :   1.9719 B(  8-C , 10-O ) :   1.2555
B( 10-O , 11-C ) :   0.8962 B( 11-C , 12-C ) :   1.1539 B( 11-C , 27-H ) :   0.9316
B( 11-C , 28-H ) :   0.9267 B( 12-C , 29-H ) :   0.9507 B( 12-C , 30-H ) :   0.9487
B( 12-C , 31-H ) :   0.9431 B( 13-S , 14-P ) :   0.9410 B( 13-S , 15-S ) :   0.1100
B( 14-P , 15-S ) :   1.6150 B( 14-P , 16-O ) :   1.0546 B( 14-P , 18-O ) :   1.1369
B( 16-O , 17-C ) :   0.9380 B( 17-C , 32-H ) :   0.9337 B( 17-C , 33-H ) :   0.9587
B( 17-C , 34-H ) :   0.9458 B( 18-O , 19-C ) :   0.9214 B( 19-C , 35-H ) :   0.9599
B( 19-C , 36-H ) :   0.9361 B( 19-C , 37-H ) :   0.9469

Dispersion correction           -0.053586179
FINAL SINGLE POINT ENERGY     -1979.016614735260

DIPOLE MOMENT
-------------

Method             : SCF
Type of density    : Electron Density
Multiplicity       :   1
Irrep              :   0
Energy             : -1979.1461105658117958 Eh
Relativity type    :
Basis              : AO
                                X                 Y                 Z
Electronic contribution:    -13.281108834       3.021282843      -3.368007643
Nuclear contribution   :     14.117352928      -3.231551205       3.416696249
                        -----------------------------------------
Total Dipole Moment    :      0.836244095      -0.210268362       0.048688606
                        -----------------------------------------
Magnitude (a.u.)       :      0.863647816
Magnitude (Debye)      :      2.195218292

Rotational constants in cm-1:             0.013039             0.007790             0.006506
Rotational constants in MHz :           390.906450           233.532462           195.052022

                             ****ORCA TERMINATED NORMALLY****
TOTAL RUN TIME: 0 days 0 hours 0 minutes 49 seconds 838 msec
