                         Program Version 6.0.0  -   RELEASE  -
|  1> ! pbe def2-sv(p) def2/J RI DEFGRID1 loosescf d4 GCP(DFT/SV(P)) printgap
|  2> %output
|  3>     printlevel normal
|  4> end
|  5> * xyz 0 1
|  6> C -2.5604943254 0.6238286285 0.0002853063
|  7> C -1.2263098195 -0.0573039535 -0.0001346328
|  8> C -1.1500408418 -1.4445895055 -0.0002288098
|  9> C 0.0749551954 -2.0833037468 -5.82329e-05
| 10> C 1.2408577575 -1.3406090289 0.0001981186
| 11> C 1.1788746097 0.0467902442 7.56798e-05
| 12> C -0.0563723255 0.7022499222 -0.000118235
| 13> C -0.109211651 2.2005513621 -0.0001654839
| 14> O 2.3171192738 0.8043385986 6.145e-05
| 15> H -2.6654700211 1.2562341352 0.8804025244
| 16> H -2.664884804 1.2592696329 -0.8777080208
| 17> H -3.3638898077 -0.1075393948 -0.0010532805
| 18> H -2.0592057809 -2.0274752211 -0.0004323255
| 19> H 0.1264354992 -3.1616514107 -0.000139535
| 20> H 2.2012086796 -1.8366413235 0.0003908345
| 21> H -0.6372895252 2.5636364443 -0.8805717017
| 22> H -0.6359840616 2.5637280577 0.8809961068
| 23> H 0.8969893582 2.6086565107 -0.0009568016
| 24> H 3.0962306102 0.229906594 -0.0001599434
| 25> *
| 26>
| 27>                          ****END OF INPUT****

CARTESIAN COORDINATES (ANGSTROEM)
---------------------------------
  C     -2.560494    0.623829    0.000285
  C     -1.226310   -0.057304   -0.000135
  C     -1.150041   -1.444590   -0.000229
  C      0.074955   -2.083304   -0.000058
  C      1.240858   -1.340609    0.000198
  C      1.178875    0.046790    0.000076
  C     -0.056372    0.702250   -0.000118
  C     -0.109212    2.200551   -0.000165
  O      2.317119    0.804339    0.000061
  H     -2.665470    1.256234    0.880403
  H     -2.664885    1.259270   -0.877708
  H     -3.363890   -0.107539   -0.001053
  H     -2.059206   -2.027475   -0.000432
  H      0.126435   -3.161651   -0.000140
  H      2.201209   -1.836641    0.000391
  H     -0.637290    2.563636   -0.880572
  H     -0.635984    2.563728    0.880996
  H      0.896989    2.608657   -0.000957
  H      3.096231    0.229907   -0.000160

 Total Charge           Charge          ....    0
 Multiplicity           Mult            ....    1
 Number of Electrons    NEL             ....   66
 Basis Dimension        Dim             ....  146

ORBITAL ENERGIES
----------------

  NO   OCC          E(Eh)            E(eV)
   0   2.0000     -18.777458      -510.9606
   1   2.0000      -9.944038      -270.5910
   2   2.0000      -9.894845      -269.2524
   3   2.0000      -9.889779      -269.1146
   4   2.0000      -9.885160      -268.9889
   5   2.0000      -9.883432      -268.9419
   6   2.0000      -9.879924      -268.8464
   7   2.0000      -9.876564      -268.7550
   8   2.0000      -9.874061      -268.6869
   9   2.0000      -0.957943       -26.0670
  10   2.0000      -0.771460       -20.9925
  11   2.0000      -0.698386       -19.0041
  12   2.0000      -0.676409       -18.4060
  13   2.0000      -0.618676       -16.8350
  14   2.0000      -0.600481       -16.3399
  15   2.0000      -0.550534       -14.9808
  16   2.0000      -0.515370       -14.0239
  17   2.0000      -0.469400       -12.7730
  18   2.0000      -0.434211       -11.8155
  19   2.0000      -0.427185       -11.6243
  20   2.0000      -0.390895       -10.6368
  21   2.0000      -0.374332       -10.1861
  22   2.0000      -0.356266        -9.6945
  23   2.0000      -0.355634        -9.6773
  24   2.0000      -0.347212        -9.4481
  25   2.0000      -0.340670        -9.2701
  26   2.0000      -0.340539        -9.2665
  27   2.0000      -0.322101        -8.7648
  28   2.0000      -0.297532        -8.0963
  29   2.0000      -0.284189        -7.7332
  30   2.0000      -0.283228        -7.7070
  31   2.0000      -0.209696        -5.7061
  32   2.0000      -0.187302        -5.0967
  33   0.0000      -0.026227        -0.7137
  34   0.0000      -0.009486        -0.2581
  35   0.0000       0.023890         0.6501
  36   0.0000       0.047114         1.2820
  37   0.0000       0.056341         1.5331

MULLIKEN ATOMIC CHARGES
-----------------------
   0 C :   -0.208627
   1 C :   -0.027010
   2 C :   -0.137214
   3 C :   -0.044111
   4 C :   -0.165264
   5 C :    0.171182
   6 C :   -0.098399
   7 C :   -0.198056
   8 O :   -0.343630
   9 H :    0.109404
  10 H :    0.109361
  11 H :    0.100511
  12 H :    0.027336
  13 H :    0.045216
  14 H :    0.018084
  15 H :    0.104521
  16 H :    0.104526
  17 H :    0.115755
  18 H :    0.316416
Sum of atomic charges:   -0.0000000

LOEWDIN ATOMIC CHARGES
----------------------
   0 C :   -0.319648
   1 C :   -0.040706
   2 C :   -0.149774
   3 C :   -0.121960
   4 C :   -0.181947
   5 C :    0.024961
   6 C :   -0.072944
   7 C :   -0.325382
   8 O :   -0.239803
   9 H :    0.130141
  10 H :    0.130094
  11 H :    0.123992
  12 H :    0.118223
  13 H :    0.122066
  14 H :    0.117284
  15 H :    0.128480
  16 H :    0.128496
  17 H :    0.131063
  18 H :    0.297362

  Mayer bond orders larger than 0.100000
B(  0-C ,  1-C ) :   1.1450 B(  0-C ,  9-H ) :   0.9232 B(  0-C , 10-H ) :   0.9232
B(  0-C , 11-H ) :   0.9370 B(  1-C ,  2-C ) :   1.3803 B(  1-C ,  6-C ) :   1.4235
B(  2-C ,  3-C ) :   1.3555 B(  2-C , 12-H ) :   0.9625 B(  3-C ,  4-C ) :   1.3529
B(  3-C , 13-H ) :   0.9620 B(  4-C ,  5-C ) :   1.3178 B(  4-C , 14-H ) :   0.9578
B(  5-C ,  6-C ) :   1.3931 B(  5-C ,  8-O ) :   1.1748 B(  6-C ,  7-C ) :   1.1690
B(  7-C , 15-H ) :   0.9228 B(  7-C , 16-H ) :   0.9228 B(  7-C , 17-H ) :   0.9232
B(  8-O , 18-H ) :   0.8411

Dispersion correction           -0.019515408
FINAL SINGLE POINT ENERGY      -385.239879746422

DIPOLE MOMENT
-------------

Method             : SCF
Type of density    : Electron Density
Multiplicity       :   1
Irrep              :   0
Energy             :  -385.2989251110579971 Eh
Relativity type    :
Basis              : AO
                                X                 Y                 Z
Electronic contribution:      5.600081780      -3.319432060      -0.000641415
Nuclear contribution   :     -5.318719406       3.153025596       0.000721290
                        -----------------------------------------
Total Dipole Moment    :      0.281362374      -0.166406464       0.000079875
                        -----------------------------------------
Magnitude (a.u.)       :      0.326888212
Magnitude (Debye)      :      0.830883803

Rotational constants in cm-1:             0.075914             0.059496             0.033772
Rotational constants in MHz :          2275.839391          1783.637383          1012.457250

                             ****ORCA TERMINATED NORMALLY****
TOTAL RUN TIME: 0 days 0 hours 0 minutes 7 seconds 645 msec
