                         Program Version 6.0.0  -   RELEASE  -
|  1> ! r2scan-3c def2/J RI DEFGRID2 scfconv6 printgap
|  2> %output
|  3>     printlevel normal
|  4> end
|  5> * xyz 0 1
|  6> C 5.7970289439 -0.7561423488 -0.3838356919
|  7> C 4.9191295925 -0.0871641012 -1.4206785185
|  8> O 3.5609774044 -0.5727484184 -1.3758929587
|  9> P 2.5905516778 -0.2661978404 -0.1624044798
| 10> S 2.789042405 1.5123048346 0.6476416395
| 11> O 2.8851962146 -1.4850740958 0.815686342
| 12> C 2.4822909328 -1.4807881083 2.1950317506
| 13> C 0.9924684501 -1.7097391965 2.3488255242
| 14> S 0.7665577181 -0.7505049567 -1.1219872933
| 15> C 0.1041159181 0.9347545403 -1.2815154839
| 16> S -0.7610902007 1.5044545257 0.2069775325
| 17> P -2.4646859759 0.2813905107 -0.0423191706
| 18> S -3.1103874013 0.0143716507 -1.8788393179
| 19> O -3.5337977956 0.8707919996 0.9739428445
| 20> C -4.4753623094 1.8913476315 0.5997229873
| 21> C -3.7995833431 3.2194120276 0.3254917419
| 22> O -1.9729542673 -1.0165037445 0.7193550396
| 23> C -2.5650488149 -2.3114012451 0.4919220809
| 24> C -3.9930702146 -2.3731643513 0.9916708035
| 25> H 5.4822129367 -0.4601591866 0.6157619601
| 26> H 5.7230033746 -1.8369151794 -0.4708313667
| 27> H 6.8275658132 -0.4498852023 -0.5342652496
| 28> H 5.2432365778 -0.3180336201 -2.4362474966
| 29> H 4.9030137909 0.9971057286 -1.2706424058
| 30> H 3.0594553909 -2.2915768188 2.642029143
| 31> H 2.7746568342 -0.5240305347 2.6407603767
| 32> H 0.7505381228 -1.8224319406 3.4007632316
| 33> H 0.4339618875 -0.8631110936 1.9506492639
| 34> H 0.6957255626 -2.6064662958 1.8103363342
| 35> H -0.5968352715 0.9154695325 -2.1160661831
| 36> H 0.915691129 1.6370930891 -1.45769597
| 37> H -5.022188703 1.549589454 -0.2850704331
| 38> H -5.1500036909 1.9513114872 1.4547644968
| 39> H -3.165815445 3.5011940935 1.1627482338
| 40> H -3.1828008907 3.146270957 -0.5694291947
| 41> H -4.5550954954 3.9830092108 0.1706050454
| 42> H -2.516616256 -2.5298852582 -0.5796373892
| 43> H -1.9149471962 -2.9957070629 1.0380955082
| 44> H -4.6218639155 -1.7112181405 0.397350119
| 45> H -4.3642205872 -3.3889832983 0.8987352431
| 46> H -4.0397324463 -2.0620186708 2.0319151371
| 47> *
| 48>
| 49>                          ****END OF INPUT****

CARTESIAN COORDINATES (ANGSTROEM)
---------------------------------
  C      5.797029   -0.756142   -0.383836
  C      4.919130   -0.087164   -1.420679
  O      3.560977   -0.572748   -1.375893
  P      2.590552   -0.266198   -0.162404
  S      2.789042    1.512305    0.647642
  O      2.885196   -1.485074    0.815686
  C      2.482291   -1.480788    2.195032
  C      0.992468   -1.709739    2.348826
  S      0.766558   -0.750505   -1.121987
  C      0.104116    0.934755   -1.281515
  S     -0.761090    1.504455    0.206978
  P     -2.464686    0.281391   -0.042319
  S     -3.110387    0.014372   -1.878839
  O     -3.533798    0.870792    0.973943
  C     -4.475362    1.891348    0.599723
  C     -3.799583    3.219412    0.325492
  O     -1.972954   -1.016504    0.719355
  C     -2.565049   -2.311401    0.491922
  C     -3.993070   -2.373164    0.991671
  H      5.482213   -0.460159    0.615762
  H      5.723003   -1.836915   -0.470831
  H      6.827566   -0.449885   -0.534265
  H      5.243237   -0.318034   -2.436247
  H      4.903014    0.997106   -1.270642
  H      3.059455   -2.291577    2.642029
  H      2.774657   -0.524031    2.640760
  H      0.750538   -1.822432    3.400763
  H      0.433962   -0.863111    1.950649
  H      0.695726   -2.606466    1.810336
  H     -0.596835    0.915470   -2.116066
  H      0.915691    1.637093   -1.457696
  H     -5.022189    1.549589   -0.285070
  H     -5.150004    1.951311    1.454764
  H     -3.165815    3.501194    1.162748
  H     -3.182801    3.146271   -0.569429
  H     -4.555095    3.983009    0.170605
  H     -2.516616   -2.529885   -0.579637
  H     -1.914947   -2.995707    1.038096
  H     -4.621864   -1.711218    0.397350
  H     -4.364221   -3.388983    0.898735
  H     -4.039732   -2.062019    2.031915

 Total Charge           Charge          ....    0
 Multiplicity           Mult            ....    1
 Number of Electrons    NEL             ....  202
 Basis Dimension        Dim             ....  539

ORBITAL ENERGIES
----------------

  NO   OCC          E(Eh)            E(eV)
   0   2.0000     -88.573022     -2410.1945
   1   2.0000     -88.572182     -2410.1716
   2   2.0000     -88.523572     -2408.8489
   3   2.0000     -88.522039     -2408.8071
   4   2.0000     -76.913470     -2092.9219
   5   2.0000     -76.913034     -2092.9100
   6   2.0000     -18.994094      -516.8556
   7   2.0000     -18.992178      -516.8034
   8   2.0000     -18.989185      -516.7220
   9   2.0000     -18.987743      -516.6828
  10   2.0000     -10.103245      -274.9233
  11   2.0000     -10.099728      -274.8276
  12   2.0000     -10.097216      -274.7592
  13   2.0000     -10.096738      -274.7462
  14   2.0000     -10.096605      -274.7426
  15   2.0000     -10.029002      -272.9030
  16   2.0000     -10.028616      -272.8925
  17   2.0000     -10.028486      -272.8890
  18   2.0000     -10.024096      -272.7695
  19   2.0000      -7.867149      -214.0760
  20   2.0000      -7.866427      -214.0564
  21   2.0000      -7.818283      -212.7463
  22   2.0000      -7.816811      -212.7063
  23   2.0000      -6.592077      -179.3795
  24   2.0000      -6.591806      -179.3722
  25   2.0000      -5.814035      -158.2079
  26   2.0000      -5.813357      -158.1895
  27   2.0000      -5.811058      -158.1269
  28   2.0000      -5.810484      -158.1113
  29   2.0000      -5.804236      -157.9413
  30   2.0000      -5.803289      -157.9155
  31   2.0000      -5.765909      -156.8984
  32   2.0000      -5.764324      -156.8552
  33   2.0000      -5.758625      -156.7002
  34   2.0000      -5.758256      -156.6901
  35   2.0000      -5.757107      -156.6588
  36   2.0000      -5.756935      -156.6542
  37   2.0000      -4.737302      -128.9085
  38   2.0000      -4.737210      -128.9060
  39   2.0000      -4.737000      -128.9003
  40   2.0000      -4.736640      -128.8905
  41   2.0000      -4.736060      -128.8747
  42   2.0000      -4.735674      -128.8642
  43   2.0000      -1.050726       -28.5917
  44   2.0000      -1.048875       -28.5413
  45   2.0000      -1.012078       -27.5400
  46   2.0000      -1.010210       -27.4892
  47   2.0000      -0.799181       -21.7468
  48   2.0000      -0.757918       -20.6240
  49   2.0000      -0.747001       -20.3269
  50   2.0000      -0.731808       -19.9135
  51   2.0000      -0.729943       -19.8628
  52   2.0000      -0.710371       -19.3302
  53   2.0000      -0.686609       -18.6836
  54   2.0000      -0.669209       -18.2101
  55   2.0000      -0.636067       -17.3083
  56   2.0000      -0.627252       -17.0684
  57   2.0000      -0.606234       -16.4965
  58   2.0000      -0.603963       -16.4347
  59   2.0000      -0.587550       -15.9880
  60   2.0000      -0.520344       -14.1593
  61   2.0000      -0.516105       -14.0439
  62   2.0000      -0.494311       -13.4509
  63   2.0000      -0.491457       -13.3732
  64   2.0000      -0.475675       -12.9438
  65   2.0000      -0.460868       -12.5409
  66   2.0000      -0.458892       -12.4871
  67   2.0000      -0.456077       -12.4105
  68   2.0000      -0.446307       -12.1446
  69   2.0000      -0.431712       -11.7475
  70   2.0000      -0.422547       -11.4981
  71   2.0000      -0.412285       -11.2188
  72   2.0000      -0.410026       -11.1574
  73   2.0000      -0.406933       -11.0732
  74   2.0000      -0.401073       -10.9138
  75   2.0000      -0.392488       -10.6802
  76   2.0000      -0.381302       -10.3757
  77   2.0000      -0.371875       -10.1192
  78   2.0000      -0.369970       -10.0674
  79   2.0000      -0.365215        -9.9380
  80   2.0000      -0.362903        -9.8751
  81   2.0000      -0.360287        -9.8039
  82   2.0000      -0.355867        -9.6836
  83   2.0000      -0.352987        -9.6053
  84   2.0000      -0.347192        -9.4476
  85   2.0000      -0.332140        -9.0380
  86   2.0000      -0.322834        -8.7848
  87   2.0000      -0.311365        -8.4727
  88   2.0000      -0.308174        -8.3858
  89   2.0000      -0.299800        -8.1580
  90   2.0000      -0.298320        -8.1177
  91   2.0000      -0.289636        -7.8814
  92   2.0000      -0.286945        -7.8082
  93   2.0000      -0.279858        -7.6153
  94   2.0000      -0.276416        -7.5217
  95   2.0000      -0.243280        -6.6200
  96   2.0000      -0.231038        -6.2869
  97   2.0000      -0.226295        -6.1578
  98   2.0000      -0.220680        -6.0050
  99   2.0000      -0.217246        -5.9116
 100   2.0000      -0.213276        -5.8035
 101   0.0000      -0.043708        -1.1893
 102   0.0000      -0.028718        -0.7815
 103   0.0000      -0.003881        -0.1056
 104   0.0000       0.005204         0.1416
 105   0.0000       0.016764         0.4562

MULLIKEN ATOMIC CHARGES
-----------------------
   0 C :   -0.435358
   1 C :   -0.155577
   2 O :   -0.289313
   3 P :    0.661403
   4 S :   -0.471716
   5 O :   -0.283722
   6 C :   -0.154234
   7 C :   -0.446984
   8 S :   -0.103827
   9 C :   -0.247688
  10 S :   -0.088764
  11 P :    0.683562
  12 S :   -0.491468
  13 O :   -0.306002
  14 C :   -0.150313
  15 C :   -0.453799
  16 O :   -0.278790
  17 C :   -0.147149
  18 C :   -0.444403
  19 H :    0.164817
  20 H :    0.156535
  21 H :    0.146807
  22 H :    0.149711
  23 H :    0.169992
  24 H :    0.146585
  25 H :    0.170271
  26 H :    0.145552
  27 H :    0.189911
  28 H :    0.146548
  29 H :    0.217244
  30 H :    0.202226
  31 H :    0.170725
  32 H :    0.148581
  33 H :    0.157543
  34 H :    0.177567
  35 H :    0.147939
  36 H :    0.173411
  37 H :    0.149861
  38 H :    0.168032
  39 H :    0.147256
  40 H :    0.157027
Sum of atomic charges:    0.0000000

LOEWDIN ATOMIC CHARGES
----------------------
   0 C :   -0.399499
   1 C :    0.021814
   2 O :   -0.668391
   3 P :    0.385219
   4 S :   -0.121057
   5 O :   -0.664374
   6 C :    0.019695
   7 C :   -0.405825
   8 S :    0.184620
   9 C :   -0.419387
  10 S :    0.166904
  11 P :    0.375975
  12 S :   -0.139249
  13 O :   -0.660621
  14 C :    0.020341
  15 C :   -0.406601
  16 O :   -0.677876
  17 C :    0.019292
  18 C :   -0.399341
  19 H :    0.163955
  20 H :    0.161641
  21 H :    0.159096
  22 H :    0.180225
  23 H :    0.178993
  24 H :    0.178425
  25 H :    0.180158
  26 H :    0.158759
  27 H :    0.173911
  28 H :    0.158793
  29 H :    0.192850
  30 H :    0.189901
  31 H :    0.179257
  32 H :    0.179714
  33 H :    0.161172
  34 H :    0.165936
  35 H :    0.159461
  36 H :    0.180836
  37 H :    0.179752
  38 H :    0.164899
  39 H :    0.159409
  40 H :    0.161221

  Mayer bond orders larger than 0.100000
B(  0-C ,  1-C ) :   0.9284 B(  0-C , 19-H ) :   0.9603 B(  0-C , 20-H ) :   0.9708
B(  0-C , 21-H ) :   0.9618 B(  1-C ,  2-O ) :   0.8123 B(  1-C , 22-H ) :   0.9607
B(  1-C , 23-H ) :   0.9661 B(  2-O ,  3-P ) :   1.1820 B(  3-P ,  4-S ) :   1.7332
B(  3-P ,  5-O ) :   1.0687 B(  3-P ,  8-S ) :   1.0968 B(  5-O ,  6-C ) :   0.8012
B(  6-C ,  7-C ) :   0.9376 B(  6-C , 24-H ) :   0.9608 B(  6-C , 25-H ) :   0.9626
B(  7-C , 26-H ) :   0.9599 B(  7-C , 27-H ) :   0.9516 B(  7-C , 28-H ) :   0.9680
B(  8-S ,  9-C ) :   0.8920 B(  9-C , 10-S ) :   0.9224 B(  9-C , 29-H ) :   0.9049
B(  9-C , 30-H ) :   0.9113 B( 10-S , 11-P ) :   1.1001 B( 11-P , 12-S ) :   1.7391
B( 11-P , 13-O ) :   1.0620 B( 11-P , 16-O ) :   1.1439 B( 13-O , 14-C ) :   0.8143
B( 14-C , 15-C ) :   0.9228 B( 14-C , 31-H ) :   0.9665 B( 14-C , 32-H ) :   0.9583
B( 15-C , 33-H ) :   0.9683 B( 15-C , 34-H ) :   0.9619 B( 15-C , 35-H ) :   0.9583
B( 16-O , 17-C ) :   0.7893 B( 17-C , 18-C ) :   0.9206 B( 17-C , 36-H ) :   0.9641
B( 17-C , 37-H ) :   0.9620 B( 18-C , 38-H ) :   0.9600 B( 18-C , 39-H ) :   0.9618
B( 18-C , 40-H ) :   0.9724

Dispersion correction           -0.021341972
FINAL SINGLE POINT ENERGY     -2932.464567515083

DIPOLE MOMENT
-------------

Method             : SCF
Type of density    : Electron Density
Multiplicity       :   1
Irrep              :   0
Energy             : -2932.4896169233825276 Eh
Relativity type    :
Basis              : AO
                                X                 Y                 Z
Electronic contribution:      2.270919855       5.383865124      -9.358740541
Nuclear contribution   :     -2.266956508      -5.909546198      10.107594194
                        -----------------------------------------
Total Dipole Moment    :      0.003963347      -0.525681074       0.748853652
                        -----------------------------------------
Magnitude (a.u.)       :      0.914952508
Magnitude (Debye)      :      2.325624455

Rotational constants in cm-1:             0.014451             0.004340             0.004062
Rotational constants in MHz :           433.234917           130.096806           121.779750

                             ****ORCA TERMINATED NORMALLY****
TOTAL RUN TIME: 0 days 0 hours 1 minutes 17 seconds 593 msec
