                         Program Version 6.0.0  -   RELEASE  -
|  1> ! r2scan-3c def2/J RI DEFGRID2 scfconv6 printgap
|  2> %output
|  3>     printlevel normal
|  4> end
|  5> %cpcm
|  6>     smd true
|  7>     smdsolvent "water"
|  8> end
|  9> * xyz 0 1
| 10> C 5.7970289439 -0.7561423488 -0.3838356919
| 11> C 4.9191295925 -0.0871641012 -1.4206785185
| 12> O 3.5609774044 -0.5727484184 -1.3758929587
| 13> P 2.5905516778 -0.2661978404 -0.1624044798
| 14> S 2.789042405 1.5123048346 0.6476416395
| 15> O 2.8851962146 -1.4850740958 0.815686342
| 16> C 2.4822909328 -1.4807881083 2.1950317506
| 17> C 0.9924684501 -1.7097391965 2.3488255242
| 18> S 0.7665577181 -0.7505049567 -1.1219872933
| 19> C 0.1041159181 0.9347545403 -1.2815154839
| 20> S -0.7610902007 1.5044545257 0.2069775325
| 21> P -2.4646859759 0.2813905107 -0.0423191706
| 22> S -3.1103874013 0.0143716507 -1.8788393179
| 23> O -3.5337977956 0.8707919996 0.9739428445
| 24> C -4.4753623094 1.8913476315 0.5997229873
| 25> C -3.7995833431 3.2194120276 0.3254917419
| 26> O -1.9729542673 -1.0165037445 0.7193550396
| 27> C -2.5650488149 -2.3114012451 0.4919220809
| 28> C -3.9930702146 -2.3731643513 0.9916708035
| 29> H 5.4822129367 -0.4601591866 0.6157619601
| 30> H 5.7230033746 -1.8369151794 -0.4708313667
| 31> H 6.8275658132 -0.4498852023 -0.5342652496
| 32> H 5.2432365778 -0.3180336201 -2.4362474966
| 33> H 4.9030137909 0.9971057286 -1.2706424058
| 34> H 3.0594553909 -2.2915768188 2.642029143
| 35> H 2.7746568342 -0.5240305347 2.6407603767
| 36> H 0.7505381228 -1.8224319406 3.4007632316
| 37> H 0.4339618875 -0.8631110936 1.9506492639
| 38> H 0.6957255626 -2.6064662958 1.8103363342
| 39> H -0.5968352715 0.9154695325 -2.1160661831
| 40> H 0.915691129 1.6370930891 -1.45769597
| 41> H -5.022188703 1.549589454 -0.2850704331
| 42> H -5.1500036909 1.9513114872 1.4547644968
| 43> H -3.165815445 3.5011940935 1.1627482338
| 44> H -3.1828008907 3.146270957 -0.5694291947
| 45> H -4.5550954954 3.9830092108 0.1706050454
| 46> H -2.516616256 -2.5298852582 -0.5796373892
| 47> H -1.9149471962 -2.9957070629 1.0380955082
| 48> H -4.6218639155 -1.7112181405 0.397350119
| 49> H -4.3642205872 -3.3889832983 0.8987352431
| 50> H -4.0397324463 -2.0620186708 2.0319151371
| 51> *
| 52>
| 53>                          ****END OF INPUT****

CARTESIAN COORDINATES (ANGSTROEM)
---------------------------------
  C      5.797029   -0.756142   -0.383836
  C      4.919130   -0.087164   -1.420679
  O      3.560977   -0.572748   -1.375893
  P      2.590552   -0.266198   -0.162404
  S      2.789042    1.512305    0.647642
  O      2.885196   -1.485074    0.815686
  C      2.482291   -1.480788    2.195032
  C      0.992468   -1.709739    2.348826
  S      0.766558   -0.750505   -1.121987
  C      0.104116    0.934755   -1.281515
  S     -0.761090    1.504455    0.206978
  P     -2.464686    0.281391   -0.042319
  S     -3.110387    0.014372   -1.878839
  O     -3.533798    0.870792    0.973943
  C     -4.475362    1.891348    0.599723
  C     -3.799583    3.219412    0.325492
  O     -1.972954   -1.016504    0.719355
  C     -2.565049   -2.311401    0.491922
  C     -3.993070   -2.373164    0.991671
  H      5.482213   -0.460159    0.615762
  H      5.723003   -1.836915   -0.470831
  H      6.827566   -0.449885   -0.534265
  H      5.243237   -0.318034   -2.436247
  H      4.903014    0.997106   -1.270642
  H      3.059455   -2.291577    2.642029
  H      2.774657   -0.524031    2.640760
  H      0.750538   -1.822432    3.400763
  H      0.433962   -0.863111    1.950649
  H      0.695726   -2.606466    1.810336
  H     -0.596835    0.915470   -2.116066
  H      0.915691    1.637093   -1.457696
  H     -5.022189    1.549589   -0.285070
  H     -5.150004    1.951311    1.454764
  H     -3.165815    3.501194    1.162748
  H     -3.182801    3.146271   -0.569429
  H     -4.555095    3.983009    0.170605
  H     -2.516616   -2.529885   -0.579637
  H     -1.914947   -2.995707    1.038096
  H     -4.621864   -1.711218    0.397350
  H     -4.364221   -3.388983    0.898735
  H     -4.039732   -2.062019    2.031915

 Total Charge           Charge          ....    0
 Multiplicity           Mult            ....    1
 Number of Electrons    NEL             ....  202
 Basis Dimension        Dim             ....  539

ORBITAL ENERGIES
----------------

  NO   OCC          E(Eh)            E(eV)
   0   2.0000     -88.578476     -2410.3429
   1   2.0000     -88.578441     -2410.3419
   2   2.0000     -88.531089     -2409.0534
   3   2.0000     -88.529093     -2408.9991
   4   2.0000     -76.919676     -2093.0908
   5   2.0000     -76.918335     -2093.0543
   6   2.0000     -18.996449      -516.9197
   7   2.0000     -18.995749      -516.9006
   8   2.0000     -18.992660      -516.8166
   9   2.0000     -18.992480      -516.8117
  10   2.0000     -10.105131      -274.9746
  11   2.0000     -10.090195      -274.5682
  12   2.0000     -10.089301      -274.5438
  13   2.0000     -10.089038      -274.5367
  14   2.0000     -10.089009      -274.5359
  15   2.0000     -10.018743      -272.6239
  16   2.0000     -10.018668      -272.6218
  17   2.0000     -10.018574      -272.6193
  18   2.0000     -10.017047      -272.5777
  19   2.0000      -7.872764      -214.2288
  20   2.0000      -7.872675      -214.2264
  21   2.0000      -7.826034      -212.9572
  22   2.0000      -7.824128      -212.9054
  23   2.0000      -6.598338      -179.5499
  24   2.0000      -6.597146      -179.5175
  25   2.0000      -5.819655      -158.3609
  26   2.0000      -5.819537      -158.3576
  27   2.0000      -5.816777      -158.2825
  28   2.0000      -5.816571      -158.2769
  29   2.0000      -5.809799      -158.0927
  30   2.0000      -5.809710      -158.0902
  31   2.0000      -5.773629      -157.1084
  32   2.0000      -5.771598      -157.0532
  33   2.0000      -5.766366      -156.9108
  34   2.0000      -5.766008      -156.9011
  35   2.0000      -5.764408      -156.8575
  36   2.0000      -5.764262      -156.8536
  37   2.0000      -4.743532      -129.0781
  38   2.0000      -4.743254      -129.0705
  39   2.0000      -4.742498      -129.0499
  40   2.0000      -4.742374      -129.0466
  41   2.0000      -4.741983      -129.0359
  42   2.0000      -4.741089      -129.0116
  43   2.0000      -1.053192       -28.6588
  44   2.0000      -1.052753       -28.6469
  45   2.0000      -1.013881       -27.5891
  46   2.0000      -1.013509       -27.5790
  47   2.0000      -0.803222       -21.8568
  48   2.0000      -0.756416       -20.5831
  49   2.0000      -0.742331       -20.1998
  50   2.0000      -0.723892       -19.6981
  51   2.0000      -0.723339       -19.6831
  52   2.0000      -0.710256       -19.3271
  53   2.0000      -0.690491       -18.7892
  54   2.0000      -0.675981       -18.3944
  55   2.0000      -0.635779       -17.3004
  56   2.0000      -0.624734       -16.9999
  57   2.0000      -0.599836       -16.3224
  58   2.0000      -0.599021       -16.3002
  59   2.0000      -0.588205       -16.0059
  60   2.0000      -0.517742       -14.0885
  61   2.0000      -0.513322       -13.9682
  62   2.0000      -0.492312       -13.3965
  63   2.0000      -0.489026       -13.3071
  64   2.0000      -0.476466       -12.9653
  65   2.0000      -0.458766       -12.4837
  66   2.0000      -0.454972       -12.3804
  67   2.0000      -0.453272       -12.3342
  68   2.0000      -0.443937       -12.0801
  69   2.0000      -0.429246       -11.6804
  70   2.0000      -0.420597       -11.4450
  71   2.0000      -0.408298       -11.1104
  72   2.0000      -0.407552       -11.0901
  73   2.0000      -0.405358       -11.0304
  74   2.0000      -0.401431       -10.9235
  75   2.0000      -0.391876       -10.6635
  76   2.0000      -0.381096       -10.3702
  77   2.0000      -0.367502       -10.0002
  78   2.0000      -0.365601        -9.9485
  79   2.0000      -0.362964        -9.8767
  80   2.0000      -0.354799        -9.6546
  81   2.0000      -0.352608        -9.5950
  82   2.0000      -0.349878        -9.5207
  83   2.0000      -0.347426        -9.4539
  84   2.0000      -0.344460        -9.3732
  85   2.0000      -0.330095        -8.9823
  86   2.0000      -0.321961        -8.7610
  87   2.0000      -0.307109        -8.3569
  88   2.0000      -0.304675        -8.2906
  89   2.0000      -0.300163        -8.1678
  90   2.0000      -0.297104        -8.0846
  91   2.0000      -0.289081        -7.8663
  92   2.0000      -0.287631        -7.8268
  93   2.0000      -0.280373        -7.6293
  94   2.0000      -0.278417        -7.5761
  95   2.0000      -0.248447        -6.7606
  96   2.0000      -0.238583        -6.4922
  97   2.0000      -0.233885        -6.3643
  98   2.0000      -0.228600        -6.2205
  99   2.0000      -0.224878        -6.1192
 100   2.0000      -0.220560        -6.0017
 101   0.0000      -0.050646        -1.3782
 102   0.0000      -0.035863        -0.9759
 103   0.0000      -0.008481        -0.2308
 104   0.0000      -0.000311        -0.0085
 105   0.0000       0.012712         0.3459

MULLIKEN ATOMIC CHARGES
-----------------------
   0 C :   -0.475766
   1 C :   -0.151868
   2 O :   -0.324728
   3 P :    0.701931
   4 S :   -0.509987
   5 O :   -0.307270
   6 C :   -0.152064
   7 C :   -0.484185
   8 S :   -0.128926
   9 C :   -0.257828
  10 S :   -0.106668
  11 P :    0.720537
  12 S :   -0.535343
  13 O :   -0.330592
  14 C :   -0.151620
  15 C :   -0.489180
  16 O :   -0.305777
  17 C :   -0.146468
  18 C :   -0.484727
  19 H :    0.167543
  20 H :    0.168997
  21 H :    0.172137
  22 H :    0.174882
  23 H :    0.176107
  24 H :    0.174947
  25 H :    0.174820
  26 H :    0.171859
  27 H :    0.171126
  28 H :    0.169655
  29 H :    0.233709
  30 H :    0.227261
  31 H :    0.178180
  32 H :    0.175886
  33 H :    0.169684
  34 H :    0.173047
  35 H :    0.173153
  36 H :    0.177000
  37 H :    0.179065
  38 H :    0.168562
  39 H :    0.172498
  40 H :    0.170410
Sum of atomic charges:    0.0000000

LOEWDIN ATOMIC CHARGES
----------------------
   0 C :   -0.402732
   1 C :    0.026691
   2 O :   -0.685919
   3 P :    0.390543
   4 S :   -0.143857
   5 O :   -0.675008
   6 C :    0.025533
   7 C :   -0.409208
   8 S :    0.170951
   9 C :   -0.413214
  10 S :    0.156398
  11 P :    0.381010
  12 S :   -0.165266
  13 O :   -0.671664
  14 C :    0.026187
  15 C :   -0.409811
  16 O :   -0.691652
  17 C :    0.023384
  18 C :   -0.402453
  19 H :    0.162588
  20 H :    0.164298
  21 H :    0.168733
  22 H :    0.190690
  23 H :    0.181475
  24 H :    0.190620
  25 H :    0.181795
  26 H :    0.168330
  27 H :    0.164931
  28 H :    0.164604
  29 H :    0.197697
  30 H :    0.198109
  31 H :    0.181742
  32 H :    0.191282
  33 H :    0.163764
  34 H :    0.161692
  35 H :    0.168663
  36 H :    0.181900
  37 H :    0.191177
  38 H :    0.162712
  39 H :    0.168858
  40 H :    0.164428

  Mayer bond orders larger than 0.100000
B(  0-C ,  1-C ) :   0.9156 B(  0-C , 19-H ) :   0.9589 B(  0-C , 20-H ) :   0.9700
B(  0-C , 21-H ) :   0.9556 B(  1-C ,  2-O ) :   0.8009 B(  1-C , 22-H ) :   0.9512
B(  1-C , 23-H ) :   0.9616 B(  2-O ,  3-P ) :   1.1837 B(  3-P ,  4-S ) :   1.7032
B(  3-P ,  5-O ) :   1.0776 B(  3-P ,  8-S ) :   1.0988 B(  5-O ,  6-C ) :   0.7887
B(  6-C ,  7-C ) :   0.9240 B(  6-C , 24-H ) :   0.9512 B(  6-C , 25-H ) :   0.9601
B(  7-C , 26-H ) :   0.9542 B(  7-C , 27-H ) :   0.9567 B(  7-C , 28-H ) :   0.9649
B(  8-S ,  9-C ) :   0.8842 B(  9-C , 10-S ) :   0.9155 B(  9-C , 29-H ) :   0.9016
B(  9-C , 30-H ) :   0.9041 B( 10-S , 11-P ) :   1.1070 B( 11-P , 12-S ) :   1.6996
B( 11-P , 13-O ) :   1.0714 B( 11-P , 16-O ) :   1.1522 B( 13-O , 14-C ) :   0.8022
B( 14-C , 15-C ) :   0.9086 B( 14-C , 31-H ) :   0.9653 B( 14-C , 32-H ) :   0.9485
B( 15-C , 33-H ) :   0.9657 B( 15-C , 34-H ) :   0.9633 B( 15-C , 35-H ) :   0.9529
B( 16-O , 17-C ) :   0.7767 B( 17-C , 18-C ) :   0.9090 B( 17-C , 36-H ) :   0.9601
B( 17-C , 37-H ) :   0.9518 B( 18-C , 38-H ) :   0.9592 B( 18-C , 39-H ) :   0.9557
B( 18-C , 40-H ) :   0.9713

Dispersion correction           -0.021341972
FINAL SINGLE POINT ENERGY     -2932.472027821937

DIPOLE MOMENT
-------------

Method             : SCF
Type of density    : Electron Density
Multiplicity       :   1
Irrep              :   0
Energy             : -2932.4970772302367550 Eh
Relativity type    :
Basis              : AO
                                X                 Y                 Z
Electronic contribution:      2.296650661       5.236494199      -9.142747163
Nuclear contribution   :     -2.266956508      -5.909546198      10.107594194
                        -----------------------------------------
Total Dipole Moment    :      0.029694153      -0.673051999       0.964847030
                        -----------------------------------------
Magnitude (a.u.)       :      1.176779728
Magnitude (Debye)      :      2.991136358

Rotational constants in cm-1:             0.014451             0.004340             0.004062
Rotational constants in MHz :           433.234917           130.096806           121.779750

                             ****ORCA TERMINATED NORMALLY****
TOTAL RUN TIME: 0 days 0 hours 1 minutes 45 seconds 533 msec
