                         Program Version 6.0.0  -   RELEASE  -
|  1> ! pbe def2-sv(p) def2/J RI DEFGRID1 loosescf d4 GCP(DFT/SV(P)) printgap
|  2> %output
|  3>     printlevel normal
|  4> end
|  5> * xyz 0 1
|  6> C 5.6375991588 1.4770218727 -0.5911326493
|  7> C 4.343399876 0.8844320642 -1.109934327
|  8> O 3.4787714608 0.6564826857 0.0224200688
|  9> P 1.9321559666 0.3440121497 -0.1627114767
| 10> S 0.9397084609 1.6533808233 -1.2252686686
| 11> O 1.4434457343 0.2459962129 1.3267698345
| 12> C 2.0977324353 -0.6010729252 2.3117105746
| 13> C 1.0578976012 -1.0383491012 3.3213831458
| 14> S 1.980452291 -1.6320951868 -0.955044222
| 15> C 0.2320555259 -1.793124213 -1.3714357745
| 16> S -0.8354515278 -1.912410399 0.1038842022
| 17> P -2.0136204163 -0.1958681519 -0.1336652777
| 18> S -2.3335529708 0.4125696014 -1.9756018499
| 19> O -1.3571232164 0.8098140032 0.8916654615
| 20> C -1.8025401429 2.1820884689 0.9795600898
| 21> C -0.9454387684 2.8735641056 2.0173633235
| 22> O -3.3506505565 -0.5679596962 0.6457416702
| 23> C -4.3953500615 -1.3589096996 0.0445098547
| 24> C -5.6975102462 -1.0336885256 0.7482873512
| 25> H 5.4419640271 2.4213894686 -0.0911598252
| 26> H 6.1016379512 0.7934559295 0.1136258486
| 27> H 6.310395773 1.64593399 -1.4253272556
| 28> H 4.5121890368 -0.0742696043 -1.6073365886
| 29> H 3.8364686893 1.5636213049 -1.8030725334
| 30> H 2.5435974967 -1.4582704869 1.7988857248
| 31> H 2.885701553 -0.0042379745 2.7736475752
| 32> H 1.5380322959 -1.6409398642 4.0855908317
| 33> H 0.5977938395 -0.1691216192 3.7823918294
| 34> H 0.283185654 -1.626155707 2.8351254928
| 35> H 0.1380012153 -2.7211080032 -1.9293275394
| 36> H -0.0934849904 -0.9373426425 -1.9698278004
| 37> H -1.6868830146 2.6424577438 -0.0078598863
| 38> H -2.8595289278 2.1851528186 1.2575477992
| 39> H -1.2421740288 3.9148173733 2.0888611151
| 40> H -1.0678987432 2.3907027556 2.9822870425
| 41> H 0.0997808243 2.8161986126 1.7229076212
| 42> H -4.4439369427 -1.1178649488 -1.0229154138
| 43> H -4.1292089016 -2.4120305653 0.1642914629
| 44> H -6.4873896776 -1.6527905765 0.336032328
| 45> H -5.6022056607 -1.2303784471 1.8121895768
| 46> H -5.9514875084 0.0127796441 0.6036791484
| 47> *
| 48>
| 49>                          ****END OF INPUT****

CARTESIAN COORDINATES (ANGSTROEM)
---------------------------------
  C      5.637599    1.477022   -0.591133
  C      4.343400    0.884432   -1.109934
  O      3.478771    0.656483    0.022420
  P      1.932156    0.344012   -0.162711
  S      0.939708    1.653381   -1.225269
  O      1.443446    0.245996    1.326770
  C      2.097732   -0.601073    2.311711
  C      1.057898   -1.038349    3.321383
  S      1.980452   -1.632095   -0.955044
  C      0.232056   -1.793124   -1.371436
  S     -0.835452   -1.912410    0.103884
  P     -2.013620   -0.195868   -0.133665
  S     -2.333553    0.412570   -1.975602
  O     -1.357123    0.809814    0.891665
  C     -1.802540    2.182088    0.979560
  C     -0.945439    2.873564    2.017363
  O     -3.350651   -0.567960    0.645742
  C     -4.395350   -1.358910    0.044510
  C     -5.697510   -1.033689    0.748287
  H      5.441964    2.421389   -0.091160
  H      6.101638    0.793456    0.113626
  H      6.310396    1.645934   -1.425327
  H      4.512189   -0.074270   -1.607337
  H      3.836469    1.563621   -1.803073
  H      2.543597   -1.458270    1.798886
  H      2.885702   -0.004238    2.773648
  H      1.538032   -1.640940    4.085591
  H      0.597794   -0.169122    3.782392
  H      0.283186   -1.626156    2.835125
  H      0.138001   -2.721108   -1.929328
  H     -0.093485   -0.937343   -1.969828
  H     -1.686883    2.642458   -0.007860
  H     -2.859529    2.185153    1.257548
  H     -1.242174    3.914817    2.088861
  H     -1.067899    2.390703    2.982287
  H      0.099781    2.816199    1.722908
  H     -4.443937   -1.117865   -1.022915
  H     -4.129209   -2.412031    0.164291
  H     -6.487390   -1.652791    0.336032
  H     -5.602206   -1.230378    1.812190
  H     -5.951488    0.012780    0.603679

 Total Charge           Charge          ....    0
 Multiplicity           Mult            ....    1
 Number of Electrons    NEL             ....  202
 Basis Dimension        Dim             ....  334

ORBITAL ENERGIES
----------------

  NO   OCC          E(Eh)            E(eV)
   0   2.0000     -88.043277     -2395.7794
   1   2.0000     -88.042231     -2395.7509
   2   2.0000     -87.980618     -2394.0743
   3   2.0000     -87.977437     -2393.9878
   4   2.0000     -76.423182     -2079.5805
   5   2.0000     -76.418654     -2079.4573
   6   2.0000     -18.793854      -511.4068
   7   2.0000     -18.790792      -511.3235
   8   2.0000     -18.786840      -511.2159
   9   2.0000     -18.779579      -511.0183
  10   2.0000      -9.954700      -270.8812
  11   2.0000      -9.953945      -270.8606
  12   2.0000      -9.953711      -270.8542
  13   2.0000      -9.946654      -270.6622
  14   2.0000      -9.940277      -270.4887
  15   2.0000      -9.889715      -269.1128
  16   2.0000      -9.884890      -268.9815
  17   2.0000      -9.883232      -268.9364
  18   2.0000      -9.873886      -268.6821
  19   2.0000      -7.688494      -209.2145
  20   2.0000      -7.687561      -209.1892
  21   2.0000      -7.625590      -207.5029
  22   2.0000      -7.622466      -207.4178
  23   2.0000      -6.420805      -174.7190
  24   2.0000      -6.416483      -174.6014
  25   2.0000      -5.716279      -155.5479
  26   2.0000      -5.715406      -155.5241
  27   2.0000      -5.712798      -155.4531
  28   2.0000      -5.711987      -155.4311
  29   2.0000      -5.705752      -155.2614
  30   2.0000      -5.704546      -155.2286
  31   2.0000      -5.654581      -153.8690
  32   2.0000      -5.651354      -153.7812
  33   2.0000      -5.646105      -153.6383
  34   2.0000      -5.645750      -153.6287
  35   2.0000      -5.643218      -153.5598
  36   2.0000      -5.642518      -153.5407
  37   2.0000      -4.643638      -126.3598
  38   2.0000      -4.642693      -126.3341
  39   2.0000      -4.640867      -126.2844
  40   2.0000      -4.638859      -126.2298
  41   2.0000      -4.638141      -126.2102
  42   2.0000      -4.637145      -126.1831
  43   2.0000      -0.988735       -26.9048
  44   2.0000      -0.979515       -26.6540
  45   2.0000      -0.944549       -25.7025
  46   2.0000      -0.935942       -25.4683
  47   2.0000      -0.762509       -20.7489
  48   2.0000      -0.721216       -19.6253
  49   2.0000      -0.709289       -19.3007
  50   2.0000      -0.691329       -18.8120
  51   2.0000      -0.682452       -18.5705
  52   2.0000      -0.671962       -18.2850
  53   2.0000      -0.644909       -17.5489
  54   2.0000      -0.628450       -17.1010
  55   2.0000      -0.589342       -16.0368
  56   2.0000      -0.581076       -15.8119
  57   2.0000      -0.568931       -15.4814
  58   2.0000      -0.566225       -15.4078
  59   2.0000      -0.555270       -15.1097
  60   2.0000      -0.510750       -13.8982
  61   2.0000      -0.501381       -13.6433
  62   2.0000      -0.482431       -13.1276
  63   2.0000      -0.473697       -12.8899
  64   2.0000      -0.450485       -12.2583
  65   2.0000      -0.443928       -12.0799
  66   2.0000      -0.438450       -11.9308
  67   2.0000      -0.433847       -11.8056
  68   2.0000      -0.428039       -11.6475
  69   2.0000      -0.415781       -11.3140
  70   2.0000      -0.406565       -11.0632
  71   2.0000      -0.394209       -10.7270
  72   2.0000      -0.386361       -10.5134
  73   2.0000      -0.379861       -10.3366
  74   2.0000      -0.374824       -10.1995
  75   2.0000      -0.365321        -9.9409
  76   2.0000      -0.362529        -9.8649
  77   2.0000      -0.354974        -9.6593
  78   2.0000      -0.353089        -9.6080
  79   2.0000      -0.349377        -9.5070
  80   2.0000      -0.344085        -9.3630
  81   2.0000      -0.341560        -9.2943
  82   2.0000      -0.338190        -9.2026
  83   2.0000      -0.333339        -9.0706
  84   2.0000      -0.324498        -8.8300
  85   2.0000      -0.315111        -8.5746
  86   2.0000      -0.308749        -8.4015
  87   2.0000      -0.302534        -8.2324
  88   2.0000      -0.300128        -8.1669
  89   2.0000      -0.294662        -8.0182
  90   2.0000      -0.280483        -7.6323
  91   2.0000      -0.271163        -7.3787
  92   2.0000      -0.262411        -7.1406
  93   2.0000      -0.260677        -7.0934
  94   2.0000      -0.256107        -6.9690
  95   2.0000      -0.238385        -6.4868
  96   2.0000      -0.221734        -6.0337
  97   2.0000      -0.212716        -5.7883
  98   2.0000      -0.201155        -5.4737
  99   2.0000      -0.190559        -5.1854
 100   2.0000      -0.181262        -4.9324
 101   0.0000      -0.039853        -1.0845
 102   0.0000      -0.028271        -0.7693
 103   0.0000      -0.006496        -0.1768
 104   0.0000       0.014391         0.3916
 105   0.0000       0.020647         0.5618

MULLIKEN ATOMIC CHARGES
-----------------------
   0 C :   -0.280101
   1 C :   -0.012369
   2 O :   -0.387901
   3 P :    0.592645
   4 S :   -0.290907
   5 O :   -0.344135
   6 C :   -0.010951
   7 C :   -0.283897
   8 S :   -0.111449
   9 C :   -0.358494
  10 S :   -0.099217
  11 P :    0.613796
  12 S :   -0.321409
  13 O :   -0.353845
  14 C :   -0.002953
  15 C :   -0.281679
  16 O :   -0.384506
  17 C :   -0.006907
  18 C :   -0.281750
  19 H :    0.121313
  20 H :    0.113882
  21 H :    0.113367
  22 H :    0.104325
  23 H :    0.107113
  24 H :    0.100807
  25 H :    0.107254
  26 H :    0.105363
  27 H :    0.120308
  28 H :    0.127069
  29 H :    0.183012
  30 H :    0.210984
  31 H :    0.114208
  32 H :    0.095753
  33 H :    0.104050
  34 H :    0.108447
  35 H :    0.125341
  36 H :    0.103699
  37 H :    0.096957
  38 H :    0.110577
  39 H :    0.114632
  40 H :    0.117568
Sum of atomic charges:    0.0000000

LOEWDIN ATOMIC CHARGES
----------------------
   0 C :   -0.350324
   1 C :   -0.119991
   2 O :   -0.254431
   3 P :    0.558834
   4 S :   -0.288456
   5 O :   -0.225252
   6 C :   -0.113729
   7 C :   -0.353562
   8 S :    0.062028
   9 C :   -0.478922
  10 S :    0.080803
  11 P :    0.564484
  12 S :   -0.313819
  13 O :   -0.232402
  14 C :   -0.115642
  15 C :   -0.352620
  16 O :   -0.253469
  17 C :   -0.122651
  18 C :   -0.350948
  19 H :    0.129373
  20 H :    0.125679
  21 H :    0.131525
  22 H :    0.108348
  23 H :    0.110572
  24 H :    0.103039
  25 H :    0.115715
  26 H :    0.127881
  27 H :    0.128143
  28 H :    0.122904
  29 H :    0.137779
  30 H :    0.127656
  31 H :    0.111315
  32 H :    0.106863
  33 H :    0.127498
  34 H :    0.121418
  35 H :    0.126952
  36 H :    0.105718
  37 H :    0.108634
  38 H :    0.130098
  39 H :    0.125711
  40 H :    0.127249

  Mayer bond orders larger than 0.100000
B(  0-C ,  1-C ) :   1.1599 B(  0-C , 19-H ) :   0.9509 B(  0-C , 20-H ) :   0.9510
B(  0-C , 21-H ) :   0.9419 B(  1-C ,  2-O ) :   0.9056 B(  1-C , 22-H ) :   0.9284
B(  1-C , 23-H ) :   0.9112 B(  2-O ,  3-P ) :   1.0776 B(  3-P ,  4-S ) :   1.6614
B(  3-P ,  5-O ) :   1.1450 B(  3-P ,  8-S ) :   0.9412 B(  4-S ,  8-S ) :   0.1049
B(  5-O ,  6-C ) :   0.8846 B(  6-C ,  7-C ) :   1.1660 B(  6-C , 24-H ) :   0.9097
B(  6-C , 25-H ) :   0.9329 B(  7-C , 26-H ) :   0.9396 B(  7-C , 27-H ) :   0.9474
B(  7-C , 28-H ) :   0.9411 B(  8-S ,  9-C ) :   1.0027 B(  9-C , 10-S ) :   0.9917
B(  9-C , 29-H ) :   0.9114 B(  9-C , 30-H ) :   0.8457 B( 10-S , 11-P ) :   0.9674
B( 10-S , 12-S ) :   0.1175 B( 11-P , 12-S ) :   1.6186 B( 11-P , 13-O ) :   1.1526
B( 11-P , 16-O ) :   1.0939 B( 13-O , 14-C ) :   0.8920 B( 14-C , 15-C ) :   1.1658
B( 14-C , 31-H ) :   0.9143 B( 14-C , 32-H ) :   0.9271 B( 15-C , 33-H ) :   0.9407
B( 15-C , 34-H ) :   0.9483 B( 15-C , 35-H ) :   0.9418 B( 16-O , 17-C ) :   0.9086
B( 17-C , 18-C ) :   1.1607 B( 17-C , 36-H ) :   0.9032 B( 17-C , 37-H ) :   0.9303
B( 18-C , 38-H ) :   0.9424 B( 18-C , 39-H ) :   0.9509 B( 18-C , 40-H ) :   0.9513

Dispersion correction           -0.065709459
FINAL SINGLE POINT ENERGY     -2929.522731092989

DIPOLE MOMENT
-------------

Method             : SCF
Type of density    : Electron Density
Multiplicity       :   1
Irrep              :   0
Energy             : -2929.6415668850922884 Eh
Relativity type    :
Basis              : AO
                                X                 Y                 Z
Electronic contribution:     -0.176638242      -5.593951006     -14.852348541
Nuclear contribution   :      0.762920589       4.939093407      15.904916911
                        -----------------------------------------
Total Dipole Moment    :      0.586282347      -0.654857599       1.052568370
                        -----------------------------------------
Magnitude (a.u.)       :      1.371300711
Magnitude (Debye)      :      3.485569405

Rotational constants in cm-1:             0.013041             0.005010             0.004955
Rotational constants in MHz :           390.973637           150.205124           148.544688

                             ****ORCA TERMINATED NORMALLY****
TOTAL RUN TIME: 0 days 0 hours 0 minutes 21 seconds 574 msec
