                         Program Version 6.0.0  -   RELEASE  -
|  1> ! wb97x-v def2-tzvp def2/J RIJCOSX DEFGRID2 scfconv7 GCP(DFT/TZ) printgap
|  2> %output
|  3>     printlevel normal
|  4> end
|  5> * xyz 0 1
|  6> C -1.9007955511394659 -4.709798885721454e-08 1.3845466709447727e-05
|  7> C -1.2035957975598552 -1.206671894131538 1.627998171033729e-05
|  8> C 0.18999961172368976 -1.217764905746362 6.440755798436793e-07
|  9> C 0.8482491741756694 -1.500762973953651e-07 -1.314521520624146e-05
| 10> C 0.18999968626573482 1.2177646454464628 -2.688764234959713e-05
| 11> C -1.2035957283520702 1.2066717474440758 -1.5870257915143204e-05
| 12> F 2.209683860788401 -1.909231634888839e-07 -3.59834296165672e-05
| 13> H -2.9855930106862134 -6.009130554433569e-08 2.4246479282228944e-05
| 14> H -1.7427204145322082 -2.1485304633993896 3.363261389245071e-05
| 15> H 0.755139505762141 -2.1435252486901053 5.542161903203112e-06
| 16> H 0.755139670898409 2.14352493920946 -4.427937701275504e-05
| 17> H -1.7427202334843064 2.148530384047536 -1.575158285055115e-05
| 18> *
| 19>
| 20>                          ****END OF INPUT****

CARTESIAN COORDINATES (ANGSTROEM)
---------------------------------
  C     -1.900796   -0.000000    0.000014
  C     -1.203596   -1.206672    0.000016
  C      0.190000   -1.217765    0.000001
  C      0.848249   -0.000000   -0.000013
  C      0.190000    1.217765   -0.000027
  C     -1.203596    1.206672   -0.000016
  F      2.209684   -0.000000   -0.000036
  H     -2.985593   -0.000000    0.000024
  H     -1.742720   -2.148530    0.000034
  H      0.755140   -2.143525    0.000006
  H      0.755140    2.143525   -0.000044
  H     -1.742720    2.148530   -0.000016

 Total Charge           Charge          ....    0
 Multiplicity           Mult            ....    1
 Number of Electrons    NEL             ....   50
 Basis Dimension        Dim             ....  247

ORBITAL ENERGIES
----------------

  NO   OCC          E(Eh)            E(eV)
   0   2.0000     -27.570759      -750.2385
   1   2.0000     -12.139001      -330.3190
   2   2.0000     -12.067050      -328.3611
   3   2.0000     -12.066865      -328.3561
   4   2.0000     -12.062422      -328.2352
   5   2.0000     -12.062167      -328.2283
   6   2.0000     -12.058427      -328.1265
   7   2.0000      -1.988883       -54.1202
   8   2.0000      -1.404274       -38.2122
   9   2.0000      -1.308660       -35.6105
  10   2.0000      -1.292395       -35.1678
  11   2.0000      -1.207176       -32.8489
  12   2.0000      -1.159295       -31.5460
  13   2.0000      -1.130137       -30.7526
  14   2.0000      -1.102103       -29.9897
  15   2.0000      -1.081830       -29.4381
  16   2.0000      -0.965711       -26.2783
  17   2.0000      -0.963041       -26.2057
  18   2.0000      -0.913535       -24.8586
  19   2.0000      -0.891519       -24.2595
  20   2.0000      -0.844480       -22.9795
  21   2.0000      -0.825771       -22.4704
  22   2.0000      -0.788110       -21.4456
  23   2.0000      -0.657386       -17.8884
  24   2.0000      -0.653479       -17.7821
  25   0.0000      -0.257851        -7.0165
  26   0.0000      -0.251097        -6.8327
  27   0.0000      -0.222454        -6.0533
  28   0.0000      -0.079780        -2.1709
  29   0.0000      -0.027416        -0.7460

MULLIKEN ATOMIC CHARGES
-----------------------
   0 C :   -0.128335
   1 C :   -0.105917
   2 C :   -0.181138
   3 C :    0.258232
   4 C :   -0.181232
   5 C :   -0.105800
   6 F :   -0.199638
   7 H :    0.122699
   8 H :    0.126461
   9 H :    0.134072
  10 H :    0.134082
  11 H :    0.126514
Sum of atomic charges:    0.0000000

LOEWDIN ATOMIC CHARGES
----------------------
   0 C :   -0.148422
   1 C :   -0.129301
   2 C :   -0.119910
   3 C :   -0.245278
   4 C :   -0.119910
   5 C :   -0.129302
   6 F :    0.160883
   7 H :    0.142582
   8 H :    0.144269
   9 H :    0.150060
  10 H :    0.150060
  11 H :    0.144269

  Mayer bond orders larger than 0.100000
B(  0-C ,  1-C ) :   1.4338 B(  0-C ,  5-C ) :   1.4340 B(  0-C ,  7-H ) :   0.9679
B(  1-C ,  2-C ) :   1.3828 B(  1-C ,  8-H ) :   0.9626 B(  2-C ,  3-C ) :   1.4232
B(  2-C ,  9-H ) :   0.9698 B(  3-C ,  4-C ) :   1.4233 B(  3-C ,  6-F ) :   1.0442
B(  4-C ,  5-C ) :   1.3830 B(  4-C , 10-H ) :   0.9697 B(  5-C , 11-H ) :   0.9624

FINAL SINGLE POINT ENERGY      -331.505129713503

DIPOLE MOMENT
-------------

Method             : SCF
Type of density    : Electron Density
Multiplicity       :   1
Irrep              :   0
Energy             :  -331.5110651510028674 Eh
Relativity type    :
Basis              : AO
                                X                 Y                 Z
Electronic contribution:      6.064411244       0.000000214      -0.000066098
Nuclear contribution   :     -6.700954960       0.000000200       0.000074988
                        -----------------------------------------
Total Dipole Moment    :     -0.636543715       0.000000414       0.000008890
                        -----------------------------------------
Magnitude (a.u.)       :      0.636543715
Magnitude (Debye)      :      1.617965543

Rotational constants in cm-1:             0.189051             0.085692             0.058965
Rotational constants in MHz :          5667.596120          2568.980531          1767.717913

                             ****ORCA TERMINATED NORMALLY****
TOTAL RUN TIME: 0 days 0 hours 1 minutes 20 seconds 843 msec
