                         Program Version 6.0.0  -   RELEASE  -
|  1> ! wb97x-v def2-tzvp def2/J RIJCOSX DEFGRID2 scfconv7 GCP(DFT/TZ) printgap
|  2> %output
|  3>     printlevel normal
|  4> end
|  5> %cpcm
|  6>     smd true
|  7>     smdsolvent "water"
|  8> end
|  9> * xyz 0 1
| 10> C -1.9007955511394659 -4.709798885721454e-08 1.3845466709447727e-05
| 11> C -1.2035957975598552 -1.206671894131538 1.627998171033729e-05
| 12> C 0.18999961172368976 -1.217764905746362 6.440755798436793e-07
| 13> C 0.8482491741756694 -1.500762973953651e-07 -1.314521520624146e-05
| 14> C 0.18999968626573482 1.2177646454464628 -2.688764234959713e-05
| 15> C -1.2035957283520702 1.2066717474440758 -1.5870257915143204e-05
| 16> F 2.209683860788401 -1.909231634888839e-07 -3.59834296165672e-05
| 17> H -2.9855930106862134 -6.009130554433569e-08 2.4246479282228944e-05
| 18> H -1.7427204145322082 -2.1485304633993896 3.363261389245071e-05
| 19> H 0.755139505762141 -2.1435252486901053 5.542161903203112e-06
| 20> H 0.755139670898409 2.14352493920946 -4.427937701275504e-05
| 21> H -1.7427202334843064 2.148530384047536 -1.575158285055115e-05
| 22> *
| 23>
| 24>                          ****END OF INPUT****

CARTESIAN COORDINATES (ANGSTROEM)
---------------------------------
  C     -1.900796   -0.000000    0.000014
  C     -1.203596   -1.206672    0.000016
  C      0.190000   -1.217765    0.000001
  C      0.848249   -0.000000   -0.000013
  C      0.190000    1.217765   -0.000027
  C     -1.203596    1.206672   -0.000016
  F      2.209684   -0.000000   -0.000036
  H     -2.985593   -0.000000    0.000024
  H     -1.742720   -2.148530    0.000034
  H      0.755140   -2.143525    0.000006
  H      0.755140    2.143525   -0.000044
  H     -1.742720    2.148530   -0.000016

 Total Charge           Charge          ....    0
 Multiplicity           Mult            ....    1
 Number of Electrons    NEL             ....   50
 Basis Dimension        Dim             ....  247

ORBITAL ENERGIES
----------------

  NO   OCC          E(Eh)            E(eV)
   0   2.0000     -27.575981      -750.3806
   1   2.0000     -12.136133      -330.2410
   2   2.0000     -12.059338      -328.1513
   3   2.0000     -12.059088      -328.1445
   4   2.0000     -12.056249      -328.0672
   5   2.0000     -12.056070      -328.0624
   6   2.0000     -12.050812      -327.9193
   7   2.0000      -1.994799       -54.2812
   8   2.0000      -1.400403       -38.1069
   9   2.0000      -1.306729       -35.5579
  10   2.0000      -1.286668       -35.0120
  11   2.0000      -1.207887       -32.8683
  12   2.0000      -1.160595       -31.5814
  13   2.0000      -1.136978       -30.9387
  14   2.0000      -1.100080       -29.9347
  15   2.0000      -1.076176       -29.2842
  16   2.0000      -0.957623       -26.0582
  17   2.0000      -0.957477       -26.0543
  18   2.0000      -0.904003       -24.5992
  19   2.0000      -0.882974       -24.0269
  20   2.0000      -0.835724       -22.7412
  21   2.0000      -0.816861       -22.2279
  22   2.0000      -0.784749       -21.3541
  23   2.0000      -0.654013       -17.7966
  24   2.0000      -0.648484       -17.6461
  25   0.0000      -0.253803        -6.9063
  26   0.0000      -0.245853        -6.6900
  27   0.0000      -0.221340        -6.0230
  28   0.0000      -0.074450        -2.0259
  29   0.0000      -0.012211        -0.3323

MULLIKEN ATOMIC CHARGES
-----------------------
   0 C :   -0.168732
   1 C :   -0.149912
   2 C :   -0.219591
   3 C :    0.279081
   4 C :   -0.219685
   5 C :   -0.149793
   6 F :   -0.221967
   7 H :    0.165675
   8 H :    0.169557
   9 H :    0.172874
  10 H :    0.172884
  11 H :    0.169610
Sum of atomic charges:    0.0000000

LOEWDIN ATOMIC CHARGES
----------------------
   0 C :   -0.153597
   1 C :   -0.133685
   2 C :   -0.124859
   3 C :   -0.256036
   4 C :   -0.124859
   5 C :   -0.133685
   6 F :    0.145770
   7 H :    0.152280
   8 H :    0.154719
   9 H :    0.159617
  10 H :    0.159616
  11 H :    0.154719

  Mayer bond orders larger than 0.100000
B(  0-C ,  1-C ) :   1.4107 B(  0-C ,  5-C ) :   1.4108 B(  0-C ,  7-H ) :   0.9682
B(  1-C ,  2-C ) :   1.3705 B(  1-C ,  8-H ) :   0.9626 B(  2-C ,  3-C ) :   1.4053
B(  2-C ,  9-H ) :   0.9709 B(  3-C ,  4-C ) :   1.4054 B(  3-C ,  6-F ) :   1.0198
B(  4-C ,  5-C ) :   1.3707 B(  4-C , 10-H ) :   0.9709 B(  5-C , 11-H ) :   0.9624

FINAL SINGLE POINT ENERGY      -331.506764346584

DIPOLE MOMENT
-------------

Method             : SCF
Type of density    : Electron Density
Multiplicity       :   1
Irrep              :   0
Energy             :  -331.5126997840835088 Eh
Relativity type    :
Basis              : AO
                                X                 Y                 Z
Electronic contribution:      5.868692724       0.000000676      -0.000063254
Nuclear contribution   :     -6.700954960       0.000000200       0.000074988
                        -----------------------------------------
Total Dipole Moment    :     -0.832262236       0.000000876       0.000011734
                        -----------------------------------------
Magnitude (a.u.)       :      0.832262236
Magnitude (Debye)      :      2.115442486

Rotational constants in cm-1:             0.189051             0.085692             0.058965
Rotational constants in MHz :          5667.596120          2568.980531          1767.717913

                             ****ORCA TERMINATED NORMALLY****
TOTAL RUN TIME: 0 days 0 hours 1 minutes 12 seconds 969 msec
