                         Program Version 6.0.0  -   RELEASE  -
|  1> ! r2scan-3c def2/J RI DEFGRID2 scfconv6 printgap
|  2> %output
|  3>     printlevel normal
|  4> end
|  5> * xyz 0 1
|  6> C -3.62258e-05 0.8326977932 -4.668e-06
|  7> Cl -1.4616499013 -0.1817853384 2.7264e-06
|  8> Cl 1.4616664639 -0.1817720823 -3.4133e-06
|  9> H 9.85194e-05 1.4324772525 0.9073116093
| 10> H -0.0002494125 1.4325570174 -0.9072318196
| 11> *
| 12>
| 13>                          ****END OF INPUT****

CARTESIAN COORDINATES (ANGSTROEM)
---------------------------------
  C     -0.000036    0.832698   -0.000005
  Cl    -1.461650   -0.181785    0.000003
  Cl     1.461666   -0.181772   -0.000003
  H      0.000099    1.432477    0.907312
  H     -0.000249    1.432557   -0.907232

 Total Charge           Charge          ....    0
 Multiplicity           Mult            ....    1
 Number of Electrons    NEL             ....   42
 Basis Dimension        Dim             ....   83

ORBITAL ENERGIES
----------------

  NO   OCC          E(Eh)            E(eV)
   0   2.0000    -101.226649     -2754.5171
   1   2.0000    -101.226645     -2754.5171
   2   2.0000     -10.163907      -276.5740
   3   2.0000      -9.382602      -255.3136
   4   2.0000      -9.382598      -255.3135
   5   2.0000      -7.129299      -193.9981
   6   2.0000      -7.129296      -193.9980
   7   2.0000      -7.118622      -193.7076
   8   2.0000      -7.118618      -193.7075
   9   2.0000      -7.118174      -193.6954
  10   2.0000      -7.118171      -193.6953
  11   2.0000      -0.871825       -23.7236
  12   2.0000      -0.790601       -21.5133
  13   2.0000      -0.636679       -17.3249
  14   2.0000      -0.470842       -12.8123
  15   2.0000      -0.439648       -11.9634
  16   2.0000      -0.425415       -11.5761
  17   2.0000      -0.307992        -8.3809
  18   2.0000      -0.301107        -8.1935
  19   2.0000      -0.283847        -7.7239
  20   2.0000      -0.281023        -7.6470
  21   0.0000      -0.034037        -0.9262
  22   0.0000       0.001285         0.0350
  23   0.0000       0.085593         2.3291
  24   0.0000       0.136361         3.7106
  25   0.0000       0.177292         4.8244

MULLIKEN ATOMIC CHARGES
-----------------------
   0 C :   -0.094242
   1 Cl:   -0.130043
   2 Cl:   -0.130068
   3 H :    0.177175
   4 H :    0.177178
Sum of atomic charges:    0.0000000

LOEWDIN ATOMIC CHARGES
----------------------
   0 C :   -0.379543
   1 Cl:    0.031004
   2 Cl:    0.030972
   3 H :    0.158787
   4 H :    0.158781

  Mayer bond orders larger than 0.100000
B(  0-C ,  1-Cl) :   1.0236 B(  0-C ,  2-Cl) :   1.0235 B(  0-C ,  3-H ) :   0.9402
B(  0-C ,  4-H ) :   0.9402

Dispersion correction           -0.000958127
FINAL SINGLE POINT ENERGY      -959.641568193149

DIPOLE MOMENT
-------------

Method             : SCF
Type of density    : Electron Density
Multiplicity       :   1
Irrep              :   0
Energy             :  -959.6475679894255109 Eh
Relativity type    :
Basis              : AO
                                X                 Y                 Z
Electronic contribution:      0.000075790      -2.483889795      -0.000064173
Nuclear contribution   :     -0.000163795       3.175879787       0.000075779
                        -----------------------------------------
Total Dipole Moment    :     -0.000088005       0.691989993       0.000011606
                        -----------------------------------------
Magnitude (a.u.)       :      0.691989998
Magnitude (Debye)      :      1.758898794

Rotational constants in cm-1:             1.023677             0.110076             0.101372
Rotational constants in MHz :         30689.069385          3299.980580          3039.053506

                             ****ORCA TERMINATED NORMALLY****
TOTAL RUN TIME: 0 days 0 hours 0 minutes 6 seconds 182 msec
