                         Program Version 6.0.0  -   RELEASE  -
|  1> ! r2scan-3c def2/J RI DEFGRID2 scfconv6 printgap
|  2> %output
|  3>     printlevel normal
|  4> end
|  5> %cpcm
|  6>     smd true
|  7>     smdsolvent "water"
|  8> end
|  9> * xyz 0 1
| 10> C -3.62258e-05 0.8326977932 -4.668e-06
| 11> Cl -1.4616499013 -0.1817853384 2.7264e-06
| 12> Cl 1.4616664639 -0.1817720823 -3.4133e-06
| 13> H 9.85194e-05 1.4324772525 0.9073116093
| 14> H -0.0002494125 1.4325570174 -0.9072318196
| 15> *
| 16>
| 17>                          ****END OF INPUT****

CARTESIAN COORDINATES (ANGSTROEM)
---------------------------------
  C     -0.000036    0.832698   -0.000005
  Cl    -1.461650   -0.181785    0.000003
  Cl     1.461666   -0.181772   -0.000003
  H      0.000099    1.432477    0.907312
  H     -0.000249    1.432557   -0.907232

 Total Charge           Charge          ....    0
 Multiplicity           Mult            ....    1
 Number of Electrons    NEL             ....   42
 Basis Dimension        Dim             ....   83

ORBITAL ENERGIES
----------------

  NO   OCC          E(Eh)            E(eV)
   0   2.0000    -101.222045     -2754.3919
   1   2.0000    -101.222042     -2754.3918
   2   2.0000     -10.149678      -276.1868
   3   2.0000      -9.378283      -255.1961
   4   2.0000      -9.378280      -255.1960
   5   2.0000      -7.124689      -193.8727
   6   2.0000      -7.124687      -193.8726
   7   2.0000      -7.114439      -193.5937
   8   2.0000      -7.114436      -193.5936
   9   2.0000      -7.113957      -193.5806
  10   2.0000      -7.113954      -193.5805
  11   2.0000      -0.864734       -23.5306
  12   2.0000      -0.786340       -21.3974
  13   2.0000      -0.624033       -16.9808
  14   2.0000      -0.454183       -12.3589
  15   2.0000      -0.429807       -11.6956
  16   2.0000      -0.419246       -11.4083
  17   2.0000      -0.304230        -8.2785
  18   2.0000      -0.298442        -8.1210
  19   2.0000      -0.281633        -7.6636
  20   2.0000      -0.274938        -7.4814
  21   0.0000      -0.026615        -0.7242
  22   0.0000       0.010590         0.2882
  23   0.0000       0.102335         2.7847
  24   0.0000       0.161225         4.3872
  25   0.0000       0.190993         5.1972

MULLIKEN ATOMIC CHARGES
-----------------------
   0 C :   -0.102744
   1 Cl:   -0.165218
   2 Cl:   -0.165249
   3 H :    0.216603
   4 H :    0.216609
Sum of atomic charges:    0.0000000

LOEWDIN ATOMIC CHARGES
----------------------
   0 C :   -0.368201
   1 Cl:    0.008540
   2 Cl:    0.008505
   3 H :    0.175581
   4 H :    0.175575

  Mayer bond orders larger than 0.100000
B(  0-C ,  1-Cl) :   1.0011 B(  0-C ,  2-Cl) :   1.0011 B(  0-C ,  3-H ) :   0.9289
B(  0-C ,  4-H ) :   0.9289

Dispersion correction           -0.000958127
FINAL SINGLE POINT ENERGY      -959.645204966505

DIPOLE MOMENT
-------------

Method             : SCF
Type of density    : Electron Density
Multiplicity       :   1
Irrep              :   0
Energy             :  -959.6512047627815036 Eh
Relativity type    :
Basis              : AO
                                X                 Y                 Z
Electronic contribution:      0.000048404      -2.222151548      -0.000058505
Nuclear contribution   :     -0.000163795       3.175879787       0.000075779
                        -----------------------------------------
Total Dipole Moment    :     -0.000115391       0.953728240       0.000017274
                        -----------------------------------------
Magnitude (a.u.)       :      0.953728247
Magnitude (Debye)      :      2.424184551

Rotational constants in cm-1:             1.023677             0.110076             0.101372
Rotational constants in MHz :         30689.069385          3299.980580          3039.053506

                             ****ORCA TERMINATED NORMALLY****
TOTAL RUN TIME: 0 days 0 hours 0 minutes 7 seconds 815 msec
