                         Program Version 6.0.1  -  RELEASE   -
|  1> ! pbe def2-sv(p) def2/J RI DEFGRID1 loosescf d4 GCP(DFT/SV(P)) printgap
|  2> %output
|  3>     printlevel normal
|  4> end
|  5> * xyz 0 1
|  6> C 3.2537321739 -1.7990731618 1.5944647111
|  7> C 2.9948781968 -2.3756005525 0.2125563814
|  8> O 2.7518412568 -1.3120781896 -0.7286197798
|  9> C 1.5382505182 -1.1029933316 -1.1861630932
| 10> O 0.5601245516 -1.7624222794 -0.8859202718
| 11> C 1.5001333978 0.0642122468 -2.1494554994
| 12> C 0.3750373307 1.0355452272 -1.7900957349
| 13> H 0.3351937994 1.837811807 -2.5322041853
| 14> C 0.5466391017 1.6540295799 -0.4161091708
| 15> O -0.3837739942 1.7510560555 0.3643010713
| 16> O 1.7689780247 2.0309240036 -0.1790893769
| 17> C 2.0738718491 2.6124113825 1.109125358
| 18> C 1.7273875347 4.0911024458 1.1353010992
| 19> S -1.2870272815 0.2736649992 -1.837749498
| 20> P -1.5777195255 -0.4177473295 0.14610516
| 21> S -0.4050710281 -0.778103134 1.6948714124
| 22> O -2.8960346329 0.3734951463 0.6195154424
| 23> C -2.9397944859 1.4279104232 1.5767407373
| 24> O -2.2947342541 -1.7452564433 -0.389831131
| 25> C -2.8262756785 -2.729032136 0.4981384586
| 26> H 2.3561687274 -1.311467559 1.9715220713
| 27> H 3.5226258961 -2.6026599522 2.2716806635
| 28> H 4.0635356667 -1.0768555702 1.5513364804
| 29> H 2.1284031243 -3.0425479099 0.2221400551
| 30> H 3.8731439982 -2.8987204693 -0.1694637132
| 31> H 1.3089847443 -0.329463756 -3.1488558789
| 32> H 2.4615080677 0.5765355012 -2.124642386
| 33> H 1.5223785982 2.0625931436 1.8771923732
| 34> H 3.1454448033 2.4504049346 1.222155767
| 35> H 0.6551757229 4.2293790934 1.0177597459
| 36> H 2.0315250795 4.5092492066 2.088964846
| 37> H 2.2443378537 4.6114102435 0.3339954822
| 38> H -2.1783038252 1.2697413431 2.3425611373
| 39> H -3.9354280575 1.3919803815 2.0130517581
| 40> H -2.7667398547 2.3809378539 1.0804713452
| 41> H -2.1106976254 -2.9427471009 1.2954852254
| 42> H -2.9911207736 -3.6153409538 -0.1093701296
| 43> H -3.7633036943 -2.374938369 0.9287341812
| 44> *
| 45>
| 46>                          ****END OF INPUT****

CARTESIAN COORDINATES (ANGSTROEM)
---------------------------------
  C      3.253732   -1.799073    1.594465
  C      2.994878   -2.375601    0.212556
  O      2.751841   -1.312078   -0.728620
  C      1.538251   -1.102993   -1.186163
  O      0.560125   -1.762422   -0.885920
  C      1.500133    0.064212   -2.149455
  C      0.375037    1.035545   -1.790096
  H      0.335194    1.837812   -2.532204
  C      0.546639    1.654030   -0.416109
  O     -0.383774    1.751056    0.364301
  O      1.768978    2.030924   -0.179089
  C      2.073872    2.612411    1.109125
  C      1.727388    4.091102    1.135301
  S     -1.287027    0.273665   -1.837749
  P     -1.577720   -0.417747    0.146105
  S     -0.405071   -0.778103    1.694871
  O     -2.896035    0.373495    0.619515
  C     -2.939794    1.427910    1.576741
  O     -2.294734   -1.745256   -0.389831
  C     -2.826276   -2.729032    0.498138
  H      2.356169   -1.311468    1.971522
  H      3.522626   -2.602660    2.271681
  H      4.063536   -1.076856    1.551336
  H      2.128403   -3.042548    0.222140
  H      3.873144   -2.898720   -0.169464
  H      1.308985   -0.329464   -3.148856
  H      2.461508    0.576536   -2.124642
  H      1.522379    2.062593    1.877192
  H      3.145445    2.450405    1.222156
  H      0.655176    4.229379    1.017760
  H      2.031525    4.509249    2.088965
  H      2.244338    4.611410    0.333995
  H     -2.178304    1.269741    2.342561
  H     -3.935428    1.391980    2.013052
  H     -2.766740    2.380938    1.080471
  H     -2.110698   -2.942747    1.295485
  H     -2.991121   -3.615341   -0.109370
  H     -3.763304   -2.374938    0.928734

 Total Charge           Charge          ....    0
 Multiplicity           Mult            ....    1
 Number of Electrons    NEL             ....  174
 Basis Dimension        Dim             ....  316

ORBITAL ENERGIES
----------------

  NO   OCC          E(Eh)            E(eV)
   0   2.0000     -88.023393     -2395.2383
   1   2.0000     -87.963347     -2393.6044
   2   2.0000     -76.410628     -2079.2389
   3   2.0000     -18.826378      -512.2918
   4   2.0000     -18.802030      -511.6293
   5   2.0000     -18.763572      -510.5827
   6   2.0000     -18.763254      -510.5741
   7   2.0000     -18.760153      -510.4897
   8   2.0000     -18.734647      -509.7957
   9   2.0000     -10.031374      -272.9676
  10   2.0000     -10.008298      -272.3396
  11   2.0000      -9.960377      -271.0356
  12   2.0000      -9.953884      -270.8590
  13   2.0000      -9.942071      -270.5375
  14   2.0000      -9.920747      -269.9572
  15   2.0000      -9.920534      -269.9515
  16   2.0000      -9.913719      -269.7660
  17   2.0000      -9.897565      -269.3264
  18   2.0000      -9.879206      -268.8269
  19   2.0000      -7.668758      -208.6775
  20   2.0000      -7.608240      -207.0307
  21   2.0000      -6.405355      -174.2986
  22   2.0000      -5.697276      -155.0308
  23   2.0000      -5.693785      -154.9358
  24   2.0000      -5.684440      -154.6815
  25   2.0000      -5.637488      -153.4038
  26   2.0000      -5.628936      -153.1711
  27   2.0000      -5.627928      -153.1437
  28   2.0000      -4.628033      -125.9352
  29   2.0000      -4.627636      -125.9244
  30   2.0000      -4.625873      -125.8764
  31   2.0000      -1.036739       -28.2111
  32   2.0000      -1.008430       -27.4408
  33   2.0000      -0.956696       -26.0330
  34   2.0000      -0.941047       -25.6072
  35   2.0000      -0.913721       -24.8636
  36   2.0000      -0.911087       -24.7919
  37   2.0000      -0.765635       -20.8340
  38   2.0000      -0.715993       -19.4831
  39   2.0000      -0.707364       -19.2484
  40   2.0000      -0.681218       -18.5369
  41   2.0000      -0.646765       -17.5994
  42   2.0000      -0.626287       -17.0421
  43   2.0000      -0.610163       -16.6034
  44   2.0000      -0.607590       -16.5334
  45   2.0000      -0.591244       -16.0886
  46   2.0000      -0.566588       -15.4176
  47   2.0000      -0.514419       -13.9981
  48   2.0000      -0.500403       -13.6167
  49   2.0000      -0.496044       -13.4981
  50   2.0000      -0.484913       -13.1952
  51   2.0000      -0.460461       -12.5298
  52   2.0000      -0.452741       -12.3197
  53   2.0000      -0.449946       -12.2436
  54   2.0000      -0.431360       -11.7379
  55   2.0000      -0.430116       -11.7040
  56   2.0000      -0.425766       -11.5857
  57   2.0000      -0.414428       -11.2771
  58   2.0000      -0.403529       -10.9806
  59   2.0000      -0.400748       -10.9049
  60   2.0000      -0.394430       -10.7330
  61   2.0000      -0.388782       -10.5793
  62   2.0000      -0.384701       -10.4682
  63   2.0000      -0.379243       -10.3197
  64   2.0000      -0.373750       -10.1703
  65   2.0000      -0.369753       -10.0615
  66   2.0000      -0.361723        -9.8430
  67   2.0000      -0.353667        -9.6238
  68   2.0000      -0.350295        -9.5320
  69   2.0000      -0.340843        -9.2748
  70   2.0000      -0.337676        -9.1886
  71   2.0000      -0.328816        -8.9475
  72   2.0000      -0.320841        -8.7305
  73   2.0000      -0.311687        -8.4814
  74   2.0000      -0.294631        -8.0173
  75   2.0000      -0.290404        -7.9023
  76   2.0000      -0.282620        -7.6905
  77   2.0000      -0.280171        -7.6238
  78   2.0000      -0.267000        -7.2654
  79   2.0000      -0.255255        -6.9458
  80   2.0000      -0.252620        -6.8742
  81   2.0000      -0.245988        -6.6937
  82   2.0000      -0.241076        -6.5600
  83   2.0000      -0.223758        -6.0888
  84   2.0000      -0.190606        -5.1867
  85   2.0000      -0.179964        -4.8971
  86   2.0000      -0.172287        -4.6882
  87   0.0000      -0.051022        -1.3884
  88   0.0000      -0.043713        -1.1895
  89   0.0000      -0.025507        -0.6941
  90   0.0000       0.012258         0.3336
  91   0.0000       0.031795         0.8652

MULLIKEN ATOMIC CHARGES
-----------------------
   0 C :   -0.307834
   1 C :   -0.017294
   2 O :   -0.225721
   3 C :    0.092818
   4 O :   -0.183992
   5 C :   -0.027010
   6 C :   -0.326904
   7 H :    0.153885
   8 C :    0.218781
   9 O :   -0.194920
  10 O :   -0.215211
  11 C :   -0.016702
  12 C :   -0.310679
  13 S :   -0.055420
  14 P :    0.661641
  15 S :   -0.360143
  16 O :   -0.393512
  17 C :   -0.083512
  18 O :   -0.384379
  19 C :   -0.090686
  20 H :    0.139071
  21 H :    0.107873
  22 H :    0.102916
  23 H :    0.119195
  24 H :    0.100057
  25 H :    0.126228
  26 H :    0.112149
  27 H :    0.129593
  28 H :    0.109516
  29 H :    0.130774
  30 H :    0.120489
  31 H :    0.115628
  32 H :    0.107901
  33 H :    0.108902
  34 H :    0.104517
  35 H :    0.112427
  36 H :    0.115864
  37 H :    0.103698
Sum of atomic charges:    0.0000000

LOEWDIN ATOMIC CHARGES
----------------------
   0 C :   -0.359588
   1 C :   -0.110136
   2 O :   -0.051517
   3 C :    0.024284
   4 O :   -0.161988
   5 C :   -0.251189
   6 C :   -0.263694
   7 H :    0.152469
   8 C :    0.019072
   9 O :   -0.151874
  10 O :   -0.031498
  11 C :   -0.106337
  12 C :   -0.356323
  13 S :    0.126038
  14 P :    0.606578
  15 S :   -0.328154
  16 O :   -0.263478
  17 C :   -0.215295
  18 O :   -0.257434
  19 C :   -0.214524
  20 H :    0.123848
  21 H :    0.129295
  22 H :    0.119344
  23 H :    0.124291
  24 H :    0.115704
  25 H :    0.148828
  26 H :    0.137264
  27 H :    0.128041
  28 H :    0.121599
  29 H :    0.131472
  30 H :    0.135002
  31 H :    0.125759
  32 H :    0.103120
  33 H :    0.112492
  34 H :    0.106907
  35 H :    0.106513
  36 H :    0.117637
  37 H :    0.107472

  Mayer bond orders larger than 0.100000
B(  0-C ,  1-C ) :   1.1789 B(  0-C , 20-H ) :   0.9289 B(  0-C , 21-H ) :   0.9423
B(  0-C , 22-H ) :   0.9487 B(  1-C ,  2-O ) :   0.9036 B(  1-C , 23-H ) :   0.9045
B(  1-C , 24-H ) :   0.9361 B(  2-O ,  3-C ) :   1.2474 B(  3-C ,  4-O ) :   1.9937
B(  3-C ,  5-C ) :   0.9980 B(  5-C ,  6-C ) :   1.0131 B(  5-C , 25-H ) :   0.8854
B(  5-C , 26-H ) :   0.8860 B(  6-C ,  7-H ) :   0.8724 B(  6-C ,  8-C ) :   0.9038
B(  6-C , 13-S ) :   1.0623 B(  8-C ,  9-O ) :   1.9131 B(  8-C , 10-O ) :   1.2844
B(  9-O , 14-P ) :   0.1165 B( 10-O , 11-C ) :   0.8945 B( 11-C , 12-C ) :   1.1724
B( 11-C , 27-H ) :   0.9120 B( 11-C , 28-H ) :   0.9359 B( 12-C , 29-H ) :   0.9446
B( 12-C , 30-H ) :   0.9433 B( 12-C , 31-H ) :   0.9473 B( 13-S , 14-P ) :   0.9110
B( 13-S , 15-S ) :   0.1168 B( 14-P , 15-S ) :   1.4907 B( 14-P , 16-O ) :   1.0784
B( 14-P , 18-O ) :   1.0886 B( 16-O , 17-C ) :   0.9443 B( 17-C , 32-H ) :   0.9300
B( 17-C , 33-H ) :   0.9567 B( 17-C , 34-H ) :   0.9522 B( 18-O , 19-C ) :   0.9435
B( 19-C , 35-H ) :   0.9312 B( 19-C , 36-H ) :   0.9602 B( 19-C , 37-H ) :   0.9515

Dispersion correction           -0.055474808
FINAL SINGLE POINT ENERGY     -1978.994739199756

DIPOLE MOMENT
-------------

Method             : SCF
Type of density    : Electron Density
Multiplicity       :   1
Irrep              :   0
Energy             : -1979.1233177977387641 Eh
Relativity type    :
Basis              : AO
                                X                 Y                 Z
Electronic contribution:    -11.270672374      -4.205896039     -11.219037396
Nuclear contribution   :     12.618272413       5.186436052      11.238200814
                        -----------------------------------------
Total Dipole Moment    :      1.347600039       0.980540013       0.019163418
                        -----------------------------------------
Magnitude (a.u.)       :      1.666688879
Magnitude (Debye)      :      4.236386458

Rotational constants in cm-1:             0.011654             0.009538             0.007534
Rotational constants in MHz :           349.374385           285.954493           225.867175

                             ****ORCA TERMINATED NORMALLY****
TOTAL RUN TIME: 0 days 0 hours 1 minutes 35 seconds 536 msec
