                         Program Version 6.0.1  -  RELEASE   -
|  1> ! pbe def2-sv(p) def2/J RI DEFGRID1 loosescf d4 GCP(DFT/SV(P)) printgap
|  2> %output
|  3>     printlevel normal
|  4> end
|  5> * xyz 0 1
|  6> C 4.5844706223 0.82774858 -0.6132437387
|  7> C 4.2685538642 0.0813098 -1.8986546557
|  8> O 2.884903468 -0.3178307777 -1.9364623645
|  9> C 2.5474768727 -1.4769527335 -1.4064444518
| 10> O 3.3215162104 -2.2661886628 -0.9157763382
| 11> C 1.0534858604 -1.725916672 -1.5330263604
| 12> C 0.2608105627 -0.6121367804 -0.851822756
| 13> H 0.5390703984 0.3602077359 -1.2698139577
| 14> C 0.5006696048 -0.5840260012 0.6457560767
| 15> O -0.403511066 -0.683091487 1.4509496774
| 16> O 1.76391596 -0.4492841304 0.9377954994
| 17> C 2.1397669978 -0.3370550591 2.3291033071
| 18> C 2.2348053712 1.1252699815 2.730379
| 19> S -1.5238735266 -0.8707074358 -1.1220156958
| 20> P -2.2615768407 0.7135256834 0.104294748
| 21> S -1.0593055064 2.1623206459 0.6366392939
| 22> O -3.3680292735 1.3357674488 -0.8531191434
| 23> C -4.4407519048 0.5622882459 -1.4181712415
| 24> O -3.2181546844 0.0814817601 1.2158017104
| 25> C -2.9073151207 -0.238759127 2.5712493336
| 26> H 3.9160324374 1.6775298601 -0.5012188435
| 27> H 4.4598379244 0.1651165856 0.2391594454
| 28> H 5.6104431363 1.1793359498 -0.6442557945
| 29> H 4.8909226036 -0.8132527511 -1.9907878714
| 30> H 4.3908139979 0.7227999515 -2.7716883821
| 31> H 0.8171061373 -2.6933624335 -1.0897150284
| 32> H 0.7918036971 -1.7421713577 -2.5921057473
| 33> H 1.3951809634 -0.8626946418 2.9321183634
| 34> H 3.1050959021 -0.8401443915 2.3962323051
| 35> H 1.2817012215 1.6234421437 2.5597627775
| 36> H 2.4871762311 1.1916025324 3.7832472761
| 37> H 2.9975666037 1.6306534772 2.1453845015
| 38> H -4.0386628066 -0.3073148205 -1.9392525889
| 39> H -4.937341313 1.2322972678 -2.1152564834
| 40> H -5.1229754105 0.2454499782 -0.6316825265
| 41> H -3.8529590413 -0.1801499801 3.1059029461
| 42> H -2.1929855912 0.4778910242 2.9761501694
| 43> H -2.4885541782 -1.241480574 2.626870213
| 44> *
| 45>
| 46>                          ****END OF INPUT****

CARTESIAN COORDINATES (ANGSTROEM)
---------------------------------
  C      4.584471    0.827749   -0.613244
  C      4.268554    0.081310   -1.898655
  O      2.884903   -0.317831   -1.936462
  C      2.547477   -1.476953   -1.406444
  O      3.321516   -2.266189   -0.915776
  C      1.053486   -1.725917   -1.533026
  C      0.260811   -0.612137   -0.851823
  H      0.539070    0.360208   -1.269814
  C      0.500670   -0.584026    0.645756
  O     -0.403511   -0.683091    1.450950
  O      1.763916   -0.449284    0.937795
  C      2.139767   -0.337055    2.329103
  C      2.234805    1.125270    2.730379
  S     -1.523874   -0.870707   -1.122016
  P     -2.261577    0.713526    0.104295
  S     -1.059306    2.162321    0.636639
  O     -3.368029    1.335767   -0.853119
  C     -4.440752    0.562288   -1.418171
  O     -3.218155    0.081482    1.215802
  C     -2.907315   -0.238759    2.571249
  H      3.916032    1.677530   -0.501219
  H      4.459838    0.165117    0.239159
  H      5.610443    1.179336   -0.644256
  H      4.890923   -0.813253   -1.990788
  H      4.390814    0.722800   -2.771688
  H      0.817106   -2.693362   -1.089715
  H      0.791804   -1.742171   -2.592106
  H      1.395181   -0.862695    2.932118
  H      3.105096   -0.840144    2.396232
  H      1.281701    1.623442    2.559763
  H      2.487176    1.191603    3.783247
  H      2.997567    1.630653    2.145385
  H     -4.038663   -0.307315   -1.939253
  H     -4.937341    1.232297   -2.115256
  H     -5.122975    0.245450   -0.631683
  H     -3.852959   -0.180150    3.105903
  H     -2.192986    0.477891    2.976150
  H     -2.488554   -1.241481    2.626870

 Total Charge           Charge          ....    0
 Multiplicity           Mult            ....    1
 Number of Electrons    NEL             ....  174
 Basis Dimension        Dim             ....  316

ORBITAL ENERGIES
----------------

  NO   OCC          E(Eh)            E(eV)
   0   2.0000     -88.033959     -2395.5258
   1   2.0000     -87.976139     -2393.9525
   2   2.0000     -76.421443     -2079.5332
   3   2.0000     -18.822533      -512.1872
   4   2.0000     -18.806105      -511.7401
   5   2.0000     -18.785770      -511.1868
   6   2.0000     -18.778951      -511.0012
   7   2.0000     -18.752338      -510.2771
   8   2.0000     -18.741634      -509.9858
   9   2.0000     -10.026264      -272.8285
  10   2.0000     -10.015572      -272.5376
  11   2.0000      -9.955901      -270.9138
  12   2.0000      -9.951904      -270.8051
  13   2.0000      -9.949802      -270.7479
  14   2.0000      -9.943164      -270.5672
  15   2.0000      -9.935799      -270.3668
  16   2.0000      -9.918900      -269.9070
  17   2.0000      -9.890581      -269.1364
  18   2.0000      -9.888016      -269.0666
  19   2.0000      -7.679072      -208.9582
  20   2.0000      -7.621458      -207.3904
  21   2.0000      -6.417682      -174.6340
  22   2.0000      -5.707008      -155.2956
  23   2.0000      -5.703924      -155.2117
  24   2.0000      -5.695660      -154.9868
  25   2.0000      -5.650710      -153.7636
  26   2.0000      -5.642135      -153.5303
  27   2.0000      -5.641139      -153.5032
  28   2.0000      -4.640489      -126.2741
  29   2.0000      -4.639544      -126.2484
  30   2.0000      -4.638170      -126.2110
  31   2.0000      -1.031161       -28.0593
  32   2.0000      -1.013909       -27.5899
  33   2.0000      -0.976280       -26.5659
  34   2.0000      -0.934939       -25.4410
  35   2.0000      -0.930323       -25.3154
  36   2.0000      -0.918854       -25.0033
  37   2.0000      -0.769420       -20.9370
  38   2.0000      -0.713930       -19.4270
  39   2.0000      -0.712318       -19.3831
  40   2.0000      -0.692223       -18.8363
  41   2.0000      -0.658474       -17.9180
  42   2.0000      -0.632323       -17.2064
  43   2.0000      -0.623319       -16.9614
  44   2.0000      -0.613226       -16.6867
  45   2.0000      -0.597970       -16.2716
  46   2.0000      -0.568808       -15.4781
  47   2.0000      -0.513909       -13.9842
  48   2.0000      -0.505641       -13.7592
  49   2.0000      -0.503702       -13.7064
  50   2.0000      -0.482179       -13.1208
  51   2.0000      -0.470540       -12.8040
  52   2.0000      -0.469361       -12.7720
  53   2.0000      -0.450520       -12.2593
  54   2.0000      -0.441142       -12.0041
  55   2.0000      -0.433195       -11.7878
  56   2.0000      -0.425040       -11.5659
  57   2.0000      -0.421941       -11.4816
  58   2.0000      -0.413031       -11.2391
  59   2.0000      -0.409063       -11.1312
  60   2.0000      -0.404262       -11.0005
  61   2.0000      -0.396697       -10.7947
  62   2.0000      -0.391996       -10.6668
  63   2.0000      -0.387343       -10.5401
  64   2.0000      -0.378845       -10.3089
  65   2.0000      -0.369853       -10.0642
  66   2.0000      -0.361731        -9.8432
  67   2.0000      -0.354946        -9.6586
  68   2.0000      -0.351531        -9.5657
  69   2.0000      -0.342998        -9.3335
  70   2.0000      -0.339299        -9.2328
  71   2.0000      -0.330829        -9.0023
  72   2.0000      -0.327237        -8.9046
  73   2.0000      -0.314074        -8.5464
  74   2.0000      -0.303447        -8.2572
  75   2.0000      -0.299020        -8.1367
  76   2.0000      -0.295592        -8.0435
  77   2.0000      -0.290599        -7.9076
  78   2.0000      -0.277857        -7.5609
  79   2.0000      -0.264060        -7.1854
  80   2.0000      -0.261755        -7.1227
  81   2.0000      -0.255390        -6.9495
  82   2.0000      -0.241911        -6.5827
  83   2.0000      -0.225317        -6.1312
  84   2.0000      -0.211020        -5.7422
  85   2.0000      -0.197931        -5.3860
  86   2.0000      -0.190456        -5.1826
  87   0.0000      -0.044237        -1.2038
  88   0.0000      -0.042881        -1.1669
  89   0.0000      -0.021764        -0.5922
  90   0.0000       0.006790         0.1848
  91   0.0000       0.028429         0.7736

MULLIKEN ATOMIC CHARGES
-----------------------
   0 C :   -0.320264
   1 C :   -0.010763
   2 O :   -0.238471
   3 C :    0.111767
   4 O :   -0.194839
   5 C :   -0.050243
   6 C :   -0.314144
   7 H :    0.167305
   8 C :    0.209625
   9 O :   -0.194279
  10 O :   -0.219523
  11 C :   -0.015946
  12 C :   -0.314779
  13 S :   -0.117505
  14 P :    0.642527
  15 S :   -0.332410
  16 O :   -0.366313
  17 C :   -0.111689
  18 O :   -0.396968
  19 C :   -0.080604
  20 H :    0.126298
  21 H :    0.131451
  22 H :    0.112905
  23 H :    0.109289
  24 H :    0.105589
  25 H :    0.108053
  26 H :    0.128511
  27 H :    0.113304
  28 H :    0.117725
  29 H :    0.141970
  30 H :    0.112774
  31 H :    0.118009
  32 H :    0.120255
  33 H :    0.130106
  34 H :    0.120688
  35 H :    0.115334
  36 H :    0.113920
  37 H :    0.121334
Sum of atomic charges:    0.0000000

LOEWDIN ATOMIC CHARGES
----------------------
   0 C :   -0.356887
   1 C :   -0.108448
   2 O :   -0.060343
   3 C :    0.025867
   4 O :   -0.162035
   5 C :   -0.239025
   6 C :   -0.268635
   7 H :    0.146441
   8 C :    0.019554
   9 O :   -0.162812
  10 O :   -0.026815
  11 C :   -0.105838
  12 C :   -0.357673
  13 S :    0.082571
  14 P :    0.586581
  15 S :   -0.320812
  16 O :   -0.251652
  17 C :   -0.212742
  18 O :   -0.252215
  19 C :   -0.205398
  20 H :    0.127567
  21 H :    0.127874
  22 H :    0.130639
  23 H :    0.120442
  24 H :    0.119153
  25 H :    0.139319
  26 H :    0.146816
  27 H :    0.122404
  28 H :    0.121587
  29 H :    0.131592
  30 H :    0.131393
  31 H :    0.125103
  32 H :    0.105024
  33 H :    0.125321
  34 H :    0.114268
  35 H :    0.115513
  36 H :    0.111296
  37 H :    0.115007

  Mayer bond orders larger than 0.100000
B(  0-C ,  1-C ) :   1.1766 B(  0-C , 20-H ) :   0.9437 B(  0-C , 21-H ) :   0.9394
B(  0-C , 22-H ) :   0.9410 B(  1-C ,  2-O ) :   0.9167 B(  1-C , 23-H ) :   0.9130
B(  1-C , 24-H ) :   0.9368 B(  2-O ,  3-C ) :   1.2071 B(  3-C ,  4-O ) :   2.0709
B(  3-C ,  5-C ) :   1.0253 B(  5-C ,  6-C ) :   1.0535 B(  5-C , 25-H ) :   0.8998
B(  5-C , 26-H ) :   0.8858 B(  6-C ,  7-H ) :   0.8571 B(  6-C ,  8-C ) :   0.8806
B(  6-C , 13-S ) :   1.0391 B(  8-C ,  9-O ) :   1.9711 B(  8-C , 10-O ) :   1.2692
B( 10-O , 11-C ) :   0.8854 B( 11-C , 12-C ) :   1.1826 B( 11-C , 27-H ) :   0.9097
B( 11-C , 28-H ) :   0.9285 B( 12-C , 29-H ) :   0.9312 B( 12-C , 30-H ) :   0.9413
B( 12-C , 31-H ) :   0.9469 B( 13-S , 14-P ) :   0.9264 B( 13-S , 15-S ) :   0.1100
B( 14-P , 15-S ) :   1.5987 B( 14-P , 16-O ) :   1.1141 B( 14-P , 18-O ) :   1.0944
B( 16-O , 17-C ) :   0.9308 B( 17-C , 32-H ) :   0.9359 B( 17-C , 33-H ) :   0.9605
B( 17-C , 34-H ) :   0.9469 B( 18-O , 19-C ) :   0.9253 B( 19-C , 35-H ) :   0.9536
B( 19-C , 36-H ) :   0.9432 B( 19-C , 37-H ) :   0.9516

Dispersion correction           -0.052438397
FINAL SINGLE POINT ENERGY     -1979.012024184073

DIPOLE MOMENT
-------------

Method             : SCF
Type of density    : Electron Density
Multiplicity       :   1
Irrep              :   0
Energy             : -1979.1439538821500719 Eh
Relativity type    :
Basis              : AO
                                X                 Y                 Z
Electronic contribution:    -14.940864572      -1.375950298      -6.581718858
Nuclear contribution   :     15.290661518       1.003890595       6.692076410
                        -----------------------------------------
Total Dipole Moment    :      0.349796946      -0.372059702       0.110357553
                        -----------------------------------------
Magnitude (a.u.)       :      0.522460635
Magnitude (Debye)      :      1.327989397

Rotational constants in cm-1:             0.016215             0.006347             0.005605
Rotational constants in MHz :           486.115727           190.275819           168.044144

                             ****ORCA TERMINATED NORMALLY****
TOTAL RUN TIME: 0 days 0 hours 0 minutes 41 seconds 273 msec
