                         Program Version 6.0.0  -   RELEASE  -
|  1> ! r2scan-3c def2/J RI DEFGRID2 scfconv6 printgap
|  2> %output
|  3>     printlevel normal
|  4> end
|  5> * xyz 0 1
|  6> C 4.1727555608 0.4045101503 -2.5994312742
|  7> C 4.6177860018 -0.2309847589 -1.2971093448
|  8> O 3.5013137366 -0.6716987735 -0.5025460377
|  9> P 2.5465387062 0.3667481556 0.2202301129
| 10> S 3.3602723875 2.0147772778 0.8907967973
| 11> O 1.9946866694 -0.6383242381 1.3124095861
| 12> C 1.2604601514 -0.1758654651 2.4630666256
| 13> C 1.1005560067 -1.3549227092 3.4002139407
| 14> S 0.9212566245 0.6575496237 -1.1310117909
| 15> C 0.4553326985 -1.0851508918 -1.3440004934
| 16> S -0.6401110764 -1.7128024393 -0.0369410213
| 17> P -2.1507203879 -0.25831113 -0.2531179064
| 18> S -2.5757905685 0.3012164876 -2.0874273393
| 19> O -1.6460141319 0.8673895007 0.7437298905
| 20> C -2.0289029764 2.2485869323 0.586981434
| 21> C -3.4891516709 2.4573923425 0.9255110517
| 22> O -3.3627573046 -0.8739398538 0.5648237903
| 23> C -4.2010484056 -1.908318307 0.0091043232
| 24> C -5.4808795729 -1.9557382287 0.8188430417
| 25> H 5.0463694071 0.6525579507 -3.1937054326
| 26> H 3.5384277242 -0.2762852561 -3.1614441223
| 27> H 3.6147806067 1.3181407965 -2.3952229388
| 28> H 5.2069885868 0.4776835821 -0.7067498291
| 29> H 5.194230216 -1.1413768885 -1.4672001983
| 30> H 1.8205404104 0.6427611242 2.9270712438
| 31> H 0.2862656418 0.2024403089 2.1370726861
| 32> H 0.5572609327 -1.0367720296 4.2837573354
| 33> H 0.5489762959 -2.1469901893 2.9007581063
| 34> H 2.0762988534 -1.7325440193 3.6912219144
| 35> H 1.3457546977 -1.7095578871 -1.3312772247
| 36> H -0.0639826441 -1.1403811145 -2.2995501922
| 37> H -1.3682233099 2.7868665195 1.2685159481
| 38> H -1.8171283759 2.5518661359 -0.443824463
| 39> H -3.7228333193 3.5162682096 0.8776543686
| 40> H -4.1111043866 1.9235271519 0.2077626877
| 41> H -3.7003213262 2.0818794592 1.9232062544
| 42> H -4.397507954 -1.670508603 -1.0418096711
| 43> H -3.6571634936 -2.8549625359 0.0663178172
| 44> H -6.1129353534 -2.7514599047 0.438601938
| 45> H -5.2506220251 -2.1456946699 1.8630340573
| 46> H -6.0100962535 -1.0102785915 0.7413040229
| 47> *
| 48>
| 49>                          ****END OF INPUT****

CARTESIAN COORDINATES (ANGSTROEM)
---------------------------------
  C      4.172756    0.404510   -2.599431
  C      4.617786   -0.230985   -1.297109
  O      3.501314   -0.671699   -0.502546
  P      2.546539    0.366748    0.220230
  S      3.360272    2.014777    0.890797
  O      1.994687   -0.638324    1.312410
  C      1.260460   -0.175865    2.463067
  C      1.100556   -1.354923    3.400214
  S      0.921257    0.657550   -1.131012
  C      0.455333   -1.085151   -1.344000
  S     -0.640111   -1.712802   -0.036941
  P     -2.150720   -0.258311   -0.253118
  S     -2.575791    0.301216   -2.087427
  O     -1.646014    0.867390    0.743730
  C     -2.028903    2.248587    0.586981
  C     -3.489152    2.457392    0.925511
  O     -3.362757   -0.873940    0.564824
  C     -4.201048   -1.908318    0.009104
  C     -5.480880   -1.955738    0.818843
  H      5.046369    0.652558   -3.193705
  H      3.538428   -0.276285   -3.161444
  H      3.614781    1.318141   -2.395223
  H      5.206989    0.477684   -0.706750
  H      5.194230   -1.141377   -1.467200
  H      1.820540    0.642761    2.927071
  H      0.286266    0.202440    2.137073
  H      0.557261   -1.036772    4.283757
  H      0.548976   -2.146990    2.900758
  H      2.076299   -1.732544    3.691222
  H      1.345755   -1.709558   -1.331277
  H     -0.063983   -1.140381   -2.299550
  H     -1.368223    2.786867    1.268516
  H     -1.817128    2.551866   -0.443824
  H     -3.722833    3.516268    0.877654
  H     -4.111104    1.923527    0.207763
  H     -3.700321    2.081879    1.923206
  H     -4.397508   -1.670509   -1.041810
  H     -3.657163   -2.854963    0.066318
  H     -6.112935   -2.751460    0.438602
  H     -5.250622   -2.145695    1.863034
  H     -6.010096   -1.010279    0.741304

 Total Charge           Charge          ....    0
 Multiplicity           Mult            ....    1
 Number of Electrons    NEL             ....  202
 Basis Dimension        Dim             ....  539

ORBITAL ENERGIES
----------------

  NO   OCC          E(Eh)            E(eV)
   0   2.0000     -88.578459     -2410.3424
   1   2.0000     -88.574008     -2410.2213
   2   2.0000     -88.525370     -2408.8978
   3   2.0000     -88.520930     -2408.7770
   4   2.0000     -76.917893     -2093.0423
   5   2.0000     -76.911965     -2092.8810
   6   2.0000     -18.997455      -516.9470
   7   2.0000     -18.993028      -516.8266
   8   2.0000     -18.991882      -516.7954
   9   2.0000     -18.987387      -516.6731
  10   2.0000     -10.110302      -275.1153
  11   2.0000     -10.103149      -274.9207
  12   2.0000     -10.099131      -274.8113
  13   2.0000     -10.097419      -274.7647
  14   2.0000     -10.090138      -274.5666
  15   2.0000     -10.037231      -273.1269
  16   2.0000     -10.029296      -272.9110
  17   2.0000     -10.028649      -272.8934
  18   2.0000     -10.026237      -272.8278
  19   2.0000      -7.872948      -214.2338
  20   2.0000      -7.867839      -214.0948
  21   2.0000      -7.820019      -212.7935
  22   2.0000      -7.815539      -212.6716
  23   2.0000      -6.596491      -179.4996
  24   2.0000      -6.590560      -179.3382
  25   2.0000      -5.819795      -158.3647
  26   2.0000      -5.816778      -158.2826
  27   2.0000      -5.815076      -158.2363
  28   2.0000      -5.811413      -158.1366
  29   2.0000      -5.810097      -158.1008
  30   2.0000      -5.804971      -157.9613
  31   2.0000      -5.767623      -156.9450
  32   2.0000      -5.763131      -156.8228
  33   2.0000      -5.760311      -156.7460
  34   2.0000      -5.760083      -156.7398
  35   2.0000      -5.755796      -156.6232
  36   2.0000      -5.755649      -156.6192
  37   2.0000      -4.741843      -129.0321
  38   2.0000      -4.741456      -129.0216
  39   2.0000      -4.740308      -128.9903
  40   2.0000      -4.735909      -128.8706
  41   2.0000      -4.735781      -128.8671
  42   2.0000      -4.734128      -128.8222
  43   2.0000      -1.054043       -28.6820
  44   2.0000      -1.051363       -28.6090
  45   2.0000      -1.014935       -27.6178
  46   2.0000      -1.009321       -27.4650
  47   2.0000      -0.802672       -21.8418
  48   2.0000      -0.760972       -20.7071
  49   2.0000      -0.751507       -20.4495
  50   2.0000      -0.734732       -19.9931
  51   2.0000      -0.727348       -19.7922
  52   2.0000      -0.710989       -19.3470
  53   2.0000      -0.688931       -18.7468
  54   2.0000      -0.670127       -18.2351
  55   2.0000      -0.632642       -17.2151
  56   2.0000      -0.626775       -17.0554
  57   2.0000      -0.603493       -16.4219
  58   2.0000      -0.596373       -16.2281
  59   2.0000      -0.593375       -16.1465
  60   2.0000      -0.532796       -14.4981
  61   2.0000      -0.525830       -14.3086
  62   2.0000      -0.499604       -13.5949
  63   2.0000      -0.489972       -13.3328
  64   2.0000      -0.479787       -13.0557
  65   2.0000      -0.465404       -12.6643
  66   2.0000      -0.457507       -12.4494
  67   2.0000      -0.456145       -12.4123
  68   2.0000      -0.443771       -12.0756
  69   2.0000      -0.437614       -11.9081
  70   2.0000      -0.426262       -11.5992
  71   2.0000      -0.416635       -11.3372
  72   2.0000      -0.411433       -11.1957
  73   2.0000      -0.401490       -10.9251
  74   2.0000      -0.394031       -10.7221
  75   2.0000      -0.391762       -10.6604
  76   2.0000      -0.384766       -10.4700
  77   2.0000      -0.376743       -10.2517
  78   2.0000      -0.371750       -10.1158
  79   2.0000      -0.366355        -9.9690
  80   2.0000      -0.364953        -9.9309
  81   2.0000      -0.360995        -9.8232
  82   2.0000      -0.358825        -9.7641
  83   2.0000      -0.353398        -9.6164
  84   2.0000      -0.345917        -9.4129
  85   2.0000      -0.331849        -9.0301
  86   2.0000      -0.329326        -8.9614
  87   2.0000      -0.320401        -8.7186
  88   2.0000      -0.317153        -8.6302
  89   2.0000      -0.305249        -8.3063
  90   2.0000      -0.302879        -8.2418
  91   2.0000      -0.291464        -7.9311
  92   2.0000      -0.282850        -7.6967
  93   2.0000      -0.281398        -7.6572
  94   2.0000      -0.270090        -7.3495
  95   2.0000      -0.247298        -6.7293
  96   2.0000      -0.232002        -6.3131
  97   2.0000      -0.224997        -6.1225
  98   2.0000      -0.219615        -5.9760
  99   2.0000      -0.218922        -5.9572
 100   2.0000      -0.216710        -5.8970
 101   0.0000      -0.047556        -1.2941
 102   0.0000      -0.022469        -0.6114
 103   0.0000      -0.009499        -0.2585
 104   0.0000       0.003052         0.0830
 105   0.0000       0.007076         0.1925

MULLIKEN ATOMIC CHARGES
-----------------------
   0 C :   -0.430088
   1 C :   -0.156156
   2 O :   -0.312242
   3 P :    0.692365
   4 S :   -0.461783
   5 O :   -0.293366
   6 C :   -0.126861
   7 C :   -0.459911
   8 S :   -0.139934
   9 C :   -0.228874
  10 S :   -0.130030
  11 P :    0.679336
  12 S :   -0.473016
  13 O :   -0.275572
  14 C :   -0.149215
  15 C :   -0.443682
  16 O :   -0.284628
  17 C :   -0.156160
  18 C :   -0.438467
  19 H :    0.147565
  20 H :    0.149001
  21 H :    0.174842
  22 H :    0.173643
  23 H :    0.149114
  24 H :    0.165184
  25 H :    0.173209
  26 H :    0.145445
  27 H :    0.159736
  28 H :    0.153551
  29 H :    0.197080
  30 H :    0.214846
  31 H :    0.157303
  32 H :    0.176018
  33 H :    0.148780
  34 H :    0.167345
  35 H :    0.154739
  36 H :    0.171191
  37 H :    0.151989
  38 H :    0.147921
  39 H :    0.154197
  40 H :    0.155585
Sum of atomic charges:    0.0000000

LOEWDIN ATOMIC CHARGES
----------------------
   0 C :   -0.403486
   1 C :    0.022107
   2 O :   -0.667773
   3 P :    0.370765
   4 S :   -0.112149
   5 O :   -0.672936
   6 C :    0.013746
   7 C :   -0.387479
   8 S :    0.169401
   9 C :   -0.410393
  10 S :    0.175900
  11 P :    0.368019
  12 S :   -0.124565
  13 O :   -0.688747
  14 C :    0.017850
  15 C :   -0.399029
  16 O :   -0.663406
  17 C :    0.020064
  18 C :   -0.385113
  19 H :    0.159475
  20 H :    0.157635
  21 H :    0.166602
  22 H :    0.180807
  23 H :    0.179565
  24 H :    0.178700
  25 H :    0.187671
  26 H :    0.159196
  27 H :    0.160906
  28 H :    0.159891
  29 H :    0.191832
  30 H :    0.190474
  31 H :    0.182334
  32 H :    0.182719
  33 H :    0.160396
  34 H :    0.164744
  35 H :    0.160166
  36 H :    0.180784
  37 H :    0.172010
  38 H :    0.160522
  39 H :    0.160294
  40 H :    0.160502

  Mayer bond orders larger than 0.100000
B(  0-C ,  1-C ) :   0.9283 B(  0-C , 19-H ) :   0.9605 B(  0-C , 20-H ) :   0.9686
B(  0-C , 21-H ) :   0.9615 B(  1-C ,  2-O ) :   0.8089 B(  1-C , 22-H ) :   0.9660
B(  1-C , 23-H ) :   0.9598 B(  2-O ,  3-P ) :   1.0963 B(  3-P ,  4-S ) :   1.8048
B(  3-P ,  5-O ) :   1.1268 B(  3-P ,  8-S ) :   1.0440 B(  5-O ,  6-C ) :   0.7529
B(  6-C ,  7-C ) :   0.9377 B(  6-C , 24-H ) :   0.9406 B(  6-C , 25-H ) :   0.9359
B(  7-C , 26-H ) :   0.9676 B(  7-C , 27-H ) :   0.9744 B(  7-C , 28-H ) :   0.9738
B(  8-S ,  9-C ) :   0.8979 B(  9-C , 10-S ) :   0.9121 B(  9-C , 29-H ) :   0.9165
B(  9-C , 30-H ) :   0.9146 B( 10-S , 11-P ) :   1.0695 B( 11-P , 12-S ) :   1.7456
B( 11-P , 13-O ) :   1.1565 B( 11-P , 16-O ) :   1.0945 B( 13-O , 14-C ) :   0.7904
B( 14-C , 15-C ) :   0.9247 B( 14-C , 31-H ) :   0.9592 B( 14-C , 32-H ) :   0.9627
B( 15-C , 33-H ) :   0.9623 B( 15-C , 34-H ) :   0.9602 B( 15-C , 35-H ) :   0.9715
B( 16-O , 17-C ) :   0.7771 B( 17-C , 18-C ) :   0.9584 B( 17-C , 36-H ) :   0.9514
B( 17-C , 37-H ) :   0.9458 B( 18-C , 38-H ) :   0.9640 B( 18-C , 39-H ) :   0.9714
B( 18-C , 40-H ) :   0.9710

Dispersion correction           -0.021252903
FINAL SINGLE POINT ENERGY     -2932.466970856743

DIPOLE MOMENT
-------------

Method             : SCF
Type of density    : Electron Density
Multiplicity       :   1
Irrep              :   0
Energy             : -2932.4920934983833831 Eh
Relativity type    :
Basis              : AO
                                X                 Y                 Z
Electronic contribution:      9.988153721       2.457084490      -6.675356076
Nuclear contribution   :    -10.674693908      -3.401603105       6.964253029
                        -----------------------------------------
Total Dipole Moment    :     -0.686540187      -0.944518616       0.288896952
                        -----------------------------------------
Magnitude (a.u.)       :      1.202877505
Magnitude (Debye)      :      3.057471637

Rotational constants in cm-1:             0.013023             0.004634             0.004470
Rotational constants in MHz :           390.412403           138.911076           133.995841

                             ****ORCA TERMINATED NORMALLY****
TOTAL RUN TIME: 0 days 0 hours 1 minutes 23 seconds 841 msec
