                         Program Version 6.0.0  -   RELEASE  -
|  1> ! r2scan-3c def2/J RI DEFGRID2 scfconv6 printgap
|  2> %output
|  3>     printlevel normal
|  4> end
|  5> %cpcm
|  6>     smd true
|  7>     smdsolvent "water"
|  8> end
|  9> * xyz 0 1
| 10> C 4.1727555608 0.4045101503 -2.5994312742
| 11> C 4.6177860018 -0.2309847589 -1.2971093448
| 12> O 3.5013137366 -0.6716987735 -0.5025460377
| 13> P 2.5465387062 0.3667481556 0.2202301129
| 14> S 3.3602723875 2.0147772778 0.8907967973
| 15> O 1.9946866694 -0.6383242381 1.3124095861
| 16> C 1.2604601514 -0.1758654651 2.4630666256
| 17> C 1.1005560067 -1.3549227092 3.4002139407
| 18> S 0.9212566245 0.6575496237 -1.1310117909
| 19> C 0.4553326985 -1.0851508918 -1.3440004934
| 20> S -0.6401110764 -1.7128024393 -0.0369410213
| 21> P -2.1507203879 -0.25831113 -0.2531179064
| 22> S -2.5757905685 0.3012164876 -2.0874273393
| 23> O -1.6460141319 0.8673895007 0.7437298905
| 24> C -2.0289029764 2.2485869323 0.586981434
| 25> C -3.4891516709 2.4573923425 0.9255110517
| 26> O -3.3627573046 -0.8739398538 0.5648237903
| 27> C -4.2010484056 -1.908318307 0.0091043232
| 28> C -5.4808795729 -1.9557382287 0.8188430417
| 29> H 5.0463694071 0.6525579507 -3.1937054326
| 30> H 3.5384277242 -0.2762852561 -3.1614441223
| 31> H 3.6147806067 1.3181407965 -2.3952229388
| 32> H 5.2069885868 0.4776835821 -0.7067498291
| 33> H 5.194230216 -1.1413768885 -1.4672001983
| 34> H 1.8205404104 0.6427611242 2.9270712438
| 35> H 0.2862656418 0.2024403089 2.1370726861
| 36> H 0.5572609327 -1.0367720296 4.2837573354
| 37> H 0.5489762959 -2.1469901893 2.9007581063
| 38> H 2.0762988534 -1.7325440193 3.6912219144
| 39> H 1.3457546977 -1.7095578871 -1.3312772247
| 40> H -0.0639826441 -1.1403811145 -2.2995501922
| 41> H -1.3682233099 2.7868665195 1.2685159481
| 42> H -1.8171283759 2.5518661359 -0.443824463
| 43> H -3.7228333193 3.5162682096 0.8776543686
| 44> H -4.1111043866 1.9235271519 0.2077626877
| 45> H -3.7003213262 2.0818794592 1.9232062544
| 46> H -4.397507954 -1.670508603 -1.0418096711
| 47> H -3.6571634936 -2.8549625359 0.0663178172
| 48> H -6.1129353534 -2.7514599047 0.438601938
| 49> H -5.2506220251 -2.1456946699 1.8630340573
| 50> H -6.0100962535 -1.0102785915 0.7413040229
| 51> *
| 52>
| 53>                          ****END OF INPUT****

CARTESIAN COORDINATES (ANGSTROEM)
---------------------------------
  C      4.172756    0.404510   -2.599431
  C      4.617786   -0.230985   -1.297109
  O      3.501314   -0.671699   -0.502546
  P      2.546539    0.366748    0.220230
  S      3.360272    2.014777    0.890797
  O      1.994687   -0.638324    1.312410
  C      1.260460   -0.175865    2.463067
  C      1.100556   -1.354923    3.400214
  S      0.921257    0.657550   -1.131012
  C      0.455333   -1.085151   -1.344000
  S     -0.640111   -1.712802   -0.036941
  P     -2.150720   -0.258311   -0.253118
  S     -2.575791    0.301216   -2.087427
  O     -1.646014    0.867390    0.743730
  C     -2.028903    2.248587    0.586981
  C     -3.489152    2.457392    0.925511
  O     -3.362757   -0.873940    0.564824
  C     -4.201048   -1.908318    0.009104
  C     -5.480880   -1.955738    0.818843
  H      5.046369    0.652558   -3.193705
  H      3.538428   -0.276285   -3.161444
  H      3.614781    1.318141   -2.395223
  H      5.206989    0.477684   -0.706750
  H      5.194230   -1.141377   -1.467200
  H      1.820540    0.642761    2.927071
  H      0.286266    0.202440    2.137073
  H      0.557261   -1.036772    4.283757
  H      0.548976   -2.146990    2.900758
  H      2.076299   -1.732544    3.691222
  H      1.345755   -1.709558   -1.331277
  H     -0.063983   -1.140381   -2.299550
  H     -1.368223    2.786867    1.268516
  H     -1.817128    2.551866   -0.443824
  H     -3.722833    3.516268    0.877654
  H     -4.111104    1.923527    0.207763
  H     -3.700321    2.081879    1.923206
  H     -4.397508   -1.670509   -1.041810
  H     -3.657163   -2.854963    0.066318
  H     -6.112935   -2.751460    0.438602
  H     -5.250622   -2.145695    1.863034
  H     -6.010096   -1.010279    0.741304

 Total Charge           Charge          ....    0
 Multiplicity           Mult            ....    1
 Number of Electrons    NEL             ....  202
 Basis Dimension        Dim             ....  539

ORBITAL ENERGIES
----------------

  NO   OCC          E(Eh)            E(eV)
   0   2.0000     -88.578853     -2410.3531
   1   2.0000     -88.577506     -2410.3165
   2   2.0000     -88.531395     -2409.0617
   3   2.0000     -88.529588     -2409.0126
   4   2.0000     -76.919605     -2093.0889
   5   2.0000     -76.918943     -2093.0709
   6   2.0000     -18.996426      -516.9190
   7   2.0000     -18.994802      -516.8748
   8   2.0000     -18.993582      -516.8417
   9   2.0000     -18.993120      -516.8291
  10   2.0000     -10.106451      -275.0105
  11   2.0000     -10.090692      -274.5817
  12   2.0000     -10.090503      -274.5765
  13   2.0000     -10.089245      -274.5423
  14   2.0000     -10.087685      -274.4999
  15   2.0000     -10.019897      -272.6553
  16   2.0000     -10.018614      -272.6203
  17   2.0000     -10.018607      -272.6202
  18   2.0000     -10.018546      -272.6185
  19   2.0000      -7.873292      -214.2432
  20   2.0000      -7.871414      -214.1921
  21   2.0000      -7.826358      -212.9660
  22   2.0000      -7.824539      -212.9165
  23   2.0000      -6.598261      -179.5478
  24   2.0000      -6.597617      -179.5303
  25   2.0000      -5.820132      -158.3739
  26   2.0000      -5.818627      -158.3329
  27   2.0000      -5.817121      -158.2919
  28   2.0000      -5.814971      -158.2334
  29   2.0000      -5.810465      -158.1108
  30   2.0000      -5.808586      -158.0597
  31   2.0000      -5.773847      -157.1144
  32   2.0000      -5.772073      -157.0661
  33   2.0000      -5.766579      -156.9166
  34   2.0000      -5.766541      -156.9155
  35   2.0000      -5.764815      -156.8686
  36   2.0000      -5.764633      -156.8636
  37   2.0000      -4.743582      -129.0794
  38   2.0000      -4.743219      -129.0695
  39   2.0000      -4.742923      -129.0615
  40   2.0000      -4.742850      -129.0595
  41   2.0000      -4.742145      -129.0403
  42   2.0000      -4.741248      -129.0159
  43   2.0000      -1.055636       -28.7253
  44   2.0000      -1.053311       -28.6621
  45   2.0000      -1.013687       -27.5838
  46   2.0000      -1.012980       -27.5646
  47   2.0000      -0.802056       -21.8251
  48   2.0000      -0.757361       -20.6088
  49   2.0000      -0.745529       -20.2869
  50   2.0000      -0.724304       -19.7093
  51   2.0000      -0.720704       -19.6114
  52   2.0000      -0.710501       -19.3337
  53   2.0000      -0.692268       -18.8376
  54   2.0000      -0.675201       -18.3732
  55   2.0000      -0.628828       -17.1113
  56   2.0000      -0.622892       -16.9498
  57   2.0000      -0.596223       -16.2240
  58   2.0000      -0.590853       -16.0779
  59   2.0000      -0.588831       -16.0229
  60   2.0000      -0.529302       -14.4030
  61   2.0000      -0.523030       -14.2324
  62   2.0000      -0.495525       -13.4839
  63   2.0000      -0.488899       -13.3036
  64   2.0000      -0.478383       -13.0175
  65   2.0000      -0.460343       -12.5266
  66   2.0000      -0.455801       -12.4030
  67   2.0000      -0.448297       -12.1988
  68   2.0000      -0.440245       -11.9797
  69   2.0000      -0.435351       -11.8465
  70   2.0000      -0.422278       -11.4908
  71   2.0000      -0.412845       -11.2341
  72   2.0000      -0.407011       -11.0753
  73   2.0000      -0.398287       -10.8379
  74   2.0000      -0.393421       -10.7055
  75   2.0000      -0.385086       -10.4787
  76   2.0000      -0.382887       -10.4189
  77   2.0000      -0.369912       -10.0658
  78   2.0000      -0.363050        -9.8791
  79   2.0000      -0.359249        -9.7757
  80   2.0000      -0.353651        -9.6233
  81   2.0000      -0.352906        -9.6031
  82   2.0000      -0.351150        -9.5553
  83   2.0000      -0.347316        -9.4509
  84   2.0000      -0.341679        -9.2976
  85   2.0000      -0.329515        -8.9665
  86   2.0000      -0.324480        -8.8296
  87   2.0000      -0.315620        -8.5884
  88   2.0000      -0.313923        -8.5423
  89   2.0000      -0.304650        -8.2899
  90   2.0000      -0.298948        -8.1348
  91   2.0000      -0.288454        -7.8492
  92   2.0000      -0.282203        -7.6791
  93   2.0000      -0.279834        -7.6147
  94   2.0000      -0.272081        -7.4037
  95   2.0000      -0.249668        -6.7938
  96   2.0000      -0.238414        -6.4876
  97   2.0000      -0.232086        -6.3154
  98   2.0000      -0.230230        -6.2649
  99   2.0000      -0.224135        -6.0990
 100   2.0000      -0.222286        -6.0487
 101   0.0000      -0.049314        -1.3419
 102   0.0000      -0.028598        -0.7782
 103   0.0000      -0.012540        -0.3412
 104   0.0000      -0.002339        -0.0636
 105   0.0000       0.007053         0.1919

MULLIKEN ATOMIC CHARGES
-----------------------
   0 C :   -0.470175
   1 C :   -0.148159
   2 O :   -0.331146
   3 P :    0.714683
   4 S :   -0.515242
   5 O :   -0.314783
   6 C :   -0.119866
   7 C :   -0.497216
   8 S :   -0.162640
   9 C :   -0.237473
  10 S :   -0.132031
  11 P :    0.711378
  12 S :   -0.523363
  13 O :   -0.295451
  14 C :   -0.144277
  15 C :   -0.486766
  16 O :   -0.311552
  17 C :   -0.146731
  18 C :   -0.482258
  19 H :    0.171425
  20 H :    0.168961
  21 H :    0.167436
  22 H :    0.176606
  23 H :    0.175868
  24 H :    0.171237
  25 H :    0.178353
  26 H :    0.170595
  27 H :    0.167077
  28 H :    0.165045
  29 H :    0.230532
  30 H :    0.237264
  31 H :    0.178944
  32 H :    0.176900
  33 H :    0.172200
  34 H :    0.167951
  35 H :    0.169939
  36 H :    0.172367
  37 H :    0.171907
  38 H :    0.169981
  39 H :    0.166162
  40 H :    0.166314
Sum of atomic charges:    0.0000000

LOEWDIN ATOMIC CHARGES
----------------------
   0 C :   -0.406740
   1 C :    0.027784
   2 O :   -0.675485
   3 P :    0.375156
   4 S :   -0.151180
   5 O :   -0.685822
   6 C :    0.017203
   7 C :   -0.390970
   8 S :    0.159056
   9 C :   -0.400378
  10 S :    0.177662
  11 P :    0.372482
  12 S :   -0.156363
  13 O :   -0.697814
  14 C :    0.020237
  15 C :   -0.402445
  16 O :   -0.676167
  17 C :    0.024955
  18 C :   -0.389069
  19 H :    0.168050
  20 H :    0.163333
  21 H :    0.161332
  22 H :    0.181458
  23 H :    0.191208
  24 H :    0.181249
  25 H :    0.189320
  26 H :    0.168827
  27 H :    0.162263
  28 H :    0.162945
  29 H :    0.203889
  30 H :    0.198169
  31 H :    0.190700
  32 H :    0.182357
  33 H :    0.168899
  34 H :    0.162682
  35 H :    0.164193
  36 H :    0.181696
  37 H :    0.179993
  38 H :    0.169145
  39 H :    0.163471
  40 H :    0.162722

  Mayer bond orders larger than 0.100000
B(  0-C ,  1-C ) :   0.9178 B(  0-C , 19-H ) :   0.9554 B(  0-C , 20-H ) :   0.9656
B(  0-C , 21-H ) :   0.9635 B(  1-C ,  2-O ) :   0.7970 B(  1-C , 22-H ) :   0.9637
B(  1-C , 23-H ) :   0.9492 B(  2-O ,  3-P ) :   1.1051 B(  3-P ,  4-S ) :   1.7728
B(  3-P ,  5-O ) :   1.1293 B(  3-P ,  8-S ) :   1.0590 B(  5-O ,  6-C ) :   0.7474
B(  6-C ,  7-C ) :   0.9341 B(  6-C , 24-H ) :   0.9380 B(  6-C , 25-H ) :   0.9304
B(  7-C , 26-H ) :   0.9611 B(  7-C , 27-H ) :   0.9714 B(  7-C , 28-H ) :   0.9713
B(  8-S ,  9-C ) :   0.8938 B(  9-C , 10-S ) :   0.9061 B(  9-C , 29-H ) :   0.9059
B(  9-C , 30-H ) :   0.9065 B( 10-S , 11-P ) :   1.0879 B( 11-P , 12-S ) :   1.7005
B( 11-P , 13-O ) :   1.1618 B( 11-P , 16-O ) :   1.1005 B( 13-O , 14-C ) :   0.7780
B( 14-C , 15-C ) :   0.9175 B( 14-C , 31-H ) :   0.9501 B( 14-C , 32-H ) :   0.9592
B( 15-C , 33-H ) :   0.9566 B( 15-C , 34-H ) :   0.9600 B( 15-C , 35-H ) :   0.9702
B( 16-O , 17-C ) :   0.7705 B( 17-C , 18-C ) :   0.9534 B( 17-C , 36-H ) :   0.9481
B( 17-C , 37-H ) :   0.9371 B( 18-C , 38-H ) :   0.9581 B( 18-C , 39-H ) :   0.9689
B( 18-C , 40-H ) :   0.9689

Dispersion correction           -0.021252903
FINAL SINGLE POINT ENERGY     -2932.475011107400

DIPOLE MOMENT
-------------

Method             : SCF
Type of density    : Electron Density
Multiplicity       :   1
Irrep              :   0
Energy             : -2932.5001337490407423 Eh
Relativity type    :
Basis              : AO
                                X                 Y                 Z
Electronic contribution:      9.896263735       2.033918014      -6.677126135
Nuclear contribution   :    -10.674693908      -3.401603105       6.964253029
                        -----------------------------------------
Total Dipole Moment    :     -0.778430173      -1.367685091       0.287126894
                        -----------------------------------------
Magnitude (a.u.)       :      1.599674309
Magnitude (Debye)      :      4.066048960

Rotational constants in cm-1:             0.013023             0.004634             0.004470
Rotational constants in MHz :           390.412403           138.911076           133.995841

                             ****ORCA TERMINATED NORMALLY****
TOTAL RUN TIME: 0 days 0 hours 1 minutes 55 seconds 973 msec
