                         Program Version 6.0.0  -   RELEASE  -
|  1> ! pbe def2-sv(p) def2/J RI DEFGRID1 loosescf d4 GCP(DFT/SV(P)) printgap
|  2> %output
|  3>     printlevel normal
|  4> end
|  5> * xyz 0 1
|  6> C 5.1752780482 -0.3949680239 -0.8159614155
|  7> C 4.7094956247 0.7029077728 0.1169809941
|  8> O 3.5767437054 0.3042512319 0.9233435174
|  9> P 2.1223778114 -0.0359582522 0.3955016388
| 10> S 0.8625328126 0.0625608513 1.8859235825
| 11> O 2.1520072529 -1.4455994129 -0.3600825048
| 12> C 1.8628488474 -2.6803300009 0.3133638685
| 13> C 2.9802987675 -3.0705197881 1.2578973933
| 14> S 1.9029810915 1.234434401 -1.2720497464
| 15> C 0.212545114 0.8099186182 -1.7507216629
| 16> S -1.0469539766 1.6530655228 -0.7366740566
| 17> P -2.3362628458 -0.0085503862 -0.3853795001
| 18> S -1.5009197823 -1.7784574917 -0.4440209335
| 19> O -3.4366450757 0.0494505773 -1.5117729387
| 20> C -4.0499521539 1.2334399662 -2.0772472451
| 21> C -4.6963549337 2.1270847495 -1.0412779172
| 22> O -3.1628647971 0.3951744398 0.9037189396
| 23> C -2.6664086504 0.5078164443 2.2488045361
| 24> C -2.6333510202 -0.8390303817 2.9420959979
| 25> H 4.3921342389 -0.6418445667 -1.5294563025
| 26> H 6.0506007759 -0.0497347298 -1.3572517022
| 27> H 5.4344218089 -1.2863693333 -0.2506605728
| 28> H 4.4342248691 1.6004342067 -0.4425851809
| 29> H 5.4698262956 0.9498850854 0.8599056251
| 30> H 0.915306361 -2.5744692565 0.8513101335
| 31> H 1.7333008109 -3.4014522109 -0.4948110215
| 32> H 3.1004086537 -2.2997482928 2.0195499429
| 33> H 2.7304293216 -4.0096998139 1.7410640967
| 34> H 3.9143261093 -3.1818466781 0.7137645631
| 35> H 0.0629915043 -0.2700416092 -1.6607826457
| 36> H 0.1093787756 1.1432885571 -2.7799932672
| 37> H -3.283456928 1.7798460381 -2.6328152894
| 38> H -4.7860941536 0.8205670599 -2.7686462778
| 39> H -3.9380292757 2.5768879932 -0.403484786
| 40> H -5.2424985905 2.9162650362 -1.5490074456
| 41> H -5.3827644207 1.5538454701 -0.4238498405
| 42> H -1.6709179191 0.9584205063 2.238377155
| 43> H -3.3720973451 1.1852825664 2.7333500731
| 44> H -2.3431639721 -0.6980098808 3.9779884324
| 45> H -3.6107924553 -1.3115923991 2.8961892959
| 46> H -1.9034986206 -1.4886969427 2.4637286744
| 47> *
| 48>
| 49>                          ****END OF INPUT****

CARTESIAN COORDINATES (ANGSTROEM)
---------------------------------
  C      5.175278   -0.394968   -0.815961
  C      4.709496    0.702908    0.116981
  O      3.576744    0.304251    0.923344
  P      2.122378   -0.035958    0.395502
  S      0.862533    0.062561    1.885924
  O      2.152007   -1.445599   -0.360083
  C      1.862849   -2.680330    0.313364
  C      2.980299   -3.070520    1.257897
  S      1.902981    1.234434   -1.272050
  C      0.212545    0.809919   -1.750722
  S     -1.046954    1.653066   -0.736674
  P     -2.336263   -0.008550   -0.385380
  S     -1.500920   -1.778457   -0.444021
  O     -3.436645    0.049451   -1.511773
  C     -4.049952    1.233440   -2.077247
  C     -4.696355    2.127085   -1.041278
  O     -3.162865    0.395174    0.903719
  C     -2.666409    0.507816    2.248805
  C     -2.633351   -0.839030    2.942096
  H      4.392134   -0.641845   -1.529456
  H      6.050601   -0.049735   -1.357252
  H      5.434422   -1.286369   -0.250661
  H      4.434225    1.600434   -0.442585
  H      5.469826    0.949885    0.859906
  H      0.915306   -2.574469    0.851310
  H      1.733301   -3.401452   -0.494811
  H      3.100409   -2.299748    2.019550
  H      2.730429   -4.009700    1.741064
  H      3.914326   -3.181847    0.713765
  H      0.062992   -0.270042   -1.660783
  H      0.109379    1.143289   -2.779993
  H     -3.283457    1.779846   -2.632815
  H     -4.786094    0.820567   -2.768646
  H     -3.938029    2.576888   -0.403485
  H     -5.242499    2.916265   -1.549007
  H     -5.382764    1.553845   -0.423850
  H     -1.670918    0.958421    2.238377
  H     -3.372097    1.185283    2.733350
  H     -2.343164   -0.698010    3.977988
  H     -3.610792   -1.311592    2.896189
  H     -1.903499   -1.488697    2.463729

 Total Charge           Charge          ....    0
 Multiplicity           Mult            ....    1
 Number of Electrons    NEL             ....  202
 Basis Dimension        Dim             ....  334

ORBITAL ENERGIES
----------------

  NO   OCC          E(Eh)            E(eV)
   0   2.0000     -88.046146     -2395.8574
   1   2.0000     -88.040940     -2395.7158
   2   2.0000     -87.979058     -2394.0319
   3   2.0000     -87.977379     -2393.9862
   4   2.0000     -76.423629     -2079.5927
   5   2.0000     -76.423111     -2079.5786
   6   2.0000     -18.792721      -511.3759
   7   2.0000     -18.790691      -511.3207
   8   2.0000     -18.785907      -511.1905
   9   2.0000     -18.784466      -511.1513
  10   2.0000      -9.960892      -271.0497
  11   2.0000      -9.956862      -270.9400
  12   2.0000      -9.954477      -270.8751
  13   2.0000      -9.946810      -270.6665
  14   2.0000      -9.940311      -270.4896
  15   2.0000      -9.890264      -269.1278
  16   2.0000      -9.886874      -269.0355
  17   2.0000      -9.879028      -268.8220
  18   2.0000      -9.871980      -268.6302
  19   2.0000      -7.691580      -209.2985
  20   2.0000      -7.685674      -209.1378
  21   2.0000      -7.624202      -207.4651
  22   2.0000      -7.622572      -207.4207
  23   2.0000      -6.420819      -174.7194
  24   2.0000      -6.420743      -174.7173
  25   2.0000      -5.719393      -155.6326
  26   2.0000      -5.716028      -155.5410
  27   2.0000      -5.713493      -155.4720
  28   2.0000      -5.710203      -155.3825
  29   2.0000      -5.708594      -155.3387
  30   2.0000      -5.702764      -155.1801
  31   2.0000      -5.653169      -153.8306
  32   2.0000      -5.651572      -153.7871
  33   2.0000      -5.644999      -153.6082
  34   2.0000      -5.644029      -153.5818
  35   2.0000      -5.643372      -153.5640
  36   2.0000      -5.642365      -153.5366
  37   2.0000      -4.643659      -126.3604
  38   2.0000      -4.643470      -126.3552
  39   2.0000      -4.642838      -126.3380
  40   2.0000      -4.642436      -126.3271
  41   2.0000      -4.641048      -126.2893
  42   2.0000      -4.640994      -126.2879
  43   2.0000      -0.983352       -26.7584
  44   2.0000      -0.981344       -26.7037
  45   2.0000      -0.943260       -25.6674
  46   2.0000      -0.940852       -25.6019
  47   2.0000      -0.762615       -20.7518
  48   2.0000      -0.720466       -19.6049
  49   2.0000      -0.710698       -19.3391
  50   2.0000      -0.690589       -18.7919
  51   2.0000      -0.685943       -18.6655
  52   2.0000      -0.672032       -18.2869
  53   2.0000      -0.649230       -17.6665
  54   2.0000      -0.634667       -17.2702
  55   2.0000      -0.593154       -16.1406
  56   2.0000      -0.588302       -16.0085
  57   2.0000      -0.576683       -15.6923
  58   2.0000      -0.570689       -15.5292
  59   2.0000      -0.563376       -15.3302
  60   2.0000      -0.499280       -13.5861
  61   2.0000      -0.490300       -13.3417
  62   2.0000      -0.474068       -12.9001
  63   2.0000      -0.471350       -12.8261
  64   2.0000      -0.452691       -12.3184
  65   2.0000      -0.446199       -12.1417
  66   2.0000      -0.439671       -11.9641
  67   2.0000      -0.435874       -11.8607
  68   2.0000      -0.425873       -11.5886
  69   2.0000      -0.413918       -11.2633
  70   2.0000      -0.409588       -11.1454
  71   2.0000      -0.396511       -10.7896
  72   2.0000      -0.395760       -10.7692
  73   2.0000      -0.390741       -10.6326
  74   2.0000      -0.384890       -10.4734
  75   2.0000      -0.367697       -10.0055
  76   2.0000      -0.357602        -9.7308
  77   2.0000      -0.354355        -9.6425
  78   2.0000      -0.353388        -9.6162
  79   2.0000      -0.349341        -9.5060
  80   2.0000      -0.347822        -9.4647
  81   2.0000      -0.342608        -9.3228
  82   2.0000      -0.340770        -9.2728
  83   2.0000      -0.336214        -9.1488
  84   2.0000      -0.326449        -8.8831
  85   2.0000      -0.315269        -8.5789
  86   2.0000      -0.312057        -8.4915
  87   2.0000      -0.305733        -8.3194
  88   2.0000      -0.288564        -7.8522
  89   2.0000      -0.285090        -7.7577
  90   2.0000      -0.276671        -7.5286
  91   2.0000      -0.271328        -7.3832
  92   2.0000      -0.269780        -7.3411
  93   2.0000      -0.260912        -7.0998
  94   2.0000      -0.259947        -7.0735
  95   2.0000      -0.243162        -6.6168
  96   2.0000      -0.221311        -6.0222
  97   2.0000      -0.204281        -5.5588
  98   2.0000      -0.197219        -5.3666
  99   2.0000      -0.191726        -5.2171
 100   2.0000      -0.181516        -4.9393
 101   0.0000      -0.040360        -1.0983
 102   0.0000      -0.030969        -0.8427
 103   0.0000      -0.014019        -0.3815
 104   0.0000       0.007808         0.2125
 105   0.0000       0.017730         0.4825

MULLIKEN ATOMIC CHARGES
-----------------------
   0 C :   -0.315138
   1 C :   -0.028129
   2 O :   -0.370262
   3 P :    0.628416
   4 S :   -0.318691
   5 O :   -0.383505
   6 C :   -0.022582
   7 C :   -0.314726
   8 S :   -0.111887
   9 C :   -0.336553
  10 S :   -0.105495
  11 P :    0.613338
  12 S :   -0.310584
  13 O :   -0.360782
  14 C :    0.001874
  15 C :   -0.306623
  16 O :   -0.373324
  17 C :   -0.020270
  18 C :   -0.303066
  19 H :    0.130130
  20 H :    0.113301
  21 H :    0.126338
  22 H :    0.124302
  23 H :    0.115345
  24 H :    0.137604
  25 H :    0.103317
  26 H :    0.126850
  27 H :    0.111598
  28 H :    0.114066
  29 H :    0.197769
  30 H :    0.181136
  31 H :    0.102071
  32 H :    0.109376
  33 H :    0.118010
  34 H :    0.112413
  35 H :    0.123894
  36 H :    0.132331
  37 H :    0.100116
  38 H :    0.107407
  39 H :    0.110141
  40 H :    0.140472
Sum of atomic charges:   -0.0000000

LOEWDIN ATOMIC CHARGES
----------------------
   0 C :   -0.367509
   1 C :   -0.116262
   2 O :   -0.242042
   3 P :    0.571105
   4 S :   -0.305894
   5 O :   -0.248160
   6 C :   -0.126595
   7 C :   -0.366157
   8 S :    0.082246
   9 C :   -0.477306
  10 S :    0.065979
  11 P :    0.570280
  12 S :   -0.293944
  13 O :   -0.240136
  14 C :   -0.113981
  15 C :   -0.365806
  16 O :   -0.234762
  17 C :   -0.116318
  18 C :   -0.364553
  19 H :    0.124605
  20 H :    0.131694
  21 H :    0.127204
  22 H :    0.109346
  23 H :    0.124551
  24 H :    0.109538
  25 H :    0.117932
  26 H :    0.124389
  27 H :    0.130962
  28 H :    0.119962
  29 H :    0.123588
  30 H :    0.135330
  31 H :    0.106287
  32 H :    0.121972
  33 H :    0.118774
  34 H :    0.130567
  35 H :    0.129559
  36 H :    0.108644
  37 H :    0.115974
  38 H :    0.129515
  39 H :    0.124117
  40 H :    0.125306

  Mayer bond orders larger than 0.100000
B(  0-C ,  1-C ) :   1.1637 B(  0-C , 19-H ) :   0.9351 B(  0-C , 20-H ) :   0.9357
B(  0-C , 21-H ) :   0.9402 B(  1-C ,  2-O ) :   0.9066 B(  1-C , 22-H ) :   0.9197
B(  1-C , 23-H ) :   0.9341 B(  2-O ,  3-P ) :   1.1160 B(  3-P ,  4-S ) :   1.6510
B(  3-P ,  5-O ) :   1.0747 B(  3-P ,  8-S ) :   0.9572 B(  4-S ,  8-S ) :   0.1069
B(  5-O ,  6-C ) :   0.8996 B(  6-C ,  7-C ) :   1.1591 B(  6-C , 24-H ) :   0.9035
B(  6-C , 25-H ) :   0.9349 B(  7-C , 26-H ) :   0.9351 B(  7-C , 27-H ) :   0.9395
B(  7-C , 28-H ) :   0.9409 B(  8-S ,  9-C ) :   1.0091 B(  9-C , 10-S ) :   0.9912
B(  9-C , 29-H ) :   0.8430 B(  9-C , 30-H ) :   0.9123 B( 10-S , 11-P ) :   0.9448
B( 10-S , 12-S ) :   0.1153 B( 11-P , 12-S ) :   1.6241 B( 11-P , 13-O ) :   1.1324
B( 11-P , 16-O ) :   1.1141 B( 12-S , 29-H ) :   0.1164 B( 13-O , 14-C ) :   0.9085
B( 14-C , 15-C ) :   1.1702 B( 14-C , 31-H ) :   0.9206 B( 14-C , 32-H ) :   0.9345
B( 15-C , 33-H ) :   0.9402 B( 15-C , 34-H ) :   0.9359 B( 15-C , 35-H ) :   0.9437
B( 16-O , 17-C ) :   0.8971 B( 17-C , 18-C ) :   1.1743 B( 17-C , 36-H ) :   0.9096
B( 17-C , 37-H ) :   0.9345 B( 18-C , 38-H ) :   0.9387 B( 18-C , 39-H ) :   0.9467
B( 18-C , 40-H ) :   0.9303

Dispersion correction           -0.066886412
FINAL SINGLE POINT ENERGY     -2929.512507012993

DIPOLE MOMENT
-------------

Method             : SCF
Type of density    : Electron Density
Multiplicity       :   1
Irrep              :   0
Energy             : -2929.6316018445522786 Eh
Relativity type    :
Basis              : AO
                                X                 Y                 Z
Electronic contribution:     -2.397209788       5.959397036      -4.572871190
Nuclear contribution   :      2.811960316      -5.379047286       3.948789146
                        -----------------------------------------
Total Dipole Moment    :      0.414750528       0.580349749      -0.624082044
                        -----------------------------------------
Magnitude (a.u.)       :      0.947788072
Magnitude (Debye)      :      2.409085826

Rotational constants in cm-1:             0.013633             0.005018             0.004499
Rotational constants in MHz :           408.698403           150.447343           134.867839

                             ****ORCA TERMINATED NORMALLY****
TOTAL RUN TIME: 0 days 0 hours 0 minutes 21 seconds 319 msec
