                         Program Version 6.0.0  -   RELEASE  -
|  1> ! pbe def2-sv(p) def2/J RI DEFGRID1 loosescf d4 GCP(DFT/SV(P)) printgap
|  2> %output
|  3>     printlevel normal
|  4> end
|  5> * xyz 0 1
|  6> C 2.2126985246 1.6486941044 -1.943089854
|  7> C 1.4641753739 0.3691984027 -2.2571613465
|  8> O 0.9558543496 -0.2712307062 -1.0689805235
|  9> P 1.9857671761 -0.9446791587 -0.0493398125
| 10> S 3.6135792969 -1.6870851533 -0.8408228389
| 11> O 0.9870608532 -2.0166612029 0.5724941521
| 12> C 1.4949424963 -3.1881862811 1.241007899
| 13> C 2.0936620838 -2.863578629 2.5954373073
| 14> S 2.2544294859 0.497075882 1.4813624294
| 15> C 0.5146253775 0.8005920248 1.9153639445
| 16> S -0.3362691699 1.9390182595 0.7741257411
| 17> P -1.8103398776 0.7593825395 -0.1943100182
| 18> S -1.996969408 0.9157045856 -2.1418973994
| 19> O -3.1618065572 1.1339040533 0.5779731548
| 20> C -3.9944959885 2.2273868891 0.1719616562
| 21> C -3.3296101537 3.5680565175 0.4125466327
| 22> O -1.5396955664 -0.6816687263 0.4062902383
| 23> C -2.0138042163 -1.8577142006 -0.2771356153
| 24> C -3.5238802987 -1.9587875404 -0.2551735523
| 25> H 1.5792225491 2.3371736456 -1.3879215795
| 26> H 3.1011272011 1.4257000332 -1.3516557545
| 27> H 2.5167934844 2.1168427217 -2.8737711763
| 28> H 2.1151936163 -0.3403690857 -2.7769946904
| 29> H 0.5739693913 0.5622547094 -2.858819989
| 30> H 0.6253725509 -3.840982268 1.3322100917
| 31> H 2.2422229959 -3.6586346307 0.5942052757
| 32> H 2.9772271385 -2.2384196896 2.4732512058
| 33> H 1.3734328161 -2.3398027214 3.2187810666
| 34> H 2.3834821201 -3.7880636604 3.0848214798
| 35> H 0.5429005207 1.294519266 2.8826897856
| 36> H -0.0280775321 -0.1385554186 1.9525282182
| 37> H -4.2340351204 2.1048604466 -0.8898067053
| 38> H -4.8983152223 2.1114527695 0.7716068936
| 39> H -4.0215824129 4.3645591461 0.1585425734
| 40> H -3.0326004586 3.6642729927 1.4534891968
| 41> H -2.4410048773 3.6578291222 -0.2133730933
| 42> H -1.636954414 -1.8356564062 -1.304695804
| 43> H -1.5442322523 -2.6800072031 0.2634913192
| 44> H -3.8239947603 -2.9135806717 -0.6756704325
| 45> H -3.8914614554 -1.8780696226 0.7644383948
| 46> H -3.9586938768 -1.1583900179 -0.8521457534
| 47> *
| 48>
| 49>                          ****END OF INPUT****

CARTESIAN COORDINATES (ANGSTROEM)
---------------------------------
  C      2.212699    1.648694   -1.943090
  C      1.464175    0.369198   -2.257161
  O      0.955854   -0.271231   -1.068981
  P      1.985767   -0.944679   -0.049340
  S      3.613579   -1.687085   -0.840823
  O      0.987061   -2.016661    0.572494
  C      1.494942   -3.188186    1.241008
  C      2.093662   -2.863579    2.595437
  S      2.254429    0.497076    1.481362
  C      0.514625    0.800592    1.915364
  S     -0.336269    1.939018    0.774126
  P     -1.810340    0.759383   -0.194310
  S     -1.996969    0.915705   -2.141897
  O     -3.161807    1.133904    0.577973
  C     -3.994496    2.227387    0.171962
  C     -3.329610    3.568057    0.412547
  O     -1.539696   -0.681669    0.406290
  C     -2.013804   -1.857714   -0.277136
  C     -3.523880   -1.958788   -0.255174
  H      1.579223    2.337174   -1.387922
  H      3.101127    1.425700   -1.351656
  H      2.516793    2.116843   -2.873771
  H      2.115194   -0.340369   -2.776995
  H      0.573969    0.562255   -2.858820
  H      0.625373   -3.840982    1.332210
  H      2.242223   -3.658635    0.594205
  H      2.977227   -2.238420    2.473251
  H      1.373433   -2.339803    3.218781
  H      2.383482   -3.788064    3.084821
  H      0.542901    1.294519    2.882690
  H     -0.028078   -0.138555    1.952528
  H     -4.234035    2.104860   -0.889807
  H     -4.898315    2.111453    0.771607
  H     -4.021582    4.364559    0.158543
  H     -3.032600    3.664273    1.453489
  H     -2.441005    3.657829   -0.213373
  H     -1.636954   -1.835656   -1.304696
  H     -1.544232   -2.680007    0.263491
  H     -3.823995   -2.913581   -0.675670
  H     -3.891461   -1.878070    0.764438
  H     -3.958694   -1.158390   -0.852146

 Total Charge           Charge          ....    0
 Multiplicity           Mult            ....    1
 Number of Electrons    NEL             ....  202
 Basis Dimension        Dim             ....  334

ORBITAL ENERGIES
----------------

  NO   OCC          E(Eh)            E(eV)
   0   2.0000     -88.047149     -2395.8847
   1   2.0000     -88.044203     -2395.8046
   2   2.0000     -87.992123     -2394.3874
   3   2.0000     -87.991320     -2394.3656
   4   2.0000     -76.430118     -2079.7692
   5   2.0000     -76.428115     -2079.7147
   6   2.0000     -18.795841      -511.4608
   7   2.0000     -18.794940      -511.4363
   8   2.0000     -18.789557      -511.2898
   9   2.0000     -18.788016      -511.2479
  10   2.0000      -9.963666      -271.1251
  11   2.0000      -9.956770      -270.9375
  12   2.0000      -9.952223      -270.8138
  13   2.0000      -9.951193      -270.7857
  14   2.0000      -9.935647      -270.3627
  15   2.0000      -9.888801      -269.0880
  16   2.0000      -9.885988      -269.0114
  17   2.0000      -9.884141      -268.9611
  18   2.0000      -9.869258      -268.5562
  19   2.0000      -7.692226      -209.3161
  20   2.0000      -7.689271      -209.2357
  21   2.0000      -7.636948      -207.8119
  22   2.0000      -7.636443      -207.7982
  23   2.0000      -6.427526      -174.9019
  24   2.0000      -6.425718      -174.8527
  25   2.0000      -5.720293      -155.6571
  26   2.0000      -5.717758      -155.5881
  27   2.0000      -5.716535      -155.5548
  28   2.0000      -5.713512      -155.4726
  29   2.0000      -5.709222      -155.3558
  30   2.0000      -5.705831      -155.2636
  31   2.0000      -5.665849      -154.1756
  32   2.0000      -5.665438      -154.1644
  33   2.0000      -5.657886      -153.9589
  34   2.0000      -5.656846      -153.9306
  35   2.0000      -5.656815      -153.9298
  36   2.0000      -5.656748      -153.9279
  37   2.0000      -4.650037      -126.5339
  38   2.0000      -4.649330      -126.5147
  39   2.0000      -4.648086      -126.4809
  40   2.0000      -4.648056      -126.4800
  41   2.0000      -4.647803      -126.4732
  42   2.0000      -4.646043      -126.4252
  43   2.0000      -0.990136       -26.9430
  44   2.0000      -0.985945       -26.8289
  45   2.0000      -0.946463       -25.7546
  46   2.0000      -0.944097       -25.6902
  47   2.0000      -0.763718       -20.7818
  48   2.0000      -0.721033       -19.6203
  49   2.0000      -0.707733       -19.2584
  50   2.0000      -0.687744       -18.7145
  51   2.0000      -0.682376       -18.5684
  52   2.0000      -0.673331       -18.3223
  53   2.0000      -0.660137       -17.9632
  54   2.0000      -0.642386       -17.4802
  55   2.0000      -0.602385       -16.3917
  56   2.0000      -0.595850       -16.2139
  57   2.0000      -0.573739       -15.6122
  58   2.0000      -0.569384       -15.4937
  59   2.0000      -0.560364       -15.2483
  60   2.0000      -0.495376       -13.4799
  61   2.0000      -0.492625       -13.4050
  62   2.0000      -0.474783       -12.9195
  63   2.0000      -0.467719       -12.7273
  64   2.0000      -0.460749       -12.5376
  65   2.0000      -0.451740       -12.2925
  66   2.0000      -0.441520       -12.0144
  67   2.0000      -0.437150       -11.8955
  68   2.0000      -0.423347       -11.5199
  69   2.0000      -0.419207       -11.4072
  70   2.0000      -0.412583       -11.2269
  71   2.0000      -0.396930       -10.8010
  72   2.0000      -0.394600       -10.7376
  73   2.0000      -0.392874       -10.6907
  74   2.0000      -0.389923       -10.6103
  75   2.0000      -0.377261       -10.2658
  76   2.0000      -0.373443       -10.1619
  77   2.0000      -0.357169        -9.7191
  78   2.0000      -0.353385        -9.6161
  79   2.0000      -0.350053        -9.5254
  80   2.0000      -0.346692        -9.4340
  81   2.0000      -0.345283        -9.3956
  82   2.0000      -0.335304        -9.1241
  83   2.0000      -0.332306        -9.0425
  84   2.0000      -0.328351        -8.9349
  85   2.0000      -0.322695        -8.7810
  86   2.0000      -0.312185        -8.4950
  87   2.0000      -0.301245        -8.1973
  88   2.0000      -0.297613        -8.0985
  89   2.0000      -0.293217        -7.9788
  90   2.0000      -0.283725        -7.7205
  91   2.0000      -0.271714        -7.3937
  92   2.0000      -0.269558        -7.3350
  93   2.0000      -0.265895        -7.2354
  94   2.0000      -0.256971        -6.9925
  95   2.0000      -0.232027        -6.3138
  96   2.0000      -0.219909        -5.9840
  97   2.0000      -0.213943        -5.8217
  98   2.0000      -0.211167        -5.7461
  99   2.0000      -0.209416        -5.6985
 100   2.0000      -0.198658        -5.4057
 101   0.0000      -0.048736        -1.3262
 102   0.0000      -0.033843        -0.9209
 103   0.0000      -0.026881        -0.7315
 104   0.0000      -0.009548        -0.2598
 105   0.0000       0.009290         0.2528

MULLIKEN ATOMIC CHARGES
-----------------------
   0 C :   -0.317776
   1 C :   -0.016018
   2 O :   -0.372374
   3 P :    0.596463
   4 S :   -0.309476
   5 O :   -0.368301
   6 C :   -0.013041
   7 C :   -0.313021
   8 S :   -0.073532
   9 C :   -0.360318
  10 S :   -0.090672
  11 P :    0.638697
  12 S :   -0.324509
  13 O :   -0.371178
  14 C :   -0.007892
  15 C :   -0.313166
  16 O :   -0.379724
  17 C :   -0.007598
  18 C :   -0.299437
  19 H :    0.126454
  20 H :    0.116090
  21 H :    0.107740
  22 H :    0.109091
  23 H :    0.121415
  24 H :    0.106763
  25 H :    0.117059
  26 H :    0.130097
  27 H :    0.113220
  28 H :    0.114412
  29 H :    0.186701
  30 H :    0.214571
  31 H :    0.109506
  32 H :    0.103839
  33 H :    0.114024
  34 H :    0.118874
  35 H :    0.122293
  36 H :    0.115803
  37 H :    0.105937
  38 H :    0.111600
  39 H :    0.113699
  40 H :    0.123684
Sum of atomic charges:   -0.0000000

LOEWDIN ATOMIC CHARGES
----------------------
   0 C :   -0.372268
   1 C :   -0.131809
   2 O :   -0.241252
   3 P :    0.577500
   4 S :   -0.306195
   5 O :   -0.236865
   6 C :   -0.121048
   7 C :   -0.367710
   8 S :    0.088048
   9 C :   -0.476692
  10 S :    0.092421
  11 P :    0.586031
  12 S :   -0.298327
  13 O :   -0.251063
  14 C :   -0.124116
  15 C :   -0.367865
  16 O :   -0.233087
  17 C :   -0.117029
  18 C :   -0.366087
  19 H :    0.118547
  20 H :    0.115475
  21 H :    0.129382
  22 H :    0.106496
  23 H :    0.110397
  24 H :    0.114685
  25 H :    0.111466
  26 H :    0.122620
  27 H :    0.122333
  28 H :    0.131896
  29 H :    0.140844
  30 H :    0.136406
  31 H :    0.107291
  32 H :    0.118173
  33 H :    0.131285
  34 H :    0.124702
  35 H :    0.117329
  36 H :    0.113775
  37 H :    0.115862
  38 H :    0.130593
  39 H :    0.125467
  40 H :    0.122388

  Mayer bond orders larger than 0.100000
B(  0-C ,  1-C ) :   1.1672 B(  0-C , 19-H ) :   0.9346 B(  0-C , 20-H ) :   0.9356
B(  0-C , 21-H ) :   0.9384 B(  1-C ,  2-O ) :   0.8921 B(  1-C , 22-H ) :   0.9162
B(  1-C , 23-H ) :   0.9058 B(  2-O ,  3-P ) :   1.0971 B(  3-P ,  4-S ) :   1.6406
B(  3-P ,  5-O ) :   1.0790 B(  3-P ,  8-S ) :   0.9725 B(  5-O ,  6-C ) :   0.9126
B(  6-C ,  7-C ) :   1.1629 B(  6-C , 24-H ) :   0.9282 B(  6-C , 25-H ) :   0.9117
B(  7-C , 26-H ) :   0.9352 B(  7-C , 27-H ) :   0.9463 B(  7-C , 28-H ) :   0.9380
B(  8-S ,  9-C ) :   0.9846 B(  9-C , 10-S ) :   0.9940 B(  9-C , 29-H ) :   0.9095
B(  9-C , 30-H ) :   0.8711 B( 10-S , 11-P ) :   0.9587 B( 11-P , 12-S ) :   1.6059
B( 11-P , 13-O ) :   1.0783 B( 11-P , 16-O ) :   1.1168 B( 13-O , 14-C ) :   0.9230
B( 14-C , 15-C ) :   1.1637 B( 14-C , 31-H ) :   0.9127 B( 14-C , 32-H ) :   0.9326
B( 15-C , 33-H ) :   0.9387 B( 15-C , 34-H ) :   0.9438 B( 15-C , 35-H ) :   0.9349
B( 16-O , 17-C ) :   0.8899 B( 17-C , 18-C ) :   1.1614 B( 17-C , 36-H ) :   0.9185
B( 17-C , 37-H ) :   0.9285 B( 18-C , 38-H ) :   0.9390 B( 18-C , 39-H ) :   0.9446
B( 18-C , 40-H ) :   0.9339

Dispersion correction           -0.069578430
FINAL SINGLE POINT ENERGY     -2929.516451903452

DIPOLE MOMENT
-------------

Method             : SCF
Type of density    : Electron Density
Multiplicity       :   1
Irrep              :   0
Energy             : -2929.6376091865581657 Eh
Relativity type    :
Basis              : AO
                                X                 Y                 Z
Electronic contribution:     11.741970425       2.582930188      -2.608426364
Nuclear contribution   :    -12.946485470      -2.884816979       3.778382663
                        -----------------------------------------
Total Dipole Moment    :     -1.204515044      -0.301886792       1.169956299
                        -----------------------------------------
Magnitude (a.u.)       :      1.706103710
Magnitude (Debye)      :      4.336570997

Rotational constants in cm-1:             0.012329             0.005688             0.005343
Rotational constants in MHz :           369.608721           170.522225           160.180535

                             ****ORCA TERMINATED NORMALLY****
TOTAL RUN TIME: 0 days 0 hours 0 minutes 22 seconds 514 msec
