                         Program Version 6.0.0  -   RELEASE  -
|  1> ! pbe def2-sv(p) def2/J RI DEFGRID1 loosescf d4 GCP(DFT/SV(P)) printgap
|  2> %output
|  3>     printlevel normal
|  4> end
|  5> * xyz 0 1
|  6> C 4.6424785293 0.3373187006 -1.8489278641
|  7> C 4.5490011202 0.6682003321 -0.3733927126
|  8> O 3.6578478594 -0.2169647193 0.3255091837
|  9> P 2.088797741 -0.2256853535 0.0816875238
| 10> S 1.2899661656 1.5542711198 -0.1708384531
| 11> O 1.5742043501 -1.0751053484 1.3127006292
| 12> C 1.1716420619 -0.4982737388 2.5709542241
| 13> C 2.3140878317 0.2168759217 3.2602131916
| 14> S 1.8116288918 -1.6470199266 -1.4475242377
| 15> C 0.087026211 -1.2726350406 -1.8467865969
| 16> S -1.0544212422 -1.6227158355 -0.4697704963
| 17> P -2.1262582485 0.1990801887 -0.4052657869
| 18> S -1.970555158 1.4060948241 -1.9340945253
| 19> O -1.661790942 0.7982809409 1.005860005
| 20> C -1.7681698261 2.2048237916 1.2867096282
| 21> C -3.211606666 2.6413933508 1.4237257008
| 22> O -3.6391616723 -0.2525873118 -0.2381962064
| 23> C -4.1221878874 -1.423846739 0.4577443131
| 24> C -3.6500829643 -1.4924981005 1.8948532293
| 25> H 4.8810030424 -0.714370933 -1.9860563364
| 26> H 3.6924447383 0.5472723492 -2.3392235804
| 27> H 5.4152020817 0.9469249344 -2.3063187283
| 28> H 4.1974880869 1.6954924369 -0.23233406
| 29> H 5.5053758344 0.5291645137 0.1324216637
| 30> H 0.3373953633 0.1848148029 2.3840689345
| 31> H 0.8233901211 -1.3577179644 3.1458381053
| 32> H 1.9918475942 0.5505886957 4.2416471799
| 33> H 3.1649338249 -0.4512713111 3.3648623516
| 34> H 2.6170344596 1.0830338057 2.6723833695
| 35> H -0.1715786299 -1.9217247293 -2.6796361196
| 36> H -0.0193808483 -0.2197842036 -2.1246671466
| 37> H -1.2122880358 2.3366990783 2.2165001239
| 38> H -1.2664836113 2.7587742677 0.4860387931
| 39> H -3.7381064533 2.4636790901 0.4859732391
| 40> H -3.7032608178 2.0847408553 2.2170959265
| 41> H -3.2450213098 3.701865925 1.6525576611
| 42> H -5.2066577733 -1.3220972342 0.3926831563
| 43> H -3.7983869613 -2.3073163659 -0.0979570969
| 44> H -3.9564458671 -0.6035871724 2.439817206
| 45> H -4.0816086297 -2.3690513438 2.3678784224
| 46> H -2.5643614758 -1.5713464141 1.9277011425
| 47> *
| 48>
| 49>                          ****END OF INPUT****

CARTESIAN COORDINATES (ANGSTROEM)
---------------------------------
  C      4.642479    0.337319   -1.848928
  C      4.549001    0.668200   -0.373393
  O      3.657848   -0.216965    0.325509
  P      2.088798   -0.225685    0.081688
  S      1.289966    1.554271   -0.170838
  O      1.574204   -1.075105    1.312701
  C      1.171642   -0.498274    2.570954
  C      2.314088    0.216876    3.260213
  S      1.811629   -1.647020   -1.447524
  C      0.087026   -1.272635   -1.846787
  S     -1.054421   -1.622716   -0.469770
  P     -2.126258    0.199080   -0.405266
  S     -1.970555    1.406095   -1.934095
  O     -1.661791    0.798281    1.005860
  C     -1.768170    2.204824    1.286710
  C     -3.211607    2.641393    1.423726
  O     -3.639162   -0.252587   -0.238196
  C     -4.122188   -1.423847    0.457744
  C     -3.650083   -1.492498    1.894853
  H      4.881003   -0.714371   -1.986056
  H      3.692445    0.547272   -2.339224
  H      5.415202    0.946925   -2.306319
  H      4.197488    1.695492   -0.232334
  H      5.505376    0.529165    0.132422
  H      0.337395    0.184815    2.384069
  H      0.823390   -1.357718    3.145838
  H      1.991848    0.550589    4.241647
  H      3.164934   -0.451271    3.364862
  H      2.617034    1.083034    2.672383
  H     -0.171579   -1.921725   -2.679636
  H     -0.019381   -0.219784   -2.124667
  H     -1.212288    2.336699    2.216500
  H     -1.266484    2.758774    0.486039
  H     -3.738106    2.463679    0.485973
  H     -3.703261    2.084741    2.217096
  H     -3.245021    3.701866    1.652558
  H     -5.206658   -1.322097    0.392683
  H     -3.798387   -2.307316   -0.097957
  H     -3.956446   -0.603587    2.439817
  H     -4.081609   -2.369051    2.367878
  H     -2.564361   -1.571346    1.927701

 Total Charge           Charge          ....    0
 Multiplicity           Mult            ....    1
 Number of Electrons    NEL             ....  202
 Basis Dimension        Dim             ....  334

ORBITAL ENERGIES
----------------

  NO   OCC          E(Eh)            E(eV)
   0   2.0000     -88.042830     -2395.7672
   1   2.0000     -88.042421     -2395.7561
   2   2.0000     -87.985083     -2394.1958
   3   2.0000     -87.979468     -2394.0430
   4   2.0000     -76.424820     -2079.6251
   5   2.0000     -76.422403     -2079.5593
   6   2.0000     -18.792498      -511.3699
   7   2.0000     -18.789491      -511.2881
   8   2.0000     -18.786019      -511.1936
   9   2.0000     -18.785169      -511.1704
  10   2.0000      -9.957955      -270.9697
  11   2.0000      -9.954271      -270.8695
  12   2.0000      -9.952162      -270.8121
  13   2.0000      -9.948284      -270.7066
  14   2.0000      -9.944452      -270.6023
  15   2.0000      -9.892546      -269.1899
  16   2.0000      -9.883527      -268.9444
  17   2.0000      -9.882435      -268.9147
  18   2.0000      -9.880443      -268.8605
  19   2.0000      -7.688377      -209.2114
  20   2.0000      -7.687256      -209.1809
  21   2.0000      -7.629606      -207.6121
  22   2.0000      -7.624753      -207.4801
  23   2.0000      -6.422196      -174.7568
  24   2.0000      -6.420087      -174.6995
  25   2.0000      -5.716322      -155.5490
  26   2.0000      -5.715122      -155.5164
  27   2.0000      -5.712853      -155.4546
  28   2.0000      -5.711852      -155.4274
  29   2.0000      -5.705232      -155.2473
  30   2.0000      -5.704143      -155.2176
  31   2.0000      -5.658369      -153.9721
  32   2.0000      -5.653873      -153.8497
  33   2.0000      -5.650336      -153.7535
  34   2.0000      -5.649866      -153.7407
  35   2.0000      -5.645742      -153.6285
  36   2.0000      -5.644247      -153.5878
  37   2.0000      -4.644592      -126.3858
  38   2.0000      -4.643965      -126.3687
  39   2.0000      -4.642842      -126.3382
  40   2.0000      -4.642814      -126.3374
  41   2.0000      -4.641659      -126.3060
  42   2.0000      -4.640617      -126.2776
  43   2.0000      -0.985033       -26.8041
  44   2.0000      -0.979582       -26.6558
  45   2.0000      -0.943728       -25.6802
  46   2.0000      -0.940594       -25.5949
  47   2.0000      -0.762479       -20.7481
  48   2.0000      -0.720262       -19.5993
  49   2.0000      -0.708126       -19.2691
  50   2.0000      -0.690986       -18.8027
  51   2.0000      -0.685818       -18.6620
  52   2.0000      -0.673559       -18.3285
  53   2.0000      -0.651062       -17.7163
  54   2.0000      -0.634565       -17.2674
  55   2.0000      -0.601977       -16.3806
  56   2.0000      -0.592480       -16.1222
  57   2.0000      -0.574325       -15.6282
  58   2.0000      -0.571851       -15.5609
  59   2.0000      -0.559973       -15.2377
  60   2.0000      -0.495357       -13.4793
  61   2.0000      -0.487746       -13.2723
  62   2.0000      -0.471693       -12.8354
  63   2.0000      -0.470126       -12.7928
  64   2.0000      -0.454220       -12.3600
  65   2.0000      -0.446586       -12.1522
  66   2.0000      -0.438884       -11.9426
  67   2.0000      -0.434498       -11.8233
  68   2.0000      -0.426113       -11.5951
  69   2.0000      -0.414109       -11.2685
  70   2.0000      -0.410442       -11.1687
  71   2.0000      -0.405682       -11.0392
  72   2.0000      -0.393975       -10.7206
  73   2.0000      -0.387414       -10.5421
  74   2.0000      -0.380649       -10.3580
  75   2.0000      -0.373542       -10.1646
  76   2.0000      -0.367631       -10.0038
  77   2.0000      -0.356495        -9.7007
  78   2.0000      -0.353808        -9.6276
  79   2.0000      -0.353265        -9.6128
  80   2.0000      -0.347222        -9.4484
  81   2.0000      -0.343203        -9.3390
  82   2.0000      -0.341739        -9.2992
  83   2.0000      -0.336446        -9.1552
  84   2.0000      -0.333271        -9.0688
  85   2.0000      -0.314223        -8.5504
  86   2.0000      -0.309482        -8.4214
  87   2.0000      -0.305912        -8.3243
  88   2.0000      -0.294523        -8.0144
  89   2.0000      -0.280590        -7.6352
  90   2.0000      -0.276343        -7.5197
  91   2.0000      -0.271119        -7.3775
  92   2.0000      -0.269832        -7.3425
  93   2.0000      -0.263142        -7.1605
  94   2.0000      -0.261228        -7.1084
  95   2.0000      -0.230847        -6.2817
  96   2.0000      -0.218639        -5.9495
  97   2.0000      -0.213635        -5.8133
  98   2.0000      -0.202484        -5.5099
  99   2.0000      -0.195552        -5.3212
 100   2.0000      -0.185698        -5.0531
 101   0.0000      -0.041739        -1.1358
 102   0.0000      -0.031453        -0.8559
 103   0.0000      -0.010317        -0.2807
 104   0.0000       0.012327         0.3354
 105   0.0000       0.024621         0.6700

MULLIKEN ATOMIC CHARGES
-----------------------
   0 C :   -0.319554
   1 C :   -0.002480
   2 O :   -0.370869
   3 P :    0.607759
   4 S :   -0.324541
   5 O :   -0.358851
   6 C :   -0.025011
   7 C :   -0.308997
   8 S :   -0.081641
   9 C :   -0.347076
  10 S :   -0.113873
  11 P :    0.620139
  12 S :   -0.300919
  13 O :   -0.379141
  14 C :   -0.014898
  15 C :   -0.307206
  16 O :   -0.374535
  17 C :   -0.008344
  18 C :   -0.328419
  19 H :    0.118500
  20 H :    0.130680
  21 H :    0.114043
  22 H :    0.109998
  23 H :    0.105036
  24 H :    0.137848
  25 H :    0.102903
  26 H :    0.108495
  27 H :    0.116506
  28 H :    0.121111
  29 H :    0.183336
  30 H :    0.210138
  31 H :    0.098752
  32 H :    0.126703
  33 H :    0.130797
  34 H :    0.111701
  35 H :    0.110537
  36 H :    0.112332
  37 H :    0.115459
  38 H :    0.124403
  39 H :    0.115479
  40 H :    0.133700
Sum of atomic charges:    0.0000000

LOEWDIN ATOMIC CHARGES
----------------------
   0 C :   -0.370072
   1 C :   -0.119375
   2 O :   -0.243074
   3 P :    0.567312
   4 S :   -0.306753
   5 O :   -0.237404
   6 C :   -0.117857
   7 C :   -0.367188
   8 S :    0.093764
   9 C :   -0.476721
  10 S :    0.078678
  11 P :    0.575178
  12 S :   -0.296042
  13 O :   -0.248552
  14 C :   -0.124739
  15 C :   -0.366141
  16 O :   -0.246301
  17 C :   -0.117613
  18 C :   -0.368370
  19 H :    0.124297
  20 H :    0.122747
  21 H :    0.131629
  22 H :    0.110220
  23 H :    0.118677
  24 H :    0.115663
  25 H :    0.118451
  26 H :    0.128552
  27 H :    0.126090
  28 H :    0.120991
  29 H :    0.137274
  30 H :    0.125769
  31 H :    0.112651
  32 H :    0.109920
  33 H :    0.125473
  34 H :    0.119481
  35 H :    0.130573
  36 H :    0.123331
  37 H :    0.110343
  38 H :    0.126559
  39 H :    0.132518
  40 H :    0.120059

  Mayer bond orders larger than 0.100000
B(  0-C ,  1-C ) :   1.1666 B(  0-C , 19-H ) :   0.9445 B(  0-C , 20-H ) :   0.9351
B(  0-C , 21-H ) :   0.9378 B(  1-C ,  2-O ) :   0.9082 B(  1-C , 22-H ) :   0.9150
B(  1-C , 23-H ) :   0.9337 B(  2-O ,  3-P ) :   1.1056 B(  3-P ,  4-S ) :   1.6047
B(  3-P ,  5-O ) :   1.1346 B(  3-P ,  8-S ) :   0.9549 B(  4-S ,  8-S ) :   0.1097
B(  5-O ,  6-C ) :   0.9022 B(  6-C ,  7-C ) :   1.1617 B(  6-C , 24-H ) :   0.9090
B(  6-C , 25-H ) :   0.9343 B(  7-C , 26-H ) :   0.9389 B(  7-C , 27-H ) :   0.9444
B(  7-C , 28-H ) :   0.9340 B(  8-S ,  9-C ) :   1.0074 B(  9-C , 10-S ) :   0.9957
B(  9-C , 29-H ) :   0.9117 B(  9-C , 30-H ) :   0.8464 B( 10-S , 11-P ) :   0.9614
B( 10-S , 12-S ) :   0.1100 B( 11-P , 12-S ) :   1.6287 B( 11-P , 13-O ) :   1.0713
B( 11-P , 16-O ) :   1.1052 B( 13-O , 14-C ) :   0.9027 B( 14-C , 15-C ) :   1.1605
B( 14-C , 31-H ) :   0.9306 B( 14-C , 32-H ) :   0.9100 B( 15-C , 33-H ) :   0.9324
B( 15-C , 34-H ) :   0.9427 B( 15-C , 35-H ) :   0.9388 B( 16-O , 17-C ) :   0.9118
B( 17-C , 18-C ) :   1.1638 B( 17-C , 36-H ) :   0.9341 B( 17-C , 37-H ) :   0.9202
B( 18-C , 38-H ) :   0.9414 B( 18-C , 39-H ) :   0.9349 B( 18-C , 40-H ) :   0.9347

Dispersion correction           -0.068439633
FINAL SINGLE POINT ENERGY     -2929.517333680800

DIPOLE MOMENT
-------------

Method             : SCF
Type of density    : Electron Density
Multiplicity       :   1
Irrep              :   0
Energy             : -2929.6356948081411247 Eh
Relativity type    :
Basis              : AO
                                X                 Y                 Z
Electronic contribution:      0.412763457      -6.224457848     -16.347956387
Nuclear contribution   :     -0.286367521       5.692718290      17.667212416
                        -----------------------------------------
Total Dipole Moment    :      0.126395936      -0.531739558       1.319256029
                        -----------------------------------------
Magnitude (a.u.)       :      1.427991373
Magnitude (Debye)      :      3.629665615

Rotational constants in cm-1:             0.012420             0.005436             0.005210
Rotational constants in MHz :           372.350844           162.974969           156.200823

                             ****ORCA TERMINATED NORMALLY****
TOTAL RUN TIME: 0 days 0 hours 0 minutes 21 seconds 965 msec
