                         Program Version 6.0.0  -   RELEASE  -
|  1> ! pbe def2-sv(p) def2/J RI DEFGRID1 loosescf d4 GCP(DFT/SV(P)) printgap
|  2> %output
|  3>     printlevel normal
|  4> end
|  5> * xyz 0 1
|  6> C 3.7776413103 -0.6742037219 -2.559695749
|  7> C 4.1825397383 0.5277877952 -1.7297066026
|  8> O 3.6943059657 0.4557618414 -0.3817397794
|  9> P 2.146037893 0.5245986764 -0.0016870134
| 10> S 1.1479027551 1.7980141263 -1.1029175852
| 11> O 2.2309567866 0.9548533215 1.507331965
| 12> C 2.4957588743 0.0993549906 2.6422901751
| 13> C 3.7705531541 -0.6999203357 2.4861164553
| 14> S 1.478719945 -1.4983068956 -0.0507900547
| 15> C 0.1711695315 -1.3880336716 -1.3122188067
| 16> S -1.4527164953 -1.9326484649 -0.7238961105
| 17> P -2.049293196 -0.232530526 0.3552357849
| 18> S -0.9376519828 0.4587227506 1.8120893557
| 19> O -3.4607758821 -0.6460030108 0.9430794266
| 20> C -4.4181729121 -1.5350604235 0.3201551826
| 21> C -4.9839042918 -0.9724313879 -0.9666072974
| 22> O -2.2601274155 0.7920125738 -0.8553367505
| 23> C -2.2972046059 2.2126621686 -0.6573906179
| 24> C -3.6138831045 2.6512491345 -0.0515982794
| 25> H 4.2957932084 -0.6400529531 -3.5126551823
| 26> H 4.0333476444 -1.5954090182 -2.0425575351
| 27> H 2.7045282674 -0.65341957 -2.7428667084
| 28> H 3.809396043 1.4514075017 -2.1839311485
| 29> H 5.2651884352 0.5864843504 -1.6089641123
| 30> H 2.5544146836 0.8044273948 3.4727422747
| 31> H 1.6276874105 -0.5507225421 2.7840414249
| 32> H 3.6746006023 -1.4048926098 1.6616087053
| 33> H 4.6074444379 -0.0354357364 2.2874677056
| 34> H 3.9552081765 -1.2521077139 3.4023089263
| 35> H 0.4251395789 -2.0727824316 -2.117350961
| 36> H 0.107241912 -0.354218351 -1.6646835142
| 37> H -3.9301967011 -2.496985219 0.1449153227
| 38> H -5.188875173 -1.6462505964 1.0847433059
| 39> H -4.1923082923 -0.8390750538 -1.7007251446
| 40> H -5.7188305775 -1.6669592984 -1.3613988199
| 41> H -5.4621939528 -0.0141358381 -0.781894584
| 42> H -1.4584233406 2.5019927473 -0.015088747
| 43> H -2.1398824059 2.6279400768 -1.653999996
| 44> H -3.6111749518 3.7299400726 0.0692231535
| 45> H -4.4399072124 2.362523545 -0.6957596911
| 46> H -3.7402911068 2.1842657384 0.9252059199
| 47> *
| 48>
| 49>                          ****END OF INPUT****

CARTESIAN COORDINATES (ANGSTROEM)
---------------------------------
  C      3.777641   -0.674204   -2.559696
  C      4.182540    0.527788   -1.729707
  O      3.694306    0.455762   -0.381740
  P      2.146038    0.524599   -0.001687
  S      1.147903    1.798014   -1.102918
  O      2.230957    0.954853    1.507332
  C      2.495759    0.099355    2.642290
  C      3.770553   -0.699920    2.486116
  S      1.478720   -1.498307   -0.050790
  C      0.171170   -1.388034   -1.312219
  S     -1.452716   -1.932648   -0.723896
  P     -2.049293   -0.232531    0.355236
  S     -0.937652    0.458723    1.812089
  O     -3.460776   -0.646003    0.943079
  C     -4.418173   -1.535060    0.320155
  C     -4.983904   -0.972431   -0.966607
  O     -2.260127    0.792013   -0.855337
  C     -2.297205    2.212662   -0.657391
  C     -3.613883    2.651249   -0.051598
  H      4.295793   -0.640053   -3.512655
  H      4.033348   -1.595409   -2.042558
  H      2.704528   -0.653420   -2.742867
  H      3.809396    1.451408   -2.183931
  H      5.265188    0.586484   -1.608964
  H      2.554415    0.804427    3.472742
  H      1.627687   -0.550723    2.784041
  H      3.674601   -1.404893    1.661609
  H      4.607444   -0.035436    2.287468
  H      3.955208   -1.252108    3.402309
  H      0.425140   -2.072782   -2.117351
  H      0.107242   -0.354218   -1.664684
  H     -3.930197   -2.496985    0.144915
  H     -5.188875   -1.646251    1.084743
  H     -4.192308   -0.839075   -1.700725
  H     -5.718831   -1.666959   -1.361399
  H     -5.462194   -0.014136   -0.781895
  H     -1.458423    2.501993   -0.015089
  H     -2.139882    2.627940   -1.654000
  H     -3.611175    3.729940    0.069223
  H     -4.439907    2.362524   -0.695760
  H     -3.740291    2.184266    0.925206

 Total Charge           Charge          ....    0
 Multiplicity           Mult            ....    1
 Number of Electrons    NEL             ....  202
 Basis Dimension        Dim             ....  334

ORBITAL ENERGIES
----------------

  NO   OCC          E(Eh)            E(eV)
   0   2.0000     -88.044676     -2395.8174
   1   2.0000     -88.041460     -2395.7299
   2   2.0000     -87.982935     -2394.1374
   3   2.0000     -87.974378     -2393.9045
   4   2.0000     -76.423328     -2079.5845
   5   2.0000     -76.419971     -2079.4931
   6   2.0000     -18.790059      -511.3035
   7   2.0000     -18.784814      -511.1608
   8   2.0000     -18.783052      -511.1128
   9   2.0000     -18.782622      -511.1011
  10   2.0000      -9.959324      -271.0070
  11   2.0000      -9.958153      -270.9751
  12   2.0000      -9.949360      -270.7359
  13   2.0000      -9.949107      -270.7290
  14   2.0000      -9.937281      -270.4072
  15   2.0000      -9.889090      -269.0958
  16   2.0000      -9.885177      -268.9893
  17   2.0000      -9.884858      -268.9807
  18   2.0000      -9.877510      -268.7807
  19   2.0000      -7.690248      -209.2623
  20   2.0000      -7.686143      -209.1506
  21   2.0000      -7.627893      -207.5655
  22   2.0000      -7.619301      -207.3317
  23   2.0000      -6.420435      -174.7089
  24   2.0000      -6.417763      -174.6362
  25   2.0000      -5.718080      -155.5969
  26   2.0000      -5.714628      -155.5029
  27   2.0000      -5.714074      -155.4879
  28   2.0000      -5.710698      -155.3960
  29   2.0000      -5.707278      -155.3029
  30   2.0000      -5.703075      -155.1886
  31   2.0000      -5.656754      -153.9281
  32   2.0000      -5.648805      -153.7118
  33   2.0000      -5.648367      -153.6999
  34   2.0000      -5.647728      -153.6825
  35   2.0000      -5.640098      -153.4749
  36   2.0000      -5.639103      -153.4478
  37   2.0000      -4.643017      -126.3429
  38   2.0000      -4.642173      -126.3199
  39   2.0000      -4.641000      -126.2880
  40   2.0000      -4.640670      -126.2791
  41   2.0000      -4.639471      -126.2464
  42   2.0000      -4.637960      -126.2053
  43   2.0000      -0.980632       -26.6843
  44   2.0000      -0.978882       -26.6367
  45   2.0000      -0.940731       -25.5986
  46   2.0000      -0.938091       -25.5268
  47   2.0000      -0.762347       -20.7445
  48   2.0000      -0.718157       -19.5420
  49   2.0000      -0.709163       -19.2973
  50   2.0000      -0.689388       -18.7592
  51   2.0000      -0.686723       -18.6867
  52   2.0000      -0.673609       -18.3298
  53   2.0000      -0.648138       -17.6367
  54   2.0000      -0.633728       -17.2446
  55   2.0000      -0.598472       -16.2853
  56   2.0000      -0.587417       -15.9844
  57   2.0000      -0.575330       -15.6555
  58   2.0000      -0.571165       -15.5422
  59   2.0000      -0.562327       -15.3017
  60   2.0000      -0.495850       -13.4928
  61   2.0000      -0.486427       -13.2364
  62   2.0000      -0.471937       -12.8421
  63   2.0000      -0.465870       -12.6770
  64   2.0000      -0.452645       -12.3171
  65   2.0000      -0.448804       -12.2126
  66   2.0000      -0.438252       -11.9255
  67   2.0000      -0.436527       -11.8785
  68   2.0000      -0.425502       -11.5785
  69   2.0000      -0.417120       -11.3504
  70   2.0000      -0.408672       -11.1205
  71   2.0000      -0.397501       -10.8166
  72   2.0000      -0.393120       -10.6973
  73   2.0000      -0.387259       -10.5379
  74   2.0000      -0.382518       -10.4089
  75   2.0000      -0.367509       -10.0004
  76   2.0000      -0.362776        -9.8716
  77   2.0000      -0.355794        -9.6816
  78   2.0000      -0.352884        -9.6025
  79   2.0000      -0.349813        -9.5189
  80   2.0000      -0.345801        -9.4097
  81   2.0000      -0.344324        -9.3695
  82   2.0000      -0.341197        -9.2844
  83   2.0000      -0.339688        -9.2434
  84   2.0000      -0.332834        -9.0569
  85   2.0000      -0.310462        -8.4481
  86   2.0000      -0.307699        -8.3729
  87   2.0000      -0.302790        -8.2393
  88   2.0000      -0.290350        -7.9008
  89   2.0000      -0.286340        -7.7917
  90   2.0000      -0.277106        -7.5404
  91   2.0000      -0.267454        -7.2778
  92   2.0000      -0.266884        -7.2623
  93   2.0000      -0.259476        -7.0607
  94   2.0000      -0.257141        -6.9972
  95   2.0000      -0.239856        -6.5268
  96   2.0000      -0.216549        -5.8926
  97   2.0000      -0.204631        -5.5683
  98   2.0000      -0.201769        -5.4904
  99   2.0000      -0.190359        -5.1799
 100   2.0000      -0.181988        -4.9522
 101   0.0000      -0.040094        -1.0910
 102   0.0000      -0.031048        -0.8449
 103   0.0000      -0.013500        -0.3673
 104   0.0000       0.006583         0.1791
 105   0.0000       0.021371         0.5815

MULLIKEN ATOMIC CHARGES
-----------------------
   0 C :   -0.320663
   1 C :    0.003905
   2 O :   -0.373938
   3 P :    0.608138
   4 S :   -0.312013
   5 O :   -0.351630
   6 C :   -0.009050
   7 C :   -0.315464
   8 S :   -0.104965
   9 C :   -0.344122
  10 S :   -0.108384
  11 P :    0.620529
  12 S :   -0.310631
  13 O :   -0.370124
  14 C :   -0.028613
  15 C :   -0.314118
  16 O :   -0.383250
  17 C :   -0.020465
  18 C :   -0.311055
  19 H :    0.111666
  20 H :    0.118730
  21 H :    0.119942
  22 H :    0.110769
  23 H :    0.102761
  24 H :    0.110900
  25 H :    0.128908
  26 H :    0.124830
  27 H :    0.123061
  28 H :    0.115234
  29 H :    0.184565
  30 H :    0.201894
  31 H :    0.123923
  32 H :    0.114810
  33 H :    0.129396
  34 H :    0.112475
  35 H :    0.126040
  36 H :    0.134215
  37 H :    0.101143
  38 H :    0.111306
  39 H :    0.113601
  40 H :    0.125745
Sum of atomic charges:   -0.0000000

LOEWDIN ATOMIC CHARGES
----------------------
   0 C :   -0.370305
   1 C :   -0.118192
   2 O :   -0.248852
   3 P :    0.577940
   4 S :   -0.294505
   5 O :   -0.223759
   6 C :   -0.115582
   7 C :   -0.367215
   8 S :    0.073869
   9 C :   -0.479144
  10 S :    0.082319
  11 P :    0.565199
  12 S :   -0.304556
  13 O :   -0.242666
  14 C :   -0.116766
  15 C :   -0.367676
  16 O :   -0.248731
  17 C :   -0.128416
  18 C :   -0.364973
  19 H :    0.129978
  20 H :    0.124015
  21 H :    0.118389
  22 H :    0.110431
  23 H :    0.117933
  24 H :    0.124091
  25 H :    0.111974
  26 H :    0.115734
  27 H :    0.129180
  28 H :    0.132530
  29 H :    0.136182
  30 H :    0.123979
  31 H :    0.109035
  32 H :    0.124235
  33 H :    0.124083
  34 H :    0.131313
  35 H :    0.127328
  36 H :    0.110249
  37 H :    0.116174
  38 H :    0.130739
  39 H :    0.119679
  40 H :    0.124761

  Mayer bond orders larger than 0.100000
B(  0-C ,  1-C ) :   1.1625 B(  0-C , 19-H ) :   0.9375 B(  0-C , 20-H ) :   0.9426
B(  0-C , 21-H ) :   0.9374 B(  1-C ,  2-O ) :   0.9221 B(  1-C , 22-H ) :   0.9158
B(  1-C , 23-H ) :   0.9344 B(  2-O ,  3-P ) :   1.0771 B(  3-P ,  4-S ) :   1.5989
B(  3-P ,  5-O ) :   1.1601 B(  3-P ,  8-S ) :   0.9435 B(  4-S ,  8-S ) :   0.1122
B(  4-S , 30-H ) :   0.1168 B(  5-O ,  6-C ) :   0.8962 B(  6-C ,  7-C ) :   1.1665
B(  6-C , 24-H ) :   0.9341 B(  6-C , 25-H ) :   0.9138 B(  7-C , 26-H ) :   0.9366
B(  7-C , 27-H ) :   0.9418 B(  7-C , 28-H ) :   0.9355 B(  8-S ,  9-C ) :   1.0049
B(  9-C , 10-S ) :   1.0025 B(  9-C , 29-H ) :   0.9082 B(  9-C , 30-H ) :   0.8404
B( 10-S , 11-P ) :   0.9619 B( 10-S , 12-S ) :   0.1065 B( 11-P , 12-S ) :   1.6539
B( 11-P , 13-O ) :   1.1119 B( 11-P , 16-O ) :   1.0755 B( 13-O , 14-C ) :   0.9071
B( 14-C , 15-C ) :   1.1632 B( 14-C , 31-H ) :   0.9198 B( 14-C , 32-H ) :   0.9342
B( 15-C , 33-H ) :   0.9351 B( 15-C , 34-H ) :   0.9358 B( 15-C , 35-H ) :   0.9400
B( 16-O , 17-C ) :   0.9010 B( 17-C , 18-C ) :   1.1565 B( 17-C , 36-H ) :   0.9015
B( 17-C , 37-H ) :   0.9353 B( 18-C , 38-H ) :   0.9397 B( 18-C , 39-H ) :   0.9406
B( 18-C , 40-H ) :   0.9382

Dispersion correction           -0.068321578
FINAL SINGLE POINT ENERGY     -2929.512823849924

DIPOLE MOMENT
-------------

Method             : SCF
Type of density    : Electron Density
Multiplicity       :   1
Irrep              :   0
Energy             : -2929.6311002689317320 Eh
Relativity type    :
Basis              : AO
                                X                 Y                 Z
Electronic contribution:      2.636162499      -1.574319197       5.454678225
Nuclear contribution   :     -2.737862579       0.759145499      -6.159248094
                        -----------------------------------------
Total Dipole Moment    :     -0.101700079      -0.815173698      -0.704569870
                        -----------------------------------------
Magnitude (a.u.)       :      1.082252172
Magnitude (Debye)      :      2.750866407

Rotational constants in cm-1:             0.013393             0.004988             0.004961
Rotational constants in MHz :           401.515147           149.522424           148.730922

                             ****ORCA TERMINATED NORMALLY****
TOTAL RUN TIME: 0 days 0 hours 0 minutes 21 seconds 507 msec
