                         Program Version 6.0.0  -   RELEASE  -
|  1> ! pbe def2-sv(p) def2/J RI DEFGRID1 loosescf d4 GCP(DFT/SV(P)) printgap
|  2> %output
|  3>     printlevel normal
|  4> end
|  5> * xyz 0 1
|  6> C 3.7625549836 -0.7237842977 -2.72660817
|  7> C 4.2537156653 0.3938288562 -1.8289860794
|  8> O 3.7395159469 0.2954549442 -0.4902009708
|  9> P 2.1895502383 0.4311614427 -0.1268208719
| 10> S 1.2420986433 1.8081013245 -1.1372087077
| 11> O 2.2838887319 0.74026313 1.4102993207
| 12> C 2.9255819461 -0.147067139 2.361110835
| 13> C 2.4625301789 0.2546969364 3.7449259265
| 14> S 1.4460049291 -1.5626049367 -0.2890072731
| 15> C 0.106255207 -1.3173710239 -1.4984688347
| 16> S -1.5243517663 -1.8079903828 -0.8823091861
| 17> P -2.002650819 -0.1559375487 0.3250176908
| 18> S -0.8564797819 0.3364372136 1.8287436759
| 19> O -3.4579269338 -0.4850404443 0.8582313015
| 20> C -4.5621022649 -0.8413087347 -0.0106634304
| 21> C -4.8209537245 -2.333275529 0.0445222852
| 22> O -2.1437875577 0.9467180959 -0.828632751
| 23> C -2.1433269325 2.3538670335 -0.537393826
| 24> C -3.4546447971 2.7954140638 0.0786483739
| 25> H 4.2932607948 -0.6794262188 -3.6722197027
| 26> H 3.9365076782 -1.6897372893 -2.2593168465
| 27> H 2.696741303 -0.6058131272 -2.9161749699
| 28> H 3.9663498831 1.3683107286 -2.2358061904
| 29> H 5.3352890518 0.3539690552 -1.6916025439
| 30> H 2.633921347 -1.1756377046 2.128328947
| 31> H 4.005621929 -0.0386237118 2.2423050887
| 32> H 1.3783720541 0.1863660481 3.8014986549
| 33> H 2.9067643865 -0.4097862714 4.4785517774
| 34> H 2.7558522779 1.2791046768 3.9545844768
| 35> H 0.3001981681 -1.971717718 -2.3444776204
| 36> H 0.086009449 -0.2653450952 -1.7964168019
| 37> H -5.4117072779 -0.2791747562 0.3813739452
| 38> H -4.337550348 -0.5129629932 -1.0284715765
| 39> H -3.9715690008 -2.8825303081 -0.3558086676
| 40> H -4.9854696923 -2.6424658145 1.072924725
| 41> H -5.7032073672 -2.5616022807 -0.5449987697
| 42> H -1.3046915983 2.5733746792 0.1318827977
| 43> H -1.9594224177 2.826165158 -1.5037253938
| 44> H -3.4332583688 3.8701151308 0.2293980477
| 45> H -4.2842291976 2.5394390749 -0.5752875754
| 46> H -3.5927975327 2.3058757607 1.0423711744
| 47> *
| 48>
| 49>                          ****END OF INPUT****

CARTESIAN COORDINATES (ANGSTROEM)
---------------------------------
  C      3.762555   -0.723784   -2.726608
  C      4.253716    0.393829   -1.828986
  O      3.739516    0.295455   -0.490201
  P      2.189550    0.431161   -0.126821
  S      1.242099    1.808101   -1.137209
  O      2.283889    0.740263    1.410299
  C      2.925582   -0.147067    2.361111
  C      2.462530    0.254697    3.744926
  S      1.446005   -1.562605   -0.289007
  C      0.106255   -1.317371   -1.498469
  S     -1.524352   -1.807990   -0.882309
  P     -2.002651   -0.155938    0.325018
  S     -0.856480    0.336437    1.828744
  O     -3.457927   -0.485040    0.858231
  C     -4.562102   -0.841309   -0.010663
  C     -4.820954   -2.333276    0.044522
  O     -2.143788    0.946718   -0.828633
  C     -2.143327    2.353867   -0.537394
  C     -3.454645    2.795414    0.078648
  H      4.293261   -0.679426   -3.672220
  H      3.936508   -1.689737   -2.259317
  H      2.696741   -0.605813   -2.916175
  H      3.966350    1.368311   -2.235806
  H      5.335289    0.353969   -1.691603
  H      2.633921   -1.175638    2.128329
  H      4.005622   -0.038624    2.242305
  H      1.378372    0.186366    3.801499
  H      2.906764   -0.409786    4.478552
  H      2.755852    1.279105    3.954584
  H      0.300198   -1.971718   -2.344478
  H      0.086009   -0.265345   -1.796417
  H     -5.411707   -0.279175    0.381374
  H     -4.337550   -0.512963   -1.028472
  H     -3.971569   -2.882530   -0.355809
  H     -4.985470   -2.642466    1.072925
  H     -5.703207   -2.561602   -0.544999
  H     -1.304692    2.573375    0.131883
  H     -1.959422    2.826165   -1.503725
  H     -3.433258    3.870115    0.229398
  H     -4.284229    2.539439   -0.575288
  H     -3.592798    2.305876    1.042371

 Total Charge           Charge          ....    0
 Multiplicity           Mult            ....    1
 Number of Electrons    NEL             ....  202
 Basis Dimension        Dim             ....  334

ORBITAL ENERGIES
----------------

  NO   OCC          E(Eh)            E(eV)
   0   2.0000     -88.041276     -2395.7249
   1   2.0000     -88.038507     -2395.6496
   2   2.0000     -87.986374     -2394.2310
   3   2.0000     -87.974875     -2393.9181
   4   2.0000     -76.422846     -2079.5714
   5   2.0000     -76.418050     -2079.4408
   6   2.0000     -18.789549      -511.2896
   7   2.0000     -18.784952      -511.1645
   8   2.0000     -18.784116      -511.1418
   9   2.0000     -18.782786      -511.1056
  10   2.0000      -9.956275      -270.9240
  11   2.0000      -9.955549      -270.9042
  12   2.0000      -9.951656      -270.7983
  13   2.0000      -9.950918      -270.7783
  14   2.0000      -9.938410      -270.4379
  15   2.0000      -9.888407      -269.0772
  16   2.0000      -9.885107      -268.9874
  17   2.0000      -9.880092      -268.8510
  18   2.0000      -9.879192      -268.8265
  19   2.0000      -7.686853      -209.1699
  20   2.0000      -7.683370      -209.0751
  21   2.0000      -7.631359      -207.6598
  22   2.0000      -7.619873      -207.3473
  23   2.0000      -6.420284      -174.7048
  24   2.0000      -6.416059      -174.5898
  25   2.0000      -5.714758      -155.5065
  26   2.0000      -5.711272      -155.4116
  27   2.0000      -5.711233      -155.4106
  28   2.0000      -5.707957      -155.3214
  29   2.0000      -5.703806      -155.2084
  30   2.0000      -5.700270      -155.1122
  31   2.0000      -5.660177      -154.0212
  32   2.0000      -5.652156      -153.8030
  33   2.0000      -5.651357      -153.7812
  34   2.0000      -5.648919      -153.7149
  35   2.0000      -5.640422      -153.4837
  36   2.0000      -5.639938      -153.4705
  37   2.0000      -4.642929      -126.3405
  38   2.0000      -4.641872      -126.3118
  39   2.0000      -4.640891      -126.2851
  40   2.0000      -4.639047      -126.2349
  41   2.0000      -4.637603      -126.1956
  42   2.0000      -4.636318      -126.1606
  43   2.0000      -0.982370       -26.7316
  44   2.0000      -0.979508       -26.6538
  45   2.0000      -0.938604       -25.5407
  46   2.0000      -0.937742       -25.5173
  47   2.0000      -0.759706       -20.6727
  48   2.0000      -0.718539       -19.5524
  49   2.0000      -0.708831       -19.2883
  50   2.0000      -0.688240       -18.7280
  51   2.0000      -0.685883       -18.6638
  52   2.0000      -0.671807       -18.2808
  53   2.0000      -0.648189       -17.6381
  54   2.0000      -0.633519       -17.2389
  55   2.0000      -0.593363       -16.1462
  56   2.0000      -0.580543       -15.7974
  57   2.0000      -0.575109       -15.6495
  58   2.0000      -0.567020       -15.4294
  59   2.0000      -0.560611       -15.2550
  60   2.0000      -0.503526       -13.7016
  61   2.0000      -0.495400       -13.4805
  62   2.0000      -0.472528       -12.8581
  63   2.0000      -0.469263       -12.7693
  64   2.0000      -0.452244       -12.3062
  65   2.0000      -0.447112       -12.1665
  66   2.0000      -0.438586       -11.9345
  67   2.0000      -0.434003       -11.8098
  68   2.0000      -0.424958       -11.5637
  69   2.0000      -0.416286       -11.3277
  70   2.0000      -0.405783       -11.0419
  71   2.0000      -0.394337       -10.7305
  72   2.0000      -0.389871       -10.6089
  73   2.0000      -0.386284       -10.5113
  74   2.0000      -0.376532       -10.2460
  75   2.0000      -0.364992        -9.9319
  76   2.0000      -0.360493        -9.8095
  77   2.0000      -0.355934        -9.6854
  78   2.0000      -0.353594        -9.6218
  79   2.0000      -0.349792        -9.5183
  80   2.0000      -0.348453        -9.4819
  81   2.0000      -0.342201        -9.3118
  82   2.0000      -0.337681        -9.1888
  83   2.0000      -0.335573        -9.1314
  84   2.0000      -0.328653        -8.9431
  85   2.0000      -0.312058        -8.4915
  86   2.0000      -0.309519        -8.4224
  87   2.0000      -0.302812        -8.2399
  88   2.0000      -0.295205        -8.0329
  89   2.0000      -0.292489        -7.9590
  90   2.0000      -0.273318        -7.4374
  91   2.0000      -0.269741        -7.3400
  92   2.0000      -0.262809        -7.1514
  93   2.0000      -0.261229        -7.1084
  94   2.0000      -0.256937        -6.9916
  95   2.0000      -0.236003        -6.4220
  96   2.0000      -0.217356        -5.9146
  97   2.0000      -0.206091        -5.6080
  98   2.0000      -0.202701        -5.5158
  99   2.0000      -0.189607        -5.1595
 100   2.0000      -0.186232        -5.0676
 101   0.0000      -0.037539        -1.0215
 102   0.0000      -0.029232        -0.7955
 103   0.0000      -0.011660        -0.3173
 104   0.0000       0.008688         0.2364
 105   0.0000       0.019922         0.5421

MULLIKEN ATOMIC CHARGES
-----------------------
   0 C :   -0.320819
   1 C :    0.005903
   2 O :   -0.387173
   3 P :    0.616971
   4 S :   -0.308403
   5 O :   -0.349879
   6 C :   -0.017501
   7 C :   -0.286770
   8 S :   -0.103412
   9 C :   -0.348119
  10 S :   -0.104862
  11 P :    0.616122
  12 S :   -0.308894
  13 O :   -0.366699
  14 C :   -0.033442
  15 C :   -0.291004
  16 O :   -0.386210
  17 C :   -0.016859
  18 C :   -0.308651
  19 H :    0.111842
  20 H :    0.120370
  21 H :    0.120593
  22 H :    0.109800
  23 H :    0.103056
  24 H :    0.111333
  25 H :    0.106938
  26 H :    0.140005
  27 H :    0.107628
  28 H :    0.118546
  29 H :    0.182817
  30 H :    0.201468
  31 H :    0.110800
  32 H :    0.110724
  33 H :    0.130941
  34 H :    0.123222
  35 H :    0.110883
  36 H :    0.129236
  37 H :    0.101722
  38 H :    0.112770
  39 H :    0.107296
  40 H :    0.127709
Sum of atomic charges:   -0.0000000

LOEWDIN ATOMIC CHARGES
----------------------
   0 C :   -0.370909
   1 C :   -0.115682
   2 O :   -0.255799
   3 P :    0.575364
   4 S :   -0.289634
   5 O :   -0.226710
   6 C :   -0.112293
   7 C :   -0.351219
   8 S :    0.069781
   9 C :   -0.480092
  10 S :    0.083550
  11 P :    0.561022
  12 S :   -0.303521
  13 O :   -0.242007
  14 C :   -0.121416
  15 C :   -0.359731
  16 O :   -0.252594
  17 C :   -0.127357
  18 C :   -0.365556
  19 H :    0.130028
  20 H :    0.124370
  21 H :    0.118659
  22 H :    0.111047
  23 H :    0.118115
  24 H :    0.106826
  25 H :    0.113673
  26 H :    0.131295
  27 H :    0.129106
  28 H :    0.128740
  29 H :    0.135681
  30 H :    0.123434
  31 H :    0.120379
  32 H :    0.109382
  33 H :    0.119787
  34 H :    0.130741
  35 H :    0.130722
  36 H :    0.110401
  37 H :    0.116108
  38 H :    0.131191
  39 H :    0.119842
  40 H :    0.125275

  Mayer bond orders larger than 0.100000
B(  0-C ,  1-C ) :   1.1635 B(  0-C , 19-H ) :   0.9368 B(  0-C , 20-H ) :   0.9411
B(  0-C , 21-H ) :   0.9380 B(  1-C ,  2-O ) :   0.9217 B(  1-C , 22-H ) :   0.9195
B(  1-C , 23-H ) :   0.9349 B(  2-O ,  3-P ) :   1.0709 B(  3-P ,  4-S ) :   1.6137
B(  3-P ,  5-O ) :   1.1526 B(  3-P ,  8-S ) :   0.9504 B(  4-S ,  8-S ) :   0.1138
B(  4-S , 30-H ) :   0.1113 B(  5-O ,  6-C ) :   0.8907 B(  6-C ,  7-C ) :   1.1659
B(  6-C , 24-H ) :   0.9141 B(  6-C , 25-H ) :   0.9288 B(  7-C , 26-H ) :   0.9429
B(  7-C , 27-H ) :   0.9401 B(  7-C , 28-H ) :   0.9499 B(  8-S ,  9-C ) :   1.0047
B(  9-C , 10-S ) :   0.9993 B(  9-C , 29-H ) :   0.9091 B(  9-C , 30-H ) :   0.8442
B( 10-S , 11-P ) :   0.9637 B( 10-S , 12-S ) :   0.1088 B( 11-P , 12-S ) :   1.6704
B( 11-P , 13-O ) :   1.1105 B( 11-P , 16-O ) :   1.0706 B( 13-O , 14-C ) :   0.8974
B( 14-C , 15-C ) :   1.1670 B( 14-C , 31-H ) :   0.9322 B( 14-C , 32-H ) :   0.9142
B( 15-C , 33-H ) :   0.9372 B( 15-C , 34-H ) :   0.9455 B( 15-C , 35-H ) :   0.9391
B( 16-O , 17-C ) :   0.9034 B( 17-C , 18-C ) :   1.1556 B( 17-C , 36-H ) :   0.9048
B( 17-C , 37-H ) :   0.9357 B( 18-C , 38-H ) :   0.9407 B( 18-C , 39-H ) :   0.9457
B( 18-C , 40-H ) :   0.9377

Dispersion correction           -0.066667848
FINAL SINGLE POINT ENERGY     -2929.516046903230

DIPOLE MOMENT
-------------

Method             : SCF
Type of density    : Electron Density
Multiplicity       :   1
Irrep              :   0
Energy             : -2929.6347463723623150 Eh
Relativity type    :
Basis              : AO
                                X                 Y                 Z
Electronic contribution:      4.517836527      -1.819549334       0.740748290
Nuclear contribution   :     -4.568746102       1.301473843      -1.519886967
                        -----------------------------------------
Total Dipole Moment    :     -0.050909575      -0.518075490      -0.779138677
                        -----------------------------------------
Magnitude (a.u.)       :      0.937043796
Magnitude (Debye)      :      2.381776047

Rotational constants in cm-1:             0.012080             0.005123             0.004906
Rotational constants in MHz :           362.139618           153.597707           147.069865

                             ****ORCA TERMINATED NORMALLY****
TOTAL RUN TIME: 0 days 0 hours 0 minutes 20 seconds 987 msec
