                         Program Version 6.0.1  -  RELEASE   -
|  1> ! pbe def2-sv(p) def2/J RI DEFGRID1 loosescf d4 GCP(DFT/SV(P)) printgap
|  2> %output
|  3>     printlevel normal
|  4> end
|  5> * xyz 0 1
|  6> C 3.6177025836 -3.9693263849 -0.672279688
|  7> C 4.2675082157 -2.6664984884 -1.1101733113
|  8> O 3.3322866822 -1.8528733954 -1.847326614
|  9> C 2.5282247505 -1.0589854229 -1.1773068641
| 10> O 2.531519523 -0.9264598842 0.0297202694
| 11> C 1.5965614084 -0.292634439 -2.092875886
| 12> C 0.4889931212 0.3441854868 -1.2643212023
| 13> H -0.0989138598 1.0384380287 -1.873341449
| 14> C 1.1020532565 1.1354981784 -0.1184485317
| 15> O 2.0088061479 1.9166205231 -0.2942237078
| 16> O 0.5021295455 0.9159079012 1.0332006047
| 17> C 0.99045653 1.6141218799 2.1968952658
| 18> C 0.3268930544 2.9720929621 2.3448057524
| 19> S -0.6490339613 -0.9484671261 -0.6482226644
| 20> P -2.0704017622 0.3318099143 0.2226674682
| 21> S -2.1853903326 2.2054045838 -0.3246277091
| 22> O -3.3412852295 -0.5537759083 -0.2243060449
| 23> C -4.6713558284 -0.0762278651 0.0149995798
| 24> O -2.0321176561 0.1992474987 1.814793644
| 25> C -1.8617610783 -1.081497983 2.4450312456
| 26> H 2.7977691465 -3.7651486481 0.0126302827
| 27> H 3.2316747847 -4.5029608066 -1.536103485
| 28> H 4.3544014188 -4.5862011742 -0.1684796387
| 29> H 5.0845323208 -2.8424438354 -1.80972615
| 30> H 4.6201797903 -2.096869821 -0.2457673128
| 31> H 1.1935283435 -0.9597367102 -2.8534510383
| 32> H 2.1787613143 0.4927944594 -2.5803602932
| 33> H 0.74371061 0.9577443208 3.0316067834
| 34> H 2.074534738 1.7128769148 2.0939371146
| 35> H 0.5784836692 3.6079062141 1.4986820974
| 36> H -0.7539478067 2.8580153002 2.38257828
| 37> H 0.67259039 3.4418706123 3.2593246195
| 38> H -5.328032673 -0.7810414056 -0.4882516898
| 39> H -4.7899533663 0.9240866749 -0.4047682798
| 40> H -4.8813772852 -0.0483219419 1.0846347916
| 41> H -2.4914139982 -1.8317406096 1.9658875136
| 42> H -2.1542155071 -0.9355652554 3.4818425353
| 43> H -0.8168178902 -1.3835011054 2.3773870858
| 44> *
| 45>
| 46>                          ****END OF INPUT****

CARTESIAN COORDINATES (ANGSTROEM)
---------------------------------
  C      3.617703   -3.969326   -0.672280
  C      4.267508   -2.666498   -1.110173
  O      3.332287   -1.852873   -1.847327
  C      2.528225   -1.058985   -1.177307
  O      2.531520   -0.926460    0.029720
  C      1.596561   -0.292634   -2.092876
  C      0.488993    0.344185   -1.264321
  H     -0.098914    1.038438   -1.873341
  C      1.102053    1.135498   -0.118449
  O      2.008806    1.916621   -0.294224
  O      0.502130    0.915908    1.033201
  C      0.990457    1.614122    2.196895
  C      0.326893    2.972093    2.344806
  S     -0.649034   -0.948467   -0.648223
  P     -2.070402    0.331810    0.222667
  S     -2.185390    2.205405   -0.324628
  O     -3.341285   -0.553776   -0.224306
  C     -4.671356   -0.076228    0.015000
  O     -2.032118    0.199247    1.814794
  C     -1.861761   -1.081498    2.445031
  H      2.797769   -3.765149    0.012630
  H      3.231675   -4.502961   -1.536103
  H      4.354401   -4.586201   -0.168480
  H      5.084532   -2.842444   -1.809726
  H      4.620180   -2.096870   -0.245767
  H      1.193528   -0.959737   -2.853451
  H      2.178761    0.492794   -2.580360
  H      0.743711    0.957744    3.031607
  H      2.074535    1.712877    2.093937
  H      0.578484    3.607906    1.498682
  H     -0.753948    2.858015    2.382578
  H      0.672590    3.441871    3.259325
  H     -5.328033   -0.781041   -0.488252
  H     -4.789953    0.924087   -0.404768
  H     -4.881377   -0.048322    1.084635
  H     -2.491414   -1.831741    1.965888
  H     -2.154216   -0.935565    3.481843
  H     -0.816818   -1.383501    2.377387

 Total Charge           Charge          ....    0
 Multiplicity           Mult            ....    1
 Number of Electrons    NEL             ....  174
 Basis Dimension        Dim             ....  316

ORBITAL ENERGIES
----------------

  NO   OCC          E(Eh)            E(eV)
   0   2.0000     -88.036974     -2395.6079
   1   2.0000     -87.981670     -2394.1029
   2   2.0000     -76.422122     -2079.5517
   3   2.0000     -18.810209      -511.8518
   4   2.0000     -18.796986      -511.4920
   5   2.0000     -18.792342      -511.3656
   6   2.0000     -18.786483      -511.2062
   7   2.0000     -18.749930      -510.2115
   8   2.0000     -18.725274      -509.5406
   9   2.0000     -10.018533      -272.6182
  10   2.0000     -10.006874      -272.3009
  11   2.0000      -9.954594      -270.8783
  12   2.0000      -9.949827      -270.7486
  13   2.0000      -9.943000      -270.5628
  14   2.0000      -9.942648      -270.5532
  15   2.0000      -9.937639      -270.4169
  16   2.0000      -9.917515      -269.8693
  17   2.0000      -9.892915      -269.1999
  18   2.0000      -9.868772      -268.5429
  19   2.0000      -7.682029      -209.0386
  20   2.0000      -7.626888      -207.5382
  21   2.0000      -6.419628      -174.6870
  22   2.0000      -5.709873      -155.3735
  23   2.0000      -5.706970      -155.2945
  24   2.0000      -5.698566      -155.0659
  25   2.0000      -5.656088      -153.9100
  26   2.0000      -5.647626      -153.6797
  27   2.0000      -5.646571      -153.6510
  28   2.0000      -4.642478      -126.3282
  29   2.0000      -4.641274      -126.2955
  30   2.0000      -4.640062      -126.2625
  31   2.0000      -1.020041       -27.7567
  32   2.0000      -1.003849       -27.3161
  33   2.0000      -0.980701       -26.6862
  34   2.0000      -0.938301       -25.5325
  35   2.0000      -0.926418       -25.2091
  36   2.0000      -0.907341       -24.6900
  37   2.0000      -0.764493       -20.8029
  38   2.0000      -0.718929       -19.5631
  39   2.0000      -0.698219       -18.9995
  40   2.0000      -0.689056       -18.7502
  41   2.0000      -0.658283       -17.9128
  42   2.0000      -0.638309       -17.3693
  43   2.0000      -0.618738       -16.8367
  44   2.0000      -0.611670       -16.6444
  45   2.0000      -0.596117       -16.2212
  46   2.0000      -0.559521       -15.2254
  47   2.0000      -0.514075       -13.9887
  48   2.0000      -0.505156       -13.7460
  49   2.0000      -0.493979       -13.4419
  50   2.0000      -0.479310       -13.0427
  51   2.0000      -0.473634       -12.8882
  52   2.0000      -0.460423       -12.5287
  53   2.0000      -0.443437       -12.0665
  54   2.0000      -0.435335       -11.8461
  55   2.0000      -0.433318       -11.7912
  56   2.0000      -0.426585       -11.6080
  57   2.0000      -0.419451       -11.4139
  58   2.0000      -0.412184       -11.2161
  59   2.0000      -0.406205       -11.0534
  60   2.0000      -0.402623       -10.9559
  61   2.0000      -0.397120       -10.8062
  62   2.0000      -0.391513       -10.6536
  63   2.0000      -0.378144       -10.2898
  64   2.0000      -0.373006       -10.1500
  65   2.0000      -0.364740        -9.9251
  66   2.0000      -0.361999        -9.8505
  67   2.0000      -0.347710        -9.4617
  68   2.0000      -0.341951        -9.3050
  69   2.0000      -0.335976        -9.1424
  70   2.0000      -0.332105        -9.0370
  71   2.0000      -0.324836        -8.8392
  72   2.0000      -0.321854        -8.7581
  73   2.0000      -0.316098        -8.6015
  74   2.0000      -0.311349        -8.4722
  75   2.0000      -0.300692        -8.1823
  76   2.0000      -0.289091        -7.8666
  77   2.0000      -0.279168        -7.5965
  78   2.0000      -0.272314        -7.4100
  79   2.0000      -0.270358        -7.3568
  80   2.0000      -0.262520        -7.1435
  81   2.0000      -0.249582        -6.7915
  82   2.0000      -0.236254        -6.4288
  83   2.0000      -0.230319        -6.2673
  84   2.0000      -0.204463        -5.5637
  85   2.0000      -0.201405        -5.4805
  86   2.0000      -0.194907        -5.3037
  87   0.0000      -0.042722        -1.1625
  88   0.0000      -0.027398        -0.7455
  89   0.0000      -0.011866        -0.3229
  90   0.0000       0.008091         0.2202
  91   0.0000       0.025729         0.7001

MULLIKEN ATOMIC CHARGES
-----------------------
   0 C :   -0.306476
   1 C :   -0.012737
   2 O :   -0.223990
   3 C :    0.115388
   4 O :   -0.198084
   5 C :   -0.098568
   6 C :   -0.313118
   7 H :    0.155017
   8 C :    0.238827
   9 O :   -0.208875
  10 O :   -0.234956
  11 C :   -0.003781
  12 C :   -0.300098
  13 S :   -0.076158
  14 P :    0.633640
  15 S :   -0.322934
  16 O :   -0.391732
  17 C :   -0.104715
  18 O :   -0.378054
  19 C :   -0.121834
  20 H :    0.128167
  21 H :    0.116502
  22 H :    0.115856
  23 H :    0.106997
  24 H :    0.113514
  25 H :    0.129615
  26 H :    0.146740
  27 H :    0.093869
  28 H :    0.109700
  29 H :    0.124376
  30 H :    0.125735
  31 H :    0.101648
  32 H :    0.125425
  33 H :    0.123556
  34 H :    0.108453
  35 H :    0.117069
  36 H :    0.128864
  37 H :    0.137152
Sum of atomic charges:   -0.0000000

LOEWDIN ATOMIC CHARGES
----------------------
   0 C :   -0.355648
   1 C :   -0.108693
   2 O :   -0.053268
   3 C :    0.037942
   4 O :   -0.151938
   5 C :   -0.248401
   6 C :   -0.264796
   7 H :    0.144573
   8 C :    0.016889
   9 O :   -0.169215
  10 O :   -0.055491
  11 C :   -0.103354
  12 C :   -0.359100
  13 S :    0.108385
  14 P :    0.581675
  15 S :   -0.307093
  16 O :   -0.272598
  17 C :   -0.215696
  18 O :   -0.251731
  19 C :   -0.218124
  20 H :    0.130980
  21 H :    0.126066
  22 H :    0.132009
  23 H :    0.119976
  24 H :    0.122181
  25 H :    0.143149
  26 H :    0.161692
  27 H :    0.113162
  28 H :    0.121254
  29 H :    0.130370
  30 H :    0.125007
  31 H :    0.124971
  32 H :    0.121906
  33 H :    0.112923
  34 H :    0.108651
  35 H :    0.109847
  36 H :    0.124115
  37 H :    0.117424

  Mayer bond orders larger than 0.100000
B(  0-C ,  1-C ) :   1.1740 B(  0-C , 20-H ) :   0.9460 B(  0-C , 21-H ) :   0.9485
B(  0-C , 22-H ) :   0.9439 B(  1-C ,  2-O ) :   0.9093 B(  1-C , 23-H ) :   0.9368
B(  1-C , 24-H ) :   0.9150 B(  2-O ,  3-C ) :   1.2532 B(  3-C ,  4-O ) :   1.9962
B(  3-C ,  5-C ) :   0.9954 B(  5-C ,  6-C ) :   1.0684 B(  5-C , 25-H ) :   0.9023
B(  5-C , 26-H ) :   0.8706 B(  6-C ,  7-H ) :   0.8543 B(  6-C ,  8-C ) :   0.8619
B(  6-C , 13-S ) :   1.0220 B(  8-C ,  9-O ) :   2.0468 B(  8-C , 10-O ) :   1.2315
B( 10-O , 11-C ) :   0.9039 B( 11-C , 12-C ) :   1.1809 B( 11-C , 27-H ) :   0.9347
B( 11-C , 28-H ) :   0.9168 B( 12-C , 29-H ) :   0.9440 B( 12-C , 30-H ) :   0.9389
B( 12-C , 31-H ) :   0.9422 B( 13-S , 14-P ) :   0.9705 B( 13-S , 15-S ) :   0.1083
B( 14-P , 15-S ) :   1.6345 B( 14-P , 16-O ) :   1.0663 B( 14-P , 18-O ) :   1.0790
B( 16-O , 17-C ) :   0.9339 B( 17-C , 32-H ) :   0.9593 B( 17-C , 33-H ) :   0.9378
B( 17-C , 34-H ) :   0.9493 B( 18-O , 19-C ) :   0.9262 B( 19-C , 35-H ) :   0.9412
B( 19-C , 36-H ) :   0.9579 B( 19-C , 37-H ) :   0.9413

Dispersion correction           -0.053352240
FINAL SINGLE POINT ENERGY     -1979.019633879185

DIPOLE MOMENT
-------------

Method             : SCF
Type of density    : Electron Density
Multiplicity       :   1
Irrep              :   0
Energy             : -1979.1496543660978205 Eh
Relativity type    :
Basis              : AO
                                X                 Y                 Z
Electronic contribution:     -7.774856118       6.745854240      -7.988190824
Nuclear contribution   :      7.807618711      -8.499225698       8.494479248
                        -----------------------------------------
Total Dipole Moment    :      0.032762593      -1.753371458       0.506288424
                        -----------------------------------------
Magnitude (a.u.)       :      1.825298010
Magnitude (Debye)      :      4.639538832

Rotational constants in cm-1:             0.015313             0.006457             0.005707
Rotational constants in MHz :           459.081795           193.574510           171.084620

                             ****ORCA TERMINATED NORMALLY****
TOTAL RUN TIME: 0 days 0 hours 0 minutes 29 seconds 710 msec
