                         Program Version 6.0.0  -   RELEASE  -
|  1> ! pbe def2-sv(p) def2/J RI DEFGRID1 loosescf d4 GCP(DFT/SV(P)) printgap
|  2> %output
|  3>     printlevel normal
|  4> end
|  5> * xyz 0 1
|  6> C 4.6525733512 0.7323704125 -1.2009011914
|  7> C 4.4726829961 0.2475630432 0.2232177173
|  8> O 3.2677697265 -0.512824417 0.382360753
|  9> P 1.8252147307 0.1793243248 0.3371552502
| 10> S 1.8070391552 1.9441379151 1.1946801227
| 11> O 0.929742163 -0.9715229592 0.9580242624
| 12> C 1.3965104359 -1.8562167008 2.0028973077
| 13> C 1.7818686349 -1.1133460088 3.2650392793
| 14> S 1.290293238 0.137136483 -1.7257840088
| 15> C 0.2222930769 -1.3211840937 -1.9082809338
| 16> S -1.5119104836 -0.916387262 -2.305712538
| 17> P -2.2082989461 -0.2477237215 -0.4394722981
| 18> S -4.0857572892 0.3008497956 -0.3632174559
| 19> O -1.158476621 0.8604805002 0.0555181445
| 20> C -1.449757627 2.2581898657 -0.1211301391
| 21> C -1.3897971651 2.674569279 -1.5766622676
| 22> O -1.8219505927 -1.5066151451 0.4493670986
| 23> C -2.4990253791 -1.7799340154 1.69416078
| 24> C -2.2760886882 -0.6874062543 2.7184885604
| 25> H 5.6115468558 1.2319514477 -1.2923045193
| 26> H 4.6114514271 -0.1023283767 -1.895482636
| 27> H 3.8604405468 1.4369614338 -1.4547276
| 28> H 4.4412548493 1.096209061 0.915017545
| 29> H 5.2645780378 -0.4426146254 0.5176816171
| 30> H 0.5448523601 -2.5176260913 2.1718731509
| 31> H 2.2427407414 -2.4290318289 1.6184019008
| 32> H 0.954333259 -0.506269485 3.6252497446
| 33> H 2.0592256739 -1.8298828214 4.0320100012
| 34> H 2.6268735149 -0.4543312075 3.0710898793
| 35> H 0.2538666307 -1.9193630084 -1.0038461792
| 36> H 0.5838273474 -1.8703368808 -2.7735785927
| 37> H -2.4442570259 2.4547222879 0.2917480968
| 38> H -0.6918444973 2.7680719274 0.4765583112
| 39> H -1.5786360078 3.740779432 -1.6482805073
| 40> H -0.4116358679 2.4557336736 -1.9988518793
| 41> H -2.1507022806 2.1406209104 -2.1469060293
| 42> H -3.5668478729 -1.8967172657 1.4851224372
| 43> H -2.0789913385 -2.7344549339 2.0144948585
| 44> H -2.8022085801 0.2174137895 2.4155714402
| 45> H -2.6548227105 -1.0094039257 3.6833209262
| 46> H -1.2168182784 -0.4576186174 2.7991006899
| 47> *
| 48>
| 49>                          ****END OF INPUT****

CARTESIAN COORDINATES (ANGSTROEM)
---------------------------------
  C      4.652573    0.732370   -1.200901
  C      4.472683    0.247563    0.223218
  O      3.267770   -0.512824    0.382361
  P      1.825215    0.179324    0.337155
  S      1.807039    1.944138    1.194680
  O      0.929742   -0.971523    0.958024
  C      1.396510   -1.856217    2.002897
  C      1.781869   -1.113346    3.265039
  S      1.290293    0.137136   -1.725784
  C      0.222293   -1.321184   -1.908281
  S     -1.511910   -0.916387   -2.305713
  P     -2.208299   -0.247724   -0.439472
  S     -4.085757    0.300850   -0.363217
  O     -1.158477    0.860481    0.055518
  C     -1.449758    2.258190   -0.121130
  C     -1.389797    2.674569   -1.576662
  O     -1.821951   -1.506615    0.449367
  C     -2.499025   -1.779934    1.694161
  C     -2.276089   -0.687406    2.718489
  H      5.611547    1.231951   -1.292305
  H      4.611451   -0.102328   -1.895483
  H      3.860441    1.436961   -1.454728
  H      4.441255    1.096209    0.915018
  H      5.264578   -0.442615    0.517682
  H      0.544852   -2.517626    2.171873
  H      2.242741   -2.429032    1.618402
  H      0.954333   -0.506269    3.625250
  H      2.059226   -1.829883    4.032010
  H      2.626874   -0.454331    3.071090
  H      0.253867   -1.919363   -1.003846
  H      0.583827   -1.870337   -2.773579
  H     -2.444257    2.454722    0.291748
  H     -0.691844    2.768072    0.476558
  H     -1.578636    3.740779   -1.648281
  H     -0.411636    2.455734   -1.998852
  H     -2.150702    2.140621   -2.146906
  H     -3.566848   -1.896717    1.485122
  H     -2.078991   -2.734455    2.014495
  H     -2.802209    0.217414    2.415571
  H     -2.654823   -1.009404    3.683321
  H     -1.216818   -0.457619    2.799101

 Total Charge           Charge          ....    0
 Multiplicity           Mult            ....    1
 Number of Electrons    NEL             ....  202
 Basis Dimension        Dim             ....  334

ORBITAL ENERGIES
----------------

  NO   OCC          E(Eh)            E(eV)
   0   2.0000     -88.044056     -2395.8006
   1   2.0000     -88.041696     -2395.7364
   2   2.0000     -87.991295     -2394.3649
   3   2.0000     -87.985870     -2394.2172
   4   2.0000     -76.433805     -2079.8696
   5   2.0000     -76.423481     -2079.5886
   6   2.0000     -18.800056      -511.5755
   7   2.0000     -18.797059      -511.4940
   8   2.0000     -18.788780      -511.2687
   9   2.0000     -18.785683      -511.1844
  10   2.0000      -9.965433      -271.1732
  11   2.0000      -9.961796      -271.0742
  12   2.0000      -9.955374      -270.8995
  13   2.0000      -9.953251      -270.8417
  14   2.0000      -9.933101      -270.2934
  15   2.0000      -9.892458      -269.1875
  16   2.0000      -9.887992      -269.0659
  17   2.0000      -9.882709      -268.9222
  18   2.0000      -9.867140      -268.4985
  19   2.0000      -7.688910      -209.2259
  20   2.0000      -7.687360      -209.1837
  21   2.0000      -7.636305      -207.7944
  22   2.0000      -7.631025      -207.6507
  23   2.0000      -6.430701      -174.9883
  24   2.0000      -6.421257      -174.7313
  25   2.0000      -5.717363      -155.5774
  26   2.0000      -5.715598      -155.5293
  27   2.0000      -5.713215      -155.4645
  28   2.0000      -5.711600      -155.4205
  29   2.0000      -5.705487      -155.2542
  30   2.0000      -5.704142      -155.2176
  31   2.0000      -5.665213      -154.1583
  32   2.0000      -5.659993      -154.0162
  33   2.0000      -5.657099      -153.9375
  34   2.0000      -5.656307      -153.9159
  35   2.0000      -5.651670      -153.7898
  36   2.0000      -5.651093      -153.7740
  37   2.0000      -4.653771      -126.6355
  38   2.0000      -4.652559      -126.6026
  39   2.0000      -4.650734      -126.5529
  40   2.0000      -4.643582      -126.3583
  41   2.0000      -4.643137      -126.3462
  42   2.0000      -4.641837      -126.3108
  43   2.0000      -0.995467       -27.0880
  44   2.0000      -0.980308       -26.6755
  45   2.0000      -0.950221       -25.8568
  46   2.0000      -0.939938       -25.5770
  47   2.0000      -0.762322       -20.7438
  48   2.0000      -0.723828       -19.6964
  49   2.0000      -0.707001       -19.2385
  50   2.0000      -0.694727       -18.9045
  51   2.0000      -0.678500       -18.4629
  52   2.0000      -0.673320       -18.3220
  53   2.0000      -0.658650       -17.9228
  54   2.0000      -0.639972       -17.4145
  55   2.0000      -0.599769       -16.3206
  56   2.0000      -0.591980       -16.1086
  57   2.0000      -0.585709       -15.9380
  58   2.0000      -0.568464       -15.4687
  59   2.0000      -0.559743       -15.2314
  60   2.0000      -0.503131       -13.6909
  61   2.0000      -0.488683       -13.2978
  62   2.0000      -0.479554       -13.0493
  63   2.0000      -0.467717       -12.7272
  64   2.0000      -0.463892       -12.6232
  65   2.0000      -0.450675       -12.2635
  66   2.0000      -0.434558       -11.8249
  67   2.0000      -0.432711       -11.7747
  68   2.0000      -0.428130       -11.6500
  69   2.0000      -0.422952       -11.5091
  70   2.0000      -0.414666       -11.2836
  71   2.0000      -0.407444       -11.0871
  72   2.0000      -0.394776       -10.7424
  73   2.0000      -0.392698       -10.6859
  74   2.0000      -0.386223       -10.5097
  75   2.0000      -0.371592       -10.1115
  76   2.0000      -0.366083        -9.9616
  77   2.0000      -0.359142        -9.7728
  78   2.0000      -0.356248        -9.6940
  79   2.0000      -0.348759        -9.4902
  80   2.0000      -0.346689        -9.4339
  81   2.0000      -0.342987        -9.3332
  82   2.0000      -0.340029        -9.2527
  83   2.0000      -0.332020        -9.0347
  84   2.0000      -0.325717        -8.8632
  85   2.0000      -0.318616        -8.6700
  86   2.0000      -0.315525        -8.5859
  87   2.0000      -0.306296        -8.3347
  88   2.0000      -0.299070        -8.1381
  89   2.0000      -0.288327        -7.8458
  90   2.0000      -0.282721        -7.6932
  91   2.0000      -0.281590        -7.6625
  92   2.0000      -0.267737        -7.2855
  93   2.0000      -0.265324        -7.2198
  94   2.0000      -0.257064        -6.9951
  95   2.0000      -0.229926        -6.2566
  96   2.0000      -0.216170        -5.8823
  97   2.0000      -0.211677        -5.7600
  98   2.0000      -0.207977        -5.6594
  99   2.0000      -0.203955        -5.5499
 100   2.0000      -0.197401        -5.3716
 101   0.0000      -0.044777        -1.2184
 102   0.0000      -0.038647        -1.0516
 103   0.0000      -0.019106        -0.5199
 104   0.0000      -0.006685        -0.1819
 105   0.0000       0.010857         0.2954

MULLIKEN ATOMIC CHARGES
-----------------------
   0 C :   -0.307686
   1 C :   -0.009943
   2 O :   -0.386127
   3 P :    0.649047
   4 S :   -0.317769
   5 O :   -0.384150
   6 C :   -0.004851
   7 C :   -0.323768
   8 S :   -0.089331
   9 C :   -0.356564
  10 S :   -0.071040
  11 P :    0.625354
  12 S :   -0.318280
  13 O :   -0.380448
  14 C :   -0.017201
  15 C :   -0.315174
  16 O :   -0.383582
  17 C :   -0.006570
  18 C :   -0.340199
  19 H :    0.114435
  20 H :    0.117236
  21 H :    0.123291
  22 H :    0.111547
  23 H :    0.102147
  24 H :    0.111030
  25 H :    0.113443
  26 H :    0.136377
  27 H :    0.113050
  28 H :    0.129480
  29 H :    0.208648
  30 H :    0.185577
  31 H :    0.106763
  32 H :    0.118520
  33 H :    0.105951
  34 H :    0.125882
  35 H :    0.115927
  36 H :    0.115976
  37 H :    0.102609
  38 H :    0.127151
  39 H :    0.110663
  40 H :    0.142577
Sum of atomic charges:   -0.0000000

LOEWDIN ATOMIC CHARGES
----------------------
   0 C :   -0.366434
   1 C :   -0.125123
   2 O :   -0.252910
   3 P :    0.582975
   4 S :   -0.296456
   5 O :   -0.235293
   6 C :   -0.111582
   7 C :   -0.365758
   8 S :    0.094554
   9 C :   -0.475182
  10 S :    0.090745
  11 P :    0.576514
  12 S :   -0.313137
  13 O :   -0.244426
  14 C :   -0.133232
  15 C :   -0.371311
  16 O :   -0.247112
  17 C :   -0.115561
  18 C :   -0.372033
  19 H :    0.131718
  20 H :    0.124793
  21 H :    0.118370
  22 H :    0.107599
  23 H :    0.116901
  24 H :    0.118156
  25 H :    0.115166
  26 H :    0.129136
  27 H :    0.131565
  28 H :    0.124940
  29 H :    0.136350
  30 H :    0.140363
  31 H :    0.104813
  32 H :    0.110368
  33 H :    0.128462
  34 H :    0.117972
  35 H :    0.116260
  36 H :    0.113234
  37 H :    0.112975
  38 H :    0.125175
  39 H :    0.129650
  40 H :    0.126796

  Mayer bond orders larger than 0.100000
B(  0-C ,  1-C ) :   1.1668 B(  0-C , 19-H ) :   0.9385 B(  0-C , 20-H ) :   0.9444
B(  0-C , 21-H ) :   0.9352 B(  1-C ,  2-O ) :   0.9164 B(  1-C , 22-H ) :   0.9098
B(  1-C , 23-H ) :   0.9317 B(  2-O ,  3-P ) :   1.0459 B(  3-P ,  4-S ) :   1.6420
B(  3-P ,  5-O ) :   1.1029 B(  3-P ,  8-S ) :   0.9568 B(  5-O ,  6-C ) :   0.8933
B(  6-C ,  7-C ) :   1.1743 B(  6-C , 24-H ) :   0.9239 B(  6-C , 25-H ) :   0.9261
B(  7-C , 26-H ) :   0.9415 B(  7-C , 27-H ) :   0.9345 B(  7-C , 28-H ) :   0.9306
B(  8-S ,  9-C ) :   0.9956 B(  9-C , 10-S ) :   0.9860 B(  9-C , 29-H ) :   0.8793
B(  9-C , 30-H ) :   0.9103 B( 10-S , 11-P ) :   0.9817 B( 11-P , 12-S ) :   1.6308
B( 11-P , 13-O ) :   1.0790 B( 11-P , 16-O ) :   1.0955 B( 13-O , 14-C ) :   0.8972
B( 14-C , 15-C ) :   1.1681 B( 14-C , 31-H ) :   0.9143 B( 14-C , 32-H ) :   0.9072
B( 15-C , 33-H ) :   0.9391 B( 15-C , 34-H ) :   0.9355 B( 15-C , 35-H ) :   0.9356
B( 16-O , 17-C ) :   0.9075 B( 17-C , 18-C ) :   1.1616 B( 17-C , 36-H ) :   0.9191
B( 17-C , 37-H ) :   0.9295 B( 18-C , 38-H ) :   0.9283 B( 18-C , 39-H ) :   0.9364
B( 18-C , 40-H ) :   0.9287

Dispersion correction           -0.070054082
FINAL SINGLE POINT ENERGY     -2929.512584020108

DIPOLE MOMENT
-------------

Method             : SCF
Type of density    : Electron Density
Multiplicity       :   1
Irrep              :   0
Energy             : -2929.6338065015606844 Eh
Relativity type    :
Basis              : AO
                                X                 Y                 Z
Electronic contribution:    -11.408661723      -0.639434302     -13.471326612
Nuclear contribution   :     13.058819563      -0.601583563      14.193202505
                        -----------------------------------------
Total Dipole Moment    :      1.650157840      -1.241017866       0.721875894
                        -----------------------------------------
Magnitude (a.u.)       :      2.187293086
Magnitude (Debye)      :      5.559657192

Rotational constants in cm-1:             0.012055             0.006124             0.005413
Rotational constants in MHz :           361.410099           183.606567           162.271899

                             ****ORCA TERMINATED NORMALLY****
TOTAL RUN TIME: 0 days 0 hours 0 minutes 22 seconds 699 msec
