                         Program Version 6.0.0  -   RELEASE  -
|  1> ! pbe def2-sv(p) def2/J RI DEFGRID1 loosescf d4 GCP(DFT/SV(P)) printgap
|  2> %output
|  3>     printlevel normal
|  4> end
|  5> * xyz 0 1
|  6> C 3.9769250818 0.3497539402 -2.7842501467
|  7> C 3.0328824908 -0.4430927994 -1.9051883822
|  8> O 2.495978743 0.4540820197 -0.9024818468
|  9> P 2.0212871221 -0.0605656461 0.5157513313
| 10> S 1.1364579824 1.3327226777 1.5589848439
| 11> O 3.3197198452 -0.6692805147 1.2358751648
| 12> C 4.1987766243 0.1369035416 2.0405788316
| 13> C 5.0381989841 1.072750299 1.1942035965
| 14> S 1.0430581142 -1.907913522 0.2157853803
| 15> C -0.3216639154 -1.7000059445 1.4040774515
| 16> S -1.9632732717 -1.6975329577 0.6369278713
| 17> P -1.9363683277 0.161782032 -0.4074257935
| 18> S -0.546887204 0.4418862407 -1.7558819621
| 19> O -1.9502254435 1.2954114158 0.678717098
| 20> C -2.9143537968 1.3832296366 1.7586421345
| 21> C -4.0574653739 2.3017565022 1.3810881374
| 22> O -3.4133567514 0.1868041725 -0.9875627839
| 23> C -3.8014262848 -0.6652870996 -2.0860454802
| 24> C -5.1052701181 -0.1355851227 -2.647045083
| 25> H 4.3507492079 -0.2947968537 -3.5730475715
| 26> H 3.4454382075 1.1884021446 -3.2251677058
| 27> H 4.811259084 0.7297194326 -2.2010641677
| 28> H 3.5420407183 -1.2716264893 -1.4036818632
| 29> H 2.1843340413 -0.8278851304 -2.4774767951
| 30> H 3.5915660794 0.7030976376 2.7542699582
| 31> H 4.8128102206 -0.592168733 2.5710906955
| 32> H 5.616860326 0.5082812347 0.4672496467
| 33> H 4.3904933969 1.773089313 0.6666117795
| 34> H 5.7130114389 1.6308791418 1.8356329628
| 35> H -0.1697619876 -0.7647597148 1.9496044751
| 36> H -0.3171020723 -2.5571734126 2.0721144008
| 37> H -3.2750407488 0.3781025927 1.9946939546
| 38> H -2.3380291038 1.7811078361 2.5966073313
| 39> H -3.672669214 3.2802473445 1.1067531147
| 40> H -4.6067593387 1.8913612988 0.5380787803
| 41> H -4.7243351344 2.403574061 2.2314812674
| 42> H -3.0034299806 -0.6490126937 -2.8355157265
| 43> H -3.913363629 -1.6827421198 -1.7026279663
| 44> H -5.8727082444 -0.1460704785 -1.878637865
| 45> H -4.9730530822 0.8828374194 -3.0015566
| 46> H -5.4168399271 -0.7647944224 -3.4741125835
| 47> *
| 48>
| 49>                          ****END OF INPUT****

CARTESIAN COORDINATES (ANGSTROEM)
---------------------------------
  C      3.976925    0.349754   -2.784250
  C      3.032882   -0.443093   -1.905188
  O      2.495979    0.454082   -0.902482
  P      2.021287   -0.060566    0.515751
  S      1.136458    1.332723    1.558985
  O      3.319720   -0.669281    1.235875
  C      4.198777    0.136904    2.040579
  C      5.038199    1.072750    1.194204
  S      1.043058   -1.907914    0.215785
  C     -0.321664   -1.700006    1.404077
  S     -1.963273   -1.697533    0.636928
  P     -1.936368    0.161782   -0.407426
  S     -0.546887    0.441886   -1.755882
  O     -1.950225    1.295411    0.678717
  C     -2.914354    1.383230    1.758642
  C     -4.057465    2.301757    1.381088
  O     -3.413357    0.186804   -0.987563
  C     -3.801426   -0.665287   -2.086045
  C     -5.105270   -0.135585   -2.647045
  H      4.350749   -0.294797   -3.573048
  H      3.445438    1.188402   -3.225168
  H      4.811259    0.729719   -2.201064
  H      3.542041   -1.271626   -1.403682
  H      2.184334   -0.827885   -2.477477
  H      3.591566    0.703098    2.754270
  H      4.812810   -0.592169    2.571091
  H      5.616860    0.508281    0.467250
  H      4.390493    1.773089    0.666612
  H      5.713011    1.630879    1.835633
  H     -0.169762   -0.764760    1.949604
  H     -0.317102   -2.557173    2.072114
  H     -3.275041    0.378103    1.994694
  H     -2.338029    1.781108    2.596607
  H     -3.672669    3.280247    1.106753
  H     -4.606759    1.891361    0.538079
  H     -4.724335    2.403574    2.231481
  H     -3.003430   -0.649013   -2.835516
  H     -3.913364   -1.682742   -1.702628
  H     -5.872708   -0.146070   -1.878638
  H     -4.973053    0.882837   -3.001557
  H     -5.416840   -0.764794   -3.474113

 Total Charge           Charge          ....    0
 Multiplicity           Mult            ....    1
 Number of Electrons    NEL             ....  202
 Basis Dimension        Dim             ....  334

ORBITAL ENERGIES
----------------

  NO   OCC          E(Eh)            E(eV)
   0   2.0000     -88.038576     -2395.6514
   1   2.0000     -88.033569     -2395.5152
   2   2.0000     -87.980652     -2394.0752
   3   2.0000     -87.974296     -2393.9023
   4   2.0000     -76.419157     -2079.4710
   5   2.0000     -76.417352     -2079.4219
   6   2.0000     -18.789368      -511.2847
   7   2.0000     -18.785611      -511.1825
   8   2.0000     -18.785284      -511.1736
   9   2.0000     -18.778536      -510.9899
  10   2.0000      -9.953928      -270.8602
  11   2.0000      -9.951811      -270.8025
  12   2.0000      -9.951427      -270.7921
  13   2.0000      -9.950480      -270.7663
  14   2.0000      -9.944170      -270.5946
  15   2.0000      -9.888243      -269.0728
  16   2.0000      -9.886412      -269.0230
  17   2.0000      -9.882055      -268.9044
  18   2.0000      -9.881485      -268.8889
  19   2.0000      -7.683694      -209.0839
  20   2.0000      -7.679032      -208.9571
  21   2.0000      -7.625914      -207.5117
  22   2.0000      -7.619338      -207.3327
  23   2.0000      -6.416720      -174.6078
  24   2.0000      -6.415309      -174.5694
  25   2.0000      -5.711290      -155.4121
  26   2.0000      -5.708128      -155.3260
  27   2.0000      -5.706968      -155.2945
  28   2.0000      -5.703876      -155.2103
  29   2.0000      -5.701033      -155.1330
  30   2.0000      -5.695513      -154.9828
  31   2.0000      -5.654863      -153.8766
  32   2.0000      -5.648352      -153.6995
  33   2.0000      -5.646955      -153.6615
  34   2.0000      -5.645498      -153.6218
  35   2.0000      -5.639898      -153.4694
  36   2.0000      -5.639443      -153.4571
  37   2.0000      -4.639724      -126.2533
  38   2.0000      -4.638651      -126.2241
  39   2.0000      -4.638074      -126.2084
  40   2.0000      -4.636741      -126.1721
  41   2.0000      -4.636610      -126.1686
  42   2.0000      -4.635901      -126.1493
  43   2.0000      -0.984292       -26.7839
  44   2.0000      -0.976697       -26.5773
  45   2.0000      -0.941851       -25.6291
  46   2.0000      -0.935163       -25.4471
  47   2.0000      -0.756978       -20.5984
  48   2.0000      -0.717543       -19.5253
  49   2.0000      -0.708288       -19.2735
  50   2.0000      -0.689873       -18.7724
  51   2.0000      -0.687058       -18.6958
  52   2.0000      -0.667875       -18.1738
  53   2.0000      -0.644593       -17.5403
  54   2.0000      -0.632326       -17.2065
  55   2.0000      -0.588744       -16.0205
  56   2.0000      -0.583075       -15.8663
  57   2.0000      -0.569171       -15.4879
  58   2.0000      -0.566138       -15.4054
  59   2.0000      -0.558821       -15.2063
  60   2.0000      -0.507025       -13.7969
  61   2.0000      -0.497803       -13.5459
  62   2.0000      -0.478647       -13.0247
  63   2.0000      -0.471902       -12.8411
  64   2.0000      -0.446857       -12.1596
  65   2.0000      -0.442035       -12.0284
  66   2.0000      -0.439745       -11.9661
  67   2.0000      -0.434864       -11.8332
  68   2.0000      -0.429682       -11.6922
  69   2.0000      -0.411277       -11.1914
  70   2.0000      -0.398046       -10.8314
  71   2.0000      -0.391822       -10.6620
  72   2.0000      -0.386541       -10.5183
  73   2.0000      -0.384879       -10.4731
  74   2.0000      -0.379880       -10.3371
  75   2.0000      -0.364163        -9.9094
  76   2.0000      -0.360091        -9.7986
  77   2.0000      -0.355525        -9.6743
  78   2.0000      -0.352449        -9.5906
  79   2.0000      -0.349988        -9.5237
  80   2.0000      -0.344807        -9.3827
  81   2.0000      -0.341910        -9.3038
  82   2.0000      -0.338996        -9.2246
  83   2.0000      -0.336161        -9.1474
  84   2.0000      -0.331859        -9.0304
  85   2.0000      -0.314713        -8.5638
  86   2.0000      -0.312243        -8.4966
  87   2.0000      -0.303796        -8.2667
  88   2.0000      -0.296842        -8.0775
  89   2.0000      -0.287476        -7.8226
  90   2.0000      -0.272406        -7.4125
  91   2.0000      -0.268419        -7.3041
  92   2.0000      -0.266211        -7.2440
  93   2.0000      -0.260183        -7.0799
  94   2.0000      -0.255155        -6.9431
  95   2.0000      -0.236891        -6.4461
  96   2.0000      -0.213820        -5.8183
  97   2.0000      -0.203954        -5.5499
  98   2.0000      -0.197358        -5.3704
  99   2.0000      -0.184187        -5.0120
 100   2.0000      -0.181687        -4.9439
 101   0.0000      -0.037010        -1.0071
 102   0.0000      -0.026264        -0.7147
 103   0.0000      -0.005494        -0.1495
 104   0.0000       0.006298         0.1714
 105   0.0000       0.028086         0.7643

MULLIKEN ATOMIC CHARGES
-----------------------
   0 C :   -0.281639
   1 C :   -0.032581
   2 O :   -0.360025
   3 P :    0.609385
   4 S :   -0.299642
   5 O :   -0.383349
   6 C :   -0.005126
   7 C :   -0.321251
   8 S :   -0.080450
   9 C :   -0.340167
  10 S :   -0.123959
  11 P :    0.602996
  12 S :   -0.302996
  13 O :   -0.339557
  14 C :   -0.012332
  15 C :   -0.291844
  16 O :   -0.384962
  17 C :   -0.011296
  18 C :   -0.283638
  19 H :    0.110516
  20 H :    0.127875
  21 H :    0.117226
  22 H :    0.105296
  23 H :    0.123164
  24 H :    0.106866
  25 H :    0.100912
  26 H :    0.114663
  27 H :    0.133835
  28 H :    0.110590
  29 H :    0.187380
  30 H :    0.182368
  31 H :    0.097848
  32 H :    0.110904
  33 H :    0.122092
  34 H :    0.121951
  35 H :    0.107372
  36 H :    0.105512
  37 H :    0.104636
  38 H :    0.115563
  39 H :    0.123332
  40 H :    0.112532
Sum of atomic charges:   -0.0000000

LOEWDIN ATOMIC CHARGES
----------------------
   0 C :   -0.349481
   1 C :   -0.121376
   2 O :   -0.234391
   3 P :    0.572043
   4 S :   -0.289582
   5 O :   -0.264256
   6 C :   -0.122353
   7 C :   -0.366626
   8 S :    0.081077
   9 C :   -0.478730
  10 S :    0.055191
  11 P :    0.560892
  12 S :   -0.303832
  13 O :   -0.222127
  14 C :   -0.115110
  15 C :   -0.359931
  16 O :   -0.251052
  17 C :   -0.120511
  18 C :   -0.351014
  19 H :    0.130435
  20 H :    0.133454
  21 H :    0.125247
  22 H :    0.105927
  23 H :    0.116026
  24 H :    0.106882
  25 H :    0.116191
  26 H :    0.121132
  27 H :    0.126816
  28 H :    0.129818
  29 H :    0.120456
  30 H :    0.137471
  31 H :    0.101798
  32 H :    0.120886
  33 H :    0.129754
  34 H :    0.125337
  35 H :    0.128519
  36 H :    0.109607
  37 H :    0.108827
  38 H :    0.125342
  39 H :    0.130057
  40 H :    0.131187

  Mayer bond orders larger than 0.100000
B(  0-C ,  1-C ) :   1.1682 B(  0-C , 19-H ) :   0.9403 B(  0-C , 20-H ) :   0.9479
B(  0-C , 21-H ) :   0.9484 B(  1-C ,  2-O ) :   0.8979 B(  1-C , 22-H ) :   0.9159
B(  1-C , 23-H ) :   0.9192 B(  2-O ,  3-P ) :   1.1197 B(  3-P ,  4-S ) :   1.6204
B(  3-P ,  5-O ) :   1.0676 B(  3-P ,  8-S ) :   0.9549 B(  4-S ,  8-S ) :   0.1098
B(  4-S , 29-H ) :   0.1128 B(  5-O ,  6-C ) :   0.9239 B(  6-C ,  7-C ) :   1.1596
B(  6-C , 24-H ) :   0.9111 B(  6-C , 25-H ) :   0.9350 B(  7-C , 26-H ) :   0.9436
B(  7-C , 27-H ) :   0.9365 B(  7-C , 28-H ) :   0.9385 B(  8-S ,  9-C ) :   1.0141
B(  9-C , 10-S ) :   0.9889 B(  9-C , 29-H ) :   0.8548 B(  9-C , 30-H ) :   0.9124
B( 10-S , 11-P ) :   0.9490 B( 10-S , 12-S ) :   0.1160 B( 11-P , 12-S ) :   1.6707
B( 11-P , 13-O ) :   1.1486 B( 11-P , 16-O ) :   1.0715 B( 13-O , 14-C ) :   0.8954
B( 14-C , 15-C ) :   1.1664 B( 14-C , 31-H ) :   0.9087 B( 14-C , 32-H ) :   0.9324
B( 15-C , 33-H ) :   0.9471 B( 15-C , 34-H ) :   0.9411 B( 15-C , 35-H ) :   0.9398
B( 16-O , 17-C ) :   0.9061 B( 17-C , 18-C ) :   1.1596 B( 17-C , 36-H ) :   0.9076
B( 17-C , 37-H ) :   0.9287 B( 18-C , 38-H ) :   0.9509 B( 18-C , 39-H ) :   0.9508
B( 18-C , 40-H ) :   0.9418

Dispersion correction           -0.065315692
FINAL SINGLE POINT ENERGY     -2929.512075129275

DIPOLE MOMENT
-------------

Method             : SCF
Type of density    : Electron Density
Multiplicity       :   1
Irrep              :   0
Energy             : -2929.6309131562957191 Eh
Relativity type    :
Basis              : AO
                                X                 Y                 Z
Electronic contribution:     -0.292790878      -7.728976413       4.968864804
Nuclear contribution   :      0.105013019       7.111120520      -4.795668092
                        -----------------------------------------
Total Dipole Moment    :     -0.187777859      -0.617855893       0.173196711
                        -----------------------------------------
Magnitude (a.u.)       :      0.668583226
Magnitude (Debye)      :      1.699403506

Rotational constants in cm-1:             0.013285             0.004848             0.004448
Rotational constants in MHz :           398.267332           145.334448           133.356965

                             ****ORCA TERMINATED NORMALLY****
TOTAL RUN TIME: 0 days 0 hours 0 minutes 20 seconds 547 msec
