                         Program Version 6.0.1  -  RELEASE   -
|  1> ! pbe def2-sv(p) def2/J RI DEFGRID1 loosescf d4 GCP(DFT/SV(P)) printgap
|  2> %output
|  3>     printlevel normal
|  4> end
|  5> * xyz 0 1
|  6> C 4.9464314026 0.3112282532 -0.8691259505
|  7> C 4.4623978534 -1.0074104249 -1.4492405761
|  8> O 3.0231273377 -1.0729416061 -1.4482209414
|  9> C 2.4156998802 -1.5735796503 -0.3874069522
| 10> O 2.9829768404 -2.0172240017 0.5836042375
| 11> C 0.9069909544 -1.5822760954 -0.5629093889
| 12> C 0.3947912048 -0.2266971181 -1.041677293
| 13> H 0.9217773946 0.0612867248 -1.9569460203
| 14> C 0.5860742922 0.8712859132 -0.0133648407
| 15> O -0.2852124831 1.6739379724 0.255945266
| 16> O 1.7787526444 0.8453468788 0.5181603523
| 17> C 2.0864418718 1.8135918309 1.5441844927
| 18> C 2.540486219 3.1313831919 0.9398259468
| 19> S -1.3645023447 -0.2703909038 -1.509365856
| 20> P -2.333510124 0.0085257121 0.3633578066
| 21> S -1.4387409408 -0.5887572282 2.002739905
| 22> O -2.9589831697 1.4535737815 0.4684670629
| 23> C -3.6680926816 2.0766702057 -0.6200079807
| 24> O -3.6819798054 -0.8199109367 0.0754378811
| 25> C -3.6786801193 -2.2463334714 -0.0222969936
| 26> H 4.5288780509 1.1425688852 -1.4306212897
| 27> H 4.6377126643 0.3924920532 0.170142779
| 28> H 6.0294306138 0.3511610942 -0.921804862
| 29> H 4.8496553547 -1.8501976423 -0.8699268912
| 30> H 4.7401325121 -1.1068759808 -2.4989477711
| 31> H 0.4530065589 -1.8609763481 0.3903451963
| 32> H 0.6590600223 -2.3354936066 -1.31325158
| 33> H 1.1948867209 1.9507433314 2.1631423528
| 34> H 2.8762856435 1.3403220249 2.1281262844
| 35> H 2.8124883068 3.8109601991 1.7405817604
| 36> H 3.4012390781 2.9745977927 0.2958408011
| 37> H 1.7338728674 3.5749027419 0.3606600447
| 38> H -2.9864321329 2.2460463628 -1.4533578061
| 39> H -4.0234244113 3.0219290405 -0.2181424154
| 40> H -4.5001165381 1.4481208783 -0.9327537542
| 41> H -3.2388011429 -2.551441732 -0.9715712268
| 42> H -4.7219364774 -2.5467413295 0.0315016295
| 43> H -3.1163338237 -2.6776103598 0.8077461813
| 44> *
| 45>
| 46>                          ****END OF INPUT****

CARTESIAN COORDINATES (ANGSTROEM)
---------------------------------
  C      4.946431    0.311228   -0.869126
  C      4.462398   -1.007410   -1.449241
  O      3.023127   -1.072942   -1.448221
  C      2.415700   -1.573580   -0.387407
  O      2.982977   -2.017224    0.583604
  C      0.906991   -1.582276   -0.562909
  C      0.394791   -0.226697   -1.041677
  H      0.921777    0.061287   -1.956946
  C      0.586074    0.871286   -0.013365
  O     -0.285212    1.673938    0.255945
  O      1.778753    0.845347    0.518160
  C      2.086442    1.813592    1.544184
  C      2.540486    3.131383    0.939826
  S     -1.364502   -0.270391   -1.509366
  P     -2.333510    0.008526    0.363358
  S     -1.438741   -0.588757    2.002740
  O     -2.958983    1.453574    0.468467
  C     -3.668093    2.076670   -0.620008
  O     -3.681980   -0.819911    0.075438
  C     -3.678680   -2.246333   -0.022297
  H      4.528878    1.142569   -1.430621
  H      4.637713    0.392492    0.170143
  H      6.029431    0.351161   -0.921805
  H      4.849655   -1.850198   -0.869927
  H      4.740133   -1.106876   -2.498948
  H      0.453007   -1.860976    0.390345
  H      0.659060   -2.335494   -1.313252
  H      1.194887    1.950743    2.163142
  H      2.876286    1.340322    2.128126
  H      2.812488    3.810960    1.740582
  H      3.401239    2.974598    0.295841
  H      1.733873    3.574903    0.360660
  H     -2.986432    2.246046   -1.453358
  H     -4.023424    3.021929   -0.218142
  H     -4.500117    1.448121   -0.932754
  H     -3.238801   -2.551442   -0.971571
  H     -4.721936   -2.546741    0.031502
  H     -3.116334   -2.677610    0.807746

 Total Charge           Charge          ....    0
 Multiplicity           Mult            ....    1
 Number of Electrons    NEL             ....  174
 Basis Dimension        Dim             ....  316

ORBITAL ENERGIES
----------------

  NO   OCC          E(Eh)            E(eV)
   0   2.0000     -88.039205     -2395.6686
   1   2.0000     -87.976541     -2393.9634
   2   2.0000     -76.421864     -2079.5446
   3   2.0000     -18.820014      -512.1186
   4   2.0000     -18.802785      -511.6498
   5   2.0000     -18.783844      -511.1344
   6   2.0000     -18.783194      -511.1167
   7   2.0000     -18.747798      -510.1535
   8   2.0000     -18.735850      -509.8284
   9   2.0000     -10.024574      -272.7825
  10   2.0000     -10.008854      -272.3548
  11   2.0000      -9.953728      -270.8547
  12   2.0000      -9.952091      -270.8102
  13   2.0000      -9.950858      -270.7766
  14   2.0000      -9.943260      -270.5699
  15   2.0000      -9.937717      -270.4190
  16   2.0000      -9.905604      -269.5452
  17   2.0000      -9.892259      -269.1820
  18   2.0000      -9.891901      -269.1723
  19   2.0000      -7.684133      -209.0959
  20   2.0000      -7.621631      -207.3951
  21   2.0000      -6.418117      -174.6458
  22   2.0000      -5.712069      -155.4333
  23   2.0000      -5.708586      -155.3385
  24   2.0000      -5.701096      -155.1347
  25   2.0000      -5.650840      -153.7672
  26   2.0000      -5.642241      -153.5332
  27   2.0000      -5.641466      -153.5121
  28   2.0000      -4.640871      -126.2845
  29   2.0000      -4.640166      -126.2653
  30   2.0000      -4.638457      -126.2188
  31   2.0000      -1.028251       -27.9801
  32   2.0000      -1.009614       -27.4730
  33   2.0000      -0.978643       -26.6302
  34   2.0000      -0.934176       -25.4202
  35   2.0000      -0.929093       -25.2819
  36   2.0000      -0.913377       -24.8542
  37   2.0000      -0.767888       -20.8953
  38   2.0000      -0.712421       -19.3860
  39   2.0000      -0.711203       -19.3528
  40   2.0000      -0.689184       -18.7536
  41   2.0000      -0.658307       -17.9134
  42   2.0000      -0.629189       -17.1211
  43   2.0000      -0.625300       -17.0153
  44   2.0000      -0.614939       -16.7333
  45   2.0000      -0.596360       -16.2278
  46   2.0000      -0.571984       -15.5645
  47   2.0000      -0.513754       -13.9800
  48   2.0000      -0.503094       -13.6899
  49   2.0000      -0.501845       -13.6559
  50   2.0000      -0.485573       -13.2131
  51   2.0000      -0.468068       -12.7368
  52   2.0000      -0.463961       -12.6250
  53   2.0000      -0.444104       -12.0847
  54   2.0000      -0.434584       -11.8256
  55   2.0000      -0.431516       -11.7422
  56   2.0000      -0.428567       -11.6619
  57   2.0000      -0.424020       -11.5382
  58   2.0000      -0.410244       -11.1633
  59   2.0000      -0.407415       -11.0863
  60   2.0000      -0.402626       -10.9560
  61   2.0000      -0.394969       -10.7476
  62   2.0000      -0.393691       -10.7129
  63   2.0000      -0.385352       -10.4860
  64   2.0000      -0.383994       -10.4490
  65   2.0000      -0.368302       -10.0220
  66   2.0000      -0.359058        -9.7705
  67   2.0000      -0.356821        -9.7096
  68   2.0000      -0.349535        -9.5113
  69   2.0000      -0.342478        -9.3193
  70   2.0000      -0.335517        -9.1299
  71   2.0000      -0.332225        -9.0403
  72   2.0000      -0.325007        -8.8439
  73   2.0000      -0.315118        -8.5748
  74   2.0000      -0.303024        -8.2457
  75   2.0000      -0.298398        -8.1198
  76   2.0000      -0.293740        -7.9931
  77   2.0000      -0.290184        -7.8963
  78   2.0000      -0.273897        -7.4531
  79   2.0000      -0.265555        -7.2261
  80   2.0000      -0.259088        -7.0501
  81   2.0000      -0.254086        -6.9140
  82   2.0000      -0.240040        -6.5318
  83   2.0000      -0.227262        -6.1841
  84   2.0000      -0.214488        -5.8365
  85   2.0000      -0.194320        -5.2877
  86   2.0000      -0.191361        -5.2072
  87   0.0000      -0.045609        -1.2411
  88   0.0000      -0.031733        -0.8635
  89   0.0000      -0.015804        -0.4301
  90   0.0000       0.005287         0.1439
  91   0.0000       0.026643         0.7250

MULLIKEN ATOMIC CHARGES
-----------------------
   0 C :   -0.315955
   1 C :   -0.012971
   2 O :   -0.248664
   3 C :    0.114488
   4 O :   -0.191984
   5 C :   -0.047760
   6 C :   -0.316747
   7 H :    0.160529
   8 C :    0.201659
   9 O :   -0.189215
  10 O :   -0.221186
  11 C :   -0.009484
  12 C :   -0.316709
  13 S :   -0.096814
  14 P :    0.613715
  15 S :   -0.316445
  16 O :   -0.352360
  17 C :   -0.101452
  18 O :   -0.392648
  19 C :   -0.100033
  20 H :    0.117081
  21 H :    0.132981
  22 H :    0.112915
  23 H :    0.111123
  24 H :    0.102085
  25 H :    0.120675
  26 H :    0.116699
  27 H :    0.125712
  28 H :    0.117821
  29 H :    0.118390
  30 H :    0.116823
  31 H :    0.128977
  32 H :    0.120139
  33 H :    0.130075
  34 H :    0.119826
  35 H :    0.110397
  36 H :    0.122335
  37 H :    0.115983
Sum of atomic charges:    0.0000000

LOEWDIN ATOMIC CHARGES
----------------------
   0 C :   -0.356428
   1 C :   -0.110080
   2 O :   -0.068843
   3 C :    0.025583
   4 O :   -0.159926
   5 C :   -0.251478
   6 C :   -0.268856
   7 H :    0.151683
   8 C :    0.014259
   9 O :   -0.160918
  10 O :   -0.028513
  11 C :   -0.104774
  12 C :   -0.357068
  13 S :    0.097520
  14 P :    0.586452
  15 S :   -0.313006
  16 O :   -0.229925
  17 C :   -0.208043
  18 O :   -0.266121
  19 C :   -0.219698
  20 H :    0.122555
  21 H :    0.129331
  22 H :    0.130662
  23 H :    0.121301
  24 H :    0.117061
  25 H :    0.135961
  26 H :    0.143030
  27 H :    0.128999
  28 H :    0.122963
  29 H :    0.134305
  30 H :    0.123650
  31 H :    0.131490
  32 H :    0.111686
  33 H :    0.126088
  34 H :    0.113177
  35 H :    0.105263
  36 H :    0.121026
  37 H :    0.109632

  Mayer bond orders larger than 0.100000
B(  0-C ,  1-C ) :   1.1758 B(  0-C , 20-H ) :   0.9442 B(  0-C , 21-H ) :   0.9404
B(  0-C , 22-H ) :   0.9413 B(  1-C ,  2-O ) :   0.9201 B(  1-C , 23-H ) :   0.9117
B(  1-C , 24-H ) :   0.9374 B(  2-O ,  3-C ) :   1.1905 B(  3-C ,  4-O ) :   2.0762
B(  3-C ,  5-C ) :   1.0160 B(  5-C ,  6-C ) :   1.0277 B(  5-C , 25-H ) :   0.8819
B(  5-C , 26-H ) :   0.8825 B(  6-C ,  7-H ) :   0.8580 B(  6-C ,  8-C ) :   0.8951
B(  6-C , 13-S ) :   1.0182 B(  8-C ,  9-O ) :   1.9951 B(  8-C , 10-O ) :   1.2644
B( 10-O , 11-C ) :   0.8922 B( 11-C , 12-C ) :   1.1755 B( 11-C , 27-H ) :   0.9134
B( 11-C , 28-H ) :   0.9302 B( 12-C , 29-H ) :   0.9429 B( 12-C , 30-H ) :   0.9451
B( 12-C , 31-H ) :   0.9436 B( 13-S , 14-P ) :   0.9417 B( 13-S , 15-S ) :   0.1119
B( 14-P , 15-S ) :   1.6079 B( 14-P , 16-O ) :   1.1373 B( 14-P , 18-O ) :   1.0543
B( 16-O , 17-C ) :   0.9215 B( 17-C , 32-H ) :   0.9418 B( 17-C , 33-H ) :   0.9597
B( 17-C , 34-H ) :   0.9455 B( 18-O , 19-C ) :   0.9380 B( 19-C , 35-H ) :   0.9463
B( 19-C , 36-H ) :   0.9588 B( 19-C , 37-H ) :   0.9333

Dispersion correction           -0.052914926
FINAL SINGLE POINT ENERGY     -1979.015571169705

DIPOLE MOMENT
-------------

Method             : SCF
Type of density    : Electron Density
Multiplicity       :   1
Irrep              :   0
Energy             : -1979.1460509333387563 Eh
Relativity type    :
Basis              : AO
                                X                 Y                 Z
Electronic contribution:    -16.813724772      -6.310962679       3.016437402
Nuclear contribution   :     17.425453664       6.947323666      -4.534521702
                        -----------------------------------------
Total Dipole Moment    :      0.611728892       0.636360987      -1.518084300
                        -----------------------------------------
Magnitude (a.u.)       :      1.756060217
Magnitude (Debye)      :      4.463550346

Rotational constants in cm-1:             0.016651             0.006336             0.005603
Rotational constants in MHz :           499.172012           189.947455           167.962105

                             ****ORCA TERMINATED NORMALLY****
TOTAL RUN TIME: 0 days 0 hours 0 minutes 44 seconds 872 msec
