                         Program Version 6.0.0  -   RELEASE  -
|  1> ! pbe def2-sv(p) def2/J RI DEFGRID1 loosescf d4 GCP(DFT/SV(P)) printgap
|  2> %output
|  3>     printlevel normal
|  4> end
|  5> * xyz 0 1
|  6> C 3.8591124705 0.2299490166 -3.1390052018
|  7> C 2.636699566 0.144399858 -2.2488249728
|  8> O 3.0948900705 -0.0544614718 -0.899313346
|  9> P 2.2282469887 0.2295171591 0.3997796304
| 10> S 1.3349399914 1.9638554591 0.5273833177
| 11> O 3.3188195424 0.1063430274 1.5303909638
| 12> C 4.148411235 -1.0713798817 1.7177294442
| 13> C 3.7539905316 -1.7838593659 2.9958608226
| 14> S 1.0109884556 -1.5061367761 0.5915670781
| 15> C -0.3086175621 -0.7937151475 1.6322388573
| 16> S -1.9669421151 -1.157774725 1.017373817
| 17> P -2.0622316451 0.2912052853 -0.5430180928
| 18> S -0.7617995248 0.0854161115 -1.9936648338
| 19> O -1.9362695694 1.6978777477 0.1566242063
| 20> C -3.0007429426 2.4298040473 0.8119108496
| 21> C -3.54502601 1.7148407332 2.0306284462
| 22> O -3.5815830942 0.2518504839 -1.0006177472
| 23> C -4.058959831 -0.6565722013 -2.0100711904
| 24> C -3.9626571833 -2.1023066826 -1.5694167099
| 25> H 4.4811761821 1.0682346056 -2.8376261702
| 26> H 4.4372584982 -0.6862127705 -3.0633673556
| 27> H 3.5376383155 0.3706319268 -4.1655287248
| 28> H 1.9924091651 -0.6945367009 -2.5253531602
| 29> H 2.0408985374 1.0618775855 -2.289685937
| 30> H 4.0470725953 -1.7241773304 0.8483598353
| 31> H 5.1683740214 -0.6884615645 1.7721389895
| 32> H 2.7556000263 -2.204195378 2.9043959104
| 33> H 4.4596552597 -2.5863909409 3.1852196783
| 34> H 3.7707987768 -1.0866926105 3.8288383758
| 35> H -0.1593067206 0.2891096803 1.6713629717
| 36> H -0.2517206786 -1.2431982669 2.6197623714
| 37> H -2.5176498809 3.3715565691 1.0786325029
| 38> H -3.7893346827 2.6089795455 0.0788484092
| 39> H -2.7432811454 1.4888257244 2.729373365
| 40> H -4.2680391187 2.3609037186 2.5190058531
| 41> H -4.0355010587 0.7883569359 1.7407143161
| 42> H -5.0936646017 -0.3479663288 -2.165664449
| 43> H -3.4782182753 -0.4931884306 -2.9231653787
| 44> H -4.4433605888 -2.7347182391 -2.3087665176
| 45> H -2.9170483969 -2.3948968619 -1.4824201736
| 46> H -4.4458543733 -2.2397638316 -0.6054255493
| 47> *
| 48>
| 49>                          ****END OF INPUT****

CARTESIAN COORDINATES (ANGSTROEM)
---------------------------------
  C      3.859112    0.229949   -3.139005
  C      2.636700    0.144400   -2.248825
  O      3.094890   -0.054461   -0.899313
  P      2.228247    0.229517    0.399780
  S      1.334940    1.963855    0.527383
  O      3.318820    0.106343    1.530391
  C      4.148411   -1.071380    1.717729
  C      3.753991   -1.783859    2.995861
  S      1.010988   -1.506137    0.591567
  C     -0.308618   -0.793715    1.632239
  S     -1.966942   -1.157775    1.017374
  P     -2.062232    0.291205   -0.543018
  S     -0.761800    0.085416   -1.993665
  O     -1.936270    1.697878    0.156624
  C     -3.000743    2.429804    0.811911
  C     -3.545026    1.714841    2.030628
  O     -3.581583    0.251850   -1.000618
  C     -4.058960   -0.656572   -2.010071
  C     -3.962657   -2.102307   -1.569417
  H      4.481176    1.068235   -2.837626
  H      4.437258   -0.686213   -3.063367
  H      3.537638    0.370632   -4.165529
  H      1.992409   -0.694537   -2.525353
  H      2.040899    1.061878   -2.289686
  H      4.047073   -1.724177    0.848360
  H      5.168374   -0.688462    1.772139
  H      2.755600   -2.204195    2.904396
  H      4.459655   -2.586391    3.185220
  H      3.770799   -1.086693    3.828838
  H     -0.159307    0.289110    1.671363
  H     -0.251721   -1.243198    2.619762
  H     -2.517650    3.371557    1.078633
  H     -3.789335    2.608980    0.078848
  H     -2.743281    1.488826    2.729373
  H     -4.268039    2.360904    2.519006
  H     -4.035501    0.788357    1.740714
  H     -5.093665   -0.347966   -2.165664
  H     -3.478218   -0.493188   -2.923165
  H     -4.443361   -2.734718   -2.308767
  H     -2.917048   -2.394897   -1.482420
  H     -4.445854   -2.239764   -0.605426

 Total Charge           Charge          ....    0
 Multiplicity           Mult            ....    1
 Number of Electrons    NEL             ....  202
 Basis Dimension        Dim             ....  334

ORBITAL ENERGIES
----------------

  NO   OCC          E(Eh)            E(eV)
   0   2.0000     -88.040686     -2395.7089
   1   2.0000     -88.034000     -2395.5269
   2   2.0000     -87.976288     -2393.9565
   3   2.0000     -87.974858     -2393.9176
   4   2.0000     -76.423780     -2079.5968
   5   2.0000     -76.416520     -2079.3992
   6   2.0000     -18.795425      -511.4495
   7   2.0000     -18.786259      -511.2001
   8   2.0000     -18.786127      -511.1965
   9   2.0000     -18.779981      -511.0293
  10   2.0000      -9.955042      -270.8905
  11   2.0000      -9.953949      -270.8607
  12   2.0000      -9.952518      -270.8218
  13   2.0000      -9.951521      -270.7947
  14   2.0000      -9.941982      -270.5351
  15   2.0000      -9.886065      -269.0135
  16   2.0000      -9.886038      -269.0128
  17   2.0000      -9.883514      -268.9441
  18   2.0000      -9.880587      -268.8644
  19   2.0000      -7.685615      -209.1362
  20   2.0000      -7.678910      -208.9538
  21   2.0000      -7.621370      -207.3880
  22   2.0000      -7.620163      -207.3552
  23   2.0000      -6.420965      -174.7233
  24   2.0000      -6.414227      -174.5400
  25   2.0000      -5.713354      -155.4683
  26   2.0000      -5.710229      -155.3832
  27   2.0000      -5.706716      -155.2876
  28   2.0000      -5.703560      -155.2018
  29   2.0000      -5.702624      -155.1763
  30   2.0000      -5.695845      -154.9918
  31   2.0000      -5.650317      -153.7529
  32   2.0000      -5.649226      -153.7232
  33   2.0000      -5.642106      -153.5295
  34   2.0000      -5.641344      -153.5088
  35   2.0000      -5.640982      -153.4989
  36   2.0000      -5.639907      -153.4697
  37   2.0000      -4.644226      -126.3758
  38   2.0000      -4.642605      -126.3317
  39   2.0000      -4.640954      -126.2868
  40   2.0000      -4.636996      -126.1791
  41   2.0000      -4.635957      -126.1508
  42   2.0000      -4.634511      -126.1115
  43   2.0000      -0.987605       -26.8741
  44   2.0000      -0.979862       -26.6634
  45   2.0000      -0.943526       -25.6747
  46   2.0000      -0.935760       -25.4633
  47   2.0000      -0.757581       -20.6148
  48   2.0000      -0.717447       -19.5227
  49   2.0000      -0.708859       -19.2890
  50   2.0000      -0.691455       -18.8155
  51   2.0000      -0.685338       -18.6490
  52   2.0000      -0.673287       -18.3211
  53   2.0000      -0.646277       -17.5861
  54   2.0000      -0.628155       -17.0930
  55   2.0000      -0.594017       -16.1640
  56   2.0000      -0.579378       -15.7657
  57   2.0000      -0.578976       -15.7547
  58   2.0000      -0.567042       -15.4300
  59   2.0000      -0.556921       -15.1546
  60   2.0000      -0.503129       -13.6908
  61   2.0000      -0.494470       -13.4552
  62   2.0000      -0.472987       -12.8706
  63   2.0000      -0.469822       -12.7845
  64   2.0000      -0.454265       -12.3612
  65   2.0000      -0.446352       -12.1459
  66   2.0000      -0.441607       -12.0167
  67   2.0000      -0.428549       -11.6614
  68   2.0000      -0.425658       -11.5827
  69   2.0000      -0.423230       -11.5167
  70   2.0000      -0.411129       -11.1874
  71   2.0000      -0.397912       -10.8277
  72   2.0000      -0.385356       -10.4861
  73   2.0000      -0.379932       -10.3385
  74   2.0000      -0.375517       -10.2183
  75   2.0000      -0.367513       -10.0005
  76   2.0000      -0.360621        -9.8130
  77   2.0000      -0.356575        -9.7029
  78   2.0000      -0.351659        -9.5691
  79   2.0000      -0.349038        -9.4978
  80   2.0000      -0.346240        -9.4217
  81   2.0000      -0.343306        -9.3418
  82   2.0000      -0.339945        -9.2504
  83   2.0000      -0.335368        -9.1258
  84   2.0000      -0.330846        -9.0028
  85   2.0000      -0.319471        -8.6932
  86   2.0000      -0.305156        -8.3037
  87   2.0000      -0.296555        -8.0697
  88   2.0000      -0.293106        -7.9758
  89   2.0000      -0.291669        -7.9367
  90   2.0000      -0.288537        -7.8515
  91   2.0000      -0.270883        -7.3711
  92   2.0000      -0.265467        -7.2237
  93   2.0000      -0.258076        -7.0226
  94   2.0000      -0.252868        -6.8809
  95   2.0000      -0.236966        -6.4482
  96   2.0000      -0.219186        -5.9644
  97   2.0000      -0.198729        -5.4077
  98   2.0000      -0.196083        -5.3357
  99   2.0000      -0.184053        -5.0083
 100   2.0000      -0.180266        -4.9053
 101   0.0000      -0.037238        -1.0133
 102   0.0000      -0.027514        -0.7487
 103   0.0000      -0.011750        -0.3197
 104   0.0000       0.003702         0.1007
 105   0.0000       0.028141         0.7658

MULLIKEN ATOMIC CHARGES
-----------------------
   0 C :   -0.272976
   1 C :   -0.027785
   2 O :   -0.384571
   3 P :    0.598496
   4 S :   -0.295816
   5 O :   -0.359229
   6 C :   -0.009123
   7 C :   -0.286157
   8 S :   -0.101217
   9 C :   -0.353129
  10 S :   -0.107866
  11 P :    0.620685
  12 S :   -0.318016
  13 O :   -0.354433
  14 C :    0.009032
  15 C :   -0.319587
  16 O :   -0.385193
  17 C :    0.002174
  18 C :   -0.328574
  19 H :    0.116886
  20 H :    0.109382
  21 H :    0.112159
  22 H :    0.116879
  23 H :    0.122380
  24 H :    0.103716
  25 H :    0.109820
  26 H :    0.114134
  27 H :    0.107158
  28 H :    0.118033
  29 H :    0.194056
  30 H :    0.179655
  31 H :    0.113901
  32 H :    0.107742
  33 H :    0.122441
  34 H :    0.112354
  35 H :    0.123966
  36 H :    0.104198
  37 H :    0.113891
  38 H :    0.116213
  39 H :    0.135830
  40 H :    0.118488
Sum of atomic charges:    0.0000000

LOEWDIN ATOMIC CHARGES
----------------------
   0 C :   -0.351138
   1 C :   -0.119940
   2 O :   -0.246612
   3 P :    0.563917
   4 S :   -0.295524
   5 O :   -0.243875
   6 C :   -0.113508
   7 C :   -0.360100
   8 S :    0.060554
   9 C :   -0.482933
  10 S :    0.077332
  11 P :    0.575117
  12 S :   -0.308625
  13 O :   -0.230451
  14 C :   -0.106476
  15 C :   -0.369292
  16 O :   -0.246978
  17 C :   -0.117222
  18 C :   -0.373429
  19 H :    0.127384
  20 H :    0.123515
  21 H :    0.131110
  22 H :    0.110073
  23 H :    0.112388
  24 H :    0.107178
  25 H :    0.121022
  26 H :    0.118474
  27 H :    0.128423
  28 H :    0.128090
  29 H :    0.121035
  30 H :    0.133940
  31 H :    0.124390
  32 H :    0.114293
  33 H :    0.126399
  34 H :    0.130670
  35 H :    0.118391
  36 H :    0.118207
  37 H :    0.113462
  38 H :    0.133086
  39 H :    0.124437
  40 H :    0.123219

  Mayer bond orders larger than 0.100000
B(  0-C ,  1-C ) :   1.1522 B(  0-C , 19-H ) :   0.9501 B(  0-C , 20-H ) :   0.9506
B(  0-C , 21-H ) :   0.9426 B(  1-C ,  2-O ) :   0.8977 B(  1-C , 22-H ) :   0.9276
B(  1-C , 23-H ) :   0.9142 B(  2-O ,  3-P ) :   1.1036 B(  3-P ,  4-S ) :   1.6519
B(  3-P ,  5-O ) :   1.1287 B(  3-P ,  8-S ) :   0.9411 B(  4-S ,  8-S ) :   0.1148
B(  4-S , 29-H ) :   0.1125 B(  5-O ,  6-C ) :   0.8930 B(  6-C ,  7-C ) :   1.1629
B(  6-C , 24-H ) :   0.9179 B(  6-C , 25-H ) :   0.9347 B(  7-C , 26-H ) :   0.9386
B(  7-C , 27-H ) :   0.9404 B(  7-C , 28-H ) :   0.9465 B(  8-S ,  9-C ) :   0.9932
B(  9-C , 10-S ) :   1.0045 B(  9-C , 29-H ) :   0.8468 B(  9-C , 30-H ) :   0.9116
B( 10-S , 11-P ) :   0.9420 B( 10-S , 12-S ) :   0.1132 B( 11-P , 12-S ) :   1.6588
B( 11-P , 13-O ) :   1.1312 B( 11-P , 16-O ) :   1.0737 B( 13-O , 14-C ) :   0.8989
B( 14-C , 15-C ) :   1.1702 B( 14-C , 31-H ) :   0.9335 B( 14-C , 32-H ) :   0.9279
B( 15-C , 33-H ) :   0.9449 B( 15-C , 34-H ) :   0.9357 B( 15-C , 35-H ) :   0.9384
B( 16-O , 17-C ) :   0.9026 B( 17-C , 18-C ) :   1.1659 B( 17-C , 36-H ) :   0.9336
B( 17-C , 37-H ) :   0.9157 B( 18-C , 38-H ) :   0.9369 B( 18-C , 39-H ) :   0.9309
B( 18-C , 40-H ) :   0.9434

Dispersion correction           -0.065535931
FINAL SINGLE POINT ENERGY     -2929.510369121925

DIPOLE MOMENT
-------------

Method             : SCF
Type of density    : Electron Density
Multiplicity       :   1
Irrep              :   0
Energy             : -2929.6292713527986962 Eh
Relativity type    :
Basis              : AO
                                X                 Y                 Z
Electronic contribution:      0.815746038       4.986222801      -0.393567961
Nuclear contribution   :     -1.486303996      -5.780349671       0.692656928
                        -----------------------------------------
Total Dipole Moment    :     -0.670557959      -0.794126870       0.299088968
                        -----------------------------------------
Magnitude (a.u.)       :      1.081545039
Magnitude (Debye)      :      2.749069017

Rotational constants in cm-1:             0.011809             0.005096             0.004698
Rotational constants in MHz :           354.022556           152.763620           140.830075

                             ****ORCA TERMINATED NORMALLY****
TOTAL RUN TIME: 0 days 0 hours 0 minutes 20 seconds 670 msec
