                         Program Version 6.0.0  -   RELEASE  -
|  1> ! pbe def2-sv(p) def2/J RI DEFGRID1 loosescf d4 GCP(DFT/SV(P)) printgap
|  2> %output
|  3>     printlevel normal
|  4> end
|  5> * xyz 0 1
|  6> C 5.3212686841 -1.0417559858 -2.1395762961
|  7> C 4.2230947266 -0.0287446548 -1.8896138313
|  8> O 3.3621169875 -0.5596457911 -0.8612441473
|  9> P 1.9712328328 0.1584444602 -0.5051900633
| 10> S 0.9198170582 0.611478588 -2.0915099966
| 11> O 2.3647760762 1.4555397664 0.3154227835
| 12> C 3.2853478348 1.4648876588 1.4343231595
| 13> C 2.5726195911 1.2141184238 2.7478649744
| 14> S 1.2678840902 -1.3458352051 0.7857630792
| 15> C -0.0504475859 -2.0312770945 -0.2680694154
| 16> S -1.6998244081 -1.8965538205 0.4616761166
| 17> P -2.0394710478 0.2056037167 0.3112822771
| 18> S -0.7419126778 1.4449084711 1.0946127117
| 19> O -3.5288500035 0.3140482733 0.8495375513
| 20> C -4.0125715301 -0.2540195432 2.0832444949
| 21> C -3.1420558307 0.087374788 3.2734666199
| 22> O -2.2034590757 0.5263058363 -1.2212523607
| 23> C -3.1292040379 -0.1505087819 -2.105936374
| 24> C -4.3904405666 0.6692703438 -2.2846118067
| 25> H 5.8869477596 -1.2111162163 -1.2279910821
| 26> H 4.8883677745 -1.9832683718 -2.4643229082
| 27> H 5.9840065121 -0.6642713902 -2.9113297408
| 28> H 3.6200230707 0.1441606401 -2.7874016764
| 29> H 4.6273128254 0.9303828708 -1.5507265248
| 30> H 4.0662388752 0.7195662087 1.2590551098
| 31> H 3.7106821393 2.4697092176 1.4031176437
| 32> H 3.2487321064 1.4386144389 3.5665696655
| 33> H 1.6943078441 1.851951066 2.8163856643
| 34> H 2.2513380043 0.177835914 2.8236808264
| 35> H 0.1304339819 -3.0967473393 -0.3827286101
| 36> H -0.0279919081 -1.5132331518 -1.2308122072
| 37> H -5.0125592429 0.1711505016 2.1858827846
| 38> H -4.0791505945 -1.3372249871 1.9508723776
| 39> H -3.0258141526 1.1650503954 3.3625344188
| 40> H -3.598791544 -0.302860711 4.177190536
| 41> H -2.153403668 -0.3545119855 3.1552906031
| 42> H -2.5806521639 -0.2501245634 -3.0451602776
| 43> H -3.3541191062 -1.1402328688 -1.6980112693
| 44> H -4.9079065326 0.7755601835 -1.3348727242
| 45> H -4.1394590018 1.658226134 -2.6584791391
| 46> H -5.0399825071 0.1698083925 -2.9965522711
| 47> *
| 48>
| 49>                          ****END OF INPUT****

CARTESIAN COORDINATES (ANGSTROEM)
---------------------------------
  C      5.321269   -1.041756   -2.139576
  C      4.223095   -0.028745   -1.889614
  O      3.362117   -0.559646   -0.861244
  P      1.971233    0.158444   -0.505190
  S      0.919817    0.611479   -2.091510
  O      2.364776    1.455540    0.315423
  C      3.285348    1.464888    1.434323
  C      2.572620    1.214118    2.747865
  S      1.267884   -1.345835    0.785763
  C     -0.050448   -2.031277   -0.268069
  S     -1.699824   -1.896554    0.461676
  P     -2.039471    0.205604    0.311282
  S     -0.741913    1.444908    1.094613
  O     -3.528850    0.314048    0.849538
  C     -4.012572   -0.254020    2.083244
  C     -3.142056    0.087375    3.273467
  O     -2.203459    0.526306   -1.221252
  C     -3.129204   -0.150509   -2.105936
  C     -4.390441    0.669270   -2.284612
  H      5.886948   -1.211116   -1.227991
  H      4.888368   -1.983268   -2.464323
  H      5.984007   -0.664271   -2.911330
  H      3.620023    0.144161   -2.787402
  H      4.627313    0.930383   -1.550727
  H      4.066239    0.719566    1.259055
  H      3.710682    2.469709    1.403118
  H      3.248732    1.438614    3.566570
  H      1.694308    1.851951    2.816386
  H      2.251338    0.177836    2.823681
  H      0.130434   -3.096747   -0.382729
  H     -0.027992   -1.513233   -1.230812
  H     -5.012559    0.171151    2.185883
  H     -4.079151   -1.337225    1.950872
  H     -3.025814    1.165050    3.362534
  H     -3.598792   -0.302861    4.177191
  H     -2.153404   -0.354512    3.155291
  H     -2.580652   -0.250125   -3.045160
  H     -3.354119   -1.140233   -1.698011
  H     -4.907907    0.775560   -1.334873
  H     -4.139459    1.658226   -2.658479
  H     -5.039983    0.169808   -2.996552

 Total Charge           Charge          ....    0
 Multiplicity           Mult            ....    1
 Number of Electrons    NEL             ....  202
 Basis Dimension        Dim             ....  334

ORBITAL ENERGIES
----------------

  NO   OCC          E(Eh)            E(eV)
   0   2.0000     -88.042120     -2395.7479
   1   2.0000     -88.036241     -2395.5879
   2   2.0000     -87.975866     -2393.9450
   3   2.0000     -87.971729     -2393.8324
   4   2.0000     -76.418980     -2079.4662
   5   2.0000     -76.416783     -2079.4064
   6   2.0000     -18.788538      -511.2621
   7   2.0000     -18.785875      -511.1896
   8   2.0000     -18.780811      -511.0519
   9   2.0000     -18.779018      -511.0031
  10   2.0000      -9.957312      -270.9522
  11   2.0000      -9.955207      -270.8950
  12   2.0000      -9.953688      -270.8536
  13   2.0000      -9.948062      -270.7005
  14   2.0000      -9.944944      -270.6157
  15   2.0000      -9.884188      -268.9624
  16   2.0000      -9.880536      -268.8631
  17   2.0000      -9.880533      -268.8630
  18   2.0000      -9.880126      -268.8519
  19   2.0000      -7.686993      -209.1737
  20   2.0000      -7.681696      -209.0296
  21   2.0000      -7.621173      -207.3827
  22   2.0000      -7.616682      -207.2605
  23   2.0000      -6.416106      -174.5911
  24   2.0000      -6.414695      -174.5527
  25   2.0000      -5.714609      -155.5024
  26   2.0000      -5.711388      -155.4148
  27   2.0000      -5.709677      -155.3682
  28   2.0000      -5.706449      -155.2804
  29   2.0000      -5.704380      -155.2241
  30   2.0000      -5.698195      -155.0558
  31   2.0000      -5.650238      -153.7508
  32   2.0000      -5.645847      -153.6313
  33   2.0000      -5.642048      -153.5279
  34   2.0000      -5.640815      -153.4944
  35   2.0000      -5.637096      -153.3932
  36   2.0000      -5.636799      -153.3851
  37   2.0000      -4.639057      -126.2352
  38   2.0000      -4.638297      -126.2145
  39   2.0000      -4.637669      -126.1974
  40   2.0000      -4.636097      -126.1546
  41   2.0000      -4.635876      -126.1486
  42   2.0000      -4.635109      -126.1277
  43   2.0000      -0.982150       -26.7257
  44   2.0000      -0.976902       -26.5828
  45   2.0000      -0.938837       -25.5471
  46   2.0000      -0.933534       -25.4027
  47   2.0000      -0.759642       -20.6709
  48   2.0000      -0.716672       -19.5016
  49   2.0000      -0.707429       -19.2501
  50   2.0000      -0.688055       -18.7229
  51   2.0000      -0.687093       -18.6968
  52   2.0000      -0.671073       -18.2608
  53   2.0000      -0.645411       -17.5625
  54   2.0000      -0.629665       -17.1341
  55   2.0000      -0.586988       -15.9728
  56   2.0000      -0.582345       -15.8464
  57   2.0000      -0.570702       -15.5296
  58   2.0000      -0.569202       -15.4888
  59   2.0000      -0.556528       -15.1439
  60   2.0000      -0.504260       -13.7216
  61   2.0000      -0.497022       -13.5246
  62   2.0000      -0.472864       -12.8673
  63   2.0000      -0.468914       -12.7598
  64   2.0000      -0.450272       -12.2525
  65   2.0000      -0.442332       -12.0365
  66   2.0000      -0.438528       -11.9330
  67   2.0000      -0.431401       -11.7390
  68   2.0000      -0.428885       -11.6706
  69   2.0000      -0.419968       -11.4279
  70   2.0000      -0.407148       -11.0790
  71   2.0000      -0.394962       -10.7475
  72   2.0000      -0.386235       -10.5100
  73   2.0000      -0.381393       -10.3782
  74   2.0000      -0.376700       -10.2505
  75   2.0000      -0.359117        -9.7721
  76   2.0000      -0.356271        -9.6946
  77   2.0000      -0.352274        -9.5859
  78   2.0000      -0.351370        -9.5613
  79   2.0000      -0.346448        -9.4273
  80   2.0000      -0.343743        -9.3537
  81   2.0000      -0.342470        -9.3191
  82   2.0000      -0.340165        -9.2564
  83   2.0000      -0.335212        -9.1216
  84   2.0000      -0.330044        -8.9810
  85   2.0000      -0.317769        -8.6469
  86   2.0000      -0.311340        -8.4720
  87   2.0000      -0.299843        -8.1592
  88   2.0000      -0.292859        -7.9691
  89   2.0000      -0.281976        -7.6729
  90   2.0000      -0.272444        -7.4136
  91   2.0000      -0.269613        -7.3365
  92   2.0000      -0.268308        -7.3010
  93   2.0000      -0.261728        -7.1220
  94   2.0000      -0.254771        -6.9327
  95   2.0000      -0.237277        -6.4566
  96   2.0000      -0.215390        -5.8610
  97   2.0000      -0.199805        -5.4370
  98   2.0000      -0.196295        -5.3414
  99   2.0000      -0.180821        -4.9204
 100   2.0000      -0.175939        -4.7875
 101   0.0000      -0.038276        -1.0416
 102   0.0000      -0.028874        -0.7857
 103   0.0000      -0.011054        -0.3008
 104   0.0000       0.002502         0.0681
 105   0.0000       0.027050         0.7361

MULLIKEN ATOMIC CHARGES
-----------------------
   0 C :   -0.272587
   1 C :   -0.018075
   2 O :   -0.390752
   3 P :    0.629589
   4 S :   -0.300659
   5 O :   -0.361812
   6 C :   -0.032650
   7 C :   -0.303313
   8 S :   -0.089665
   9 C :   -0.330650
  10 S :   -0.131116
  11 P :    0.595571
  12 S :   -0.294496
  13 O :   -0.380514
  14 C :   -0.012331
  15 C :   -0.311220
  16 O :   -0.338441
  17 C :   -0.011373
  18 C :   -0.286770
  19 H :    0.110996
  20 H :    0.117406
  21 H :    0.109241
  22 H :    0.106105
  23 H :    0.095695
  24 H :    0.103952
  25 H :    0.110398
  26 H :    0.107048
  27 H :    0.140161
  28 H :    0.131197
  29 H :    0.182167
  30 H :    0.188501
  31 H :    0.109361
  32 H :    0.113377
  33 H :    0.128590
  34 H :    0.109192
  35 H :    0.128434
  36 H :    0.109733
  37 H :    0.092928
  38 H :    0.118359
  39 H :    0.122377
  40 H :    0.106044
Sum of atomic charges:    0.0000000

LOEWDIN ATOMIC CHARGES
----------------------
   0 C :   -0.350443
   1 C :   -0.123709
   2 O :   -0.267328
   3 P :    0.571237
   4 S :   -0.292814
   5 O :   -0.234616
   6 C :   -0.115468
   7 C :   -0.364323
   8 S :    0.087166
   9 C :   -0.478148
  10 S :    0.057429
  11 P :    0.562218
  12 S :   -0.293410
  13 O :   -0.247426
  14 C :   -0.114745
  15 C :   -0.371927
  16 O :   -0.223874
  17 C :   -0.117055
  18 C :   -0.358650
  19 H :    0.123971
  20 H :    0.128095
  21 H :    0.129245
  22 H :    0.107253
  23 H :    0.105797
  24 H :    0.107369
  25 H :    0.121642
  26 H :    0.128430
  27 H :    0.132262
  28 H :    0.119072
  29 H :    0.137848
  30 H :    0.121771
  31 H :    0.121168
  32 H :    0.107841
  33 H :    0.130563
  34 H :    0.129036
  35 H :    0.121890
  36 H :    0.120353
  37 H :    0.099584
  38 H :    0.125191
  39 H :    0.129914
  40 H :    0.127591

  Mayer bond orders larger than 0.100000
B(  0-C ,  1-C ) :   1.1576 B(  0-C , 19-H ) :   0.9522 B(  0-C , 20-H ) :   0.9504
B(  0-C , 21-H ) :   0.9426 B(  1-C ,  2-O ) :   0.9107 B(  1-C , 22-H ) :   0.9122
B(  1-C , 23-H ) :   0.9275 B(  2-O ,  3-P ) :   1.0596 B(  3-P ,  4-S ) :   1.6311
B(  3-P ,  5-O ) :   1.1191 B(  3-P ,  8-S ) :   0.9548 B(  4-S ,  8-S ) :   0.1127
B(  4-S , 30-H ) :   0.1225 B(  5-O ,  6-C ) :   0.9091 B(  6-C ,  7-C ) :   1.1719
B(  6-C , 24-H ) :   0.9174 B(  6-C , 25-H ) :   0.9340 B(  7-C , 26-H ) :   0.9372
B(  7-C , 27-H ) :   0.9383 B(  7-C , 28-H ) :   0.9353 B(  8-S ,  9-C ) :   1.0077
B(  9-C , 10-S ) :   0.9933 B(  9-C , 29-H ) :   0.9116 B(  9-C , 30-H ) :   0.8488
B( 10-S , 11-P ) :   0.9350 B( 10-S , 12-S ) :   0.1173 B( 11-P , 12-S ) :   1.6674
B( 11-P , 13-O ) :   1.0745 B( 11-P , 16-O ) :   1.1393 B( 13-O , 14-C ) :   0.9139
B( 14-C , 15-C ) :   1.1686 B( 14-C , 31-H ) :   0.9333 B( 14-C , 32-H ) :   0.9270
B( 15-C , 33-H ) :   0.9409 B( 15-C , 34-H ) :   0.9335 B( 15-C , 35-H ) :   0.9310
B( 16-O , 17-C ) :   0.8991 B( 17-C , 18-C ) :   1.1659 B( 17-C , 36-H ) :   0.9324
B( 17-C , 37-H ) :   0.9097 B( 18-C , 38-H ) :   0.9432 B( 18-C , 39-H ) :   0.9473
B( 18-C , 40-H ) :   0.9403

Dispersion correction           -0.066482596
FINAL SINGLE POINT ENERGY     -2929.504667189660

DIPOLE MOMENT
-------------

Method             : SCF
Type of density    : Electron Density
Multiplicity       :   1
Irrep              :   0
Energy             : -2929.6226888448454702 Eh
Relativity type    :
Basis              : AO
                                X                 Y                 Z
Electronic contribution:     -2.077825468      -0.479897473      -2.088125990
Nuclear contribution   :      2.121490295      -0.435582432       2.415466129
                        -----------------------------------------
Total Dipole Moment    :      0.043664828      -0.915479905       0.327340139
                        -----------------------------------------
Magnitude (a.u.)       :      0.973222297
Magnitude (Debye)      :      2.473734489

Rotational constants in cm-1:             0.012832             0.005208             0.004597
Rotational constants in MHz :           384.686385           156.130414           137.814556

                             ****ORCA TERMINATED NORMALLY****
TOTAL RUN TIME: 0 days 0 hours 0 minutes 21 seconds 183 msec
