                         Program Version 6.0.0  -   RELEASE  -
|  1> ! pbe def2-sv(p) def2/J RI DEFGRID1 loosescf d4 GCP(DFT/SV(P)) printgap
|  2> %output
|  3>     printlevel normal
|  4> end
|  5> * xyz 0 1
|  6> C 4.6045051259 0.0870708706 -1.8931107791
|  7> C 4.5677514669 0.962835996 -0.6576007108
|  8> O 3.7080491694 0.4334139994 0.3666198411
|  9> P 2.1310100149 0.3187715646 0.2005880987
| 10> S 1.2512118946 1.8157783953 -0.7069236885
| 11> O 1.6534385445 0.2024984664 1.6979870232
| 12> C 2.3001645422 -0.5542223715 2.7541367201
| 13> C 1.8678991036 -2.0070430375 2.7542589859
| 14> S 1.8701580666 -1.593781891 -0.7123399758
| 15> C 0.1429725083 -1.4099481252 -1.1829184158
| 16> S -0.9318015062 -1.1428953314 0.2644119142
| 17> P -2.4390510651 0.0751268411 -0.623501781
| 18> S -1.9814243483 0.8011715291 -2.3841633745
| 19> O -2.8654856378 1.1306096376 0.4864509784
| 20> C -2.0893109313 2.2915842539 0.8315201218
| 21> C -1.3351947586 2.0653697904 2.1268418131
| 22> O -3.7337948972 -0.8196620462 -0.7148781293
| 23> C -4.6271320511 -1.136588441 0.3817683838
| 24> C -3.9372450939 -1.891279018 1.4979746033
| 25> H 3.6430827171 0.1193570072 -2.4036278862
| 26> H 5.3705736098 0.4541845036 -2.5686204079
| 27> H 4.8233930304 -0.9426497803 -1.6219769439
| 28> H 4.2232674633 1.9704351934 -0.9101825466
| 29> H 5.5438296814 1.0152604323 -0.1728828133
| 30> H 3.380941224 -0.4566966293 2.6441123742
| 31> H 1.9710110373 -0.044091682 3.6609603478
| 32> H 2.2923920414 -2.5392717779 1.9073186494
| 33> H 2.2099982053 -2.4739700855 3.6724884618
| 34> H 0.7838222876 -2.0732543944 2.6999608792
| 35> H -0.1399363649 -2.3369921272 -1.6756643775
| 36> H 0.024845147 -0.5548183264 -1.8551611996
| 37> H -1.4063878263 2.5320093126 0.0102012744
| 38> H -2.8204599921 3.0958890393 0.9348506258
| 39> H -2.0234796149 1.7686356621 2.9130703942
| 40> H -0.5816049403 1.2913190585 1.9991032117
| 41> H -0.8383808724 2.9882674488 2.408723978
| 42> H -5.0587393599 -0.2033044518 0.7478236365
| 43> H -5.3989795793 -1.7410529865 -0.0971079156
| 44> H -3.1705456257 -1.268715835 1.9561516877
| 45> H -4.6728146261 -2.1580695568 2.2504562421
| 46> H -3.4701698317 -2.7951785273 1.1159243793
| 47> *
| 48>
| 49>                          ****END OF INPUT****

CARTESIAN COORDINATES (ANGSTROEM)
---------------------------------
  C      4.604505    0.087071   -1.893111
  C      4.567751    0.962836   -0.657601
  O      3.708049    0.433414    0.366620
  P      2.131010    0.318772    0.200588
  S      1.251212    1.815778   -0.706924
  O      1.653439    0.202498    1.697987
  C      2.300165   -0.554222    2.754137
  C      1.867899   -2.007043    2.754259
  S      1.870158   -1.593782   -0.712340
  C      0.142973   -1.409948   -1.182918
  S     -0.931802   -1.142895    0.264412
  P     -2.439051    0.075127   -0.623502
  S     -1.981424    0.801172   -2.384163
  O     -2.865486    1.130610    0.486451
  C     -2.089311    2.291584    0.831520
  C     -1.335195    2.065370    2.126842
  O     -3.733795   -0.819662   -0.714878
  C     -4.627132   -1.136588    0.381768
  C     -3.937245   -1.891279    1.497975
  H      3.643083    0.119357   -2.403628
  H      5.370574    0.454185   -2.568620
  H      4.823393   -0.942650   -1.621977
  H      4.223267    1.970435   -0.910183
  H      5.543830    1.015260   -0.172883
  H      3.380941   -0.456697    2.644112
  H      1.971011   -0.044092    3.660960
  H      2.292392   -2.539272    1.907319
  H      2.209998   -2.473970    3.672488
  H      0.783822   -2.073254    2.699961
  H     -0.139936   -2.336992   -1.675664
  H      0.024845   -0.554818   -1.855161
  H     -1.406388    2.532009    0.010201
  H     -2.820460    3.095889    0.934851
  H     -2.023480    1.768636    2.913070
  H     -0.581605    1.291319    1.999103
  H     -0.838381    2.988267    2.408724
  H     -5.058739   -0.203304    0.747824
  H     -5.398980   -1.741053   -0.097108
  H     -3.170546   -1.268716    1.956152
  H     -4.672815   -2.158070    2.250456
  H     -3.470170   -2.795179    1.115924

 Total Charge           Charge          ....    0
 Multiplicity           Mult            ....    1
 Number of Electrons    NEL             ....  202
 Basis Dimension        Dim             ....  334

ORBITAL ENERGIES
----------------

  NO   OCC          E(Eh)            E(eV)
   0   2.0000     -88.045915     -2395.8511
   1   2.0000     -88.037381     -2395.6189
   2   2.0000     -87.983806     -2394.1611
   3   2.0000     -87.975508     -2393.9353
   4   2.0000     -76.428759     -2079.7323
   5   2.0000     -76.419902     -2079.4913
   6   2.0000     -18.797653      -511.5101
   7   2.0000     -18.792870      -511.3800
   8   2.0000     -18.788481      -511.2606
   9   2.0000     -18.783734      -511.1314
  10   2.0000      -9.958812      -270.9931
  11   2.0000      -9.956700      -270.9356
  12   2.0000      -9.953831      -270.8575
  13   2.0000      -9.948970      -270.7252
  14   2.0000      -9.941536      -270.5230
  15   2.0000      -9.888453      -269.0785
  16   2.0000      -9.886898      -269.0362
  17   2.0000      -9.886121      -269.0150
  18   2.0000      -9.872058      -268.6324
  19   2.0000      -7.690645      -209.2731
  20   2.0000      -7.681626      -209.0277
  21   2.0000      -7.628662      -207.5864
  22   2.0000      -7.620798      -207.3725
  23   2.0000      -6.425786      -174.8545
  24   2.0000      -6.417273      -174.6229
  25   2.0000      -5.718523      -155.6089
  26   2.0000      -5.715123      -155.5164
  27   2.0000      -5.709504      -155.3635
  28   2.0000      -5.707700      -155.3144
  29   2.0000      -5.706200      -155.2736
  30   2.0000      -5.698662      -155.0685
  31   2.0000      -5.657701      -153.9539
  32   2.0000      -5.649844      -153.7401
  33   2.0000      -5.649180      -153.7220
  34   2.0000      -5.648806      -153.7118
  35   2.0000      -5.641288      -153.5073
  36   2.0000      -5.640896      -153.4966
  37   2.0000      -4.648810      -126.5006
  38   2.0000      -4.647425      -126.4629
  39   2.0000      -4.646017      -126.4245
  40   2.0000      -4.640266      -126.2680
  41   2.0000      -4.638834      -126.2291
  42   2.0000      -4.637571      -126.1947
  43   2.0000      -0.991166       -26.9710
  44   2.0000      -0.982179       -26.7264
  45   2.0000      -0.947316       -25.7778
  46   2.0000      -0.937292       -25.5050
  47   2.0000      -0.760685       -20.6993
  48   2.0000      -0.720099       -19.5949
  49   2.0000      -0.710282       -19.3278
  50   2.0000      -0.692464       -18.8429
  51   2.0000      -0.685182       -18.6448
  52   2.0000      -0.675086       -18.3700
  53   2.0000      -0.649283       -17.6679
  54   2.0000      -0.628642       -17.1062
  55   2.0000      -0.597603       -16.2616
  56   2.0000      -0.588237       -16.0067
  57   2.0000      -0.581549       -15.8248
  58   2.0000      -0.570875       -15.5343
  59   2.0000      -0.555499       -15.1159
  60   2.0000      -0.501681       -13.6514
  61   2.0000      -0.492679       -13.4065
  62   2.0000      -0.474273       -12.9056
  63   2.0000      -0.469064       -12.7639
  64   2.0000      -0.449945       -12.2436
  65   2.0000      -0.447568       -12.1790
  66   2.0000      -0.444229       -12.0881
  67   2.0000      -0.437560       -11.9066
  68   2.0000      -0.431146       -11.7321
  69   2.0000      -0.419577       -11.4173
  70   2.0000      -0.412687       -11.2298
  71   2.0000      -0.399587       -10.8733
  72   2.0000      -0.390670       -10.6307
  73   2.0000      -0.381619       -10.3844
  74   2.0000      -0.375734       -10.2242
  75   2.0000      -0.370621       -10.0851
  76   2.0000      -0.361924        -9.8485
  77   2.0000      -0.358554        -9.7568
  78   2.0000      -0.355881        -9.6840
  79   2.0000      -0.352834        -9.6011
  80   2.0000      -0.349240        -9.5033
  81   2.0000      -0.343888        -9.3577
  82   2.0000      -0.340401        -9.2628
  83   2.0000      -0.335961        -9.1420
  84   2.0000      -0.325563        -8.8590
  85   2.0000      -0.318990        -8.6801
  86   2.0000      -0.312202        -8.4955
  87   2.0000      -0.300898        -8.1879
  88   2.0000      -0.295085        -8.0297
  89   2.0000      -0.291524        -7.9328
  90   2.0000      -0.283475        -7.7137
  91   2.0000      -0.274363        -7.4658
  92   2.0000      -0.269673        -7.3382
  93   2.0000      -0.264119        -7.1870
  94   2.0000      -0.252678        -6.8757
  95   2.0000      -0.231645        -6.3034
  96   2.0000      -0.219820        -5.9816
  97   2.0000      -0.204201        -5.5566
  98   2.0000      -0.200397        -5.4531
  99   2.0000      -0.192662        -5.2426
 100   2.0000      -0.184446        -5.0190
 101   0.0000      -0.044272        -1.2047
 102   0.0000      -0.031368        -0.8536
 103   0.0000      -0.009703        -0.2640
 104   0.0000       0.008981         0.2444
 105   0.0000       0.015627         0.4252

MULLIKEN ATOMIC CHARGES
-----------------------
   0 C :   -0.322569
   1 C :    0.001383
   2 O :   -0.385909
   3 P :    0.619703
   4 S :   -0.303161
   5 O :   -0.353231
   6 C :   -0.007125
   7 C :   -0.312881
   8 S :   -0.115204
   9 C :   -0.338373
  10 S :   -0.142097
  11 P :    0.621466
  12 S :   -0.299999
  13 O :   -0.387296
  14 C :   -0.010956
  15 C :   -0.319906
  16 O :   -0.364825
  17 C :    0.008830
  18 C :   -0.326658
  19 H :    0.135251
  20 H :    0.115849
  21 H :    0.117093
  22 H :    0.114308
  23 H :    0.104533
  24 H :    0.112449
  25 H :    0.109723
  26 H :    0.126211
  27 H :    0.109764
  28 H :    0.126875
  29 H :    0.180066
  30 H :    0.215518
  31 H :    0.126646
  32 H :    0.100402
  33 H :    0.100569
  34 H :    0.150892
  35 H :    0.107437
  36 H :    0.110292
  37 H :    0.109167
  38 H :    0.126918
  39 H :    0.113766
  40 H :    0.125080
Sum of atomic charges:   -0.0000000

LOEWDIN ATOMIC CHARGES
----------------------
   0 C :   -0.371484
   1 C :   -0.115540
   2 O :   -0.248603
   3 P :    0.568844
   4 S :   -0.295123
   5 O :   -0.231621
   6 C :   -0.108706
   7 C :   -0.370432
   8 S :    0.083757
   9 C :   -0.482739
  10 S :    0.063891
  11 P :    0.567756
  12 S :   -0.292920
  13 O :   -0.245668
  14 C :   -0.117051
  15 C :   -0.368873
  16 O :   -0.243308
  17 C :   -0.107922
  18 C :   -0.370325
  19 H :    0.124310
  20 H :    0.132618
  21 H :    0.122885
  22 H :    0.114119
  23 H :    0.118368
  24 H :    0.113768
  25 H :    0.121416
  26 H :    0.117638
  27 H :    0.129349
  28 H :    0.125800
  29 H :    0.134553
  30 H :    0.123544
  31 H :    0.109201
  32 H :    0.115848
  33 H :    0.117689
  34 H :    0.122986
  35 H :    0.130277
  36 H :    0.114937
  37 H :    0.122031
  38 H :    0.116617
  39 H :    0.131279
  40 H :    0.126830

  Mayer bond orders larger than 0.100000
B(  0-C ,  1-C ) :   1.1667 B(  0-C , 19-H ) :   0.9345 B(  0-C , 20-H ) :   0.9368
B(  0-C , 21-H ) :   0.9435 B(  1-C ,  2-O ) :   0.9039 B(  1-C , 22-H ) :   0.9183
B(  1-C , 23-H ) :   0.9343 B(  2-O ,  3-P ) :   1.0840 B(  3-P ,  4-S ) :   1.6478
B(  3-P ,  5-O ) :   1.1184 B(  3-P ,  8-S ) :   0.9341 B(  4-S ,  8-S ) :   0.1091
B(  5-O ,  6-C ) :   0.8952 B(  6-C ,  7-C ) :   1.1687 B(  6-C , 24-H ) :   0.9219
B(  6-C , 25-H ) :   0.9355 B(  7-C , 26-H ) :   0.9350 B(  7-C , 27-H ) :   0.9368
B(  7-C , 28-H ) :   0.9422 B(  8-S ,  9-C ) :   1.0071 B(  9-C , 10-S ) :   0.9918
B(  9-C , 29-H ) :   0.9095 B(  9-C , 30-H ) :   0.8391 B( 10-S , 11-P ) :   0.9353
B( 10-S , 12-S ) :   0.1201 B( 11-P , 12-S ) :   1.6649 B( 11-P , 13-O ) :   1.0864
B( 11-P , 16-O ) :   1.1290 B( 12-S , 30-H ) :   0.1018 B( 13-O , 14-C ) :   0.8956
B( 14-C , 15-C ) :   1.1725 B( 14-C , 31-H ) :   0.9006 B( 14-C , 32-H ) :   0.9346
B( 15-C , 33-H ) :   0.9454 B( 15-C , 34-H ) :   0.9231 B( 15-C , 35-H ) :   0.9400
B( 16-O , 17-C ) :   0.9053 B( 17-C , 18-C ) :   1.1697 B( 17-C , 36-H ) :   0.9277
B( 17-C , 37-H ) :   0.9346 B( 18-C , 38-H ) :   0.9355 B( 18-C , 39-H ) :   0.9357
B( 18-C , 40-H ) :   0.9422

Dispersion correction           -0.066969156
FINAL SINGLE POINT ENERGY     -2929.515059437767

DIPOLE MOMENT
-------------

Method             : SCF
Type of density    : Electron Density
Multiplicity       :   1
Irrep              :   0
Energy             : -2929.6339963160739899 Eh
Relativity type    :
Basis              : AO
                                X                 Y                 Z
Electronic contribution:     -3.918378160       3.579550650     -15.349712301
Nuclear contribution   :      4.646831234      -4.418049682      17.034275836
                        -----------------------------------------
Total Dipole Moment    :      0.728453074      -0.838499032       1.684563535
                        -----------------------------------------
Magnitude (a.u.)       :      2.017790576
Magnitude (Debye)      :      5.128816051

Rotational constants in cm-1:             0.012510             0.005254             0.004913
Rotational constants in MHz :           375.042820           157.514463           147.289560

                             ****ORCA TERMINATED NORMALLY****
TOTAL RUN TIME: 0 days 0 hours 0 minutes 21 seconds 567 msec
