                         Program Version 6.0.0  -   RELEASE  -
|  1> ! r2scan-3c def2/J RI DEFGRID2 scfconv6 printgap
|  2> %output
|  3>     printlevel normal
|  4> end
|  5> * xyz 0 1
|  6> C 5.1242329672 -1.2178543941 -2.3796020968
|  7> C 4.5807168403 -1.0044586187 -0.9823260917
|  8> O 3.2796725571 -0.3814776796 -1.101005084
|  9> P 2.6433805672 0.3876181724 0.1327065117
| 10> S 3.7954362786 1.6994984369 1.0202969933
| 11> O 2.2080388864 -0.8358584036 1.0647447479
| 12> C 2.0133125774 -0.6867082045 2.4798401481
| 13> C 0.8081474178 0.1721256671 2.8026322181
| 14> S 0.9098360967 1.1128387652 -0.8180345009
| 15> C 0.2786554999 -0.4529387342 -1.5063363438
| 16> S -0.6693558402 -1.4367680294 -0.322125667
| 17> P -2.3435564558 -0.1543545428 -0.240385506
| 18> S -2.890935839 0.6576124987 -1.9447767542
| 19> O -1.9225011976 0.8414827246 0.913222738
| 20> C -2.4879345548 2.1622973049 1.0282807267
| 21> C -3.9388407405 2.1056040307 1.4564057422
| 22> O -3.4478978159 -1.0382189514 0.479327796
| 23> C -4.1728375264 -2.0636667022 -0.2303890053
| 24> C -5.3875831686 -2.4310071653 0.5975889773
| 25> H 4.4579851044 -1.8611123528 -2.9470489011
| 26> H 5.2157071784 -0.2650057326 -2.8934622813
| 27> H 6.1019789189 -1.6836850208 -2.3123036402
| 28> H 5.2285276166 -0.3439813362 -0.3959377544
| 29> H 4.4549695088 -1.9496498634 -0.4489141907
| 30> H 1.8898898566 -1.7092994897 2.83814625
| 31> H 2.9190673979 -0.2428093819 2.9055701373
| 32> H -0.0943846506 -0.2482263471 2.3657278067
| 33> H 0.6886542258 0.2363730833 3.8793010394
| 34> H 0.9572344632 1.1760141297 2.402935454
| 35> H 1.1109538247 -1.0602577578 -1.847212519
| 36> H -0.3735755878 -0.1681116855 -2.3328225491
| 37> H -1.8602680203 2.6541043646 1.7723840926
| 38> H -2.3834364933 2.6706255321 0.0642611416
| 39> H -4.3084804334 3.1135101049 1.6165799442
| 40> H -4.5329205134 1.629601806 0.6769767712
| 41> H -4.0367193804 1.5315278198 2.3738477727
| 42> H -4.4574473832 -1.6726905682 -1.2130323856
| 43> H -3.5076289822 -2.9207550469 -0.3657876168
| 44> H -6.038173277 -1.5689208486 0.7136970006
| 45> H -5.9321833777 -3.2253074571 0.0978432461
| 46> H -5.0752217607 -2.7710619958 1.5805456707
| 47> *
| 48>
| 49>                          ****END OF INPUT****

CARTESIAN COORDINATES (ANGSTROEM)
---------------------------------
  C      5.124233   -1.217854   -2.379602
  C      4.580717   -1.004459   -0.982326
  O      3.279673   -0.381478   -1.101005
  P      2.643381    0.387618    0.132707
  S      3.795436    1.699498    1.020297
  O      2.208039   -0.835858    1.064745
  C      2.013313   -0.686708    2.479840
  C      0.808147    0.172126    2.802632
  S      0.909836    1.112839   -0.818035
  C      0.278655   -0.452939   -1.506336
  S     -0.669356   -1.436768   -0.322126
  P     -2.343556   -0.154355   -0.240386
  S     -2.890936    0.657612   -1.944777
  O     -1.922501    0.841483    0.913223
  C     -2.487935    2.162297    1.028281
  C     -3.938841    2.105604    1.456406
  O     -3.447898   -1.038219    0.479328
  C     -4.172838   -2.063667   -0.230389
  C     -5.387583   -2.431007    0.597589
  H      4.457985   -1.861112   -2.947049
  H      5.215707   -0.265006   -2.893462
  H      6.101979   -1.683685   -2.312304
  H      5.228528   -0.343981   -0.395938
  H      4.454970   -1.949650   -0.448914
  H      1.889890   -1.709299    2.838146
  H      2.919067   -0.242809    2.905570
  H     -0.094385   -0.248226    2.365728
  H      0.688654    0.236373    3.879301
  H      0.957234    1.176014    2.402935
  H      1.110954   -1.060258   -1.847213
  H     -0.373576   -0.168112   -2.332823
  H     -1.860268    2.654104    1.772384
  H     -2.383436    2.670626    0.064261
  H     -4.308480    3.113510    1.616580
  H     -4.532921    1.629602    0.676977
  H     -4.036719    1.531528    2.373848
  H     -4.457447   -1.672691   -1.213032
  H     -3.507629   -2.920755   -0.365788
  H     -6.038173   -1.568921    0.713697
  H     -5.932183   -3.225307    0.097843
  H     -5.075222   -2.771062    1.580546

 Total Charge           Charge          ....    0
 Multiplicity           Mult            ....    1
 Number of Electrons    NEL             ....  202
 Basis Dimension        Dim             ....  539

ORBITAL ENERGIES
----------------

  NO   OCC          E(Eh)            E(eV)
   0   2.0000     -88.578802     -2410.3518
   1   2.0000     -88.575226     -2410.2544
   2   2.0000     -88.525581     -2408.9035
   3   2.0000     -88.518655     -2408.7151
   4   2.0000     -76.917883     -2093.0420
   5   2.0000     -76.912412     -2092.8931
   6   2.0000     -18.998480      -516.9749
   7   2.0000     -18.994159      -516.8574
   8   2.0000     -18.989930      -516.7423
   9   2.0000     -18.988243      -516.6964
  10   2.0000     -10.107894      -275.0498
  11   2.0000     -10.103974      -274.9431
  12   2.0000     -10.098934      -274.8060
  13   2.0000     -10.098561      -274.7958
  14   2.0000     -10.092653      -274.6350
  15   2.0000     -10.037880      -273.1446
  16   2.0000     -10.033530      -273.0262
  17   2.0000     -10.030464      -272.9428
  18   2.0000     -10.019329      -272.6398
  19   2.0000      -7.873282      -214.2429
  20   2.0000      -7.869230      -214.1326
  21   2.0000      -7.820253      -212.7999
  22   2.0000      -7.813291      -212.6104
  23   2.0000      -6.596605      -179.5027
  24   2.0000      -6.590779      -179.3442
  25   2.0000      -5.820073      -158.3723
  26   2.0000      -5.817129      -158.2921
  27   2.0000      -5.816569      -158.2769
  28   2.0000      -5.812856      -158.1759
  29   2.0000      -5.810456      -158.1105
  30   2.0000      -5.806166      -157.9938
  31   2.0000      -5.767787      -156.9495
  32   2.0000      -5.760930      -156.7629
  33   2.0000      -5.760586      -156.7535
  34   2.0000      -5.760332      -156.7466
  35   2.0000      -5.753724      -156.5668
  36   2.0000      -5.753162      -156.5515
  37   2.0000      -4.741976      -129.0357
  38   2.0000      -4.741529      -129.0236
  39   2.0000      -4.740417      -128.9933
  40   2.0000      -4.736231      -128.8794
  41   2.0000      -4.735827      -128.8684
  42   2.0000      -4.734456      -128.8311
  43   2.0000      -1.055285       -28.7158
  44   2.0000      -1.047904       -28.5149
  45   2.0000      -1.016506       -27.6605
  46   2.0000      -1.007710       -27.4212
  47   2.0000      -0.803463       -21.8633
  48   2.0000      -0.762811       -20.7571
  49   2.0000      -0.751036       -20.4367
  50   2.0000      -0.735990       -20.0273
  51   2.0000      -0.727337       -19.7918
  52   2.0000      -0.711869       -19.3709
  53   2.0000      -0.688506       -18.7352
  54   2.0000      -0.669553       -18.2195
  55   2.0000      -0.633890       -17.2490
  56   2.0000      -0.621164       -16.9027
  57   2.0000      -0.604067       -16.4375
  58   2.0000      -0.603453       -16.4208
  59   2.0000      -0.593383       -16.1468
  60   2.0000      -0.532762       -14.4972
  61   2.0000      -0.528009       -14.3679
  62   2.0000      -0.500902       -13.6302
  63   2.0000      -0.489176       -13.3112
  64   2.0000      -0.478242       -13.0136
  65   2.0000      -0.464285       -12.6338
  66   2.0000      -0.460445       -12.5293
  67   2.0000      -0.455415       -12.3925
  68   2.0000      -0.446699       -12.1553
  69   2.0000      -0.435484       -11.8501
  70   2.0000      -0.426097       -11.5947
  71   2.0000      -0.417369       -11.3572
  72   2.0000      -0.409676       -11.1479
  73   2.0000      -0.407072       -11.0770
  74   2.0000      -0.399377       -10.8676
  75   2.0000      -0.391408       -10.6508
  76   2.0000      -0.379462       -10.3257
  77   2.0000      -0.376861       -10.2549
  78   2.0000      -0.370786       -10.0896
  79   2.0000      -0.366384        -9.9698
  80   2.0000      -0.365006        -9.9323
  81   2.0000      -0.361818        -9.8456
  82   2.0000      -0.358290        -9.7496
  83   2.0000      -0.349759        -9.5174
  84   2.0000      -0.343124        -9.3369
  85   2.0000      -0.336048        -9.1443
  86   2.0000      -0.326442        -8.8829
  87   2.0000      -0.320854        -8.7309
  88   2.0000      -0.311411        -8.4739
  89   2.0000      -0.306709        -8.3460
  90   2.0000      -0.302765        -8.2387
  91   2.0000      -0.293793        -7.9945
  92   2.0000      -0.287532        -7.8241
  93   2.0000      -0.283137        -7.7046
  94   2.0000      -0.271828        -7.3968
  95   2.0000      -0.246349        -6.7035
  96   2.0000      -0.231313        -6.2943
  97   2.0000      -0.226408        -6.1609
  98   2.0000      -0.220195        -5.9918
  99   2.0000      -0.218875        -5.9559
 100   2.0000      -0.213712        -5.8154
 101   0.0000      -0.044772        -1.2183
 102   0.0000      -0.021843        -0.5944
 103   0.0000      -0.014651        -0.3987
 104   0.0000       0.005936         0.1615
 105   0.0000       0.008496         0.2312

MULLIKEN ATOMIC CHARGES
-----------------------
   0 C :   -0.445775
   1 C :   -0.144000
   2 O :   -0.307446
   3 P :    0.684280
   4 S :   -0.467339
   5 O :   -0.275130
   6 C :   -0.145018
   7 C :   -0.456744
   8 S :   -0.105929
   9 C :   -0.260360
  10 S :   -0.117027
  11 P :    0.673444
  12 S :   -0.484650
  13 O :   -0.264695
  14 C :   -0.147094
  15 C :   -0.442378
  16 O :   -0.286071
  17 C :   -0.156546
  18 C :   -0.437519
  19 H :    0.149250
  20 H :    0.161847
  21 H :    0.146628
  22 H :    0.169693
  23 H :    0.151781
  24 H :    0.145339
  25 H :    0.166531
  26 H :    0.176210
  27 H :    0.142897
  28 H :    0.167099
  29 H :    0.210726
  30 H :    0.215840
  31 H :    0.155958
  32 H :    0.174101
  33 H :    0.148838
  34 H :    0.166761
  35 H :    0.155913
  36 H :    0.170904
  37 H :    0.152035
  38 H :    0.155329
  39 H :    0.148065
  40 H :    0.154254
Sum of atomic charges:    0.0000000

LOEWDIN ATOMIC CHARGES
----------------------
   0 C :   -0.385637
   1 C :    0.024064
   2 O :   -0.694095
   3 P :    0.364896
   4 S :   -0.115400
   5 O :   -0.675322
   6 C :    0.015863
   7 C :   -0.408054
   8 S :    0.193412
   9 C :   -0.409817
  10 S :    0.170773
  11 P :    0.371271
  12 S :   -0.134342
  13 O :   -0.674185
  14 C :    0.021836
  15 C :   -0.398621
  16 O :   -0.663302
  17 C :    0.020772
  18 C :   -0.384912
  19 H :    0.157755
  20 H :    0.163240
  21 H :    0.160204
  22 H :    0.181692
  23 H :    0.171027
  24 H :    0.178957
  25 H :    0.179564
  26 H :    0.170751
  27 H :    0.157317
  28 H :    0.165947
  29 H :    0.194637
  30 H :    0.195611
  31 H :    0.182064
  32 H :    0.181900
  33 H :    0.160359
  34 H :    0.164720
  35 H :    0.160626
  36 H :    0.180709
  37 H :    0.172192
  38 H :    0.160521
  39 H :    0.160630
  40 H :    0.160378

  Mayer bond orders larger than 0.100000
B(  0-C ,  1-C ) :   0.9600 B(  0-C , 19-H ) :   0.9725 B(  0-C , 20-H ) :   0.9712
B(  0-C , 21-H ) :   0.9647 B(  1-C ,  2-O ) :   0.7656 B(  1-C , 22-H ) :   0.9477
B(  1-C , 23-H ) :   0.9451 B(  2-O ,  3-P ) :   1.1461 B(  3-P ,  4-S ) :   1.8063
B(  3-P ,  5-O ) :   1.0208 B(  3-P ,  8-S ) :   1.0972 B(  5-O ,  6-C ) :   0.7989
B(  6-C ,  7-C ) :   0.9322 B(  6-C , 24-H ) :   0.9604 B(  6-C , 25-H ) :   0.9591
B(  7-C , 26-H ) :   0.9589 B(  7-C , 27-H ) :   0.9616 B(  7-C , 28-H ) :   0.9608
B(  8-S ,  9-C ) :   0.9090 B(  9-C , 10-S ) :   0.9259 B(  9-C , 29-H ) :   0.9106
B(  9-C , 30-H ) :   0.9083 B( 10-S , 11-P ) :   1.0763 B( 11-P , 12-S ) :   1.7457
B( 11-P , 13-O ) :   1.1567 B( 11-P , 16-O ) :   1.0940 B( 13-O , 14-C ) :   0.7835
B( 14-C , 15-C ) :   0.9239 B( 14-C , 31-H ) :   0.9611 B( 14-C , 32-H ) :   0.9624
B( 15-C , 33-H ) :   0.9623 B( 15-C , 34-H ) :   0.9598 B( 15-C , 35-H ) :   0.9722
B( 16-O , 17-C ) :   0.7794 B( 17-C , 18-C ) :   0.9569 B( 17-C , 36-H ) :   0.9506
B( 17-C , 37-H ) :   0.9459 B( 18-C , 38-H ) :   0.9709 B( 18-C , 39-H ) :   0.9641
B( 18-C , 40-H ) :   0.9713

Dispersion correction           -0.020834076
FINAL SINGLE POINT ENERGY     -2932.465418379167

DIPOLE MOMENT
-------------

Method             : SCF
Type of density    : Electron Density
Multiplicity       :   1
Irrep              :   0
Energy             : -2932.4910931661061113 Eh
Relativity type    :
Basis              : AO
                                X                 Y                 Z
Electronic contribution:      8.590629121       6.949351647      -7.639246687
Nuclear contribution   :     -9.282738576      -8.430723691       8.179884274
                        -----------------------------------------
Total Dipole Moment    :     -0.692109455      -1.481372044       0.540637586
                        -----------------------------------------
Magnitude (a.u.)       :      1.722140421
Magnitude (Debye)      :      4.377333079

Rotational constants in cm-1:             0.013575             0.004263             0.004017
Rotational constants in MHz :           406.971172           127.797059           120.427283

                             ****ORCA TERMINATED NORMALLY****
TOTAL RUN TIME: 0 days 0 hours 1 minutes 21 seconds 317 msec
