                         Program Version 6.0.0  -   RELEASE  -
|  1> ! r2scan-3c def2/J RI DEFGRID2 scfconv6 printgap
|  2> %output
|  3>     printlevel normal
|  4> end
|  5> %cpcm
|  6>     smd true
|  7>     smdsolvent "water"
|  8> end
|  9> * xyz 0 1
| 10> C 5.1242329672 -1.2178543941 -2.3796020968
| 11> C 4.5807168403 -1.0044586187 -0.9823260917
| 12> O 3.2796725571 -0.3814776796 -1.101005084
| 13> P 2.6433805672 0.3876181724 0.1327065117
| 14> S 3.7954362786 1.6994984369 1.0202969933
| 15> O 2.2080388864 -0.8358584036 1.0647447479
| 16> C 2.0133125774 -0.6867082045 2.4798401481
| 17> C 0.8081474178 0.1721256671 2.8026322181
| 18> S 0.9098360967 1.1128387652 -0.8180345009
| 19> C 0.2786554999 -0.4529387342 -1.5063363438
| 20> S -0.6693558402 -1.4367680294 -0.322125667
| 21> P -2.3435564558 -0.1543545428 -0.240385506
| 22> S -2.890935839 0.6576124987 -1.9447767542
| 23> O -1.9225011976 0.8414827246 0.913222738
| 24> C -2.4879345548 2.1622973049 1.0282807267
| 25> C -3.9388407405 2.1056040307 1.4564057422
| 26> O -3.4478978159 -1.0382189514 0.479327796
| 27> C -4.1728375264 -2.0636667022 -0.2303890053
| 28> C -5.3875831686 -2.4310071653 0.5975889773
| 29> H 4.4579851044 -1.8611123528 -2.9470489011
| 30> H 5.2157071784 -0.2650057326 -2.8934622813
| 31> H 6.1019789189 -1.6836850208 -2.3123036402
| 32> H 5.2285276166 -0.3439813362 -0.3959377544
| 33> H 4.4549695088 -1.9496498634 -0.4489141907
| 34> H 1.8898898566 -1.7092994897 2.83814625
| 35> H 2.9190673979 -0.2428093819 2.9055701373
| 36> H -0.0943846506 -0.2482263471 2.3657278067
| 37> H 0.6886542258 0.2363730833 3.8793010394
| 38> H 0.9572344632 1.1760141297 2.402935454
| 39> H 1.1109538247 -1.0602577578 -1.847212519
| 40> H -0.3735755878 -0.1681116855 -2.3328225491
| 41> H -1.8602680203 2.6541043646 1.7723840926
| 42> H -2.3834364933 2.6706255321 0.0642611416
| 43> H -4.3084804334 3.1135101049 1.6165799442
| 44> H -4.5329205134 1.629601806 0.6769767712
| 45> H -4.0367193804 1.5315278198 2.3738477727
| 46> H -4.4574473832 -1.6726905682 -1.2130323856
| 47> H -3.5076289822 -2.9207550469 -0.3657876168
| 48> H -6.038173277 -1.5689208486 0.7136970006
| 49> H -5.9321833777 -3.2253074571 0.0978432461
| 50> H -5.0752217607 -2.7710619958 1.5805456707
| 51> *
| 52>
| 53>                          ****END OF INPUT****

CARTESIAN COORDINATES (ANGSTROEM)
---------------------------------
  C      5.124233   -1.217854   -2.379602
  C      4.580717   -1.004459   -0.982326
  O      3.279673   -0.381478   -1.101005
  P      2.643381    0.387618    0.132707
  S      3.795436    1.699498    1.020297
  O      2.208039   -0.835858    1.064745
  C      2.013313   -0.686708    2.479840
  C      0.808147    0.172126    2.802632
  S      0.909836    1.112839   -0.818035
  C      0.278655   -0.452939   -1.506336
  S     -0.669356   -1.436768   -0.322126
  P     -2.343556   -0.154355   -0.240386
  S     -2.890936    0.657612   -1.944777
  O     -1.922501    0.841483    0.913223
  C     -2.487935    2.162297    1.028281
  C     -3.938841    2.105604    1.456406
  O     -3.447898   -1.038219    0.479328
  C     -4.172838   -2.063667   -0.230389
  C     -5.387583   -2.431007    0.597589
  H      4.457985   -1.861112   -2.947049
  H      5.215707   -0.265006   -2.893462
  H      6.101979   -1.683685   -2.312304
  H      5.228528   -0.343981   -0.395938
  H      4.454970   -1.949650   -0.448914
  H      1.889890   -1.709299    2.838146
  H      2.919067   -0.242809    2.905570
  H     -0.094385   -0.248226    2.365728
  H      0.688654    0.236373    3.879301
  H      0.957234    1.176014    2.402935
  H      1.110954   -1.060258   -1.847213
  H     -0.373576   -0.168112   -2.332823
  H     -1.860268    2.654104    1.772384
  H     -2.383436    2.670626    0.064261
  H     -4.308480    3.113510    1.616580
  H     -4.532921    1.629602    0.676977
  H     -4.036719    1.531528    2.373848
  H     -4.457447   -1.672691   -1.213032
  H     -3.507629   -2.920755   -0.365788
  H     -6.038173   -1.568921    0.713697
  H     -5.932183   -3.225307    0.097843
  H     -5.075222   -2.771062    1.580546

 Total Charge           Charge          ....    0
 Multiplicity           Mult            ....    1
 Number of Electrons    NEL             ....  202
 Basis Dimension        Dim             ....  539

ORBITAL ENERGIES
----------------

  NO   OCC          E(Eh)            E(eV)
   0   2.0000     -88.581525     -2410.4258
   1   2.0000     -88.580847     -2410.4074
   2   2.0000     -88.530467     -2409.0365
   3   2.0000     -88.529903     -2409.0211
   4   2.0000     -76.920380     -2093.1099
   5   2.0000     -76.919782     -2093.0937
   6   2.0000     -18.997606      -516.9511
   7   2.0000     -18.995076      -516.8823
   8   2.0000     -18.992380      -516.8089
   9   2.0000     -18.992210      -516.8043
  10   2.0000     -10.107030      -275.0263
  11   2.0000     -10.091285      -274.5978
  12   2.0000     -10.090074      -274.5649
  13   2.0000     -10.089177      -274.5405
  14   2.0000     -10.087478      -274.4942
  15   2.0000     -10.020124      -272.6614
  16   2.0000     -10.019510      -272.6447
  17   2.0000     -10.019036      -272.6318
  18   2.0000     -10.015655      -272.5398
  19   2.0000      -7.875645      -214.3072
  20   2.0000      -7.875281      -214.2973
  21   2.0000      -7.825426      -212.9407
  22   2.0000      -7.824904      -212.9265
  23   2.0000      -6.599148      -179.5720
  24   2.0000      -6.598183      -179.5457
  25   2.0000      -5.822915      -158.4496
  26   2.0000      -5.822069      -158.4265
  27   2.0000      -5.819195      -158.3484
  28   2.0000      -5.819131      -158.3466
  29   2.0000      -5.812717      -158.1721
  30   2.0000      -5.812468      -158.1653
  31   2.0000      -5.772898      -157.0885
  32   2.0000      -5.772433      -157.0759
  33   2.0000      -5.765740      -156.8938
  34   2.0000      -5.765533      -156.8881
  35   2.0000      -5.765301      -156.8818
  36   2.0000      -5.764855      -156.8697
  37   2.0000      -4.744478      -129.1038
  38   2.0000      -4.744072      -129.0928
  39   2.0000      -4.743562      -129.0789
  40   2.0000      -4.743213      -129.0694
  41   2.0000      -4.743030      -129.0644
  42   2.0000      -4.741994      -129.0362
  43   2.0000      -1.055040       -28.7091
  44   2.0000      -1.050712       -28.5913
  45   2.0000      -1.015631       -27.6367
  46   2.0000      -1.010043       -27.4847
  47   2.0000      -0.805105       -21.9080
  48   2.0000      -0.759115       -20.6566
  49   2.0000      -0.744177       -20.2501
  50   2.0000      -0.725121       -19.7316
  51   2.0000      -0.721842       -19.6423
  52   2.0000      -0.710776       -19.3412
  53   2.0000      -0.692392       -18.8409
  54   2.0000      -0.675924       -18.3928
  55   2.0000      -0.629915       -17.1409
  56   2.0000      -0.619163       -16.8483
  57   2.0000      -0.598360       -16.2822
  58   2.0000      -0.593845       -16.1594
  59   2.0000      -0.590591       -16.0708
  60   2.0000      -0.528032       -14.3685
  61   2.0000      -0.524638       -14.2761
  62   2.0000      -0.496668       -13.5150
  63   2.0000      -0.488014       -13.2795
  64   2.0000      -0.476916       -12.9775
  65   2.0000      -0.459416       -12.5014
  66   2.0000      -0.457775       -12.4567
  67   2.0000      -0.447024       -12.1641
  68   2.0000      -0.441672       -12.0185
  69   2.0000      -0.433302       -11.7907
  70   2.0000      -0.423910       -11.5352
  71   2.0000      -0.412309       -11.2195
  72   2.0000      -0.410225       -11.1628
  73   2.0000      -0.403486       -10.9794
  74   2.0000      -0.395938       -10.7740
  75   2.0000      -0.385018       -10.4769
  76   2.0000      -0.378668       -10.3041
  77   2.0000      -0.364028        -9.9057
  78   2.0000      -0.362890        -9.8748
  79   2.0000      -0.360670        -9.8143
  80   2.0000      -0.355221        -9.6661
  81   2.0000      -0.353564        -9.6210
  82   2.0000      -0.349554        -9.5118
  83   2.0000      -0.344311        -9.3692
  84   2.0000      -0.340789        -9.2733
  85   2.0000      -0.331549        -9.0219
  86   2.0000      -0.322815        -8.7842
  87   2.0000      -0.314667        -8.5625
  88   2.0000      -0.311122        -8.4661
  89   2.0000      -0.305361        -8.3093
  90   2.0000      -0.300038        -8.1645
  91   2.0000      -0.291613        -7.9352
  92   2.0000      -0.284838        -7.7508
  93   2.0000      -0.281234        -7.6528
  94   2.0000      -0.272850        -7.4246
  95   2.0000      -0.249826        -6.7981
  96   2.0000      -0.238440        -6.4883
  97   2.0000      -0.232782        -6.3343
  98   2.0000      -0.231254        -6.2927
  99   2.0000      -0.226635        -6.1670
 100   2.0000      -0.222710        -6.0602
 101   0.0000      -0.048204        -1.3117
 102   0.0000      -0.029494        -0.8026
 103   0.0000      -0.019392        -0.5277
 104   0.0000       0.001162         0.0316
 105   0.0000       0.006189         0.1684

MULLIKEN ATOMIC CHARGES
-----------------------
   0 C :   -0.488316
   1 C :   -0.131884
   2 O :   -0.326453
   3 P :    0.705962
   4 S :   -0.524636
   5 O :   -0.289960
   6 C :   -0.142116
   7 C :   -0.488499
   8 S :   -0.138685
   9 C :   -0.267412
  10 S :   -0.117594
  11 P :    0.703499
  12 S :   -0.532688
  13 O :   -0.288608
  14 C :   -0.143596
  15 C :   -0.483584
  16 O :   -0.312142
  17 C :   -0.145691
  18 C :   -0.481161
  19 H :    0.166130
  20 H :    0.166393
  21 H :    0.169522
  22 H :    0.170347
  23 H :    0.173731
  24 H :    0.174531
  25 H :    0.171547
  26 H :    0.174748
  27 H :    0.170450
  28 H :    0.165927
  29 H :    0.244201
  30 H :    0.231591
  31 H :    0.179664
  32 H :    0.176955
  33 H :    0.172815
  34 H :    0.167662
  35 H :    0.170719
  36 H :    0.172425
  37 H :    0.171571
  38 H :    0.166443
  39 H :    0.169940
  40 H :    0.166251
Sum of atomic charges:    0.0000000

LOEWDIN ATOMIC CHARGES
----------------------
   0 C :   -0.389734
   1 C :    0.030134
   2 O :   -0.701573
   3 P :    0.367794
   4 S :   -0.156482
   5 O :   -0.679176
   6 C :    0.021203
   7 C :   -0.410933
   8 S :    0.173480
   9 C :   -0.401951
  10 S :    0.173521
  11 P :    0.375837
  12 S :   -0.164706
  13 O :   -0.686302
  14 C :    0.024895
  15 C :   -0.401809
  16 O :   -0.674737
  17 C :    0.026017
  18 C :   -0.388618
  19 H :    0.162808
  20 H :    0.163029
  21 H :    0.169152
  22 H :    0.181961
  23 H :    0.180534
  24 H :    0.190637
  25 H :    0.181463
  26 H :    0.168864
  27 H :    0.167143
  28 H :    0.162482
  29 H :    0.206553
  30 H :    0.200647
  31 H :    0.191305
  32 H :    0.182454
  33 H :    0.169191
  34 H :    0.162806
  35 H :    0.164449
  36 H :    0.181809
  37 H :    0.180124
  38 H :    0.162922
  39 H :    0.169234
  40 H :    0.163576

  Mayer bond orders larger than 0.100000
B(  0-C ,  1-C ) :   0.9525 B(  0-C , 19-H ) :   0.9689 B(  0-C , 20-H ) :   0.9701
B(  0-C , 21-H ) :   0.9588 B(  1-C ,  2-O ) :   0.7578 B(  1-C , 22-H ) :   0.9458
B(  1-C , 23-H ) :   0.9358 B(  2-O ,  3-P ) :   1.1576 B(  3-P ,  4-S ) :   1.7674
B(  3-P ,  5-O ) :   1.0304 B(  3-P ,  8-S ) :   1.1096 B(  5-O ,  6-C ) :   0.7875
B(  6-C ,  7-C ) :   0.9201 B(  6-C , 24-H ) :   0.9508 B(  6-C , 25-H ) :   0.9576
B(  7-C , 26-H ) :   0.9588 B(  7-C , 27-H ) :   0.9563 B(  7-C , 28-H ) :   0.9627
B(  8-S ,  9-C ) :   0.9029 B(  9-C , 10-S ) :   0.9233 B(  9-C , 29-H ) :   0.8989
B(  9-C , 30-H ) :   0.9030 B( 10-S , 11-P ) :   1.0913 B( 11-P , 12-S ) :   1.7037
B( 11-P , 13-O ) :   1.1623 B( 11-P , 16-O ) :   1.1018 B( 13-O , 14-C ) :   0.7714
B( 14-C , 15-C ) :   0.9144 B( 14-C , 31-H ) :   0.9518 B( 14-C , 32-H ) :   0.9585
B( 15-C , 33-H ) :   0.9565 B( 15-C , 34-H ) :   0.9589 B( 15-C , 35-H ) :   0.9710
B( 16-O , 17-C ) :   0.7729 B( 17-C , 18-C ) :   0.9522 B( 17-C , 36-H ) :   0.9471
B( 17-C , 37-H ) :   0.9369 B( 18-C , 38-H ) :   0.9689 B( 18-C , 39-H ) :   0.9581
B( 18-C , 40-H ) :   0.9688

Dispersion correction           -0.020834076
FINAL SINGLE POINT ENERGY     -2932.474177443239

DIPOLE MOMENT
-------------

Method             : SCF
Type of density    : Electron Density
Multiplicity       :   1
Irrep              :   0
Energy             : -2932.4998522301780213 Eh
Relativity type    :
Basis              : AO
                                X                 Y                 Z
Electronic contribution:      8.475901080       6.299055495      -7.451267467
Nuclear contribution   :     -9.282738576      -8.430723691       8.179884274
                        -----------------------------------------
Total Dipole Moment    :     -0.806837496      -2.131668197       0.728616807
                        -----------------------------------------
Magnitude (a.u.)       :      2.392880795
Magnitude (Debye)      :      6.082219618

Rotational constants in cm-1:             0.013575             0.004263             0.004017
Rotational constants in MHz :           406.971172           127.797059           120.427283

                             ****ORCA TERMINATED NORMALLY****
TOTAL RUN TIME: 0 days 0 hours 1 minutes 53 seconds 730 msec
