                         Program Version 6.0.0  -   RELEASE  -
|  1> ! pbe def2-sv(p) def2/J RI DEFGRID1 loosescf d4 GCP(DFT/SV(P)) printgap
|  2> %output
|  3>     printlevel normal
|  4> end
|  5> * xyz 0 1
|  6> C 2.0295045575 1.1015018783 -1.949180192
|  7> C 3.3688526578 0.673938939 -1.3861070341
|  8> O 3.2552335084 -0.4384348073 -0.4886725864
|  9> P 2.5262193691 -0.3537378433 0.925915204
| 10> S 2.7226132059 1.3556657223 1.8560939238
| 11> O 3.2259331473 -1.5176237627 1.7286516525
| 12> C 2.9876346905 -2.9385425573 1.5892461536
| 13> C 3.1284997651 -3.42126804 0.1621594128
| 14> S 0.5347923849 -1.0584719411 0.6195740929
| 15> C -0.4037333305 0.243039283 1.4581428433
| 16> S -0.9248412619 1.6146683447 0.3881441807
| 17> P -2.1496063737 0.5565059665 -0.9888558914
| 18> S -1.3531683844 -0.5555109728 -2.3839025702
| 19> O -2.9600221604 1.7280629913 -1.6777117662
| 20> C -3.4844561 2.9207162055 -1.0502103519
| 21> C -4.4964511051 2.6117645194 0.0325828209
| 22> O -3.1618216501 -0.2142477546 -0.0210883405
| 23> C -3.5294397878 -1.5992727082 -0.1673770183
| 24> C -2.855228484 -2.4566276595 0.8849522855
| 25> H 1.418331972 1.5425346416 -1.1617101719
| 26> H 2.1820498903 1.8470363534 -2.7229048619
| 27> H 1.4987195323 0.2520408334 -2.375439832
| 28> H 3.8405143737 1.5052288358 -0.8519712252
| 29> H 4.0342916416 0.3099276713 -2.1702492722
| 30> H 3.7418120288 -3.380916604 2.2417516893
| 31> H 1.9883654974 -3.1549255086 1.9756660132
| 32> H 2.3563165682 -2.9770600802 -0.4646645231
| 33> H 4.1022462817 -3.1475771011 -0.2354682124
| 34> H 3.0202124095 -4.5012530681 0.1394245893
| 35> H 0.2240160723 0.7014827614 2.2236525763
| 36> H -1.2843335744 -0.2255267474 1.8885992512
| 37> H -2.6461537696 3.497169802 -0.651085326
| 38> H -3.9381729203 3.4609735844 -1.8828775248
| 39> H -4.019105696 2.0858217558 0.856266947
| 40> H -4.9145701602 3.5430470291 0.4020572653
| 41> H -5.2962260261 1.9927367916 -0.365601903
| 42> H -4.6150608271 -1.6152308859 -0.0564026955
| 43> H -3.256618893 -1.9351580839 -1.1727934809
| 44> H -3.0888345636 -2.0893591365 1.8807386406
| 45> H -3.2153261418 -3.4759131069 0.7902266064
| 46> H -1.7761842019 -2.4511400986 0.7391225076
| 47> *
| 48>
| 49>                          ****END OF INPUT****

CARTESIAN COORDINATES (ANGSTROEM)
---------------------------------
  C      2.029505    1.101502   -1.949180
  C      3.368853    0.673939   -1.386107
  O      3.255234   -0.438435   -0.488673
  P      2.526219   -0.353738    0.925915
  S      2.722613    1.355666    1.856094
  O      3.225933   -1.517624    1.728652
  C      2.987635   -2.938543    1.589246
  C      3.128500   -3.421268    0.162159
  S      0.534792   -1.058472    0.619574
  C     -0.403733    0.243039    1.458143
  S     -0.924841    1.614668    0.388144
  P     -2.149606    0.556506   -0.988856
  S     -1.353168   -0.555511   -2.383903
  O     -2.960022    1.728063   -1.677712
  C     -3.484456    2.920716   -1.050210
  C     -4.496451    2.611765    0.032583
  O     -3.161822   -0.214248   -0.021088
  C     -3.529440   -1.599273   -0.167377
  C     -2.855228   -2.456628    0.884952
  H      1.418332    1.542535   -1.161710
  H      2.182050    1.847036   -2.722905
  H      1.498720    0.252041   -2.375440
  H      3.840514    1.505229   -0.851971
  H      4.034292    0.309928   -2.170249
  H      3.741812   -3.380917    2.241752
  H      1.988365   -3.154926    1.975666
  H      2.356317   -2.977060   -0.464665
  H      4.102246   -3.147577   -0.235468
  H      3.020212   -4.501253    0.139425
  H      0.224016    0.701483    2.223653
  H     -1.284334   -0.225527    1.888599
  H     -2.646154    3.497170   -0.651085
  H     -3.938173    3.460974   -1.882878
  H     -4.019106    2.085822    0.856267
  H     -4.914570    3.543047    0.402057
  H     -5.296226    1.992737   -0.365602
  H     -4.615061   -1.615231   -0.056403
  H     -3.256619   -1.935158   -1.172793
  H     -3.088835   -2.089359    1.880739
  H     -3.215326   -3.475913    0.790227
  H     -1.776184   -2.451140    0.739123

 Total Charge           Charge          ....    0
 Multiplicity           Mult            ....    1
 Number of Electrons    NEL             ....  202
 Basis Dimension        Dim             ....  334

ORBITAL ENERGIES
----------------

  NO   OCC          E(Eh)            E(eV)
   0   2.0000     -88.047018     -2395.8812
   1   2.0000     -88.046405     -2395.8645
   2   2.0000     -87.986250     -2394.2276
   3   2.0000     -87.982366     -2394.1219
   4   2.0000     -76.427676     -2079.7028
   5   2.0000     -76.426189     -2079.6623
   6   2.0000     -18.796234      -511.4715
   7   2.0000     -18.792307      -511.3647
   8   2.0000     -18.788808      -511.2695
   9   2.0000     -18.787621      -511.2372
  10   2.0000      -9.960897      -271.0498
  11   2.0000      -9.959702      -271.0173
  12   2.0000      -9.957703      -270.9629
  13   2.0000      -9.954794      -270.8837
  14   2.0000      -9.943432      -270.5745
  15   2.0000      -9.891523      -269.1620
  16   2.0000      -9.889625      -269.1104
  17   2.0000      -9.889081      -269.0956
  18   2.0000      -9.865857      -268.4636
  19   2.0000      -7.691484      -209.2959
  20   2.0000      -7.690556      -209.2707
  21   2.0000      -7.631410      -207.6612
  22   2.0000      -7.627605      -207.5577
  23   2.0000      -6.425018      -174.8336
  24   2.0000      -6.423561      -174.7940
  25   2.0000      -5.719384      -155.6324
  26   2.0000      -5.718426      -155.6063
  27   2.0000      -5.715903      -155.5376
  28   2.0000      -5.715012      -155.5134
  29   2.0000      -5.708580      -155.3383
  30   2.0000      -5.707705      -155.3145
  31   2.0000      -5.660405      -154.0275
  32   2.0000      -5.656612      -153.9242
  33   2.0000      -5.652040      -153.7998
  34   2.0000      -5.651455      -153.7839
  35   2.0000      -5.648073      -153.6919
  36   2.0000      -5.647754      -153.6832
  37   2.0000      -4.648013      -126.4789
  38   2.0000      -4.646742      -126.4443
  39   2.0000      -4.646206      -126.4297
  40   2.0000      -4.645200      -126.4023
  41   2.0000      -4.645186      -126.4019
  42   2.0000      -4.644127      -126.3731
  43   2.0000      -0.985423       -26.8147
  44   2.0000      -0.983506       -26.7626
  45   2.0000      -0.947989       -25.7961
  46   2.0000      -0.941929       -25.6312
  47   2.0000      -0.764890       -20.8137
  48   2.0000      -0.723257       -19.6808
  49   2.0000      -0.712708       -19.3938
  50   2.0000      -0.696447       -18.9513
  51   2.0000      -0.685608       -18.6564
  52   2.0000      -0.673859       -18.3366
  53   2.0000      -0.651203       -17.7201
  54   2.0000      -0.639960       -17.4142
  55   2.0000      -0.597591       -16.2613
  56   2.0000      -0.594235       -16.1700
  57   2.0000      -0.580359       -15.7924
  58   2.0000      -0.574633       -15.6366
  59   2.0000      -0.562903       -15.3174
  60   2.0000      -0.500650       -13.6234
  61   2.0000      -0.491583       -13.3767
  62   2.0000      -0.481353       -13.0983
  63   2.0000      -0.467431       -12.7194
  64   2.0000      -0.462740       -12.5918
  65   2.0000      -0.448652       -12.2085
  66   2.0000      -0.443772       -12.0756
  67   2.0000      -0.437368       -11.9014
  68   2.0000      -0.431993       -11.7551
  69   2.0000      -0.418914       -11.3992
  70   2.0000      -0.405914       -11.0455
  71   2.0000      -0.401409       -10.9229
  72   2.0000      -0.397987       -10.8298
  73   2.0000      -0.389366       -10.5952
  74   2.0000      -0.383050       -10.4233
  75   2.0000      -0.374651       -10.1948
  76   2.0000      -0.367791       -10.0081
  77   2.0000      -0.357830        -9.7371
  78   2.0000      -0.354854        -9.6561
  79   2.0000      -0.353026        -9.6063
  80   2.0000      -0.351040        -9.5523
  81   2.0000      -0.346170        -9.4198
  82   2.0000      -0.342770        -9.3273
  83   2.0000      -0.335136        -9.1195
  84   2.0000      -0.332740        -9.0543
  85   2.0000      -0.321164        -8.7393
  86   2.0000      -0.306553        -8.3417
  87   2.0000      -0.304558        -8.2874
  88   2.0000      -0.292278        -7.9533
  89   2.0000      -0.288973        -7.8633
  90   2.0000      -0.285204        -7.7608
  91   2.0000      -0.276188        -7.5155
  92   2.0000      -0.271600        -7.3906
  93   2.0000      -0.265597        -7.2273
  94   2.0000      -0.260067        -7.0768
  95   2.0000      -0.235655        -6.4125
  96   2.0000      -0.220333        -5.9956
  97   2.0000      -0.208087        -5.6623
  98   2.0000      -0.203370        -5.5340
  99   2.0000      -0.198405        -5.3989
 100   2.0000      -0.194205        -5.2846
 101   0.0000      -0.050327        -1.3695
 102   0.0000      -0.029510        -0.8030
 103   0.0000      -0.015756        -0.4287
 104   0.0000      -0.004339        -0.1181
 105   0.0000       0.014906         0.4056

MULLIKEN ATOMIC CHARGES
-----------------------
   0 C :   -0.340009
   1 C :    0.000459
   2 O :   -0.373688
   3 P :    0.612098
   4 S :   -0.312848
   5 O :   -0.359531
   6 C :   -0.003531
   7 C :   -0.317646
   8 S :   -0.112514
   9 C :   -0.342240
  10 S :   -0.099052
  11 P :    0.614565
  12 S :   -0.296112
  13 O :   -0.363892
  14 C :   -0.020041
  15 C :   -0.304284
  16 O :   -0.390530
  17 C :   -0.009782
  18 C :   -0.319145
  19 H :    0.135615
  20 H :    0.105173
  21 H :    0.134490
  22 H :    0.108719
  23 H :    0.100657
  24 H :    0.112318
  25 H :    0.108237
  26 H :    0.131772
  27 H :    0.126690
  28 H :    0.114883
  29 H :    0.192077
  30 H :    0.189825
  31 H :    0.121940
  32 H :    0.113509
  33 H :    0.123447
  34 H :    0.113834
  35 H :    0.116885
  36 H :    0.103223
  37 H :    0.116704
  38 H :    0.119856
  39 H :    0.115068
  40 H :    0.132800
Sum of atomic charges:    0.0000000

LOEWDIN ATOMIC CHARGES
----------------------
   0 C :   -0.378312
   1 C :   -0.118321
   2 O :   -0.241623
   3 P :    0.572782
   4 S :   -0.306856
   5 O :   -0.238607
   6 C :   -0.115156
   7 C :   -0.367018
   8 S :    0.088743
   9 C :   -0.477914
  10 S :    0.097119
  11 P :    0.563015
  12 S :   -0.295937
  13 O :   -0.241547
  14 C :   -0.115380
  15 C :   -0.366143
  16 O :   -0.254769
  17 C :   -0.121086
  18 C :   -0.364235
  19 H :    0.111014
  20 H :    0.128954
  21 H :    0.123282
  22 H :    0.110026
  23 H :    0.116789
  24 H :    0.123648
  25 H :    0.107559
  26 H :    0.120526
  27 H :    0.131152
  28 H :    0.132170
  29 H :    0.131391
  30 H :    0.130964
  31 H :    0.110369
  32 H :    0.123799
  33 H :    0.121390
  34 H :    0.131429
  35 H :    0.127031
  36 H :    0.116740
  37 H :    0.109270
  38 H :    0.123451
  39 H :    0.133728
  40 H :    0.116561

  Mayer bond orders larger than 0.100000
B(  0-C ,  1-C ) :   1.1597 B(  0-C , 19-H ) :   0.9249 B(  0-C , 20-H ) :   0.9368
B(  0-C , 21-H ) :   0.9336 B(  1-C ,  2-O ) :   0.9046 B(  1-C , 22-H ) :   0.9185
B(  1-C , 23-H ) :   0.9332 B(  2-O ,  3-P ) :   1.0997 B(  3-P ,  4-S ) :   1.6232
B(  3-P ,  5-O ) :   1.1430 B(  3-P ,  8-S ) :   0.9327 B(  4-S ,  8-S ) :   0.1059
B(  5-O ,  6-C ) :   0.9057 B(  6-C ,  7-C ) :   1.1683 B(  6-C , 24-H ) :   0.9332
B(  6-C , 25-H ) :   0.9203 B(  7-C , 26-H ) :   0.9364 B(  7-C , 27-H ) :   0.9423
B(  7-C , 28-H ) :   0.9349 B(  8-S ,  9-C ) :   1.0236 B(  9-C , 10-S ) :   1.0011
B(  9-C , 29-H ) :   0.8666 B(  9-C , 30-H ) :   0.8922 B( 10-S , 11-P ) :   0.9555
B( 10-S , 12-S ) :   0.1022 B( 11-P , 12-S ) :   1.6583 B( 11-P , 13-O ) :   1.1371
B( 11-P , 16-O ) :   1.0597 B( 13-O , 14-C ) :   0.9056 B( 14-C , 15-C ) :   1.1655
B( 14-C , 31-H ) :   0.9224 B( 14-C , 32-H ) :   0.9338 B( 15-C , 33-H ) :   0.9355
B( 15-C , 34-H ) :   0.9368 B( 15-C , 35-H ) :   0.9460 B( 16-O , 17-C ) :   0.9067
B( 17-C , 18-C ) :   1.1698 B( 17-C , 36-H ) :   0.9316 B( 17-C , 37-H ) :   0.8991
B( 18-C , 38-H ) :   0.9407 B( 18-C , 39-H ) :   0.9365 B( 18-C , 40-H ) :   0.9285

Dispersion correction           -0.065705636
FINAL SINGLE POINT ENERGY     -2929.514391823574

DIPOLE MOMENT
-------------

Method             : SCF
Type of density    : Electron Density
Multiplicity       :   1
Irrep              :   0
Energy             : -2929.6344017542437541 Eh
Relativity type    :
Basis              : AO
                                X                 Y                 Z
Electronic contribution:      8.285601009       7.238322803       1.225276124
Nuclear contribution   :     -9.406992063      -7.935062834      -0.877912638
                        -----------------------------------------
Total Dipole Moment    :     -1.121391055      -0.696740031       0.347363486
                        -----------------------------------------
Magnitude (a.u.)       :      1.365146864
Magnitude (Debye)      :      3.469927568

Rotational constants in cm-1:             0.012321             0.004949             0.004537
Rotational constants in MHz :           369.386154           148.381944           136.016733

                             ****ORCA TERMINATED NORMALLY****
TOTAL RUN TIME: 0 days 0 hours 0 minutes 20 seconds 498 msec
