                         Program Version 6.0.0  -   RELEASE  -
|  1> ! pbe def2-sv(p) def2/J RI DEFGRID1 loosescf d4 GCP(DFT/SV(P)) printgap
|  2> %output
|  3>     printlevel normal
|  4> end
|  5> * xyz 0 1
|  6> C 1.7266187817 -0.810505747 -2.9678750727
|  7> C 3.1476134996 -0.6148730578 -2.4801642523
|  8> O 3.3081700735 -0.9968496424 -1.1028202513
|  9> P 2.68436044 -0.1757179375 0.1084895518
| 10> S 2.7969795467 1.7737919226 -0.003731328
| 11> O 3.5185916984 -0.7142301209 1.3345511824
| 12> C 3.6609228782 -2.1281333836 1.6433521933
| 13> C 2.8812096343 -2.4715473668 2.8971031676
| 14> S 0.7523599854 -1.0186380471 0.3540648922
| 15> C 0.1286692108 0.2883308512 1.4668700797
| 16> S -1.650527428 0.1734773046 1.6838791324
| 17> P -2.2621140441 0.883514752 -0.2473466294
| 18> S -0.8667442799 1.6519799885 -1.3825531678
| 19> O -3.3866164787 1.9313368151 0.0835725545
| 20> C -4.5085936338 1.6692229568 0.9651921647
| 21> C -5.7030876938 1.1490676603 0.1927563408
| 22> O -3.0860210864 -0.3073425705 -0.9049877199
| 23> C -2.4770473155 -1.4340493051 -1.5637036312
| 24> C -2.3385835121 -2.6118114352 -0.6188442231
| 25> H 1.3791564362 -1.8120763932 -2.726219901
| 26> H 1.0651470738 -0.0793082477 -2.5037201788
| 27> H 1.6946731438 -0.666571981 -4.0430274748
| 28> H 3.452436811 0.4305559487 -2.5892869202
| 29> H 3.8475104302 -1.2637142531 -3.0091502304
| 30> H 3.3238777837 -2.7170126461 0.7882290936
| 31> H 4.7322191705 -2.2723852363 1.7894814497
| 32> H 3.1032065424 -3.495567902 3.1801171452
| 33> H 3.1690505578 -1.8070175739 3.7072464627
| 34> H 1.8120596329 -2.3785693846 2.7228114699
| 35> H 0.3904854589 1.255080917 1.0296378617
| 36> H 0.5708734357 0.170804452 2.4539410427
| 37> H -4.1922593515 0.9606019946 1.7357309913
| 38> H -4.7201894667 2.63856655 1.4200480695
| 39> H -5.9677142964 1.8470231953 -0.5968971685
| 40> H -5.4758136007 0.1853792304 -0.2535121273
| 41> H -6.5427596642 1.0417256667 0.8723326946
| 42> H -3.1550361416 -1.6647788623 -2.3875071255
| 43> H -1.5067822807 -1.1284992779 -1.9673928092
| 44> H -3.2979707726 -2.8382879595 -0.1627331947
| 45> H -1.9950412362 -3.4746892455 -1.1795276493
| 46> H -1.6154806362 -2.39352059 0.1638795804
| 47> *
| 48>
| 49>                          ****END OF INPUT****

CARTESIAN COORDINATES (ANGSTROEM)
---------------------------------
  C      1.726619   -0.810506   -2.967875
  C      3.147613   -0.614873   -2.480164
  O      3.308170   -0.996850   -1.102820
  P      2.684360   -0.175718    0.108490
  S      2.796980    1.773792   -0.003731
  O      3.518592   -0.714230    1.334551
  C      3.660923   -2.128133    1.643352
  C      2.881210   -2.471547    2.897103
  S      0.752360   -1.018638    0.354065
  C      0.128669    0.288331    1.466870
  S     -1.650527    0.173477    1.683879
  P     -2.262114    0.883515   -0.247347
  S     -0.866744    1.651980   -1.382553
  O     -3.386616    1.931337    0.083573
  C     -4.508594    1.669223    0.965192
  C     -5.703088    1.149068    0.192756
  O     -3.086021   -0.307343   -0.904988
  C     -2.477047   -1.434049   -1.563704
  C     -2.338584   -2.611811   -0.618844
  H      1.379156   -1.812076   -2.726220
  H      1.065147   -0.079308   -2.503720
  H      1.694673   -0.666572   -4.043027
  H      3.452437    0.430556   -2.589287
  H      3.847510   -1.263714   -3.009150
  H      3.323878   -2.717013    0.788229
  H      4.732219   -2.272385    1.789481
  H      3.103207   -3.495568    3.180117
  H      3.169051   -1.807018    3.707246
  H      1.812060   -2.378569    2.722811
  H      0.390485    1.255081    1.029638
  H      0.570873    0.170804    2.453941
  H     -4.192259    0.960602    1.735731
  H     -4.720189    2.638567    1.420048
  H     -5.967714    1.847023   -0.596897
  H     -5.475814    0.185379   -0.253512
  H     -6.542760    1.041726    0.872333
  H     -3.155036   -1.664779   -2.387507
  H     -1.506782   -1.128499   -1.967393
  H     -3.297971   -2.838288   -0.162733
  H     -1.995041   -3.474689   -1.179528
  H     -1.615481   -2.393521    0.163880

 Total Charge           Charge          ....    0
 Multiplicity           Mult            ....    1
 Number of Electrons    NEL             ....  202
 Basis Dimension        Dim             ....  334

ORBITAL ENERGIES
----------------

  NO   OCC          E(Eh)            E(eV)
   0   2.0000     -88.047880     -2395.9046
   1   2.0000     -88.041526     -2395.7317
   2   2.0000     -87.984290     -2394.1742
   3   2.0000     -87.980837     -2394.0803
   4   2.0000     -76.426464     -2079.6698
   5   2.0000     -76.422923     -2079.5735
   6   2.0000     -18.794026      -511.4114
   7   2.0000     -18.792346      -511.3657
   8   2.0000     -18.792019      -511.3568
   9   2.0000     -18.787684      -511.2389
  10   2.0000      -9.962222      -271.0858
  11   2.0000      -9.956393      -270.9272
  12   2.0000      -9.953753      -270.8554
  13   2.0000      -9.953351      -270.8444
  14   2.0000      -9.950844      -270.7762
  15   2.0000      -9.889355      -269.1030
  16   2.0000      -9.888240      -269.0727
  17   2.0000      -9.885545      -268.9994
  18   2.0000      -9.879001      -268.8213
  19   2.0000      -7.692621      -209.3269
  20   2.0000      -7.685811      -209.1416
  21   2.0000      -7.629051      -207.5970
  22   2.0000      -7.626062      -207.5157
  23   2.0000      -6.424162      -174.8103
  24   2.0000      -6.420464      -174.7097
  25   2.0000      -5.720490      -155.6624
  26   2.0000      -5.717107      -155.5704
  27   2.0000      -5.713547      -155.4735
  28   2.0000      -5.710589      -155.3930
  29   2.0000      -5.709697      -155.3687
  30   2.0000      -5.702786      -155.1807
  31   2.0000      -5.658160      -153.9664
  32   2.0000      -5.655128      -153.8839
  33   2.0000      -5.649433      -153.7289
  34   2.0000      -5.649256      -153.7241
  35   2.0000      -5.646630      -153.6526
  36   2.0000      -5.646102      -153.6383
  37   2.0000      -4.646861      -126.4475
  38   2.0000      -4.645934      -126.4223
  39   2.0000      -4.644448      -126.3818
  40   2.0000      -4.643368      -126.3525
  41   2.0000      -4.642162      -126.3197
  42   2.0000      -4.640673      -126.2791
  43   2.0000      -0.989581       -26.9279
  44   2.0000      -0.985669       -26.8214
  45   2.0000      -0.946722       -25.7616
  46   2.0000      -0.942426       -25.6447
  47   2.0000      -0.763289       -20.7702
  48   2.0000      -0.722191       -19.6518
  49   2.0000      -0.713077       -19.4038
  50   2.0000      -0.692947       -18.8560
  51   2.0000      -0.687663       -18.7123
  52   2.0000      -0.677870       -18.4458
  53   2.0000      -0.648674       -17.6513
  54   2.0000      -0.634407       -17.2631
  55   2.0000      -0.596117       -16.2212
  56   2.0000      -0.590147       -16.0587
  57   2.0000      -0.577138       -15.7047
  58   2.0000      -0.575338       -15.6557
  59   2.0000      -0.559276       -15.2187
  60   2.0000      -0.504381       -13.7249
  61   2.0000      -0.500712       -13.6251
  62   2.0000      -0.482108       -13.1188
  63   2.0000      -0.471384       -12.8270
  64   2.0000      -0.452086       -12.3019
  65   2.0000      -0.447042       -12.1646
  66   2.0000      -0.446355       -12.1459
  67   2.0000      -0.440185       -11.9780
  68   2.0000      -0.432307       -11.7637
  69   2.0000      -0.424599       -11.5539
  70   2.0000      -0.407354       -11.0847
  71   2.0000      -0.396502       -10.7894
  72   2.0000      -0.393672       -10.7124
  73   2.0000      -0.385226       -10.4825
  74   2.0000      -0.382877       -10.4186
  75   2.0000      -0.368412       -10.0250
  76   2.0000      -0.365670        -9.9504
  77   2.0000      -0.358327        -9.7506
  78   2.0000      -0.356671        -9.7055
  79   2.0000      -0.354058        -9.6344
  80   2.0000      -0.350078        -9.5261
  81   2.0000      -0.347707        -9.4616
  82   2.0000      -0.345088        -9.3903
  83   2.0000      -0.340501        -9.2655
  84   2.0000      -0.331472        -9.0198
  85   2.0000      -0.320233        -8.7140
  86   2.0000      -0.312681        -8.5085
  87   2.0000      -0.300494        -8.1769
  88   2.0000      -0.299530        -8.1506
  89   2.0000      -0.292159        -7.9501
  90   2.0000      -0.289931        -7.8894
  91   2.0000      -0.278504        -7.5785
  92   2.0000      -0.269611        -7.3365
  93   2.0000      -0.262795        -7.1510
  94   2.0000      -0.259566        -7.0632
  95   2.0000      -0.233698        -6.3593
  96   2.0000      -0.220526        -6.0008
  97   2.0000      -0.206675        -5.6239
  98   2.0000      -0.200984        -5.4690
  99   2.0000      -0.196419        -5.3448
 100   2.0000      -0.190830        -5.1927
 101   0.0000      -0.048828        -1.3287
 102   0.0000      -0.033600        -0.9143
 103   0.0000      -0.013630        -0.3709
 104   0.0000       0.008659         0.2356
 105   0.0000       0.012292         0.3345

MULLIKEN ATOMIC CHARGES
-----------------------
   0 C :   -0.359773
   1 C :    0.008119
   2 O :   -0.381144
   3 P :    0.607366
   4 S :   -0.296737
   5 O :   -0.362669
   6 C :   -0.009108
   7 C :   -0.292541
   8 S :   -0.134961
   9 C :   -0.332107
  10 S :   -0.135762
  11 P :    0.599154
  12 S :   -0.277906
  13 O :   -0.352257
  14 C :   -0.023812
  15 C :   -0.291056
  16 O :   -0.378848
  17 C :   -0.014327
  18 C :   -0.303503
  19 H :    0.109289
  20 H :    0.174354
  21 H :    0.112246
  22 H :    0.112927
  23 H :    0.102257
  24 H :    0.104594
  25 H :    0.112035
  26 H :    0.109304
  27 H :    0.119849
  28 H :    0.118438
  29 H :    0.213982
  30 H :    0.179567
  31 H :    0.112332
  32 H :    0.116562
  33 H :    0.122843
  34 H :    0.124509
  35 H :    0.110516
  36 H :    0.106049
  37 H :    0.119562
  38 H :    0.109543
  39 H :    0.108047
  40 H :    0.133067
Sum of atomic charges:    0.0000000

LOEWDIN ATOMIC CHARGES
----------------------
   0 C :   -0.378230
   1 C :   -0.114367
   2 O :   -0.248304
   3 P :    0.567784
   4 S :   -0.292887
   5 O :   -0.244346
   6 C :   -0.112711
   7 C :   -0.361284
   8 S :    0.065623
   9 C :   -0.478996
  10 S :    0.066025
  11 P :    0.564149
  12 S :   -0.274233
  13 O :   -0.233705
  14 C :   -0.111644
  15 C :   -0.360572
  16 O :   -0.247297
  17 C :   -0.117964
  18 C :   -0.364874
  19 H :    0.119003
  20 H :    0.122734
  21 H :    0.131381
  22 H :    0.114203
  23 H :    0.117206
  24 H :    0.108389
  25 H :    0.122362
  26 H :    0.129812
  27 H :    0.128509
  28 H :    0.118934
  29 H :    0.124339
  30 H :    0.131812
  31 H :    0.104562
  32 H :    0.124612
  33 H :    0.130744
  34 H :    0.126238
  35 H :    0.129846
  36 H :    0.118957
  37 H :    0.110643
  38 H :    0.123868
  39 H :    0.129545
  40 H :    0.110133

  Mayer bond orders larger than 0.100000
B(  0-C ,  1-C ) :   1.1639 B(  0-C , 19-H ) :   0.9435 B(  0-C , 20-H ) :   0.9154
B(  0-C , 21-H ) :   0.9364 B(  1-C ,  2-O ) :   0.9055 B(  1-C , 22-H ) :   0.9171
B(  1-C , 23-H ) :   0.9343 B(  2-O ,  3-P ) :   1.0943 B(  3-P ,  4-S ) :   1.6587
B(  3-P ,  5-O ) :   1.1296 B(  3-P ,  8-S ) :   0.9408 B(  4-S ,  8-S ) :   0.1107
B(  5-O ,  6-C ) :   0.8913 B(  6-C ,  7-C ) :   1.1637 B(  6-C , 24-H ) :   0.9175
B(  6-C , 25-H ) :   0.9344 B(  7-C , 26-H ) :   0.9398 B(  7-C , 27-H ) :   0.9461
B(  7-C , 28-H ) :   0.9357 B(  8-S ,  9-C ) :   0.9731 B(  9-C , 10-S ) :   1.0263
B(  9-C , 29-H ) :   0.8534 B(  9-C , 30-H ) :   0.9030 B( 10-S , 11-P ) :   0.9178
B( 10-S , 12-S ) :   0.1137 B( 11-P , 12-S ) :   1.6739 B( 11-P , 13-O ) :   1.1480
B( 11-P , 16-O ) :   1.0800 B( 13-O , 14-C ) :   0.8956 B( 14-C , 15-C ) :   1.1634
B( 14-C , 31-H ) :   0.9149 B( 14-C , 32-H ) :   0.9356 B( 15-C , 33-H ) :   0.9465
B( 15-C , 34-H ) :   0.9394 B( 15-C , 35-H ) :   0.9387 B( 16-O , 17-C ) :   0.9021
B( 17-C , 18-C ) :   1.1702 B( 17-C , 36-H ) :   0.9352 B( 17-C , 37-H ) :   0.9043
B( 18-C , 38-H ) :   0.9463 B( 18-C , 39-H ) :   0.9397 B( 18-C , 40-H ) :   0.9266

Dispersion correction           -0.064937132
FINAL SINGLE POINT ENERGY     -2929.514490285479

DIPOLE MOMENT
-------------

Method             : SCF
Type of density    : Electron Density
Multiplicity       :   1
Irrep              :   0
Energy             : -2929.6343815144418841 Eh
Relativity type    :
Basis              : AO
                                X                 Y                 Z
Electronic contribution:      8.791798309      16.998083641       1.660322401
Nuclear contribution   :     -9.716409138     -18.967356530      -1.362871596
                        -----------------------------------------
Total Dipole Moment    :     -0.924610830      -1.969272889       0.297450805
                        -----------------------------------------
Magnitude (a.u.)       :      2.195772730
Magnitude (Debye)      :      5.581210733

Rotational constants in cm-1:             0.012861             0.004665             0.004454
Rotational constants in MHz :           385.560036           139.867899           133.517599

                             ****ORCA TERMINATED NORMALLY****
TOTAL RUN TIME: 0 days 0 hours 0 minutes 21 seconds 421 msec
