                         Program Version 6.0.0  -   RELEASE  -
|  1> ! pbe def2-sv(p) def2/J RI DEFGRID1 loosescf d4 GCP(DFT/SV(P)) printgap
|  2> %output
|  3>     printlevel normal
|  4> end
|  5> * xyz 0 1
|  6> C 4.0452477539 -0.1921915533 -2.3954474937
|  7> C 4.5608511143 -0.0306870366 -0.9788033638
|  8> O 3.7062568367 -0.6658929579 -0.0147213766
|  9> P 2.2490011965 -0.1353687272 0.3063751834
| 10> S 2.0598000824 1.8188746069 0.2289700979
| 11> O 2.1630553294 -0.8668658361 1.7070321689
| 12> C 1.0520625695 -0.7903340725 2.6159327797
| 13> C 1.2063408372 0.3842282656 3.5633243001
| 14> S 0.9533782943 -1.2629563943 -0.9520227409
| 15> C 0.1720855554 0.0708755628 -1.9196289358
| 16> S -1.6347347523 -0.0623806911 -2.0491396064
| 17> P -2.2221289233 0.063498946 -0.0082770604
| 18> S -4.0738506549 0.6144850268 0.3154405445
| 19> O -1.1286075832 0.9741804792 0.7046374517
| 20> C -1.4096301269 2.3568832117 0.987349647
| 21> C -1.3848982016 3.2111893435 -0.2638725384
| 22> O -1.7608873287 -1.3082039523 0.6549911518
| 23> C -2.0623860023 -2.6149920612 0.129619926
| 24> C -3.5148247957 -2.7811778792 -0.2653733809
| 25> H 3.1318862682 0.3869409235 -2.5261712186
| 26> H 4.7929624397 0.1715363079 -3.093044359
| 27> H 3.8370933856 -1.2387741991 -2.6034996663
| 28> H 4.6529465325 1.0295278463 -0.7211428765
| 29> H 5.5222130745 -0.5275639488 -0.8417531303
| 30> H 0.1157817051 -0.721269587 2.0567666544
| 31> H 1.0806464607 -1.7387571595 3.1564822191
| 32> H 0.3752020737 0.3939881846 4.2612457908
| 33> H 2.1401804097 0.3014291702 4.1128452427
| 34> H 1.2119146242 1.3190806152 3.0068128738
| 35> H 0.5171045111 0.0052758478 -2.9487433108
| 36> H 0.4471791811 1.0260178536 -1.4655479528
| 37> H -2.3874637192 2.4172579681 1.4748196774
| 38> H -0.6252530426 2.6538263406 1.6846668118
| 39> H -0.3987607398 3.1877273281 -0.7216591368
| 40> H -2.1272339449 2.8493574047 -0.9750592207
| 41> H -1.6234286989 4.2358469892 0.0021306775
| 42> H -1.4038653633 -2.7978431917 -0.7258319989
| 43> H -1.7928070524 -3.2876043645 0.945843076
| 44> H -3.6866444652 -3.8083823328 -0.5708208711
| 45> H -4.1669138674 -2.5398015134 0.5711145946
| 46> H -3.7593534254 -2.1182991088 -1.0954025021
| 47> *
| 48>
| 49>                          ****END OF INPUT****

CARTESIAN COORDINATES (ANGSTROEM)
---------------------------------
  C      4.045248   -0.192192   -2.395447
  C      4.560851   -0.030687   -0.978803
  O      3.706257   -0.665893   -0.014721
  P      2.249001   -0.135369    0.306375
  S      2.059800    1.818875    0.228970
  O      2.163055   -0.866866    1.707032
  C      1.052063   -0.790334    2.615933
  C      1.206341    0.384228    3.563324
  S      0.953378   -1.262956   -0.952023
  C      0.172086    0.070876   -1.919629
  S     -1.634735   -0.062381   -2.049140
  P     -2.222129    0.063499   -0.008277
  S     -4.073851    0.614485    0.315441
  O     -1.128608    0.974180    0.704637
  C     -1.409630    2.356883    0.987350
  C     -1.384898    3.211189   -0.263873
  O     -1.760887   -1.308204    0.654991
  C     -2.062386   -2.614992    0.129620
  C     -3.514825   -2.781178   -0.265373
  H      3.131886    0.386941   -2.526171
  H      4.792962    0.171536   -3.093044
  H      3.837093   -1.238774   -2.603500
  H      4.652947    1.029528   -0.721143
  H      5.522213   -0.527564   -0.841753
  H      0.115782   -0.721270    2.056767
  H      1.080646   -1.738757    3.156482
  H      0.375202    0.393988    4.261246
  H      2.140180    0.301429    4.112845
  H      1.211915    1.319081    3.006813
  H      0.517105    0.005276   -2.948743
  H      0.447179    1.026018   -1.465548
  H     -2.387464    2.417258    1.474820
  H     -0.625253    2.653826    1.684667
  H     -0.398761    3.187727   -0.721659
  H     -2.127234    2.849357   -0.975059
  H     -1.623429    4.235847    0.002131
  H     -1.403865   -2.797843   -0.725832
  H     -1.792807   -3.287604    0.945843
  H     -3.686644   -3.808382   -0.570821
  H     -4.166914   -2.539802    0.571115
  H     -3.759353   -2.118299   -1.095403

 Total Charge           Charge          ....    0
 Multiplicity           Mult            ....    1
 Number of Electrons    NEL             ....  202
 Basis Dimension        Dim             ....  334

ORBITAL ENERGIES
----------------

  NO   OCC          E(Eh)            E(eV)
   0   2.0000     -88.050326     -2395.9712
   1   2.0000     -88.049642     -2395.9526
   2   2.0000     -87.998697     -2394.5663
   3   2.0000     -87.987544     -2394.2628
   4   2.0000     -76.432882     -2079.8445
   5   2.0000     -76.429001     -2079.7389
   6   2.0000     -18.793331      -511.3925
   7   2.0000     -18.793276      -511.3910
   8   2.0000     -18.791845      -511.3521
   9   2.0000     -18.791687      -511.3478
  10   2.0000      -9.962131      -271.0834
  11   2.0000      -9.955833      -270.9120
  12   2.0000      -9.955443      -270.9014
  13   2.0000      -9.948450      -270.7111
  14   2.0000      -9.946120      -270.6477
  15   2.0000      -9.890438      -269.1325
  16   2.0000      -9.883599      -268.9464
  17   2.0000      -9.879939      -268.8468
  18   2.0000      -9.877935      -268.7923
  19   2.0000      -7.695054      -209.3931
  20   2.0000      -7.694199      -209.3698
  21   2.0000      -7.643350      -207.9861
  22   2.0000      -7.632736      -207.6973
  23   2.0000      -6.430209      -174.9749
  24   2.0000      -6.426128      -174.8638
  25   2.0000      -5.723306      -155.7391
  26   2.0000      -5.722119      -155.7068
  27   2.0000      -5.719104      -155.6247
  28   2.0000      -5.718719      -155.6143
  29   2.0000      -5.712210      -155.4371
  30   2.0000      -5.711177      -155.4090
  31   2.0000      -5.672067      -154.3448
  32   2.0000      -5.664041      -154.1264
  33   2.0000      -5.663627      -154.1151
  34   2.0000      -5.661818      -154.0659
  35   2.0000      -5.653338      -153.8351
  36   2.0000      -5.652757      -153.8193
  37   2.0000      -4.652357      -126.5971
  38   2.0000      -4.652152      -126.5915
  39   2.0000      -4.650916      -126.5579
  40   2.0000      -4.648596      -126.4947
  41   2.0000      -4.648430      -126.4902
  42   2.0000      -4.646231      -126.4304
  43   2.0000      -0.991891       -26.9907
  44   2.0000      -0.988377       -26.8951
  45   2.0000      -0.946316       -25.7506
  46   2.0000      -0.945367       -25.7248
  47   2.0000      -0.764882       -20.8135
  48   2.0000      -0.723124       -19.6772
  49   2.0000      -0.711753       -19.3678
  50   2.0000      -0.686927       -18.6922
  51   2.0000      -0.682868       -18.5818
  52   2.0000      -0.679924       -18.5017
  53   2.0000      -0.659279       -17.9399
  54   2.0000      -0.643480       -17.5100
  55   2.0000      -0.603895       -16.4328
  56   2.0000      -0.595544       -16.2056
  57   2.0000      -0.574645       -15.6369
  58   2.0000      -0.568504       -15.4698
  59   2.0000      -0.566752       -15.4221
  60   2.0000      -0.502715       -13.6796
  61   2.0000      -0.492257       -13.3950
  62   2.0000      -0.472732       -12.8637
  63   2.0000      -0.463395       -12.6096
  64   2.0000      -0.456803       -12.4303
  65   2.0000      -0.450510       -12.2590
  66   2.0000      -0.441445       -12.0123
  67   2.0000      -0.436118       -11.8674
  68   2.0000      -0.426769       -11.6130
  69   2.0000      -0.422764       -11.5040
  70   2.0000      -0.418260       -11.3814
  71   2.0000      -0.404111       -10.9964
  72   2.0000      -0.401311       -10.9202
  73   2.0000      -0.394268       -10.7286
  74   2.0000      -0.388726       -10.5778
  75   2.0000      -0.376281       -10.2391
  76   2.0000      -0.365708        -9.9514
  77   2.0000      -0.358707        -9.7609
  78   2.0000      -0.352763        -9.5992
  79   2.0000      -0.349394        -9.5075
  80   2.0000      -0.348573        -9.4851
  81   2.0000      -0.343744        -9.3537
  82   2.0000      -0.340815        -9.2741
  83   2.0000      -0.335537        -9.1304
  84   2.0000      -0.332489        -9.0475
  85   2.0000      -0.320656        -8.7255
  86   2.0000      -0.316135        -8.6025
  87   2.0000      -0.303050        -8.2464
  88   2.0000      -0.299262        -8.1433
  89   2.0000      -0.294771        -8.0211
  90   2.0000      -0.283501        -7.7145
  91   2.0000      -0.274282        -7.4636
  92   2.0000      -0.271342        -7.3836
  93   2.0000      -0.267058        -7.2670
  94   2.0000      -0.258420        -7.0320
  95   2.0000      -0.238661        -6.4943
  96   2.0000      -0.224576        -6.1110
  97   2.0000      -0.216232        -5.8840
  98   2.0000      -0.212600        -5.7851
  99   2.0000      -0.206064        -5.6073
 100   2.0000      -0.200689        -5.4610
 101   0.0000      -0.047455        -1.2913
 102   0.0000      -0.035999        -0.9796
 103   0.0000      -0.030865        -0.8399
 104   0.0000      -0.006625        -0.1803
 105   0.0000       0.004750         0.1293

MULLIKEN ATOMIC CHARGES
-----------------------
   0 C :   -0.323876
   1 C :    0.001285
   2 O :   -0.357658
   3 P :    0.618922
   4 S :   -0.333352
   5 O :   -0.357562
   6 C :   -0.041471
   7 C :   -0.308346
   8 S :   -0.107384
   9 C :   -0.365166
  10 S :   -0.097208
  11 P :    0.599165
  12 S :   -0.308603
  13 O :   -0.369093
  14 C :   -0.008614
  15 C :   -0.330051
  16 O :   -0.361450
  17 C :    0.000384
  18 C :   -0.312875
  19 H :    0.119972
  20 H :    0.114811
  21 H :    0.122684
  22 H :    0.113304
  23 H :    0.108781
  24 H :    0.148211
  25 H :    0.101842
  26 H :    0.109440
  27 H :    0.112454
  28 H :    0.135053
  29 H :    0.186470
  30 H :    0.214986
  31 H :    0.115390
  32 H :    0.113167
  33 H :    0.134274
  34 H :    0.123708
  35 H :    0.110904
  36 H :    0.107436
  37 H :    0.105565
  38 H :    0.112186
  39 H :    0.129092
  40 H :    0.123222
Sum of atomic charges:   -0.0000000

LOEWDIN ATOMIC CHARGES
----------------------
   0 C :   -0.369024
   1 C :   -0.117552
   2 O :   -0.235870
   3 P :    0.575385
   4 S :   -0.293677
   5 O :   -0.229986
   6 C :   -0.122579
   7 C :   -0.362045
   8 S :    0.083271
   9 C :   -0.481558
  10 S :    0.079241
  11 P :    0.570283
  12 S :   -0.306516
  13 O :   -0.235104
  14 C :   -0.126944
  15 C :   -0.370325
  16 O :   -0.236786
  17 C :   -0.119310
  18 C :   -0.370732
  19 H :    0.118158
  20 H :    0.131612
  21 H :    0.126488
  22 H :    0.110446
  23 H :    0.120913
  24 H :    0.113912
  25 H :    0.117463
  26 H :    0.129818
  27 H :    0.124920
  28 H :    0.122067
  29 H :    0.135950
  30 H :    0.121665
  31 H :    0.108653
  32 H :    0.116597
  33 H :    0.120603
  34 H :    0.120378
  35 H :    0.131842
  36 H :    0.098967
  37 H :    0.120381
  38 H :    0.130540
  39 H :    0.129466
  40 H :    0.118991

  Mayer bond orders larger than 0.100000
B(  0-C ,  1-C ) :   1.1607 B(  0-C , 19-H ) :   0.9374 B(  0-C , 20-H ) :   0.9379
B(  0-C , 21-H ) :   0.9432 B(  1-C ,  2-O ) :   0.9207 B(  1-C , 22-H ) :   0.9168
B(  1-C , 23-H ) :   0.9340 B(  2-O ,  3-P ) :   1.1205 B(  3-P ,  4-S ) :   1.5784
B(  3-P ,  5-O ) :   1.1498 B(  3-P ,  8-S ) :   0.9504 B(  4-S ,  8-S ) :   0.1248
B(  5-O ,  6-C ) :   0.8978 B(  6-C ,  7-C ) :   1.1679 B(  6-C , 24-H ) :   0.8942
B(  6-C , 25-H ) :   0.9347 B(  7-C , 26-H ) :   0.9406 B(  7-C , 27-H ) :   0.9464
B(  7-C , 28-H ) :   0.9315 B(  8-S ,  9-C ) :   1.0030 B(  9-C , 10-S ) :   0.9936
B(  9-C , 29-H ) :   0.9021 B(  9-C , 30-H ) :   0.8430 B( 10-S , 11-P ) :   0.9477
B( 11-P , 12-S ) :   1.6557 B( 11-P , 13-O ) :   1.0910 B( 11-P , 16-O ) :   1.0860
B( 13-O , 14-C ) :   0.8979 B( 14-C , 15-C ) :   1.1676 B( 14-C , 31-H ) :   0.9116
B( 14-C , 32-H ) :   0.9188 B( 15-C , 33-H ) :   0.9318 B( 15-C , 34-H ) :   0.9347
B( 15-C , 35-H ) :   0.9382 B( 16-O , 17-C ) :   0.9121 B( 17-C , 18-C ) :   1.1666
B( 17-C , 36-H ) :   0.9130 B( 17-C , 37-H ) :   0.9340 B( 18-C , 38-H ) :   0.9345
B( 18-C , 39-H ) :   0.9406 B( 18-C , 40-H ) :   0.9342

Dispersion correction           -0.069062708
FINAL SINGLE POINT ENERGY     -2929.520407790362

DIPOLE MOMENT
-------------

Method             : SCF
Type of density    : Electron Density
Multiplicity       :   1
Irrep              :   0
Energy             : -2929.6396037344256911 Eh
Relativity type    :
Basis              : AO
                                X                 Y                 Z
Electronic contribution:     -4.584592370      -1.716046212      -2.906077457
Nuclear contribution   :      5.589627611       1.129847755       2.649516574
                        -----------------------------------------
Total Dipole Moment    :      1.005035241      -0.586198457      -0.256560883
                        -----------------------------------------
Magnitude (a.u.)       :      1.191447839
Magnitude (Debye)      :      3.028419734

Rotational constants in cm-1:             0.011876             0.005608             0.005399
Rotational constants in MHz :           356.023648           168.123604           161.853029

                             ****ORCA TERMINATED NORMALLY****
TOTAL RUN TIME: 0 days 0 hours 0 minutes 22 seconds 522 msec
