                         Program Version 6.0.0  -   RELEASE  -
|  1> ! pbe def2-sv(p) def2/J RI DEFGRID1 loosescf d4 GCP(DFT/SV(P)) printgap
|  2> %output
|  3>     printlevel normal
|  4> end
|  5> * xyz 0 1
|  6> C 5.0010162287 -1.4413165711 -0.2371674737
|  7> C 3.9024216263 -1.7863387516 0.7457696737
|  8> O 3.045194209 -0.6560629151 1.0041336625
|  9> P 1.9826101508 -0.1272262889 -0.0467214827
| 10> S 1.2000927918 -1.5410666942 -1.1598136316
| 11> O 2.7745618432 1.0176331171 -0.8076542738
| 12> C 2.4743604654 1.5199557326 -2.1243031504
| 13> C 3.3133134925 0.8128903071 -3.1708832316
| 14> S 0.8358972822 0.9968929147 1.3344456465
| 15> C -0.0286528386 -0.3670358772 2.1558320579
| 16> S -1.3338549917 -1.1629550076 1.1566816967
| 17> P -2.0926322027 0.4863064257 0.0339904775
| 18> S -1.0677288866 1.226802368 -1.4660116453
| 19> O -2.4517491921 1.6142702033 1.0742369795
| 20> C -3.5848845026 1.6055259623 1.9823235446
| 21> C -3.2355600367 0.9816648798 3.3183362729
| 22> O -3.5163272995 -0.0721415483 -0.3995808655
| 23> C -3.7136913069 -0.821901844 -1.6119992061
| 24> C -2.9992072887 -2.1571098244 -1.5829534203
| 25> H 4.5695979283 -1.2371835387 -1.2154470613
| 26> H 5.5419928734 -0.560858548 0.0995334179
| 27> H 5.6863498122 -2.2789512388 -0.3204693159
| 28> H 4.3030103137 -2.0412607114 1.7278626038
| 29> H 3.2872199689 -2.6082370756 0.3648929366
| 30> H 1.408069555 1.3989547045 -2.332641085
| 31> H 2.7115755171 2.5840686122 -2.072010125
| 32> H 3.0439996615 -0.2406025357 -3.2160447709
| 33> H 3.1219885768 1.2643908732 -4.1389432957
| 34> H 4.3692996482 0.905117718 -2.9313916679
| 35> H -0.4748886635 0.0603635396 3.0506722659
| 36> H 0.6783715708 -1.1542648552 2.4113784646
| 37> H -3.826973301 2.6639499492 2.0916629064
| 38> H -4.4138807578 1.0829503807 1.5033195155
| 39> H -4.0785582002 1.107843334 3.9908604879
| 40> H -3.0327182477 -0.0806961137 3.206410427
| 41> H -2.3670625726 1.4767078112 3.7454466207
| 42> H -4.7963224987 -0.9439729138 -1.6665824842
| 43> H -3.3620759238 -0.2162665866 -2.4532542191
| 44> H -3.268125566 -2.7138656357 -0.6886501884
| 45> H -3.2727284447 -2.7305828206 -2.462670481
| 46> H -1.9190612932 -2.0067325492 -1.5896466514
| 47> *
| 48>
| 49>                          ****END OF INPUT****

CARTESIAN COORDINATES (ANGSTROEM)
---------------------------------
  C      5.001016   -1.441317   -0.237167
  C      3.902422   -1.786339    0.745770
  O      3.045194   -0.656063    1.004134
  P      1.982610   -0.127226   -0.046721
  S      1.200093   -1.541067   -1.159814
  O      2.774562    1.017633   -0.807654
  C      2.474360    1.519956   -2.124303
  C      3.313313    0.812890   -3.170883
  S      0.835897    0.996893    1.334446
  C     -0.028653   -0.367036    2.155832
  S     -1.333855   -1.162955    1.156682
  P     -2.092632    0.486306    0.033990
  S     -1.067729    1.226802   -1.466012
  O     -2.451749    1.614270    1.074237
  C     -3.584885    1.605526    1.982324
  C     -3.235560    0.981665    3.318336
  O     -3.516327   -0.072142   -0.399581
  C     -3.713691   -0.821902   -1.611999
  C     -2.999207   -2.157110   -1.582953
  H      4.569598   -1.237184   -1.215447
  H      5.541993   -0.560859    0.099533
  H      5.686350   -2.278951   -0.320469
  H      4.303010   -2.041261    1.727863
  H      3.287220   -2.608237    0.364893
  H      1.408070    1.398955   -2.332641
  H      2.711576    2.584069   -2.072010
  H      3.044000   -0.240603   -3.216045
  H      3.121989    1.264391   -4.138943
  H      4.369300    0.905118   -2.931392
  H     -0.474889    0.060364    3.050672
  H      0.678372   -1.154265    2.411378
  H     -3.826973    2.663950    2.091663
  H     -4.413881    1.082950    1.503320
  H     -4.078558    1.107843    3.990860
  H     -3.032718   -0.080696    3.206410
  H     -2.367063    1.476708    3.745447
  H     -4.796322   -0.943973   -1.666582
  H     -3.362076   -0.216267   -2.453254
  H     -3.268126   -2.713866   -0.688650
  H     -3.272728   -2.730583   -2.462670
  H     -1.919061   -2.006733   -1.589647

 Total Charge           Charge          ....    0
 Multiplicity           Mult            ....    1
 Number of Electrons    NEL             ....  202
 Basis Dimension        Dim             ....  334

ORBITAL ENERGIES
----------------

  NO   OCC          E(Eh)            E(eV)
   0   2.0000     -88.036298     -2395.5895
   1   2.0000     -88.035264     -2395.5613
   2   2.0000     -87.979972     -2394.0567
   3   2.0000     -87.972804     -2393.8617
   4   2.0000     -76.422569     -2079.5638
   5   2.0000     -76.421025     -2079.5218
   6   2.0000     -18.789411      -511.2859
   7   2.0000     -18.787423      -511.2318
   8   2.0000     -18.785814      -511.1880
   9   2.0000     -18.783477      -511.1244
  10   2.0000      -9.957522      -270.9579
  11   2.0000      -9.956246      -270.9232
  12   2.0000      -9.948660      -270.7168
  13   2.0000      -9.946619      -270.6613
  14   2.0000      -9.943825      -270.5852
  15   2.0000      -9.890705      -269.1398
  16   2.0000      -9.881539      -268.8904
  17   2.0000      -9.878331      -268.8031
  18   2.0000      -9.876678      -268.7581
  19   2.0000      -7.681429      -209.0223
  20   2.0000      -7.679818      -208.9785
  21   2.0000      -7.624676      -207.4780
  22   2.0000      -7.617824      -207.2915
  23   2.0000      -6.419395      -174.6806
  24   2.0000      -6.418136      -174.6464
  25   2.0000      -5.709472      -155.3626
  26   2.0000      -5.707850      -155.3185
  27   2.0000      -5.706147      -155.2722
  28   2.0000      -5.704412      -155.2249
  29   2.0000      -5.697926      -155.0485
  30   2.0000      -5.696617      -155.0128
  31   2.0000      -5.653530      -153.8404
  32   2.0000      -5.646988      -153.6624
  33   2.0000      -5.645354      -153.6179
  34   2.0000      -5.644870      -153.6047
  35   2.0000      -5.638277      -153.4253
  36   2.0000      -5.637892      -153.4148
  37   2.0000      -4.642764      -126.3360
  38   2.0000      -4.641055      -126.2895
  39   2.0000      -4.640639      -126.2782
  40   2.0000      -4.639927      -126.2588
  41   2.0000      -4.639336      -126.2428
  42   2.0000      -4.638703      -126.2255
  43   2.0000      -0.984330       -26.7850
  44   2.0000      -0.979119       -26.6432
  45   2.0000      -0.941370       -25.6160
  46   2.0000      -0.939122       -25.5548
  47   2.0000      -0.758674       -20.6446
  48   2.0000      -0.716552       -19.4984
  49   2.0000      -0.707269       -19.2458
  50   2.0000      -0.687499       -18.7078
  51   2.0000      -0.681506       -18.5447
  52   2.0000      -0.666106       -18.1257
  53   2.0000      -0.648566       -17.6484
  54   2.0000      -0.632841       -17.2205
  55   2.0000      -0.594739       -16.1837
  56   2.0000      -0.584140       -15.8953
  57   2.0000      -0.579241       -15.7619
  58   2.0000      -0.563851       -15.3432
  59   2.0000      -0.560171       -15.2430
  60   2.0000      -0.498616       -13.5680
  61   2.0000      -0.492813       -13.4101
  62   2.0000      -0.471106       -12.8195
  63   2.0000      -0.469007       -12.7623
  64   2.0000      -0.452460       -12.3121
  65   2.0000      -0.444653       -12.0996
  66   2.0000      -0.433746       -11.8028
  67   2.0000      -0.428549       -11.6614
  68   2.0000      -0.425376       -11.5751
  69   2.0000      -0.416783       -11.3413
  70   2.0000      -0.400797       -10.9062
  71   2.0000      -0.396268       -10.7830
  72   2.0000      -0.391061       -10.6413
  73   2.0000      -0.383338       -10.4311
  74   2.0000      -0.373528       -10.1642
  75   2.0000      -0.373154       -10.1540
  76   2.0000      -0.363853        -9.9009
  77   2.0000      -0.358754        -9.7622
  78   2.0000      -0.353555        -9.6207
  79   2.0000      -0.350102        -9.5268
  80   2.0000      -0.347324        -9.4512
  81   2.0000      -0.342927        -9.3315
  82   2.0000      -0.335726        -9.1356
  83   2.0000      -0.332618        -9.0510
  84   2.0000      -0.326585        -8.8868
  85   2.0000      -0.320582        -8.7235
  86   2.0000      -0.308573        -8.3967
  87   2.0000      -0.300517        -8.1775
  88   2.0000      -0.290700        -7.9104
  89   2.0000      -0.285402        -7.7662
  90   2.0000      -0.276042        -7.5115
  91   2.0000      -0.271095        -7.3769
  92   2.0000      -0.263412        -7.1678
  93   2.0000      -0.256844        -6.9891
  94   2.0000      -0.254774        -6.9327
  95   2.0000      -0.241586        -6.5739
  96   2.0000      -0.220047        -5.9878
  97   2.0000      -0.206730        -5.6254
  98   2.0000      -0.186878        -5.0852
  99   2.0000      -0.180864        -4.9216
 100   2.0000      -0.175139        -4.7658
 101   0.0000      -0.049050        -1.3347
 102   0.0000      -0.026794        -0.7291
 103   0.0000      -0.008577        -0.2334
 104   0.0000       0.006969         0.1896
 105   0.0000       0.020412         0.5554

MULLIKEN ATOMIC CHARGES
-----------------------
   0 C :   -0.315357
   1 C :   -0.005275
   2 O :   -0.372903
   3 P :    0.625916
   4 S :   -0.311486
   5 O :   -0.379224
   6 C :   -0.018414
   7 C :   -0.302891
   8 S :   -0.081360
   9 C :   -0.324391
  10 S :   -0.116970
  11 P :    0.634237
  12 S :   -0.322202
  13 O :   -0.365689
  14 C :   -0.005621
  15 C :   -0.322566
  16 O :   -0.387014
  17 C :    0.003133
  18 C :   -0.342623
  19 H :    0.130135
  20 H :    0.117319
  21 H :    0.109814
  22 H :    0.100479
  23 H :    0.107127
  24 H :    0.136304
  25 H :    0.103713
  26 H :    0.129857
  27 H :    0.109158
  28 H :    0.113056
  29 H :    0.181494
  30 H :    0.179456
  31 H :    0.111732
  32 H :    0.115414
  33 H :    0.112735
  34 H :    0.128188
  35 H :    0.124680
  36 H :    0.100690
  37 H :    0.112575
  38 H :    0.117384
  39 H :    0.113745
  40 H :    0.155643
Sum of atomic charges:   -0.0000000

LOEWDIN ATOMIC CHARGES
----------------------
   0 C :   -0.364241
   1 C :   -0.121653
   2 O :   -0.247008
   3 P :    0.570647
   4 S :   -0.307786
   5 O :   -0.244443
   6 C :   -0.115147
   7 C :   -0.363089
   8 S :    0.100433
   9 C :   -0.470891
  10 S :    0.068184
  11 P :    0.569928
  12 S :   -0.309009
  13 O :   -0.241650
  14 C :   -0.108680
  15 C :   -0.367186
  16 O :   -0.248948
  17 C :   -0.118016
  18 C :   -0.375833
  19 H :    0.124924
  20 H :    0.126713
  21 H :    0.129544
  22 H :    0.116000
  23 H :    0.107050
  24 H :    0.109096
  25 H :    0.118271
  26 H :    0.123728
  27 H :    0.129759
  28 H :    0.122279
  29 H :    0.128735
  30 H :    0.132561
  31 H :    0.122474
  32 H :    0.115481
  33 H :    0.131876
  34 H :    0.120207
  35 H :    0.125131
  36 H :    0.116426
  37 H :    0.112078
  38 H :    0.122235
  39 H :    0.132239
  40 H :    0.127579

  Mayer bond orders larger than 0.100000
B(  0-C ,  1-C ) :   1.1652 B(  0-C , 19-H ) :   0.9335 B(  0-C , 20-H ) :   0.9466
B(  0-C , 21-H ) :   0.9387 B(  1-C ,  2-O ) :   0.9120 B(  1-C , 22-H ) :   0.9344
B(  1-C , 23-H ) :   0.9097 B(  2-O ,  3-P ) :   1.1037 B(  3-P ,  4-S ) :   1.6222
B(  3-P ,  5-O ) :   1.1259 B(  3-P ,  8-S ) :   0.9379 B(  4-S ,  8-S ) :   0.1171
B(  5-O ,  6-C ) :   0.8929 B(  6-C ,  7-C ) :   1.1700 B(  6-C , 24-H ) :   0.9046
B(  6-C , 25-H ) :   0.9358 B(  7-C , 26-H ) :   0.9312 B(  7-C , 27-H ) :   0.9385
B(  7-C , 28-H ) :   0.9428 B(  8-S ,  9-C ) :   1.0258 B(  9-C , 10-S ) :   0.9791
B(  9-C , 29-H ) :   0.8998 B(  9-C , 30-H ) :   0.9030 B( 10-S , 11-P ) :   0.9618
B( 10-S , 12-S ) :   0.1161 B( 11-P , 12-S ) :   1.6246 B( 11-P , 13-O ) :   1.1204
B( 11-P , 16-O ) :   1.0780 B( 13-O , 14-C ) :   0.9017 B( 14-C , 15-C ) :   1.1689
B( 14-C , 31-H ) :   0.9355 B( 14-C , 32-H ) :   0.9184 B( 15-C , 33-H ) :   0.9353
B( 15-C , 34-H ) :   0.9297 B( 15-C , 35-H ) :   0.9383 B( 16-O , 17-C ) :   0.9039
B( 17-C , 18-C ) :   1.1665 B( 17-C , 36-H ) :   0.9331 B( 17-C , 37-H ) :   0.9145
B( 18-C , 38-H ) :   0.9417 B( 18-C , 39-H ) :   0.9366 B( 18-C , 40-H ) :   0.9253

Dispersion correction           -0.068407895
FINAL SINGLE POINT ENERGY     -2929.507412198564

DIPOLE MOMENT
-------------

Method             : SCF
Type of density    : Electron Density
Multiplicity       :   1
Irrep              :   0
Energy             : -2929.6231282377520984 Eh
Relativity type    :
Basis              : AO
                                X                 Y                 Z
Electronic contribution:     -4.071416021       5.862010339       3.460343923
Nuclear contribution   :      3.774080048      -6.160260994      -2.688499119
                        -----------------------------------------
Total Dipole Moment    :     -0.297335973      -0.298250655       0.771844804
                        -----------------------------------------
Magnitude (a.u.)       :      0.879264770
Magnitude (Debye)      :      2.234913434

Rotational constants in cm-1:             0.012754             0.005396             0.004942
Rotational constants in MHz :           382.354640           161.769063           148.162044

                             ****ORCA TERMINATED NORMALLY****
TOTAL RUN TIME: 0 days 0 hours 0 minutes 21 seconds 180 msec
