                         Program Version 6.0.1  -  RELEASE   -
|  1> ! pbe def2-sv(p) def2/J RI DEFGRID1 loosescf d4 GCP(DFT/SV(P)) printgap
|  2> %output
|  3>     printlevel normal
|  4> end
|  5> * xyz 0 1
|  6> C 3.1178784873 -3.1425771898 1.3020040057
|  7> C 2.9428000936 -1.636893342 1.3765016751
|  8> O 2.6007094783 -1.1478221125 0.0648252154
|  9> C 1.6014579404 -0.3222171642 -0.082267606
| 10> O 0.952180776 0.1716559549 0.8279067733
| 11> C 1.3507474395 0.0291943984 -1.5316213234
| 12> C 0.227704428 1.051786917 -1.616985907
| 13> H 0.2381460212 1.5503833565 -2.5902891145
| 14> C 0.3487021847 2.1169515819 -0.5339594893
| 15> O -0.5884516569 2.5492829025 0.0980869906
| 16> O 1.5807777668 2.5734123608 -0.4551256157
| 17> C 1.8475799206 3.5981671995 0.5241801401
| 18> C 3.2287611394 4.1604812951 0.253586191
| 19> S -1.449214844 0.3384427025 -1.5586655742
| 20> P -1.5961227293 -0.9567719111 0.1204751365
| 21> S -0.4458961975 -2.5385270052 0.1998932037
| 22> O -1.6924038836 -0.178394996 1.4897534536
| 23> C -2.6543883416 0.8596125998 1.7594395564
| 24> O -3.1360853788 -1.3606133004 -0.0766821166
| 25> C -3.5529032895 -2.2255912859 -1.1383747217
| 26> H 3.4137699803 -3.517626601 2.2758727957
| 27> H 2.1797390889 -3.6083278978 1.0084627646
| 28> H 3.8793573831 -3.3908731302 0.5694844536
| 29> H 3.8734056435 -1.1402605128 1.662839502
| 30> H 2.1460860567 -1.3575326547 2.0722541356
| 31> H 1.1066038868 -0.8801673107 -2.0839362745
| 32> H 2.2721658418 0.443380655 -1.9439421538
| 33> H 1.0689486473 4.3628890317 0.4424086518
| 34> H 1.7778854027 3.137849158 1.515201529
| 35> H 3.9742287721 3.375119322 0.3324789339
| 36> H 3.2688206628 4.5856781824 -0.7446831574
| 37> H 3.4460618908 4.9344071327 0.9820213906
| 38> H -3.6367374456 0.5667530109 1.3946794071
| 39> H -2.3255640313 1.7847853239 1.2867262764
| 40> H -2.6566998829 0.9641164355 2.841249315
| 41> H -2.8699069128 -3.0728913852 -1.2192621723
| 42> H -3.5763958785 -1.6732560446 -2.0768063027
| 43> H -4.5486054983 -2.5655673828 -0.8650114918
| 44> *
| 45>
| 46>                          ****END OF INPUT****

CARTESIAN COORDINATES (ANGSTROEM)
---------------------------------
  C      3.117878   -3.142577    1.302004
  C      2.942800   -1.636893    1.376502
  O      2.600709   -1.147822    0.064825
  C      1.601458   -0.322217   -0.082268
  O      0.952181    0.171656    0.827907
  C      1.350747    0.029194   -1.531621
  C      0.227704    1.051787   -1.616986
  H      0.238146    1.550383   -2.590289
  C      0.348702    2.116952   -0.533959
  O     -0.588452    2.549283    0.098087
  O      1.580778    2.573412   -0.455126
  C      1.847580    3.598167    0.524180
  C      3.228761    4.160481    0.253586
  S     -1.449215    0.338443   -1.558666
  P     -1.596123   -0.956772    0.120475
  S     -0.445896   -2.538527    0.199893
  O     -1.692404   -0.178395    1.489753
  C     -2.654388    0.859613    1.759440
  O     -3.136085   -1.360613   -0.076682
  C     -3.552903   -2.225591   -1.138375
  H      3.413770   -3.517627    2.275873
  H      2.179739   -3.608328    1.008463
  H      3.879357   -3.390873    0.569484
  H      3.873406   -1.140261    1.662840
  H      2.146086   -1.357533    2.072254
  H      1.106604   -0.880167   -2.083936
  H      2.272166    0.443381   -1.943942
  H      1.068949    4.362889    0.442409
  H      1.777885    3.137849    1.515202
  H      3.974229    3.375119    0.332479
  H      3.268821    4.585678   -0.744683
  H      3.446062    4.934407    0.982021
  H     -3.636737    0.566753    1.394679
  H     -2.325564    1.784785    1.286726
  H     -2.656700    0.964116    2.841249
  H     -2.869907   -3.072891   -1.219262
  H     -3.576396   -1.673256   -2.076806
  H     -4.548605   -2.565567   -0.865011

 Total Charge           Charge          ....    0
 Multiplicity           Mult            ....    1
 Number of Electrons    NEL             ....  174
 Basis Dimension        Dim             ....  316

ORBITAL ENERGIES
----------------

  NO   OCC          E(Eh)            E(eV)
   0   2.0000     -88.032247     -2395.4792
   1   2.0000     -87.972047     -2393.8411
   2   2.0000     -76.418595     -2079.4557
   3   2.0000     -18.804017      -511.6833
   4   2.0000     -18.803907      -511.6803
   5   2.0000     -18.784476      -511.1516
   6   2.0000     -18.778889      -510.9996
   7   2.0000     -18.739231      -509.9204
   8   2.0000     -18.734476      -509.7910
   9   2.0000     -10.014199      -272.5002
  10   2.0000     -10.013043      -272.4687
  11   2.0000      -9.948928      -270.7241
  12   2.0000      -9.948495      -270.7123
  13   2.0000      -9.942783      -270.5569
  14   2.0000      -9.937860      -270.4229
  15   2.0000      -9.926667      -270.1183
  16   2.0000      -9.911536      -269.7066
  17   2.0000      -9.891735      -269.1678
  18   2.0000      -9.879588      -268.8373
  19   2.0000      -7.677069      -208.9037
  20   2.0000      -7.617441      -207.2811
  21   2.0000      -6.415170      -174.5657
  22   2.0000      -5.705219      -155.2469
  23   2.0000      -5.701505      -155.1458
  24   2.0000      -5.693836      -154.9372
  25   2.0000      -5.646477      -153.6484
  26   2.0000      -5.637755      -153.4111
  27   2.0000      -5.637628      -153.4077
  28   2.0000      -4.638214      -126.2122
  29   2.0000      -4.637107      -126.1821
  30   2.0000      -4.635282      -126.1324
  31   2.0000      -1.015307       -27.6279
  32   2.0000      -1.009381       -27.4667
  33   2.0000      -0.975544       -26.5459
  34   2.0000      -0.930800       -25.3283
  35   2.0000      -0.917764       -24.9736
  36   2.0000      -0.913922       -24.8691
  37   2.0000      -0.761620       -20.7247
  38   2.0000      -0.710288       -19.3279
  39   2.0000      -0.707656       -19.2563
  40   2.0000      -0.686930       -18.6923
  41   2.0000      -0.654030       -17.7971
  42   2.0000      -0.627879       -17.0855
  43   2.0000      -0.619526       -16.8581
  44   2.0000      -0.606639       -16.5075
  45   2.0000      -0.586000       -15.9459
  46   2.0000      -0.560060       -15.2400
  47   2.0000      -0.514873       -14.0104
  48   2.0000      -0.504051       -13.7159
  49   2.0000      -0.498506       -13.5650
  50   2.0000      -0.482581       -13.1317
  51   2.0000      -0.463804       -12.6207
  52   2.0000      -0.449820       -12.2402
  53   2.0000      -0.445674       -12.1274
  54   2.0000      -0.442442       -12.0395
  55   2.0000      -0.423852       -11.5336
  56   2.0000      -0.421394       -11.4667
  57   2.0000      -0.413563       -11.2536
  58   2.0000      -0.410531       -11.1711
  59   2.0000      -0.407567       -11.0904
  60   2.0000      -0.397788       -10.8244
  61   2.0000      -0.395499       -10.7621
  62   2.0000      -0.388501       -10.5717
  63   2.0000      -0.380816       -10.3625
  64   2.0000      -0.364962        -9.9311
  65   2.0000      -0.362116        -9.8537
  66   2.0000      -0.354789        -9.6543
  67   2.0000      -0.350658        -9.5419
  68   2.0000      -0.348558        -9.4848
  69   2.0000      -0.339921        -9.2497
  70   2.0000      -0.333703        -9.0805
  71   2.0000      -0.317819        -8.6483
  72   2.0000      -0.316198        -8.6042
  73   2.0000      -0.307640        -8.3713
  74   2.0000      -0.305458        -8.3119
  75   2.0000      -0.295581        -8.0432
  76   2.0000      -0.291348        -7.9280
  77   2.0000      -0.284162        -7.7324
  78   2.0000      -0.262560        -7.1446
  79   2.0000      -0.258976        -7.0471
  80   2.0000      -0.252894        -6.8816
  81   2.0000      -0.248308        -6.7568
  82   2.0000      -0.229847        -6.2545
  83   2.0000      -0.227137        -6.1807
  84   2.0000      -0.216856        -5.9009
  85   2.0000      -0.191818        -5.2196
  86   2.0000      -0.185302        -5.0423
  87   0.0000      -0.035400        -0.9633
  88   0.0000      -0.020797        -0.5659
  89   0.0000      -0.017174        -0.4673
  90   0.0000      -0.004528        -0.1232
  91   0.0000       0.032869         0.8944

MULLIKEN ATOMIC CHARGES
-----------------------
   0 C :   -0.291099
   1 C :   -0.021680
   2 O :   -0.213688
   3 C :    0.121990
   4 O :   -0.210656
   5 C :   -0.076402
   6 C :   -0.293427
   7 H :    0.143634
   8 C :    0.213833
   9 O :   -0.184364
  10 O :   -0.247343
  11 C :   -0.025510
  12 C :   -0.274243
  13 S :   -0.100478
  14 P :    0.638132
  15 S :   -0.349916
  16 O :   -0.350109
  17 C :   -0.124443
  18 O :   -0.393570
  19 C :   -0.103457
  20 H :    0.108652
  21 H :    0.134004
  22 H :    0.108609
  23 H :    0.099283
  24 H :    0.125484
  25 H :    0.138558
  26 H :    0.122646
  27 H :    0.108459
  28 H :    0.112582
  29 H :    0.114405
  30 H :    0.113286
  31 H :    0.112857
  32 H :    0.114542
  33 H :    0.152245
  34 H :    0.119329
  35 H :    0.117645
  36 H :    0.117469
  37 H :    0.122741
Sum of atomic charges:    0.0000000

LOEWDIN ATOMIC CHARGES
----------------------
   0 C :   -0.352870
   1 C :   -0.108126
   2 O :   -0.039307
   3 C :    0.021643
   4 O :   -0.163002
   5 C :   -0.256988
   6 C :   -0.262667
   7 H :    0.150842
   8 C :    0.013767
   9 O :   -0.158826
  10 O :   -0.065052
  11 C :   -0.104364
  12 C :   -0.350861
  13 S :    0.102348
  14 P :    0.579382
  15 S :   -0.319397
  16 O :   -0.224947
  17 C :   -0.214778
  18 O :   -0.260941
  19 C :   -0.217858
  20 H :    0.129077
  21 H :    0.127964
  22 H :    0.123208
  23 H :    0.114209
  24 H :    0.125047
  25 H :    0.148103
  26 H :    0.147716
  27 H :    0.117536
  28 H :    0.120966
  29 H :    0.126102
  30 H :    0.125839
  31 H :    0.131578
  32 H :    0.110095
  33 H :    0.123360
  34 H :    0.121540
  35 H :    0.109688
  36 H :    0.108802
  37 H :    0.121170

  Mayer bond orders larger than 0.100000
B(  0-C ,  1-C ) :   1.1716 B(  0-C , 20-H ) :   0.9435 B(  0-C , 21-H ) :   0.9417
B(  0-C , 22-H ) :   0.9486 B(  1-C ,  2-O ) :   0.8957 B(  1-C , 23-H ) :   0.9353
B(  1-C , 24-H ) :   0.9081 B(  2-O ,  3-C ) :   1.2759 B(  3-C ,  4-O ) :   1.9176
B(  3-C ,  5-C ) :   1.0025 B(  5-C ,  6-C ) :   1.0371 B(  5-C , 25-H ) :   0.8851
B(  5-C , 26-H ) :   0.8755 B(  6-C ,  7-H ) :   0.8656 B(  6-C ,  8-C ) :   0.8738
B(  6-C , 13-S ) :   1.0573 B(  8-C ,  9-O ) :   2.0491 B(  8-C , 10-O ) :   1.2200
B( 10-O , 11-C ) :   0.9042 B( 11-C , 12-C ) :   1.1527 B( 11-C , 27-H ) :   0.9275
B( 11-C , 28-H ) :   0.9314 B( 12-C , 29-H ) :   0.9492 B( 12-C , 30-H ) :   0.9510
B( 12-C , 31-H ) :   0.9438 B( 13-S , 14-P ) :   0.9707 B( 13-S , 15-S ) :   0.1131
B( 14-P , 15-S ) :   1.5966 B( 14-P , 16-O ) :   1.1539 B( 14-P , 18-O ) :   1.0485
B( 16-O , 17-C ) :   0.9102 B( 17-C , 32-H ) :   0.9427 B( 17-C , 33-H ) :   0.9241
B( 17-C , 34-H ) :   0.9590 B( 18-O , 19-C ) :   0.9350 B( 19-C , 35-H ) :   0.9301
B( 19-C , 36-H ) :   0.9493 B( 19-C , 37-H ) :   0.9586

Dispersion correction           -0.054083782
FINAL SINGLE POINT ENERGY     -1979.012459211632

DIPOLE MOMENT
-------------

Method             : SCF
Type of density    : Electron Density
Multiplicity       :   1
Irrep              :   0
Energy             : -1979.1427009433632520 Eh
Relativity type    :
Basis              : AO
                                X                 Y                 Z
Electronic contribution:    -12.947994071      -4.416022080      -4.905491733
Nuclear contribution   :     13.702412822       5.177889416       4.519827536
                        -----------------------------------------
Total Dipole Moment    :      0.754418751       0.761867337      -0.385664197
                        -----------------------------------------
Magnitude (a.u.)       :      1.139441251
Magnitude (Debye)      :      2.896229493

Rotational constants in cm-1:             0.012317             0.008580             0.006230
Rotational constants in MHz :           369.264557           257.223150           186.772898

                             ****ORCA TERMINATED NORMALLY****
TOTAL RUN TIME: 0 days 0 hours 0 minutes 44 seconds 691 msec
