                         Program Version 6.0.0  -   RELEASE  -
|  1> ! pbe def2-sv(p) def2/J RI DEFGRID1 loosescf d4 GCP(DFT/SV(P)) printgap
|  2> %output
|  3>     printlevel normal
|  4> end
|  5> * xyz 0 1
|  6> C 2.9960401539 -2.9874346209 -0.5324388194
|  7> C 4.1790858105 -2.0634951125 -0.3416759317
|  8> O 3.9076403273 -0.7114242005 -0.7928153722
|  9> P 2.771870302 0.224356343 -0.2417435994
| 10> S 3.1398423021 2.117014915 -0.5913269077
| 11> O 2.7346165741 -0.1818606171 1.2967896218
| 12> C 1.9454835242 0.517148889 2.2789301294
| 13> C 0.7728681716 -0.3390028235 2.7155881438
| 14> S 0.9620541749 -0.4900872739 -1.1426981252
| 15> C 0.1372069565 1.0901538807 -1.4183176979
| 16> S -0.8307281767 1.6528092622 0.00541746
| 17> P -2.4329318311 0.3021316474 -0.3071739035
| 18> S -3.0291467764 0.0429440661 -2.1506155852
| 19> O -3.5983139899 0.8698848699 0.5985369279
| 20> C -3.4387920194 1.4071687699 1.933900797
| 21> C -3.3332159535 0.3114385723 2.9745709112
| 22> O -1.8405526409 -1.0076122771 0.394237841
| 23> C -2.1512748062 -2.3362721148 -0.0602673098
| 24> C -3.5407421917 -2.7484999451 0.3807478721
| 25> H 2.166073109 -2.6694732937 0.0956918164
| 26> H 2.6699807048 -2.9806726855 -1.5695461448
| 27> H 3.2847249588 -3.9962851623 -0.254205564
| 28> H 5.0287125715 -2.3624046693 -0.9572264134
| 29> H 4.4759081392 -2.0168075973 0.7075309381
| 30> H 2.6269493969 0.7063405471 3.1108523137
| 31> H 1.6125709227 1.4745860104 1.8647426748
| 32> H 0.1041473599 -0.5259308194 1.8787308101
| 33> H 1.129696882 -1.2898109791 3.101201831
| 34> H 0.2282709917 0.183874155 3.4952950983
| 35> H -0.529276928 0.9628000663 -2.2720501634
| 36> H 0.8900713225 1.8573146867 -1.6091852565
| 37> H -2.5566685499 2.0531279439 1.9463145022
| 38> H -4.3372462138 2.0102343419 2.0760855218
| 39> H -3.290807006 0.7651750165 3.959844517
| 40> H -4.2017451873 -0.3396162608 2.9196575294
| 41> H -2.4347138129 -0.2781814094 2.8144830313
| 42> H -2.0656077598 -2.3633380143 -1.1508665858
| 43> H -1.3773072636 -2.9625871118 0.3846744794
| 44> H -4.2755570521 -2.0680548557 -0.0495596723
| 45> H -3.7465729914 -3.7558127205 0.0331315224
| 46> H -3.6207525251 -2.7167271627 1.4638353416
| 47> *
| 48>
| 49>                          ****END OF INPUT****

CARTESIAN COORDINATES (ANGSTROEM)
---------------------------------
  C      2.996040   -2.987435   -0.532439
  C      4.179086   -2.063495   -0.341676
  O      3.907640   -0.711424   -0.792815
  P      2.771870    0.224356   -0.241744
  S      3.139842    2.117015   -0.591327
  O      2.734617   -0.181861    1.296790
  C      1.945484    0.517149    2.278930
  C      0.772868   -0.339003    2.715588
  S      0.962054   -0.490087   -1.142698
  C      0.137207    1.090154   -1.418318
  S     -0.830728    1.652809    0.005417
  P     -2.432932    0.302132   -0.307174
  S     -3.029147    0.042944   -2.150616
  O     -3.598314    0.869885    0.598537
  C     -3.438792    1.407169    1.933901
  C     -3.333216    0.311439    2.974571
  O     -1.840553   -1.007612    0.394238
  C     -2.151275   -2.336272   -0.060267
  C     -3.540742   -2.748500    0.380748
  H      2.166073   -2.669473    0.095692
  H      2.669981   -2.980673   -1.569546
  H      3.284725   -3.996285   -0.254206
  H      5.028713   -2.362405   -0.957226
  H      4.475908   -2.016808    0.707531
  H      2.626949    0.706341    3.110852
  H      1.612571    1.474586    1.864743
  H      0.104147   -0.525931    1.878731
  H      1.129697   -1.289811    3.101202
  H      0.228271    0.183874    3.495295
  H     -0.529277    0.962800   -2.272050
  H      0.890071    1.857315   -1.609185
  H     -2.556669    2.053128    1.946315
  H     -4.337246    2.010234    2.076086
  H     -3.290807    0.765175    3.959845
  H     -4.201745   -0.339616    2.919658
  H     -2.434714   -0.278181    2.814483
  H     -2.065608   -2.363338   -1.150867
  H     -1.377307   -2.962587    0.384674
  H     -4.275557   -2.068055   -0.049560
  H     -3.746573   -3.755813    0.033132
  H     -3.620753   -2.716727    1.463835

 Total Charge           Charge          ....    0
 Multiplicity           Mult            ....    1
 Number of Electrons    NEL             ....  202
 Basis Dimension        Dim             ....  334

ORBITAL ENERGIES
----------------

  NO   OCC          E(Eh)            E(eV)
   0   2.0000     -88.045187     -2395.8313
   1   2.0000     -88.041618     -2395.7342
   2   2.0000     -87.989441     -2394.3144
   3   2.0000     -87.986132     -2394.2244
   4   2.0000     -76.430050     -2079.7674
   5   2.0000     -76.428444     -2079.7237
   6   2.0000     -18.800286      -511.5818
   7   2.0000     -18.796212      -511.4709
   8   2.0000     -18.795583      -511.4538
   9   2.0000     -18.794050      -511.4121
  10   2.0000      -9.967572      -271.2314
  11   2.0000      -9.962276      -271.0873
  12   2.0000      -9.954167      -270.8667
  13   2.0000      -9.954042      -270.8633
  14   2.0000      -9.949765      -270.7469
  15   2.0000      -9.897314      -269.3196
  16   2.0000      -9.895741      -269.2768
  17   2.0000      -9.888590      -269.0822
  18   2.0000      -9.884811      -268.9794
  19   2.0000      -7.690116      -209.2587
  20   2.0000      -7.686193      -209.1519
  21   2.0000      -7.634642      -207.7492
  22   2.0000      -7.631336      -207.6592
  23   2.0000      -6.427925      -174.9127
  24   2.0000      -6.425870      -174.8568
  25   2.0000      -5.717790      -155.5890
  26   2.0000      -5.714842      -155.5088
  27   2.0000      -5.714094      -155.4884
  28   2.0000      -5.710676      -155.3954
  29   2.0000      -5.707096      -155.2980
  30   2.0000      -5.703280      -155.1941
  31   2.0000      -5.663692      -154.1169
  32   2.0000      -5.660326      -154.0253
  33   2.0000      -5.655429      -153.8920
  34   2.0000      -5.654444      -153.8652
  35   2.0000      -5.651833      -153.7942
  36   2.0000      -5.651506      -153.7853
  37   2.0000      -4.650824      -126.5554
  38   2.0000      -4.649424      -126.5173
  39   2.0000      -4.648836      -126.5012
  40   2.0000      -4.648304      -126.4868
  41   2.0000      -4.647384      -126.4618
  42   2.0000      -4.646208      -126.4297
  43   2.0000      -0.991405       -26.9775
  44   2.0000      -0.990385       -26.9498
  45   2.0000      -0.952309       -25.9137
  46   2.0000      -0.946617       -25.7588
  47   2.0000      -0.764621       -20.8064
  48   2.0000      -0.726804       -19.7773
  49   2.0000      -0.716879       -19.5073
  50   2.0000      -0.698126       -18.9970
  51   2.0000      -0.694429       -18.8964
  52   2.0000      -0.678319       -18.4580
  53   2.0000      -0.653706       -17.7882
  54   2.0000      -0.638918       -17.3858
  55   2.0000      -0.602614       -16.3979
  56   2.0000      -0.597537       -16.2598
  57   2.0000      -0.582600       -15.8534
  58   2.0000      -0.579696       -15.7743
  59   2.0000      -0.561408       -15.2767
  60   2.0000      -0.507031       -13.7970
  61   2.0000      -0.500119       -13.6089
  62   2.0000      -0.484895       -13.1947
  63   2.0000      -0.478747       -13.0274
  64   2.0000      -0.461242       -12.5510
  65   2.0000      -0.453433       -12.3385
  66   2.0000      -0.448185       -12.1957
  67   2.0000      -0.439428       -11.9575
  68   2.0000      -0.430277       -11.7084
  69   2.0000      -0.426675       -11.6104
  70   2.0000      -0.414912       -11.2903
  71   2.0000      -0.401520       -10.9259
  72   2.0000      -0.393896       -10.7184
  73   2.0000      -0.390317       -10.6211
  74   2.0000      -0.385690       -10.4952
  75   2.0000      -0.378666       -10.3040
  76   2.0000      -0.371531       -10.1099
  77   2.0000      -0.363912        -9.9026
  78   2.0000      -0.360550        -9.8111
  79   2.0000      -0.356074        -9.6893
  80   2.0000      -0.353665        -9.6237
  81   2.0000      -0.352315        -9.5870
  82   2.0000      -0.347335        -9.4515
  83   2.0000      -0.346409        -9.4263
  84   2.0000      -0.336206        -9.1486
  85   2.0000      -0.324499        -8.8301
  86   2.0000      -0.316738        -8.6189
  87   2.0000      -0.313295        -8.5252
  88   2.0000      -0.301728        -8.2104
  89   2.0000      -0.295435        -8.0392
  90   2.0000      -0.285603        -7.7717
  91   2.0000      -0.280308        -7.6276
  92   2.0000      -0.279162        -7.5964
  93   2.0000      -0.271595        -7.3905
  94   2.0000      -0.256836        -6.9889
  95   2.0000      -0.233739        -6.3604
  96   2.0000      -0.220453        -5.9988
  97   2.0000      -0.212559        -5.7840
  98   2.0000      -0.204057        -5.5527
  99   2.0000      -0.202405        -5.5077
 100   2.0000      -0.200777        -5.4634
 101   0.0000      -0.045621        -1.2414
 102   0.0000      -0.028143        -0.7658
 103   0.0000      -0.011505        -0.3131
 104   0.0000       0.000577         0.0157
 105   0.0000       0.006219         0.1692

MULLIKEN ATOMIC CHARGES
-----------------------
   0 C :   -0.344533
   1 C :    0.009623
   2 O :   -0.361898
   3 P :    0.608763
   4 S :   -0.306662
   5 O :   -0.385457
   6 C :    0.002800
   7 C :   -0.340593
   8 S :   -0.112668
   9 C :   -0.346074
  10 S :   -0.114829
  11 P :    0.623164
  12 S :   -0.308909
  13 O :   -0.365379
  14 C :   -0.028502
  15 C :   -0.323437
  16 O :   -0.377476
  17 C :   -0.005994
  18 C :   -0.310680
  19 H :    0.133887
  20 H :    0.133984
  21 H :    0.119436
  22 H :    0.114300
  23 H :    0.112477
  24 H :    0.105476
  25 H :    0.103784
  26 H :    0.164143
  27 H :    0.106344
  28 H :    0.106223
  29 H :    0.193270
  30 H :    0.198377
  31 H :    0.123781
  32 H :    0.118824
  33 H :    0.114651
  34 H :    0.125541
  35 H :    0.141756
  36 H :    0.114364
  37 H :    0.102574
  38 H :    0.128031
  39 H :    0.113950
  40 H :    0.113569
Sum of atomic charges:   -0.0000000

LOEWDIN ATOMIC CHARGES
----------------------
   0 C :   -0.374685
   1 C :   -0.106184
   2 O :   -0.235257
   3 P :    0.572048
   4 S :   -0.301808
   5 O :   -0.251044
   6 C :   -0.115681
   7 C :   -0.371854
   8 S :    0.075499
   9 C :   -0.490142
  10 S :    0.081194
  11 P :    0.573097
  12 S :   -0.302453
  13 O :   -0.240141
  14 C :   -0.112534
  15 C :   -0.365502
  16 O :   -0.246534
  17 C :   -0.123183
  18 C :   -0.363745
  19 H :    0.118623
  20 H :    0.129783
  21 H :    0.134680
  22 H :    0.124576
  23 H :    0.116343
  24 H :    0.118275
  25 H :    0.102666
  26 H :    0.121249
  27 H :    0.121644
  28 H :    0.126188
  29 H :    0.129429
  30 H :    0.128378
  31 H :    0.107602
  32 H :    0.125865
  33 H :    0.132075
  34 H :    0.129169
  35 H :    0.127272
  36 H :    0.109321
  37 H :    0.115874
  38 H :    0.125863
  39 H :    0.131638
  40 H :    0.122395

  Mayer bond orders larger than 0.100000
B(  0-C ,  1-C ) :   1.1702 B(  0-C , 19-H ) :   0.9306 B(  0-C , 20-H ) :   0.9399
B(  0-C , 21-H ) :   0.9346 B(  1-C ,  2-O ) :   0.8963 B(  1-C , 22-H ) :   0.9336
B(  1-C , 23-H ) :   0.9279 B(  2-O ,  3-P ) :   1.1501 B(  3-P ,  4-S ) :   1.6484
B(  3-P ,  5-O ) :   1.0698 B(  3-P ,  8-S ) :   0.9355 B(  4-S ,  8-S ) :   0.1161
B(  4-S , 30-H ) :   0.1106 B(  5-O ,  6-C ) :   0.9030 B(  6-C ,  7-C ) :   1.1624
B(  6-C , 24-H ) :   0.9348 B(  6-C , 25-H ) :   0.9017 B(  7-C , 26-H ) :   0.9148
B(  7-C , 27-H ) :   0.9438 B(  7-C , 28-H ) :   0.9376 B(  8-S ,  9-C ) :   1.0188
B(  9-C , 10-S ) :   1.0005 B(  9-C , 29-H ) :   0.8660 B(  9-C , 30-H ) :   0.8532
B( 10-S , 11-P ) :   0.9613 B( 11-P , 12-S ) :   1.6291 B( 11-P , 13-O ) :   1.1305
B( 11-P , 16-O ) :   1.0674 B( 13-O , 14-C ) :   0.9046 B( 14-C , 15-C ) :   1.1616
B( 14-C , 31-H ) :   0.9157 B( 14-C , 32-H ) :   0.9343 B( 15-C , 33-H ) :   0.9366
B( 15-C , 34-H ) :   0.9414 B( 15-C , 35-H ) :   0.9328 B( 16-O , 17-C ) :   0.8990
B( 17-C , 18-C ) :   1.1632 B( 17-C , 36-H ) :   0.9096 B( 17-C , 37-H ) :   0.9322
B( 18-C , 38-H ) :   0.9362 B( 18-C , 39-H ) :   0.9399 B( 18-C , 40-H ) :   0.9451

Dispersion correction           -0.065921737
FINAL SINGLE POINT ENERGY     -2929.516979462006

DIPOLE MOMENT
-------------

Method             : SCF
Type of density    : Electron Density
Multiplicity       :   1
Irrep              :   0
Energy             : -2929.6381223389248589 Eh
Relativity type    :
Basis              : AO
                                X                 Y                 Z
Electronic contribution:      7.751956858      18.059831602     -19.277277194
Nuclear contribution   :     -8.003000439     -19.638251822      21.254785774
                        -----------------------------------------
Total Dipole Moment    :     -0.251043580      -1.578420219       1.977508579
                        -----------------------------------------
Magnitude (a.u.)       :      2.542631206
Magnitude (Debye)      :      6.462854914

Rotational constants in cm-1:             0.011967             0.004925             0.004799
Rotational constants in MHz :           358.767054           147.662755           143.874883

                             ****ORCA TERMINATED NORMALLY****
TOTAL RUN TIME: 0 days 0 hours 0 minutes 21 seconds 934 msec
