                         Program Version 6.0.0  -   RELEASE  -
|  1> ! pbe def2-sv(p) def2/J RI DEFGRID1 loosescf d4 GCP(DFT/SV(P)) printgap
|  2> %output
|  3>     printlevel normal
|  4> end
|  5> * xyz 0 1
|  6> C 5.6554008408 1.0732686259 -0.6974520438
|  7> C 4.3207030503 0.4959659529 -1.1225143185
|  8> O 3.4488611771 0.5088560328 0.0268698724
|  9> P 1.885601621 0.2928966942 -0.1306672627
| 10> S 0.9794749292 1.4912899313 -1.3926163555
| 11> O 1.3677795345 0.4953447157 1.3417184988
| 12> C 2.0658921581 0.1099838721 2.5569210006
| 13> C 2.1546157418 -1.3922207236 2.7247078704
| 14> S 1.7510137736 -1.7649062635 -0.6613646802
| 15> C -0.0157178315 -1.8139305268 -1.0183078643
| 16> S -1.0369559794 -1.483395968 0.4528784167
| 17> P -2.2093649767 0.149854497 -0.2458288413
| 18> S -2.3470435157 0.3643748505 -2.1835340661
| 19> O -1.6825707746 1.4289621211 0.5119408318
| 20> C -1.6987636035 1.5270578176 1.9593899333
| 21> C -0.9455359749 2.7835027926 2.3407428193
| 22> O -3.5992981582 -0.0810645936 0.5009159426
| 23> C -4.6646953444 -0.8695248621 -0.0596661835
| 24> C -4.2998531918 -2.3341521609 -0.1881745282
| 25> H 6.3306677951 1.0675423785 -1.5466204494
| 26> H 5.5271495872 2.0943816788 -0.3493558897
| 27> H 6.0803649594 0.476294034 0.1039918498
| 28> H 4.4207402276 -0.538319776 -1.461855357
| 29> H 3.8569915885 1.0900880835 -1.9167915761
| 30> H 3.0565694608 0.5658928274 2.5394610642
| 31> H 1.4590775768 0.5651279139 3.3415630088
| 32> H 1.1723924975 -1.8456837361 2.609656274
| 33> H 2.827397508 -1.8221963239 1.986534722
| 34> H 2.5342118578 -1.6111095334 3.7178954265
| 35> H -0.2257384948 -2.8237643012 -1.3613269209
| 36> H -0.2660124127 -1.075510811 -1.7855589557
| 37> H -2.7406346165 1.5644579097 2.2834396699
| 38> H -1.2233240289 0.6299653857 2.3672761143
| 39> H -1.4296085422 3.653392389 1.9058388816
| 40> H -0.9311211885 2.8787648907 3.4216422556
| 41> H 0.0728112478 2.7322890356 1.9636839352
| 42> H -5.4893258089 -0.7187883839 0.6385168915
| 43> H -4.9218173078 -0.4513085588 -1.0375884635
| 44> H -5.1806552189 -2.8946639715 -0.4842675013
| 45> H -3.5321351434 -2.4587642521 -0.9503317278
| 46> H -3.9267700407 -2.7177957506 0.7579672503
| 47> *
| 48>
| 49>                          ****END OF INPUT****

CARTESIAN COORDINATES (ANGSTROEM)
---------------------------------
  C      5.655401    1.073269   -0.697452
  C      4.320703    0.495966   -1.122514
  O      3.448861    0.508856    0.026870
  P      1.885602    0.292897   -0.130667
  S      0.979475    1.491290   -1.392616
  O      1.367780    0.495345    1.341718
  C      2.065892    0.109984    2.556921
  C      2.154616   -1.392221    2.724708
  S      1.751014   -1.764906   -0.661365
  C     -0.015718   -1.813931   -1.018308
  S     -1.036956   -1.483396    0.452878
  P     -2.209365    0.149854   -0.245829
  S     -2.347044    0.364375   -2.183534
  O     -1.682571    1.428962    0.511941
  C     -1.698764    1.527058    1.959390
  C     -0.945536    2.783503    2.340743
  O     -3.599298   -0.081065    0.500916
  C     -4.664695   -0.869525   -0.059666
  C     -4.299853   -2.334152   -0.188175
  H      6.330668    1.067542   -1.546620
  H      5.527150    2.094382   -0.349356
  H      6.080365    0.476294    0.103992
  H      4.420740   -0.538320   -1.461855
  H      3.856992    1.090088   -1.916792
  H      3.056569    0.565893    2.539461
  H      1.459078    0.565128    3.341563
  H      1.172392   -1.845684    2.609656
  H      2.827398   -1.822196    1.986535
  H      2.534212   -1.611110    3.717895
  H     -0.225738   -2.823764   -1.361327
  H     -0.266012   -1.075511   -1.785559
  H     -2.740635    1.564458    2.283440
  H     -1.223324    0.629965    2.367276
  H     -1.429609    3.653392    1.905839
  H     -0.931121    2.878765    3.421642
  H      0.072811    2.732289    1.963684
  H     -5.489326   -0.718788    0.638517
  H     -4.921817   -0.451309   -1.037588
  H     -5.180655   -2.894664   -0.484268
  H     -3.532135   -2.458764   -0.950332
  H     -3.926770   -2.717796    0.757967

 Total Charge           Charge          ....    0
 Multiplicity           Mult            ....    1
 Number of Electrons    NEL             ....  202
 Basis Dimension        Dim             ....  334

ORBITAL ENERGIES
----------------

  NO   OCC          E(Eh)            E(eV)
   0   2.0000     -88.040621     -2395.7071
   1   2.0000     -88.038208     -2395.6414
   2   2.0000     -87.979317     -2394.0389
   3   2.0000     -87.975387     -2393.9320
   4   2.0000     -76.423327     -2079.5845
   5   2.0000     -76.419254     -2079.4736
   6   2.0000     -18.796521      -511.4793
   7   2.0000     -18.793219      -511.3895
   8   2.0000     -18.786282      -511.2007
   9   2.0000     -18.780708      -511.0490
  10   2.0000      -9.960238      -271.0318
  11   2.0000      -9.956010      -270.9168
  12   2.0000      -9.951577      -270.7962
  13   2.0000      -9.948413      -270.7101
  14   2.0000      -9.947345      -270.6810
  15   2.0000      -9.891544      -269.1626
  16   2.0000      -9.888718      -269.0857
  17   2.0000      -9.880499      -268.8621
  18   2.0000      -9.878515      -268.8081
  19   2.0000      -7.685792      -209.1410
  20   2.0000      -7.682808      -209.0598
  21   2.0000      -7.624507      -207.4734
  22   2.0000      -7.620350      -207.3603
  23   2.0000      -6.420684      -174.7157
  24   2.0000      -6.416656      -174.6061
  25   2.0000      -5.713621      -155.4755
  26   2.0000      -5.710644      -155.3945
  27   2.0000      -5.710218      -155.3829
  28   2.0000      -5.707314      -155.3039
  29   2.0000      -5.702898      -155.1837
  30   2.0000      -5.699837      -155.1004
  31   2.0000      -5.653583      -153.8418
  32   2.0000      -5.649385      -153.7276
  33   2.0000      -5.645000      -153.6082
  34   2.0000      -5.644597      -153.5973
  35   2.0000      -5.641145      -153.5034
  36   2.0000      -5.640246      -153.4789
  37   2.0000      -4.643781      -126.3637
  38   2.0000      -4.642417      -126.3266
  39   2.0000      -4.640630      -126.2780
  40   2.0000      -4.639439      -126.2456
  41   2.0000      -4.638244      -126.2130
  42   2.0000      -4.637135      -126.1829
  43   2.0000      -0.990998       -26.9664
  44   2.0000      -0.980405       -26.6782
  45   2.0000      -0.947126       -25.7726
  46   2.0000      -0.935087       -25.4450
  47   2.0000      -0.759781       -20.6747
  48   2.0000      -0.719900       -19.5895
  49   2.0000      -0.709033       -19.2938
  50   2.0000      -0.695683       -18.9305
  51   2.0000      -0.683578       -18.6011
  52   2.0000      -0.674365       -18.3504
  53   2.0000      -0.645473       -17.5642
  54   2.0000      -0.629057       -17.1175
  55   2.0000      -0.592633       -16.1264
  56   2.0000      -0.586446       -15.9580
  57   2.0000      -0.576370       -15.6838
  58   2.0000      -0.563610       -15.3366
  59   2.0000      -0.560381       -15.2487
  60   2.0000      -0.508894       -13.8477
  61   2.0000      -0.498505       -13.5650
  62   2.0000      -0.477731       -12.9997
  63   2.0000      -0.467560       -12.7230
  64   2.0000      -0.450208       -12.2508
  65   2.0000      -0.448229       -12.1969
  66   2.0000      -0.444836       -12.1046
  67   2.0000      -0.434808       -11.8317
  68   2.0000      -0.431785       -11.7495
  69   2.0000      -0.418365       -11.3843
  70   2.0000      -0.408346       -11.1117
  71   2.0000      -0.400315       -10.8931
  72   2.0000      -0.385450       -10.4886
  73   2.0000      -0.383530       -10.4364
  74   2.0000      -0.379118       -10.3163
  75   2.0000      -0.367679       -10.0051
  76   2.0000      -0.358630        -9.7588
  77   2.0000      -0.355541        -9.6748
  78   2.0000      -0.352088        -9.5808
  79   2.0000      -0.350685        -9.5426
  80   2.0000      -0.346962        -9.4413
  81   2.0000      -0.344881        -9.3847
  82   2.0000      -0.339856        -9.2479
  83   2.0000      -0.334392        -9.0993
  84   2.0000      -0.330098        -8.9824
  85   2.0000      -0.320496        -8.7212
  86   2.0000      -0.309152        -8.4125
  87   2.0000      -0.304749        -8.2926
  88   2.0000      -0.297296        -8.0898
  89   2.0000      -0.294473        -8.0130
  90   2.0000      -0.289586        -7.8800
  91   2.0000      -0.275516        -7.4972
  92   2.0000      -0.261417        -7.1135
  93   2.0000      -0.260099        -7.0777
  94   2.0000      -0.254102        -6.9145
  95   2.0000      -0.232027        -6.3138
  96   2.0000      -0.216342        -5.8870
  97   2.0000      -0.210786        -5.7358
  98   2.0000      -0.197444        -5.3727
  99   2.0000      -0.186441        -5.0733
 100   2.0000      -0.180624        -4.9150
 101   0.0000      -0.042137        -1.1466
 102   0.0000      -0.030880        -0.8403
 103   0.0000      -0.004105        -0.1117
 104   0.0000       0.012481         0.3396
 105   0.0000       0.020764         0.5650

MULLIKEN ATOMIC CHARGES
-----------------------
   0 C :   -0.281474
   1 C :   -0.011971
   2 O :   -0.389730
   3 P :    0.598669
   4 S :   -0.280582
   5 O :   -0.356098
   6 C :   -0.002628
   7 C :   -0.315752
   8 S :   -0.119797
   9 C :   -0.347764
  10 S :   -0.125133
  11 P :    0.615598
  12 S :   -0.288496
  13 O :   -0.348467
  14 C :   -0.015879
  15 C :   -0.285829
  16 O :   -0.391840
  17 C :    0.002498
  18 C :   -0.310220
  19 H :    0.114853
  20 H :    0.122222
  21 H :    0.113187
  22 H :    0.106138
  23 H :    0.109060
  24 H :    0.113333
  25 H :    0.106856
  26 H :    0.128672
  27 H :    0.123652
  28 H :    0.111256
  29 H :    0.179151
  30 H :    0.210098
  31 H :    0.105728
  32 H :    0.099846
  33 H :    0.119439
  34 H :    0.099791
  35 H :    0.134083
  36 H :    0.101079
  37 H :    0.111012
  38 H :    0.110499
  39 H :    0.119795
  40 H :    0.115145
Sum of atomic charges:   -0.0000000

LOEWDIN ATOMIC CHARGES
----------------------
   0 C :   -0.350638
   1 C :   -0.119648
   2 O :   -0.252220
   3 P :    0.556780
   4 S :   -0.290045
   5 O :   -0.231115
   6 C :   -0.107957
   7 C :   -0.370219
   8 S :    0.063817
   9 C :   -0.479902
  10 S :    0.064913
  11 P :    0.573956
  12 S :   -0.291323
  13 O :   -0.228933
  14 C :   -0.114801
  15 C :   -0.353349
  16 O :   -0.253035
  17 C :   -0.116784
  18 C :   -0.370828
  19 H :    0.132443
  20 H :    0.129702
  21 H :    0.125070
  22 H :    0.109288
  23 H :    0.111936
  24 H :    0.115348
  25 H :    0.117831
  26 H :    0.124363
  27 H :    0.118281
  28 H :    0.130002
  29 H :    0.135223
  30 H :    0.125700
  31 H :    0.111298
  32 H :    0.101274
  33 H :    0.129790
  34 H :    0.124653
  35 H :    0.130064
  36 H :    0.116760
  37 H :    0.111751
  38 H :    0.129395
  39 H :    0.119209
  40 H :    0.121950

  Mayer bond orders larger than 0.100000
B(  0-C ,  1-C ) :   1.1597 B(  0-C , 19-H ) :   0.9416 B(  0-C , 20-H ) :   0.9507
B(  0-C , 21-H ) :   0.9511 B(  1-C ,  2-O ) :   0.9015 B(  1-C , 22-H ) :   0.9287
B(  1-C , 23-H ) :   0.9094 B(  2-O ,  3-P ) :   1.0719 B(  3-P ,  4-S ) :   1.6868
B(  3-P ,  5-O ) :   1.1201 B(  3-P ,  8-S ) :   0.9335 B(  4-S ,  8-S ) :   0.1094
B(  5-O ,  6-C ) :   0.8932 B(  6-C ,  7-C ) :   1.1745 B(  6-C , 24-H ) :   0.9267
B(  6-C , 25-H ) :   0.9301 B(  7-C , 26-H ) :   0.9396 B(  7-C , 27-H ) :   0.9382
B(  7-C , 28-H ) :   0.9354 B(  8-S ,  9-C ) :   1.0053 B(  9-C , 10-S ) :   0.9986
B(  9-C , 29-H ) :   0.9108 B(  9-C , 30-H ) :   0.8439 B( 10-S , 11-P ) :   0.9443
B( 10-S , 12-S ) :   0.1131 B( 11-P , 12-S ) :   1.6339 B( 11-P , 13-O ) :   1.1403
B( 11-P , 16-O ) :   1.0693 B( 13-O , 14-C ) :   0.8976 B( 14-C , 15-C ) :   1.1675
B( 14-C , 31-H ) :   0.9263 B( 14-C , 32-H ) :   0.9128 B( 15-C , 33-H ) :   0.9486
B( 15-C , 34-H ) :   0.9401 B( 15-C , 35-H ) :   0.9393 B( 16-O , 17-C ) :   0.9142
B( 17-C , 18-C ) :   1.1666 B( 17-C , 36-H ) :   0.9346 B( 17-C , 37-H ) :   0.9177
B( 18-C , 38-H ) :   0.9373 B( 18-C , 39-H ) :   0.9367 B( 18-C , 40-H ) :   0.9428

Dispersion correction           -0.067444585
FINAL SINGLE POINT ENERGY     -2929.513838009795

DIPOLE MOMENT
-------------

Method             : SCF
Type of density    : Electron Density
Multiplicity       :   1
Irrep              :   0
Energy             : -2929.6326647438127111 Eh
Relativity type    :
Basis              : AO
                                X                 Y                 Z
Electronic contribution:     -6.561187790       0.970640234     -14.503383524
Nuclear contribution   :      7.310610198      -1.858781132      16.189759038
                        -----------------------------------------
Total Dipole Moment    :      0.749422408      -0.888140898       1.686375515
                        -----------------------------------------
Magnitude (a.u.)       :      2.047996723
Magnitude (Debye)      :      5.205593974

Rotational constants in cm-1:             0.012922             0.005214             0.005056
Rotational constants in MHz :           387.399087           156.301477           151.560241

                             ****ORCA TERMINATED NORMALLY****
TOTAL RUN TIME: 0 days 0 hours 0 minutes 21 seconds 539 msec
