                         Program Version 6.0.0  -   RELEASE  -
|  1> ! r2scan-3c def2/J RI DEFGRID2 scfconv6 printgap
|  2> %output
|  3>     printlevel normal
|  4> end
|  5> * xyz 0 1
|  6> C 0.6248112572 1.6897033031 -0.0696782408
|  7> C 1.4192661436 0.388063901 -0.2650201952
|  8> H 1.650928115 0.2371391338 -1.3280193782
|  9> C 0.5632765873 -0.7984269319 0.1937050909
| 10> H 0.432981988 -0.7276982643 1.2849560004
| 11> C -0.8130820049 -0.7517823021 -0.4927354579
| 12> H -0.6714819008 -0.9199474404 -1.5656180204
| 13> C -1.4721228426 0.6227103924 -0.2864422677
| 14> H -2.3636164314 0.7001031376 -0.9255406963
| 15> O -0.6357623917 1.6622269538 -0.7213987628
| 16> O -1.8052144216 0.7260289666 1.0632798571
| 17> O -1.6413129268 -1.7873487474 -0.0338282579
| 18> O 1.2325952872 -1.9908810971 -0.1381963694
| 19> O 2.5913405228 0.4077887436 0.5129822137
| 20> H 1.149515105 2.5391454328 -0.5063796366
| 21> H 0.4942306663 1.8502298821 1.0076285367
| 22> H -2.3423230381 1.5171696054 1.2198420946
| 23> H -1.9651893496 -1.550818179 0.8504502136
| 24> H 0.6195420781 -2.7301271713 -0.0028526455
| 25> H 3.2575166883 0.9684235459 0.0917023386
| 26> *
| 27>
| 28>                          ****END OF INPUT****

CARTESIAN COORDINATES (ANGSTROEM)
---------------------------------
  C      0.624811    1.689703   -0.069678
  C      1.419266    0.388064   -0.265020
  H      1.650928    0.237139   -1.328019
  C      0.563277   -0.798427    0.193705
  H      0.432982   -0.727698    1.284956
  C     -0.813082   -0.751782   -0.492735
  H     -0.671482   -0.919947   -1.565618
  C     -1.472123    0.622710   -0.286442
  H     -2.363616    0.700103   -0.925541
  O     -0.635762    1.662227   -0.721399
  O     -1.805214    0.726029    1.063280
  O     -1.641313   -1.787349   -0.033828
  O      1.232595   -1.990881   -0.138196
  O      2.591341    0.407789    0.512982
  H      1.149515    2.539145   -0.506380
  H      0.494231    1.850230    1.007629
  H     -2.342323    1.517170    1.219842
  H     -1.965189   -1.550818    0.850450
  H      0.619542   -2.730127   -0.002853
  H      3.257517    0.968424    0.091702

 Total Charge           Charge          ....    0
 Multiplicity           Mult            ....    1
 Number of Electrons    NEL             ....   80
 Basis Dimension        Dim             ....  265

ORBITAL ENERGIES
----------------

  NO   OCC          E(Eh)            E(eV)
   0   2.0000     -18.980994      -516.4991
   1   2.0000     -18.971825      -516.2496
   2   2.0000     -18.963042      -516.0106
   3   2.0000     -18.957135      -515.8499
   4   2.0000     -18.945031      -515.5205
   5   2.0000     -10.142303      -275.9861
   6   2.0000     -10.091245      -274.5967
   7   2.0000     -10.089117      -274.5388
   8   2.0000     -10.083213      -274.3782
   9   2.0000     -10.082752      -274.3656
  10   2.0000      -1.055983       -28.7347
  11   2.0000      -1.007703       -27.4210
  12   2.0000      -1.001053       -27.2400
  13   2.0000      -0.985811       -26.8253
  14   2.0000      -0.976558       -26.5735
  15   2.0000      -0.745506       -20.2862
  16   2.0000      -0.725174       -19.7330
  17   2.0000      -0.624080       -16.9821
  18   2.0000      -0.610506       -16.6127
  19   2.0000      -0.565703       -15.3936
  20   2.0000      -0.512873       -13.9560
  21   2.0000      -0.505540       -13.7564
  22   2.0000      -0.502420       -13.6715
  23   2.0000      -0.475914       -12.9503
  24   2.0000      -0.459057       -12.4916
  25   2.0000      -0.429895       -11.6981
  26   2.0000      -0.420803       -11.4506
  27   2.0000      -0.395387       -10.7590
  28   2.0000      -0.381889       -10.3917
  29   2.0000      -0.374322       -10.1858
  30   2.0000      -0.362964        -9.8767
  31   2.0000      -0.341460        -9.2916
  32   2.0000      -0.321648        -8.7525
  33   2.0000      -0.306311        -8.3351
  34   2.0000      -0.288159        -7.8412
  35   2.0000      -0.282909        -7.6983
  36   2.0000      -0.270330        -7.3561
  37   2.0000      -0.255491        -6.9523
  38   2.0000      -0.240595        -6.5469
  39   2.0000      -0.220037        -5.9875
  40   0.0000       0.038082         1.0363
  41   0.0000       0.040336         1.0976
  42   0.0000       0.059617         1.6223
  43   0.0000       0.096873         2.6361
  44   0.0000       0.101551         2.7633

MULLIKEN ATOMIC CHARGES
-----------------------
   0 C :   -0.247123
   1 C :   -0.036878
   2 H :    0.147044
   3 C :    0.017965
   4 H :    0.167156
   5 C :   -0.106316
   6 H :    0.172882
   7 C :    0.067158
   8 H :    0.134444
   9 O :   -0.201501
  10 O :   -0.423283
  11 O :   -0.425206
  12 O :   -0.415819
  13 O :   -0.395142
  14 H :    0.142698
  15 H :    0.172427
  16 H :    0.307374
  17 H :    0.317434
  18 H :    0.308452
  19 H :    0.296236
Sum of atomic charges:    0.0000000

LOEWDIN ATOMIC CHARGES
----------------------
   0 C :    0.040739
   1 C :    0.107895
   2 H :    0.179287
   3 C :    0.108055
   4 H :    0.187463
   5 C :    0.113988
   6 H :    0.201903
   7 C :    0.282729
   8 H :    0.197189
   9 O :   -0.677928
  10 O :   -0.530555
  11 O :   -0.562392
  12 O :   -0.564374
  13 O :   -0.568855
  14 H :    0.184398
  15 H :    0.183095
  16 H :    0.281075
  17 H :    0.283305
  18 H :    0.280516
  19 H :    0.272466

  Mayer bond orders larger than 0.100000
B(  0-C ,  1-C ) :   0.8381 B(  0-C ,  9-O ) :   0.9224 B(  0-C , 14-H ) :   0.9417
B(  0-C , 15-H ) :   0.9924 B(  1-C ,  2-H ) :   0.9820 B(  1-C ,  3-C ) :   0.9608
B(  1-C , 13-O ) :   0.9423 B(  3-C ,  4-H ) :   0.9608 B(  3-C ,  5-C ) :   0.8729
B(  3-C , 12-O ) :   0.9334 B(  5-C ,  6-H ) :   0.9649 B(  5-C ,  7-C ) :   0.9293
B(  5-C , 11-O ) :   0.9859 B(  7-C ,  8-H ) :   0.9485 B(  7-C ,  9-O ) :   0.9747
B(  7-C , 10-O ) :   0.9934 B( 10-O , 16-H ) :   0.8903 B( 11-O , 17-H ) :   0.8677
B( 12-O , 18-H ) :   0.8740 B( 13-O , 19-H ) :   0.8979

Dispersion correction           -0.006264628
FINAL SINGLE POINT ENERGY      -572.561816617207

DIPOLE MOMENT
-------------

Method             : SCF
Type of density    : Electron Density
Multiplicity       :   1
Irrep              :   0
Energy             :  -572.5718893168701698 Eh
Relativity type    :
Basis              : AO
                                X                 Y                 Z
Electronic contribution:     -0.764810040      -0.840484867      -0.044418518
Nuclear contribution   :      0.242070684       1.752605126       0.128483712
                        -----------------------------------------
Total Dipole Moment    :     -0.522739355       0.912120259       0.084065194
                        -----------------------------------------
Magnitude (a.u.)       :      1.054650064
Magnitude (Debye)      :      2.680707423

Rotational constants in cm-1:             0.056835             0.044630             0.028998
Rotational constants in MHz :          1703.868920          1337.971837           869.342082

                             ****ORCA TERMINATED NORMALLY****
TOTAL RUN TIME: 0 days 0 hours 0 minutes 44 seconds 123 msec
