                         Program Version 6.0.0  -   RELEASE  -
|  1> ! r2scan-3c def2/J RI DEFGRID2 scfconv6 printgap
|  2> %output
|  3>     printlevel normal
|  4> end
|  5> %cpcm
|  6>     smd true
|  7>     smdsolvent "water"
|  8> end
|  9> * xyz 0 1
| 10> C 0.6248112572 1.6897033031 -0.0696782408
| 11> C 1.4192661436 0.388063901 -0.2650201952
| 12> H 1.650928115 0.2371391338 -1.3280193782
| 13> C 0.5632765873 -0.7984269319 0.1937050909
| 14> H 0.432981988 -0.7276982643 1.2849560004
| 15> C -0.8130820049 -0.7517823021 -0.4927354579
| 16> H -0.6714819008 -0.9199474404 -1.5656180204
| 17> C -1.4721228426 0.6227103924 -0.2864422677
| 18> H -2.3636164314 0.7001031376 -0.9255406963
| 19> O -0.6357623917 1.6622269538 -0.7213987628
| 20> O -1.8052144216 0.7260289666 1.0632798571
| 21> O -1.6413129268 -1.7873487474 -0.0338282579
| 22> O 1.2325952872 -1.9908810971 -0.1381963694
| 23> O 2.5913405228 0.4077887436 0.5129822137
| 24> H 1.149515105 2.5391454328 -0.5063796366
| 25> H 0.4942306663 1.8502298821 1.0076285367
| 26> H -2.3423230381 1.5171696054 1.2198420946
| 27> H -1.9651893496 -1.550818179 0.8504502136
| 28> H 0.6195420781 -2.7301271713 -0.0028526455
| 29> H 3.2575166883 0.9684235459 0.0917023386
| 30> *
| 31>
| 32>                          ****END OF INPUT****

CARTESIAN COORDINATES (ANGSTROEM)
---------------------------------
  C      0.624811    1.689703   -0.069678
  C      1.419266    0.388064   -0.265020
  H      1.650928    0.237139   -1.328019
  C      0.563277   -0.798427    0.193705
  H      0.432982   -0.727698    1.284956
  C     -0.813082   -0.751782   -0.492735
  H     -0.671482   -0.919947   -1.565618
  C     -1.472123    0.622710   -0.286442
  H     -2.363616    0.700103   -0.925541
  O     -0.635762    1.662227   -0.721399
  O     -1.805214    0.726029    1.063280
  O     -1.641313   -1.787349   -0.033828
  O      1.232595   -1.990881   -0.138196
  O      2.591341    0.407789    0.512982
  H      1.149515    2.539145   -0.506380
  H      0.494231    1.850230    1.007629
  H     -2.342323    1.517170    1.219842
  H     -1.965189   -1.550818    0.850450
  H      0.619542   -2.730127   -0.002853
  H      3.257517    0.968424    0.091702

 Total Charge           Charge          ....    0
 Multiplicity           Mult            ....    1
 Number of Electrons    NEL             ....   80
 Basis Dimension        Dim             ....  265

ORBITAL ENERGIES
----------------

  NO   OCC          E(Eh)            E(eV)
   0   2.0000     -18.971426      -516.2387
   1   2.0000     -18.967642      -516.1358
   2   2.0000     -18.962812      -516.0043
   3   2.0000     -18.960005      -515.9280
   4   2.0000     -18.956966      -515.8453
   5   2.0000     -10.133702      -275.7520
   6   2.0000     -10.087077      -274.4833
   7   2.0000     -10.086153      -274.4582
   8   2.0000     -10.083639      -274.3898
   9   2.0000     -10.075330      -274.1637
  10   2.0000      -1.049232       -28.5511
  11   2.0000      -1.010466       -27.4962
  12   2.0000      -1.001316       -27.2472
  13   2.0000      -0.984311       -26.7845
  14   2.0000      -0.978104       -26.6156
  15   2.0000      -0.744256       -20.2522
  16   2.0000      -0.718732       -19.5577
  17   2.0000      -0.621456       -16.9107
  18   2.0000      -0.605342       -16.4722
  19   2.0000      -0.559586       -15.2271
  20   2.0000      -0.508086       -13.8257
  21   2.0000      -0.503894       -13.7117
  22   2.0000      -0.499218       -13.5844
  23   2.0000      -0.471214       -12.8224
  24   2.0000      -0.457818       -12.4579
  25   2.0000      -0.428507       -11.6603
  26   2.0000      -0.417965       -11.3734
  27   2.0000      -0.393294       -10.7021
  28   2.0000      -0.379980       -10.3398
  29   2.0000      -0.376664       -10.2496
  30   2.0000      -0.359009        -9.7691
  31   2.0000      -0.344111        -9.3637
  32   2.0000      -0.325995        -8.8708
  33   2.0000      -0.311551        -8.4777
  34   2.0000      -0.282896        -7.6980
  35   2.0000      -0.279889        -7.6162
  36   2.0000      -0.271318        -7.3829
  37   2.0000      -0.260773        -7.0960
  38   2.0000      -0.245443        -6.6788
  39   2.0000      -0.223713        -6.0875
  40   0.0000       0.045992         1.2515
  41   0.0000       0.062356         1.6968
  42   0.0000       0.077262         2.1024
  43   0.0000       0.104293         2.8380
  44   0.0000       0.106937         2.9099

MULLIKEN ATOMIC CHARGES
-----------------------
   0 C :   -0.275744
   1 C :   -0.011053
   2 H :    0.171873
   3 C :    0.017960
   4 H :    0.177954
   5 C :   -0.092081
   6 H :    0.193685
   7 C :    0.063021
   8 H :    0.161561
   9 O :   -0.254884
  10 O :   -0.466454
  11 O :   -0.478951
  12 O :   -0.494045
  13 O :   -0.478991
  14 H :    0.174021
  15 H :    0.179460
  16 H :    0.355084
  17 H :    0.355956
  18 H :    0.348448
  19 H :    0.353180
Sum of atomic charges:    0.0000000

LOEWDIN ATOMIC CHARGES
----------------------
   0 C :    0.043720
   1 C :    0.109179
   2 H :    0.188196
   3 C :    0.104102
   4 H :    0.192661
   5 C :    0.115094
   6 H :    0.208528
   7 C :    0.286754
   8 H :    0.207661
   9 O :   -0.700349
  10 O :   -0.535585
  11 O :   -0.582247
  12 O :   -0.601815
  13 O :   -0.600263
  14 H :    0.196405
  15 H :    0.185666
  16 H :    0.299076
  17 H :    0.295756
  18 H :    0.294090
  19 H :    0.293370

  Mayer bond orders larger than 0.100000
B(  0-C ,  1-C ) :   0.8486 B(  0-C ,  9-O ) :   0.9137 B(  0-C , 14-H ) :   0.9369
B(  0-C , 15-H ) :   0.9873 B(  1-C ,  2-H ) :   0.9707 B(  1-C ,  3-C ) :   0.9470
B(  1-C , 13-O ) :   0.9221 B(  3-C ,  4-H ) :   0.9489 B(  3-C ,  5-C ) :   0.8884
B(  3-C , 12-O ) :   0.9132 B(  5-C ,  6-H ) :   0.9631 B(  5-C ,  7-C ) :   0.9275
B(  5-C , 11-O ) :   0.9682 B(  7-C ,  8-H ) :   0.9476 B(  7-C ,  9-O ) :   0.9603
B(  7-C , 10-O ) :   0.9924 B( 10-O , 16-H ) :   0.8655 B( 11-O , 17-H ) :   0.8484
B( 12-O , 18-H ) :   0.8564 B( 13-O , 19-H ) :   0.8694

Dispersion correction           -0.006264628
FINAL SINGLE POINT ENERGY      -572.591544221274

DIPOLE MOMENT
-------------

Method             : SCF
Type of density    : Electron Density
Multiplicity       :   1
Irrep              :   0
Energy             :  -572.6016169209374311 Eh
Relativity type    :
Basis              : AO
                                X                 Y                 Z
Electronic contribution:     -1.001306837      -0.477392409      -0.072178733
Nuclear contribution   :      0.242070684       1.752605126       0.128483712
                        -----------------------------------------
Total Dipole Moment    :     -0.759236152       1.275212717       0.056304979
                        -----------------------------------------
Magnitude (a.u.)       :      1.485185934
Magnitude (Debye)      :      3.775042637

Rotational constants in cm-1:             0.056835             0.044630             0.028998
Rotational constants in MHz :          1703.868920          1337.971837           869.342082

                             ****ORCA TERMINATED NORMALLY****
TOTAL RUN TIME: 0 days 0 hours 0 minutes 50 seconds 211 msec
