                         Program Version 6.0.0  -   RELEASE  -
|  1> ! pbe def2-sv(p) def2/J RI DEFGRID1 loosescf d4 GCP(DFT/SV(P)) printgap
|  2> %output
|  3>     printlevel normal
|  4> end
|  5> * xyz 0 1
|  6> C 4.9182298838 1.6080925412 0.0110613768
|  7> C 4.3888602831 0.6618198834 -1.0455511722
|  8> O 3.6145762389 -0.4190914638 -0.490850466
|  9> P 2.3679598913 -0.2496784575 0.477785788
| 10> S 2.6875096441 0.1573992098 2.3621317639
| 11> O 1.667415228 -1.6578695563 0.3640515366
| 12> C 1.4365453233 -2.3595387856 -0.8795053255
| 13> C 2.5080732103 -3.4054622038 -1.1027728856
| 14> S 1.1539669207 1.1630212934 -0.5683411426
| 15> C 0.0919622678 1.5832134326 0.8317734597
| 16> S -0.9901574073 0.2272153153 1.3667411478
| 17> P -2.2015381887 0.0482737359 -0.3628044281
| 18> S -1.5148812178 -0.7658782543 -1.9988474733
| 19> O -2.6434040984 1.5812426685 -0.494197388
| 20> C -3.0950268945 2.1298170393 -1.7482503587
| 21> C -4.4846518983 1.6374478011 -2.0967027408
| 22> O -3.452694058 -0.7795062033 0.1462580591
| 23> C -4.2338668135 -0.4226775889 1.3125406851
| 24> C -3.9150350462 -1.3546053021 2.4642181633
| 25> H 4.0938861578 2.1209861764 0.5042811298
| 26> H 5.4795216627 1.0599268101 0.7639895314
| 27> H 5.5649253608 2.3435056414 -0.4564852689
| 28> H 5.2007852557 0.1526955894 -1.5679407693
| 29> H 3.7619990018 1.1952693604 -1.765732791
| 30> H 0.4502529802 -2.8148130855 -0.7649672864
| 31> H 1.3992646969 -1.6400723942 -1.7023613795
| 32> H 3.4806175337 -2.93105117 -1.2045349557
| 33> H 2.5377682149 -4.0898611134 -0.2593382376
| 34> H 2.2784820617 -3.9580082531 -2.0083353093
| 35> H -0.5087860003 2.4381027995 0.5339485712
| 36> H 0.7160333144 1.8116870461 1.697448166
| 37> H -3.0734083268 3.2090899003 -1.5909940794
| 38> H -2.3796707721 1.8507015467 -2.5281667356
| 39> H -4.4675939222 0.5560555011 -2.2306643021
| 40> H -5.1856849456 1.8856632194 -1.3039099819
| 41> H -4.8094151094 2.1018142969 -3.0224527615
| 42> H -4.0320649302 0.6185266205 1.5754802309
| 43> H -5.2722405161 -0.5309485994 0.9943035557
| 44> H -4.558283488 -1.1162148223 3.3052897306
| 45> H -4.0814313099 -2.3857070027 2.1647402941
| 46> H -2.8758751029 -1.2425621139 2.7681531917
| 47> *
| 48>
| 49>                          ****END OF INPUT****

CARTESIAN COORDINATES (ANGSTROEM)
---------------------------------
  C      4.918230    1.608093    0.011061
  C      4.388860    0.661820   -1.045551
  O      3.614576   -0.419091   -0.490850
  P      2.367960   -0.249678    0.477786
  S      2.687510    0.157399    2.362132
  O      1.667415   -1.657870    0.364052
  C      1.436545   -2.359539   -0.879505
  C      2.508073   -3.405462   -1.102773
  S      1.153967    1.163021   -0.568341
  C      0.091962    1.583213    0.831773
  S     -0.990157    0.227215    1.366741
  P     -2.201538    0.048274   -0.362804
  S     -1.514881   -0.765878   -1.998847
  O     -2.643404    1.581243   -0.494197
  C     -3.095027    2.129817   -1.748250
  C     -4.484652    1.637448   -2.096703
  O     -3.452694   -0.779506    0.146258
  C     -4.233867   -0.422678    1.312541
  C     -3.915035   -1.354605    2.464218
  H      4.093886    2.120986    0.504281
  H      5.479522    1.059927    0.763990
  H      5.564925    2.343506   -0.456485
  H      5.200785    0.152696   -1.567941
  H      3.761999    1.195269   -1.765733
  H      0.450253   -2.814813   -0.764967
  H      1.399265   -1.640072   -1.702361
  H      3.480618   -2.931051   -1.204535
  H      2.537768   -4.089861   -0.259338
  H      2.278482   -3.958008   -2.008335
  H     -0.508786    2.438103    0.533949
  H      0.716033    1.811687    1.697448
  H     -3.073408    3.209090   -1.590994
  H     -2.379671    1.850702   -2.528167
  H     -4.467594    0.556056   -2.230664
  H     -5.185685    1.885663   -1.303910
  H     -4.809415    2.101814   -3.022453
  H     -4.032065    0.618527    1.575480
  H     -5.272241   -0.530949    0.994304
  H     -4.558283   -1.116215    3.305290
  H     -4.081431   -2.385707    2.164740
  H     -2.875875   -1.242562    2.768153

 Total Charge           Charge          ....    0
 Multiplicity           Mult            ....    1
 Number of Electrons    NEL             ....  202
 Basis Dimension        Dim             ....  334

ORBITAL ENERGIES
----------------

  NO   OCC          E(Eh)            E(eV)
   0   2.0000     -88.042180     -2395.7495
   1   2.0000     -88.040195     -2395.6955
   2   2.0000     -87.983976     -2394.1657
   3   2.0000     -87.978932     -2394.0284
   4   2.0000     -76.426313     -2079.6657
   5   2.0000     -76.422542     -2079.5631
   6   2.0000     -18.797022      -511.4930
   7   2.0000     -18.795531      -511.4524
   8   2.0000     -18.794365      -511.4207
   9   2.0000     -18.780607      -511.0463
  10   2.0000      -9.959431      -271.0099
  11   2.0000      -9.958492      -270.9844
  12   2.0000      -9.955458      -270.9018
  13   2.0000      -9.955112      -270.8924
  14   2.0000      -9.939798      -270.4756
  15   2.0000      -9.889173      -269.0981
  16   2.0000      -9.888913      -269.0910
  17   2.0000      -9.882581      -268.9187
  18   2.0000      -9.875705      -268.7316
  19   2.0000      -7.687139      -209.1777
  20   2.0000      -7.685098      -209.1221
  21   2.0000      -7.629224      -207.6017
  22   2.0000      -7.624331      -207.4686
  23   2.0000      -6.424101      -174.8087
  24   2.0000      -6.419663      -174.6879
  25   2.0000      -5.715084      -155.5153
  26   2.0000      -5.712797      -155.4531
  27   2.0000      -5.711641      -155.4216
  28   2.0000      -5.709604      -155.3662
  29   2.0000      -5.704047      -155.2150
  30   2.0000      -5.702276      -155.1668
  31   2.0000      -5.658263      -153.9692
  32   2.0000      -5.653380      -153.8363
  33   2.0000      -5.649606      -153.7336
  34   2.0000      -5.649408      -153.7282
  35   2.0000      -5.644885      -153.6051
  36   2.0000      -5.644360      -153.5908
  37   2.0000      -4.647206      -126.4569
  38   2.0000      -4.645664      -126.4149
  39   2.0000      -4.644275      -126.3771
  40   2.0000      -4.642576      -126.3309
  41   2.0000      -4.641615      -126.3048
  42   2.0000      -4.639709      -126.2529
  43   2.0000      -0.988109       -26.8878
  44   2.0000      -0.984543       -26.7908
  45   2.0000      -0.949091       -25.8261
  46   2.0000      -0.939091       -25.5540
  47   2.0000      -0.763296       -20.7704
  48   2.0000      -0.721133       -19.6230
  49   2.0000      -0.708710       -19.2850
  50   2.0000      -0.695140       -18.9157
  51   2.0000      -0.686685       -18.6857
  52   2.0000      -0.671884       -18.2829
  53   2.0000      -0.650081       -17.6896
  54   2.0000      -0.637425       -17.3452
  55   2.0000      -0.593150       -16.1404
  56   2.0000      -0.587315       -15.9817
  57   2.0000      -0.579383       -15.7658
  58   2.0000      -0.567271       -15.4362
  59   2.0000      -0.564634       -15.3645
  60   2.0000      -0.506432       -13.7807
  61   2.0000      -0.495500       -13.4832
  62   2.0000      -0.482764       -13.1367
  63   2.0000      -0.468095       -12.7375
  64   2.0000      -0.461247       -12.5512
  65   2.0000      -0.448484       -12.2039
  66   2.0000      -0.440990       -12.0000
  67   2.0000      -0.431787       -11.7495
  68   2.0000      -0.427315       -11.6278
  69   2.0000      -0.411953       -11.2098
  70   2.0000      -0.407465       -11.0877
  71   2.0000      -0.404016       -10.9938
  72   2.0000      -0.394222       -10.7273
  73   2.0000      -0.380118       -10.3435
  74   2.0000      -0.378953       -10.3118
  75   2.0000      -0.375666       -10.2224
  76   2.0000      -0.363830        -9.9003
  77   2.0000      -0.358056        -9.7432
  78   2.0000      -0.352931        -9.6037
  79   2.0000      -0.351096        -9.5538
  80   2.0000      -0.348189        -9.4747
  81   2.0000      -0.345722        -9.4076
  82   2.0000      -0.344735        -9.3807
  83   2.0000      -0.336405        -9.1540
  84   2.0000      -0.332491        -9.0475
  85   2.0000      -0.320508        -8.7215
  86   2.0000      -0.313977        -8.5437
  87   2.0000      -0.305343        -8.3088
  88   2.0000      -0.295223        -8.0334
  89   2.0000      -0.284471        -7.7409
  90   2.0000      -0.279955        -7.6180
  91   2.0000      -0.275635        -7.5004
  92   2.0000      -0.271741        -7.3945
  93   2.0000      -0.269465        -7.3325
  94   2.0000      -0.257432        -7.0051
  95   2.0000      -0.238726        -6.4961
  96   2.0000      -0.219021        -5.9599
  97   2.0000      -0.203551        -5.5389
  98   2.0000      -0.199250        -5.4219
  99   2.0000      -0.197327        -5.3695
 100   2.0000      -0.189036        -5.1439
 101   0.0000      -0.045243        -1.2311
 102   0.0000      -0.019492        -0.5304
 103   0.0000      -0.007649        -0.2081
 104   0.0000       0.000216         0.0059
 105   0.0000       0.013980         0.3804

MULLIKEN ATOMIC CHARGES
-----------------------
   0 C :   -0.307422
   1 C :   -0.011191
   2 O :   -0.380382
   3 P :    0.607799
   4 S :   -0.318257
   5 O :   -0.346276
   6 C :   -0.014480
   7 C :   -0.284362
   8 S :   -0.103638
   9 C :   -0.351171
  10 S :   -0.082944
  11 P :    0.612837
  12 S :   -0.305357
  13 O :   -0.393110
  14 C :   -0.009761
  15 C :   -0.312854
  16 O :   -0.365765
  17 C :   -0.026748
  18 C :   -0.293394
  19 H :    0.123693
  20 H :    0.127536
  21 H :    0.110540
  22 H :    0.108806
  23 H :    0.114286
  24 H :    0.113955
  25 H :    0.105878
  26 H :    0.114588
  27 H :    0.115994
  28 H :    0.107964
  29 H :    0.185521
  30 H :    0.194316
  31 H :    0.102988
  32 H :    0.114248
  33 H :    0.131306
  34 H :    0.111906
  35 H :    0.114888
  36 H :    0.108710
  37 H :    0.110048
  38 H :    0.112240
  39 H :    0.122431
  40 H :    0.134633
Sum of atomic charges:    0.0000000

LOEWDIN ATOMIC CHARGES
----------------------
   0 C :   -0.369219
   1 C :   -0.114809
   2 O :   -0.243237
   3 P :    0.570718
   4 S :   -0.311795
   5 O :   -0.228731
   6 C :   -0.117745
   7 C :   -0.359237
   8 S :    0.066779
   9 C :   -0.481476
  10 S :    0.096381
  11 P :    0.563556
  12 S :   -0.300702
  13 O :   -0.256897
  14 C :   -0.122600
  15 C :   -0.365167
  16 O :   -0.241589
  17 C :   -0.120498
  18 C :   -0.358788
  19 H :    0.120593
  20 H :    0.130886
  21 H :    0.129721
  22 H :    0.120944
  23 H :    0.108546
  24 H :    0.118058
  25 H :    0.103803
  26 H :    0.123004
  27 H :    0.126997
  28 H :    0.128499
  29 H :    0.131987
  30 H :    0.129326
  31 H :    0.116500
  32 H :    0.110888
  33 H :    0.126624
  34 H :    0.122790
  35 H :    0.132215
  36 H :    0.108827
  37 H :    0.120230
  38 H :    0.131395
  39 H :    0.130241
  40 H :    0.122982

  Mayer bond orders larger than 0.100000
B(  0-C ,  1-C ) :   1.1667 B(  0-C , 19-H ) :   0.9321 B(  0-C , 20-H ) :   0.9429
B(  0-C , 21-H ) :   0.9349 B(  1-C ,  2-O ) :   0.9122 B(  1-C , 22-H ) :   0.9331
B(  1-C , 23-H ) :   0.9261 B(  2-O ,  3-P ) :   1.0800 B(  3-P ,  4-S ) :   1.6363
B(  3-P ,  5-O ) :   1.1510 B(  3-P ,  8-S ) :   0.9372 B(  4-S ,  8-S ) :   0.1109
B(  5-O ,  6-C ) :   0.8870 B(  6-C ,  7-C ) :   1.1560 B(  6-C , 24-H ) :   0.9291
B(  6-C , 25-H ) :   0.9171 B(  7-C , 26-H ) :   0.9435 B(  7-C , 27-H ) :   0.9468
B(  7-C , 28-H ) :   0.9416 B(  8-S ,  9-C ) :   1.0150 B(  9-C , 10-S ) :   0.9969
B(  9-C , 29-H ) :   0.8975 B(  9-C , 30-H ) :   0.8719 B( 10-S , 11-P ) :   0.9687
B( 10-S , 12-S ) :   0.1063 B( 11-P , 12-S ) :   1.6492 B( 11-P , 13-O ) :   1.0543
B( 11-P , 16-O ) :   1.1234 B( 13-O , 14-C ) :   0.9048 B( 14-C , 15-C ) :   1.1642
B( 14-C , 31-H ) :   0.9332 B( 14-C , 32-H ) :   0.9110 B( 15-C , 33-H ) :   0.9349
B( 15-C , 34-H ) :   0.9471 B( 15-C , 35-H ) :   0.9396 B( 16-O , 17-C ) :   0.8942
B( 17-C , 18-C ) :   1.1674 B( 17-C , 36-H ) :   0.9148 B( 17-C , 37-H ) :   0.9316
B( 18-C , 38-H ) :   0.9392 B( 18-C , 39-H ) :   0.9457 B( 18-C , 40-H ) :   0.9379

Dispersion correction           -0.065206740
FINAL SINGLE POINT ENERGY     -2929.517270535113

DIPOLE MOMENT
-------------

Method             : SCF
Type of density    : Electron Density
Multiplicity       :   1
Irrep              :   0
Energy             : -2929.6368578195751979 Eh
Relativity type    :
Basis              : AO
                                X                 Y                 Z
Electronic contribution:      5.249113498       0.203496819       5.144552801
Nuclear contribution   :     -6.092022208       0.733978432      -5.864600730
                        -----------------------------------------
Total Dipole Moment    :     -0.842908709       0.937475251      -0.720047929
                        -----------------------------------------
Magnitude (a.u.)       :      1.451834687
Magnitude (Debye)      :      3.690270504

Rotational constants in cm-1:             0.012675             0.004674             0.004576
Rotational constants in MHz :           379.979738           140.109785           137.190807

                             ****ORCA TERMINATED NORMALLY****
TOTAL RUN TIME: 0 days 0 hours 0 minutes 20 seconds 922 msec
