                         Program Version 6.0.1  -  RELEASE   -
|  1> ! pbe def2-sv(p) def2/J RI DEFGRID1 loosescf d4 GCP(DFT/SV(P)) printgap
|  2> %output
|  3>     printlevel normal
|  4> end
|  5> * xyz 0 1
|  6> C 3.0715319323 -3.3051417423 0.4308719411
|  7> C 2.8332587316 -1.8737024525 0.8830994104
|  8> O 2.6869232437 -0.9878458976 -0.2449764608
|  9> C 1.5267491891 -0.914779556 -0.8464062325
| 10> O 0.5404440852 -1.5544454178 -0.5180570174
| 11> C 1.52300622 0.073133619 -1.9887030018
| 12> C 0.3377796968 1.0257494681 -1.8484157154
| 13> H 0.2968058366 1.7030364436 -2.7062080852
| 14> C 0.3665969166 1.8679646288 -0.5837487948
| 15> O -0.6344382888 2.3557047749 -0.0981851237
| 16> O 1.5763403809 2.0131102154 -0.111835424
| 17> C 1.7471449082 2.7748770004 1.1026328273
| 18> C 3.232431094 2.9924129806 1.3063715256
| 19> S -1.2807425263 0.1643820545 -1.9016305244
| 20> P -1.6334683389 -0.3223115592 0.1226569546
| 21> S -0.5289883613 -0.0959682107 1.7429985778
| 22> O -2.9697703646 0.5559566902 0.1925535666
| 23> C -3.7635894137 0.6435000566 1.3779934165
| 24> O -2.3070120182 -1.7723177094 0.0569059027
| 25> C -1.6916986955 -3.0085608398 0.4162826364
| 26> H 3.2425508318 -3.9294722819 1.3014002245
| 27> H 2.202840433 -3.6802145758 -0.1051726915
| 28> H 3.9395698636 -3.3512172843 -0.2208834049
| 29> H 3.6939443371 -1.4790541599 1.4224341074
| 30> H 1.9356403459 -1.7982356825 1.5041708924
| 31> H 1.4117422587 -0.4791552531 -2.9230664376
| 32> H 2.4603628784 0.6274284465 -1.9862102769
| 33> H 1.1982130612 3.715567671 0.9993412637
| 34> H 1.2991255844 2.2007579295 1.9207142246
| 35> H 3.7405504641 2.0347778803 1.3645485236
| 36> H 3.6445524683 3.5629547215 0.479682286
| 37> H 3.3872707542 3.5369261095 2.2315271125
| 38> H -4.41849673 1.4982371946 1.2298925445
| 39> H -3.123688946 0.8025503582 2.2489538153
| 40> H -4.3419479545 -0.27157059 1.505006108
| 41> H -1.1372029088 -3.401581463 -0.4330967652
| 42> H -2.5072210273 -3.6731682354 0.6917747032
| 43> H -1.015663079 -2.8580267848 1.2590850729
| 44> *
| 45>
| 46>                          ****END OF INPUT****

CARTESIAN COORDINATES (ANGSTROEM)
---------------------------------
  C      3.071532   -3.305142    0.430872
  C      2.833259   -1.873702    0.883099
  O      2.686923   -0.987846   -0.244976
  C      1.526749   -0.914780   -0.846406
  O      0.540444   -1.554445   -0.518057
  C      1.523006    0.073134   -1.988703
  C      0.337780    1.025749   -1.848416
  H      0.296806    1.703036   -2.706208
  C      0.366597    1.867965   -0.583749
  O     -0.634438    2.355705   -0.098185
  O      1.576340    2.013110   -0.111835
  C      1.747145    2.774877    1.102633
  C      3.232431    2.992413    1.306372
  S     -1.280743    0.164382   -1.901631
  P     -1.633468   -0.322312    0.122657
  S     -0.528988   -0.095968    1.742999
  O     -2.969770    0.555957    0.192554
  C     -3.763589    0.643500    1.377993
  O     -2.307012   -1.772318    0.056906
  C     -1.691699   -3.008561    0.416283
  H      3.242551   -3.929472    1.301400
  H      2.202840   -3.680215   -0.105173
  H      3.939570   -3.351217   -0.220883
  H      3.693944   -1.479054    1.422434
  H      1.935640   -1.798236    1.504171
  H      1.411742   -0.479155   -2.923066
  H      2.460363    0.627428   -1.986210
  H      1.198213    3.715568    0.999341
  H      1.299126    2.200758    1.920714
  H      3.740550    2.034778    1.364549
  H      3.644552    3.562955    0.479682
  H      3.387271    3.536926    2.231527
  H     -4.418497    1.498237    1.229893
  H     -3.123689    0.802550    2.248954
  H     -4.341948   -0.271571    1.505006
  H     -1.137203   -3.401581   -0.433097
  H     -2.507221   -3.673168    0.691775
  H     -1.015663   -2.858027    1.259085

 Total Charge           Charge          ....    0
 Multiplicity           Mult            ....    1
 Number of Electrons    NEL             ....  174
 Basis Dimension        Dim             ....  316

ORBITAL ENERGIES
----------------

  NO   OCC          E(Eh)            E(eV)
   0   2.0000     -88.025632     -2395.2992
   1   2.0000     -87.969551     -2393.7732
   2   2.0000     -76.414286     -2079.3384
   3   2.0000     -18.812226      -511.9067
   4   2.0000     -18.809587      -511.8349
   5   2.0000     -18.774959      -510.8926
   6   2.0000     -18.763709      -510.5865
   7   2.0000     -18.748016      -510.1594
   8   2.0000     -18.733562      -509.7661
   9   2.0000     -10.018855      -272.6269
  10   2.0000     -10.012948      -272.4662
  11   2.0000      -9.950166      -270.7578
  12   2.0000      -9.949523      -270.7403
  13   2.0000      -9.945721      -270.6368
  14   2.0000      -9.926990      -270.1271
  15   2.0000      -9.922695      -270.0103
  16   2.0000      -9.913642      -269.7639
  17   2.0000      -9.890377      -269.1308
  18   2.0000      -9.889264      -269.1005
  19   2.0000      -7.671059      -208.7401
  20   2.0000      -7.614485      -207.2007
  21   2.0000      -6.409702      -174.4169
  22   2.0000      -5.699562      -155.0930
  23   2.0000      -5.696136      -154.9997
  24   2.0000      -5.686699      -154.7430
  25   2.0000      -5.643664      -153.5719
  26   2.0000      -5.635313      -153.3447
  27   2.0000      -5.634065      -153.3107
  28   2.0000      -4.632239      -126.0496
  29   2.0000      -4.631923      -126.0410
  30   2.0000      -4.630256      -125.9957
  31   2.0000      -1.020867       -27.7792
  32   2.0000      -1.015870       -27.6432
  33   2.0000      -0.962864       -26.2009
  34   2.0000      -0.925082       -25.1728
  35   2.0000      -0.918777       -25.0012
  36   2.0000      -0.914342       -24.8805
  37   2.0000      -0.763094       -20.7648
  38   2.0000      -0.714146       -19.4329
  39   2.0000      -0.707634       -19.2557
  40   2.0000      -0.685675       -18.6582
  41   2.0000      -0.649983       -17.6869
  42   2.0000      -0.617699       -16.8085
  43   2.0000      -0.616025       -16.7629
  44   2.0000      -0.608945       -16.5702
  45   2.0000      -0.597538       -16.2598
  46   2.0000      -0.562198       -15.2982
  47   2.0000      -0.512308       -13.9406
  48   2.0000      -0.504361       -13.7244
  49   2.0000      -0.494477       -13.4554
  50   2.0000      -0.481697       -13.1076
  51   2.0000      -0.460038       -12.5183
  52   2.0000      -0.453132       -12.3303
  53   2.0000      -0.449237       -12.2244
  54   2.0000      -0.436822       -11.8865
  55   2.0000      -0.433885       -11.8066
  56   2.0000      -0.415477       -11.3057
  57   2.0000      -0.407700       -11.0941
  58   2.0000      -0.407136       -11.0787
  59   2.0000      -0.397942       -10.8286
  60   2.0000      -0.395074       -10.7505
  61   2.0000      -0.389868       -10.6089
  62   2.0000      -0.383933       -10.4473
  63   2.0000      -0.381602       -10.3839
  64   2.0000      -0.373885       -10.1739
  65   2.0000      -0.365839        -9.9550
  66   2.0000      -0.362496        -9.8640
  67   2.0000      -0.357144        -9.7184
  68   2.0000      -0.351329        -9.5601
  69   2.0000      -0.341426        -9.2907
  70   2.0000      -0.340080        -9.2541
  71   2.0000      -0.326730        -8.8908
  72   2.0000      -0.318609        -8.6698
  73   2.0000      -0.304897        -8.2967
  74   2.0000      -0.299110        -8.1392
  75   2.0000      -0.293991        -7.9999
  76   2.0000      -0.285430        -7.7669
  77   2.0000      -0.272110        -7.4045
  78   2.0000      -0.269153        -7.3240
  79   2.0000      -0.262111        -7.1324
  80   2.0000      -0.253412        -6.8957
  81   2.0000      -0.243943        -6.6380
  82   2.0000      -0.240753        -6.5512
  83   2.0000      -0.222142        -6.0448
  84   2.0000      -0.191138        -5.2011
  85   2.0000      -0.189001        -5.1430
  86   2.0000      -0.177949        -4.8422
  87   0.0000      -0.046750        -1.2721
  88   0.0000      -0.037908        -1.0315
  89   0.0000      -0.031611        -0.8602
  90   0.0000       0.011427         0.3109
  91   0.0000       0.030458         0.8288

MULLIKEN ATOMIC CHARGES
-----------------------
   0 C :   -0.310768
   1 C :   -0.029613
   2 O :   -0.211157
   3 C :    0.109142
   4 O :   -0.218039
   5 C :    0.013576
   6 C :   -0.340757
   7 H :    0.155561
   8 C :    0.176074
   9 O :   -0.177422
  10 O :   -0.222892
  11 C :   -0.030405
  12 C :   -0.276971
  13 S :   -0.052563
  14 P :    0.653486
  15 S :   -0.357580
  16 O :   -0.370938
  17 C :   -0.092775
  18 O :   -0.392621
  19 C :   -0.087328
  20 H :    0.115333
  21 H :    0.127330
  22 H :    0.112695
  23 H :    0.102429
  24 H :    0.132169
  25 H :    0.118159
  26 H :    0.108805
  27 H :    0.108544
  28 H :    0.124326
  29 H :    0.116206
  30 H :    0.111583
  31 H :    0.112788
  32 H :    0.119537
  33 H :    0.112664
  34 H :    0.103483
  35 H :    0.115130
  36 H :    0.111425
  37 H :    0.111383
Sum of atomic charges:   -0.0000000

LOEWDIN ATOMIC CHARGES
----------------------
   0 C :   -0.357384
   1 C :   -0.113728
   2 O :   -0.037601
   3 C :    0.038431
   4 O :   -0.175844
   5 C :   -0.252447
   6 C :   -0.259405
   7 H :    0.153929
   8 C :   -0.009867
   9 O :   -0.155586
  10 O :   -0.044528
  11 C :   -0.107002
  12 C :   -0.351161
  13 S :    0.130541
  14 P :    0.603072
  15 S :   -0.319366
  16 O :   -0.252384
  17 C :   -0.214848
  18 O :   -0.256440
  19 C :   -0.212506
  20 H :    0.132186
  21 H :    0.129006
  22 H :    0.124150
  23 H :    0.117962
  24 H :    0.121651
  25 H :    0.146326
  26 H :    0.138795
  27 H :    0.118805
  28 H :    0.119410
  29 H :    0.126478
  30 H :    0.124577
  31 H :    0.131660
  32 H :    0.119572
  33 H :    0.106494
  34 H :    0.107523
  35 H :    0.110924
  36 H :    0.113763
  37 H :    0.104840

  Mayer bond orders larger than 0.100000
B(  0-C ,  1-C ) :   1.1681 B(  0-C , 20-H ) :   0.9440 B(  0-C , 21-H ) :   0.9453
B(  0-C , 22-H ) :   0.9475 B(  1-C ,  2-O ) :   0.9067 B(  1-C , 23-H ) :   0.9367
B(  1-C , 24-H ) :   0.9073 B(  2-O ,  3-C ) :   1.2754 B(  3-C ,  4-O ) :   1.8975
B(  3-C ,  5-C ) :   1.0123 B(  5-C ,  6-C ) :   1.0187 B(  5-C , 25-H ) :   0.8781
B(  5-C , 26-H ) :   0.8810 B(  6-C ,  7-H ) :   0.8701 B(  6-C ,  8-C ) :   0.8925
B(  6-C , 13-S ) :   1.0465 B(  8-C ,  9-O ) :   2.0534 B(  8-C , 10-O ) :   1.2644
B( 10-O , 11-C ) :   0.8886 B( 11-C , 12-C ) :   1.1521 B( 11-C , 27-H ) :   0.9271
B( 11-C , 28-H ) :   0.9200 B( 12-C , 29-H ) :   0.9478 B( 12-C , 30-H ) :   0.9511
B( 12-C , 31-H ) :   0.9435 B( 13-S , 14-P ) :   0.9317 B( 13-S , 15-S ) :   0.1213
B( 14-P , 15-S ) :   1.5070 B( 14-P , 16-O ) :   1.1048 B( 14-P , 18-O ) :   1.0949
B( 16-O , 17-C ) :   0.9413 B( 17-C , 32-H ) :   0.9604 B( 17-C , 33-H ) :   0.9314
B( 17-C , 34-H ) :   0.9514 B( 18-O , 19-C ) :   0.9348 B( 19-C , 35-H ) :   0.9509
B( 19-C , 36-H ) :   0.9550 B( 19-C , 37-H ) :   0.9344

Dispersion correction           -0.056092695
FINAL SINGLE POINT ENERGY     -1978.998532999336

DIPOLE MOMENT
-------------

Method             : SCF
Type of density    : Electron Density
Multiplicity       :   1
Irrep              :   0
Energy             : -1979.1267841936505647 Eh
Relativity type    :
Basis              : AO
                                X                 Y                 Z
Electronic contribution:    -14.914149456       4.240416550      -9.076981331
Nuclear contribution   :     16.420820923      -4.620467237       9.063248852
                        -----------------------------------------
Total Dipole Moment    :      1.506671467      -0.380050687      -0.013732479
                        -----------------------------------------
Magnitude (a.u.)       :      1.553926001
Magnitude (Debye)      :      3.949766001

Rotational constants in cm-1:             0.012126             0.009495             0.007386
Rotational constants in MHz :           363.518589           284.661642           221.433254

                             ****ORCA TERMINATED NORMALLY****
TOTAL RUN TIME: 0 days 0 hours 0 minutes 41 seconds 261 msec
