                         Program Version 6.0.1  -  RELEASE   -
|  1> ! pbe def2-sv(p) def2/J RI DEFGRID1 loosescf d4 GCP(DFT/SV(P)) printgap
|  2> %output
|  3>     printlevel normal
|  4> end
|  5> * xyz 0 1
|  6> C 5.3497760356 -1.6379236689 -0.2987308791
|  7> C 4.1655867343 -2.3074976392 0.3801850892
|  8> O 2.969184476 -2.1641539 -0.412756098
|  9> C 2.2499562603 -1.0746495289 -0.2750427526
| 10> O 2.5162329027 -0.1600243183 0.4803795194
| 11> C 1.0129666321 -1.1084766289 -1.1398590746
| 12> C 0.4240203354 0.2890474931 -1.3199345409
| 13> H 0.8466318318 0.7953647367 -2.1891331019
| 14> C 0.610982025 1.1749100566 -0.0999106488
| 15> O -0.0553202599 1.0313452409 0.9107247767
| 16> O 1.4162539656 2.173949995 -0.3320554757
| 17> C 1.6944075715 3.0884644878 0.7487197217
| 18> C 2.3301898628 4.3318635224 0.1596658486
| 19> S -1.3736309453 0.2262372185 -1.5949881085
| 20> P -2.1410614021 -0.2963021879 0.3327699732
| 21> S -1.2968538046 -1.6928077291 1.4245220277
| 22> O -2.6200004824 1.0087987476 1.0935469433
| 23> C -3.5702054854 1.9235281362 0.5141174951
| 24> O -3.586272956 -0.7946508971 -0.1806703964
| 25> C -3.7582364372 -2.0445868977 -0.8517598404
| 26> H 5.484413968 -2.0415264629 -1.2982457925
| 27> H 5.1845421461 -0.5650814869 -0.3666778023
| 28> H 6.2458049065 -1.8198544131 0.285302689
| 29> H 3.9837466102 -1.8732388607 1.367395603
| 30> H 4.3073272154 -3.3851181124 0.4604846019
| 31> H 0.3063453449 -1.753082923 -0.6019679175
| 32> H 1.2298178545 -1.5751734157 -2.0991654538
| 33> H 0.7555607348 3.305879724 1.267899078
| 34> H 2.364845633 2.5728028363 1.4429396148
| 35> H 2.5674696967 5.0235299578 0.9609467714
| 36> H 3.241374955 4.0659450118 -0.3670511731
| 37> H 1.646797261 4.8091909998 -0.5362568967
| 38> H -3.289307867 2.1620470847 -0.5123799232
| 39> H -3.5284055568 2.8099885144 1.1421045909
| 40> H -4.5639568866 1.4797886303 0.5323944468
| 41> H -3.2287408107 -2.8327901085 -0.3134770567
| 42> H -3.3844440777 -1.9716479644 -1.8726940957
| 43> H -4.8283421455 -2.2349737088 -0.847575952
| 44> *
| 45>
| 46>                          ****END OF INPUT****

CARTESIAN COORDINATES (ANGSTROEM)
---------------------------------
  C      5.349776   -1.637924   -0.298731
  C      4.165587   -2.307498    0.380185
  O      2.969184   -2.164154   -0.412756
  C      2.249956   -1.074650   -0.275043
  O      2.516233   -0.160024    0.480380
  C      1.012967   -1.108477   -1.139859
  C      0.424020    0.289047   -1.319935
  H      0.846632    0.795365   -2.189133
  C      0.610982    1.174910   -0.099911
  O     -0.055320    1.031345    0.910725
  O      1.416254    2.173950   -0.332055
  C      1.694408    3.088464    0.748720
  C      2.330190    4.331864    0.159666
  S     -1.373631    0.226237   -1.594988
  P     -2.141061   -0.296302    0.332770
  S     -1.296854   -1.692808    1.424522
  O     -2.620000    1.008799    1.093547
  C     -3.570205    1.923528    0.514117
  O     -3.586273   -0.794651   -0.180670
  C     -3.758236   -2.044587   -0.851760
  H      5.484414   -2.041526   -1.298246
  H      5.184542   -0.565081   -0.366678
  H      6.245805   -1.819854    0.285303
  H      3.983747   -1.873239    1.367396
  H      4.307327   -3.385118    0.460485
  H      0.306345   -1.753083   -0.601968
  H      1.229818   -1.575173   -2.099165
  H      0.755561    3.305880    1.267899
  H      2.364846    2.572803    1.442940
  H      2.567470    5.023530    0.960947
  H      3.241375    4.065945   -0.367051
  H      1.646797    4.809191   -0.536257
  H     -3.289308    2.162047   -0.512380
  H     -3.528406    2.809989    1.142105
  H     -4.563957    1.479789    0.532394
  H     -3.228741   -2.832790   -0.313477
  H     -3.384444   -1.971648   -1.872694
  H     -4.828342   -2.234974   -0.847576

 Total Charge           Charge          ....    0
 Multiplicity           Mult            ....    1
 Number of Electrons    NEL             ....  174
 Basis Dimension        Dim             ....  316

ORBITAL ENERGIES
----------------

  NO   OCC          E(Eh)            E(eV)
   0   2.0000     -88.036209     -2395.5870
   1   2.0000     -87.966637     -2393.6939
   2   2.0000     -76.417467     -2079.4250
   3   2.0000     -18.808275      -511.7992
   4   2.0000     -18.803862      -511.6791
   5   2.0000     -18.777248      -510.9549
   6   2.0000     -18.776250      -510.9277
   7   2.0000     -18.749525      -510.2005
   8   2.0000     -18.734139      -509.7818
   9   2.0000     -10.016952      -272.5751
  10   2.0000     -10.014529      -272.5092
  11   2.0000      -9.952570      -270.8232
  12   2.0000      -9.946092      -270.6469
  13   2.0000      -9.944941      -270.6156
  14   2.0000      -9.939183      -270.4589
  15   2.0000      -9.931927      -270.2615
  16   2.0000      -9.907135      -269.5868
  17   2.0000      -9.891990      -269.1747
  18   2.0000      -9.888703      -269.0853
  19   2.0000      -7.680821      -209.0058
  20   2.0000      -7.611894      -207.1302
  21   2.0000      -6.412763      -174.5002
  22   2.0000      -5.708753      -155.3431
  23   2.0000      -5.705108      -155.2439
  24   2.0000      -5.698024      -155.0511
  25   2.0000      -5.641257      -153.5064
  26   2.0000      -5.632789      -153.2760
  27   2.0000      -5.631267      -153.2346
  28   2.0000      -4.635866      -126.1483
  29   2.0000      -4.634823      -126.1199
  30   2.0000      -4.632937      -126.0686
  31   2.0000      -1.019377       -27.7387
  32   2.0000      -1.012505       -27.5517
  33   2.0000      -0.972540       -26.4642
  34   2.0000      -0.926401       -25.2086
  35   2.0000      -0.925211       -25.1763
  36   2.0000      -0.914777       -24.8924
  37   2.0000      -0.761658       -20.7258
  38   2.0000      -0.715740       -19.4763
  39   2.0000      -0.706559       -19.2265
  40   2.0000      -0.684430       -18.6243
  41   2.0000      -0.657678       -17.8963
  42   2.0000      -0.625261       -17.0142
  43   2.0000      -0.618352       -16.8262
  44   2.0000      -0.606498       -16.5036
  45   2.0000      -0.597400       -16.2561
  46   2.0000      -0.556296       -15.1376
  47   2.0000      -0.511447       -13.9172
  48   2.0000      -0.504138       -13.7183
  49   2.0000      -0.498901       -13.5758
  50   2.0000      -0.480699       -13.0805
  51   2.0000      -0.463341       -12.6081
  52   2.0000      -0.453821       -12.3491
  53   2.0000      -0.447965       -12.1897
  54   2.0000      -0.443130       -12.0582
  55   2.0000      -0.430089       -11.7033
  56   2.0000      -0.421195       -11.4613
  57   2.0000      -0.418731       -11.3942
  58   2.0000      -0.411046       -11.1851
  59   2.0000      -0.404647       -11.0110
  60   2.0000      -0.400367       -10.8945
  61   2.0000      -0.395128       -10.7520
  62   2.0000      -0.387463       -10.5434
  63   2.0000      -0.384734       -10.4691
  64   2.0000      -0.369389       -10.0516
  65   2.0000      -0.368071       -10.0157
  66   2.0000      -0.359268        -9.7762
  67   2.0000      -0.353389        -9.6162
  68   2.0000      -0.350856        -9.5473
  69   2.0000      -0.340779        -9.2731
  70   2.0000      -0.330403        -8.9907
  71   2.0000      -0.325169        -8.8483
  72   2.0000      -0.318782        -8.6745
  73   2.0000      -0.309809        -8.4303
  74   2.0000      -0.302543        -8.2326
  75   2.0000      -0.297579        -8.0975
  76   2.0000      -0.286012        -7.7828
  77   2.0000      -0.282611        -7.6902
  78   2.0000      -0.271310        -7.3827
  79   2.0000      -0.260569        -7.0904
  80   2.0000      -0.253156        -6.8887
  81   2.0000      -0.244921        -6.6646
  82   2.0000      -0.233762        -6.3610
  83   2.0000      -0.232049        -6.3144
  84   2.0000      -0.221272        -6.0211
  85   2.0000      -0.187216        -5.0944
  86   2.0000      -0.175069        -4.7639
  87   0.0000      -0.044171        -1.2020
  88   0.0000      -0.028753        -0.7824
  89   0.0000      -0.013094        -0.3563
  90   0.0000       0.016420         0.4468
  91   0.0000       0.033834         0.9207

MULLIKEN ATOMIC CHARGES
-----------------------
   0 C :   -0.306717
   1 C :   -0.012711
   2 O :   -0.224876
   3 C :    0.138764
   4 O :   -0.208537
   5 C :   -0.063500
   6 C :   -0.290995
   7 H :    0.127898
   8 C :    0.206050
   9 O :   -0.196001
  10 O :   -0.219992
  11 C :   -0.025407
  12 C :   -0.275830
  13 S :   -0.101692
  14 P :    0.625273
  15 S :   -0.312026
  16 O :   -0.358272
  17 C :   -0.098550
  18 O :   -0.403714
  19 C :   -0.098730
  20 H :    0.115122
  21 H :    0.125300
  22 H :    0.115944
  23 H :    0.116073
  24 H :    0.108087
  25 H :    0.139326
  26 H :    0.114342
  27 H :    0.112201
  28 H :    0.115714
  29 H :    0.112284
  30 H :    0.115017
  31 H :    0.113218
  32 H :    0.109383
  33 H :    0.125290
  34 H :    0.122839
  35 H :    0.113132
  36 H :    0.108361
  37 H :    0.117934
Sum of atomic charges:    0.0000000

LOEWDIN ATOMIC CHARGES
----------------------
   0 C :   -0.356230
   1 C :   -0.108155
   2 O :   -0.051085
   3 C :    0.048419
   4 O :   -0.152257
   5 C :   -0.264459
   6 C :   -0.259057
   7 H :    0.139442
   8 C :    0.010625
   9 O :   -0.159767
  10 O :   -0.044016
  11 C :   -0.103979
  12 C :   -0.350939
  13 S :    0.095076
  14 P :    0.591570
  15 S :   -0.311691
  16 O :   -0.235427
  17 C :   -0.209069
  18 O :   -0.270796
  19 C :   -0.221926
  20 H :    0.125353
  21 H :    0.129448
  22 H :    0.132155
  23 H :    0.123447
  24 H :    0.120693
  25 H :    0.142121
  26 H :    0.140918
  27 H :    0.119394
  28 H :    0.123184
  29 H :    0.131211
  30 H :    0.126712
  31 H :    0.125583
  32 H :    0.105261
  33 H :    0.122451
  34 H :    0.115817
  35 H :    0.106913
  36 H :    0.104292
  37 H :    0.118768

  Mayer bond orders larger than 0.100000
B(  0-C ,  1-C ) :   1.1729 B(  0-C , 20-H ) :   0.9484 B(  0-C , 21-H ) :   0.9466
B(  0-C , 22-H ) :   0.9440 B(  1-C ,  2-O ) :   0.9095 B(  1-C , 23-H ) :   0.9162
B(  1-C , 24-H ) :   0.9371 B(  2-O ,  3-C ) :   1.2538 B(  3-C ,  4-O ) :   1.9390
B(  3-C ,  5-C ) :   1.0207 B(  4-O ,  8-C ) :   0.1351 B(  5-C ,  6-C ) :   1.0099
B(  5-C , 25-H ) :   0.8286 B(  5-C , 26-H ) :   0.9025 B(  6-C ,  7-H ) :   0.8805
B(  6-C ,  8-C ) :   0.9057 B(  6-C , 13-S ) :   1.0184 B(  8-C ,  9-O ) :   1.9397
B(  8-C , 10-O ) :   1.2544 B(  9-O , 14-P ) :   0.1370 B( 10-O , 11-C ) :   0.9029
B( 11-C , 12-C ) :   1.1538 B( 11-C , 27-H ) :   0.9233 B( 11-C , 28-H ) :   0.9300
B( 12-C , 29-H ) :   0.9439 B( 12-C , 30-H ) :   0.9487 B( 12-C , 31-H ) :   0.9518
B( 13-S , 14-P ) :   0.9318 B( 13-S , 15-S ) :   0.1144 B( 14-P , 15-S ) :   1.5954
B( 14-P , 16-O ) :   1.1113 B( 14-P , 18-O ) :   1.0228 B( 15-S , 25-H ) :   0.1108
B( 16-O , 17-C ) :   0.9271 B( 17-C , 32-H ) :   0.9382 B( 17-C , 33-H ) :   0.9584
B( 17-C , 34-H ) :   0.9491 B( 18-O , 19-C ) :   0.9422 B( 19-C , 35-H ) :   0.9293
B( 19-C , 36-H ) :   0.9475 B( 19-C , 37-H ) :   0.9588

Dispersion correction           -0.051201487
FINAL SINGLE POINT ENERGY     -1979.006970805116

DIPOLE MOMENT
-------------

Method             : SCF
Type of density    : Electron Density
Multiplicity       :   1
Irrep              :   0
Energy             : -1979.1389451376444413 Eh
Relativity type    :
Basis              : AO
                                X                 Y                 Z
Electronic contribution:    -15.511896067      -6.264241019       2.376905018
Nuclear contribution   :     16.392776325       6.864401787      -3.595271326
                        -----------------------------------------
Total Dipole Moment    :      0.880880258       0.600160768      -1.218366308
                        -----------------------------------------
Magnitude (a.u.)       :      1.618814207
Magnitude (Debye)      :      4.114698713

Rotational constants in cm-1:             0.013121             0.006950             0.005325
Rotational constants in MHz :           393.356322           208.350454           159.645331

                             ****ORCA TERMINATED NORMALLY****
TOTAL RUN TIME: 0 days 0 hours 0 minutes 43 seconds 238 msec
