                         Program Version 6.0.0  -   RELEASE  -
|  1> ! pbe def2-sv(p) def2/J RI DEFGRID1 loosescf d4 GCP(DFT/SV(P)) printgap
|  2> %output
|  3>     printlevel normal
|  4> end
|  5> * xyz 0 1
|  6> C 0.4602902461 -1.4208298141 2.2740759333
|  7> C 1.9644231532 -1.3682144968 2.4459781601
|  8> O 2.5564281099 -0.2701895501 1.7315528498
|  9> P 2.5601911427 -0.1718043757 0.1440108298
| 10> S 2.7967633905 -1.8753054469 -0.8045648125
| 11> O 3.6783233853 0.920764757 -0.1089846599
| 12> C 5.0714102723 0.5778527752 -0.261102388
| 13> C 5.6751388517 0.0521902948 1.0246188151
| 14> S 0.8904146851 1.0343358764 -0.3581458532
| 15> C 0.191190533 0.0311360355 -1.7007069215
| 16> S -1.097470964 -1.1155087089 -1.1497570748
| 17> P -2.5209372126 0.3740282942 -0.6673218631
| 18> S -2.6585818143 1.8948181033 -1.8877409254
| 19> O -2.0789885705 0.7507840094 0.8229709749
| 20> C -2.1807251764 2.0849543782 1.3435075767
| 21> C -3.6074910169 2.3990549557 1.7460091894
| 22> O -3.8894058764 -0.4147998314 -0.5769654516
| 23> C -4.0544628658 -1.7666000614 -0.08577049
| 24> C -3.7238296428 -1.8907649821 1.3864951634
| 25> H 0.0156271691 -0.4573299799 2.5125863221
| 26> H 0.2141867172 -1.6774878939 1.2438251892
| 27> H 0.04881447 -2.1809831392 2.9307001376
| 28> H 2.4200724229 -2.2982700654 2.0914756821
| 29> H 2.2466008744 -1.1862984157 3.483961172
| 30> H 5.1584312774 -0.1648242271 -1.0607416101
| 31> H 5.5357555414 1.5143452387 -0.5729571604
| 32> H 5.2343832704 -0.911272688 1.27647455
| 33> H 6.7453667316 -0.0736325598 0.8931369389
| 34> H 5.4888967705 0.7483384592 1.8381621981
| 35> H 0.9744979394 -0.5807151636 -2.1480535245
| 36> H -0.2401052352 0.7238965617 -2.4227625384
| 37> H -1.5023103184 2.0993031252 2.1975765089
| 38> H -1.8267488463 2.7896400818 0.5841871321
| 39> H -3.9551658012 1.689616725 2.4919794399
| 40> H -3.6570377462 3.4040628476 2.1526630782
| 41> H -4.2536056603 2.3373462394 0.8705422783
| 42> H -5.1062985782 -1.9784225672 -0.2845135026
| 43> H -3.4233925616 -2.4286384155 -0.6847330247
| 44> H -3.9221549131 -2.9082218913 1.7084488819
| 45> H -2.673852761 -1.6625537079 1.5550277026
| 46> H -4.3339058389 -1.2052839009 1.9686489335
| 47> *
| 48>
| 49>                          ****END OF INPUT****

CARTESIAN COORDINATES (ANGSTROEM)
---------------------------------
  C      0.460290   -1.420830    2.274076
  C      1.964423   -1.368214    2.445978
  O      2.556428   -0.270190    1.731553
  P      2.560191   -0.171804    0.144011
  S      2.796763   -1.875305   -0.804565
  O      3.678323    0.920765   -0.108985
  C      5.071410    0.577853   -0.261102
  C      5.675139    0.052190    1.024619
  S      0.890415    1.034336   -0.358146
  C      0.191191    0.031136   -1.700707
  S     -1.097471   -1.115509   -1.149757
  P     -2.520937    0.374028   -0.667322
  S     -2.658582    1.894818   -1.887741
  O     -2.078989    0.750784    0.822971
  C     -2.180725    2.084954    1.343508
  C     -3.607491    2.399055    1.746009
  O     -3.889406   -0.414800   -0.576965
  C     -4.054463   -1.766600   -0.085770
  C     -3.723830   -1.890765    1.386495
  H      0.015627   -0.457330    2.512586
  H      0.214187   -1.677488    1.243825
  H      0.048814   -2.180983    2.930700
  H      2.420072   -2.298270    2.091476
  H      2.246601   -1.186298    3.483961
  H      5.158431   -0.164824   -1.060742
  H      5.535756    1.514345   -0.572957
  H      5.234383   -0.911273    1.276475
  H      6.745367   -0.073633    0.893137
  H      5.488897    0.748338    1.838162
  H      0.974498   -0.580715   -2.148054
  H     -0.240105    0.723897   -2.422763
  H     -1.502310    2.099303    2.197577
  H     -1.826749    2.789640    0.584187
  H     -3.955166    1.689617    2.491979
  H     -3.657038    3.404063    2.152663
  H     -4.253606    2.337346    0.870542
  H     -5.106299   -1.978423   -0.284514
  H     -3.423393   -2.428638   -0.684733
  H     -3.922155   -2.908222    1.708449
  H     -2.673853   -1.662554    1.555028
  H     -4.333906   -1.205284    1.968649

 Total Charge           Charge          ....    0
 Multiplicity           Mult            ....    1
 Number of Electrons    NEL             ....  202
 Basis Dimension        Dim             ....  334

ORBITAL ENERGIES
----------------

  NO   OCC          E(Eh)            E(eV)
   0   2.0000     -88.043861     -2395.7953
   1   2.0000     -88.041276     -2395.7249
   2   2.0000     -87.995587     -2394.4817
   3   2.0000     -87.986204     -2394.2263
   4   2.0000     -76.428756     -2079.7322
   5   2.0000     -76.426712     -2079.6766
   6   2.0000     -18.796419      -511.4766
   7   2.0000     -18.793944      -511.4092
   8   2.0000     -18.790579      -511.3177
   9   2.0000     -18.790185      -511.3069
  10   2.0000      -9.963353      -271.1166
  11   2.0000      -9.953965      -270.8611
  12   2.0000      -9.953675      -270.8533
  13   2.0000      -9.953412      -270.8461
  14   2.0000      -9.948696      -270.7178
  15   2.0000      -9.893123      -269.2056
  16   2.0000      -9.886016      -269.0122
  17   2.0000      -9.883732      -268.9500
  18   2.0000      -9.881243      -268.8823
  19   2.0000      -7.688681      -209.2196
  20   2.0000      -7.686449      -209.1589
  21   2.0000      -7.640377      -207.9052
  22   2.0000      -7.631418      -207.6614
  23   2.0000      -6.426528      -174.8747
  24   2.0000      -6.424508      -174.8198
  25   2.0000      -5.716374      -155.5504
  26   2.0000      -5.714354      -155.4955
  27   2.0000      -5.713309      -155.4670
  28   2.0000      -5.711110      -155.4072
  29   2.0000      -5.705722      -155.2606
  30   2.0000      -5.703178      -155.1914
  31   2.0000      -5.669135      -154.2650
  32   2.0000      -5.661134      -154.0473
  33   2.0000      -5.660606      -154.0329
  34   2.0000      -5.660434      -154.0282
  35   2.0000      -5.652211      -153.8045
  36   2.0000      -5.651249      -153.7783
  37   2.0000      -4.648797      -126.5002
  38   2.0000      -4.648181      -126.4834
  39   2.0000      -4.647339      -126.4605
  40   2.0000      -4.647301      -126.4595
  41   2.0000      -4.646057      -126.4256
  42   2.0000      -4.644964      -126.3959
  43   2.0000      -0.988007       -26.8850
  44   2.0000      -0.985886       -26.8273
  45   2.0000      -0.947513       -25.7831
  46   2.0000      -0.946778       -25.7631
  47   2.0000      -0.764038       -20.7905
  48   2.0000      -0.724093       -19.7036
  49   2.0000      -0.711542       -19.3620
  50   2.0000      -0.692966       -18.8566
  51   2.0000      -0.687919       -18.7192
  52   2.0000      -0.674982       -18.3672
  53   2.0000      -0.654031       -17.7971
  54   2.0000      -0.641302       -17.4507
  55   2.0000      -0.605208       -16.4686
  56   2.0000      -0.596206       -16.2236
  57   2.0000      -0.577921       -15.7260
  58   2.0000      -0.573861       -15.6156
  59   2.0000      -0.560803       -15.2602
  60   2.0000      -0.499240       -13.5850
  61   2.0000      -0.492941       -13.4136
  62   2.0000      -0.480098       -13.0641
  63   2.0000      -0.473635       -12.8883
  64   2.0000      -0.459709       -12.5093
  65   2.0000      -0.449689       -12.2367
  66   2.0000      -0.441234       -12.0066
  67   2.0000      -0.436920       -11.8892
  68   2.0000      -0.431442       -11.7401
  69   2.0000      -0.413799       -11.2600
  70   2.0000      -0.412604       -11.2275
  71   2.0000      -0.397649       -10.8206
  72   2.0000      -0.395177       -10.7533
  73   2.0000      -0.388324       -10.5668
  74   2.0000      -0.386507       -10.5174
  75   2.0000      -0.378749       -10.3063
  76   2.0000      -0.371255       -10.1024
  77   2.0000      -0.357774        -9.7355
  78   2.0000      -0.353572        -9.6212
  79   2.0000      -0.350678        -9.5424
  80   2.0000      -0.350057        -9.5255
  81   2.0000      -0.348730        -9.4894
  82   2.0000      -0.345130        -9.3915
  83   2.0000      -0.341315        -9.2876
  84   2.0000      -0.338085        -9.1998
  85   2.0000      -0.319546        -8.6953
  86   2.0000      -0.312413        -8.5012
  87   2.0000      -0.307890        -8.3781
  88   2.0000      -0.297727        -8.1016
  89   2.0000      -0.286978        -7.8091
  90   2.0000      -0.281599        -7.6627
  91   2.0000      -0.276871        -7.5341
  92   2.0000      -0.274751        -7.4764
  93   2.0000      -0.270242        -7.3537
  94   2.0000      -0.259024        -7.0484
  95   2.0000      -0.228117        -6.2074
  96   2.0000      -0.220533        -6.0010
  97   2.0000      -0.216018        -5.8782
  98   2.0000      -0.209297        -5.6953
  99   2.0000      -0.205804        -5.6002
 100   2.0000      -0.200185        -5.4473
 101   0.0000      -0.045987        -1.2514
 102   0.0000      -0.028305        -0.7702
 103   0.0000      -0.010016        -0.2726
 104   0.0000       0.005830         0.1587
 105   0.0000       0.012540         0.3412

MULLIKEN ATOMIC CHARGES
-----------------------
   0 C :   -0.363792
   1 C :    0.015740
   2 O :   -0.372494
   3 P :    0.614384
   4 S :   -0.335391
   5 O :   -0.365910
   6 C :   -0.003361
   7 C :   -0.308690
   8 S :   -0.070537
   9 C :   -0.352880
  10 S :   -0.102628
  11 P :    0.614750
  12 S :   -0.311710
  13 O :   -0.376632
  14 C :   -0.012302
  15 C :   -0.305414
  16 O :   -0.368083
  17 C :   -0.024626
  18 C :   -0.330190
  19 H :    0.128088
  20 H :    0.149333
  21 H :    0.109078
  22 H :    0.108035
  23 H :    0.102349
  24 H :    0.111981
  25 H :    0.108212
  26 H :    0.122410
  27 H :    0.112698
  28 H :    0.118972
  29 H :    0.192587
  30 H :    0.197428
  31 H :    0.104288
  32 H :    0.114993
  33 H :    0.112290
  34 H :    0.112184
  35 H :    0.126065
  36 H :    0.116713
  37 H :    0.124933
  38 H :    0.114622
  39 H :    0.150001
  40 H :    0.122506
Sum of atomic charges:   -0.0000000

LOEWDIN ATOMIC CHARGES
----------------------
   0 C :   -0.377739
   1 C :   -0.116755
   2 O :   -0.243876
   3 P :    0.573360
   4 S :   -0.316988
   5 O :   -0.243900
   6 C :   -0.115271
   7 C :   -0.364824
   8 S :    0.098145
   9 C :   -0.480883
  10 S :    0.091785
  11 P :    0.570286
  12 S :   -0.305986
  13 O :   -0.246737
  14 C :   -0.125192
  15 C :   -0.363107
  16 O :   -0.241710
  17 C :   -0.114261
  18 C :   -0.367914
  19 H :    0.125491
  20 H :    0.113410
  21 H :    0.128513
  22 H :    0.109755
  23 H :    0.117793
  24 H :    0.111418
  25 H :    0.120573
  26 H :    0.122628
  27 H :    0.130627
  28 H :    0.127433
  29 H :    0.128782
  30 H :    0.131359
  31 H :    0.115307
  32 H :    0.107902
  33 H :    0.121521
  34 H :    0.130702
  35 H :    0.125285
  36 H :    0.125189
  37 H :    0.110379
  38 H :    0.132140
  39 H :    0.127721
  40 H :    0.127637

  Mayer bond orders larger than 0.100000
B(  0-C ,  1-C ) :   1.1607 B(  0-C , 19-H ) :   0.9402 B(  0-C , 20-H ) :   0.9192
B(  0-C , 21-H ) :   0.9359 B(  1-C ,  2-O ) :   0.9098 B(  1-C , 22-H ) :   0.9175
B(  1-C , 23-H ) :   0.9327 B(  2-O ,  3-P ) :   1.1060 B(  3-P ,  4-S ) :   1.5846
B(  3-P ,  5-O ) :   1.1369 B(  3-P ,  8-S ) :   0.9606 B(  4-S ,  8-S ) :   0.1139
B(  5-O ,  6-C ) :   0.9112 B(  6-C ,  7-C ) :   1.1629 B(  6-C , 24-H ) :   0.9191
B(  6-C , 25-H ) :   0.9352 B(  7-C , 26-H ) :   0.9384 B(  7-C , 27-H ) :   0.9382
B(  7-C , 28-H ) :   0.9459 B(  8-S ,  9-C ) :   1.0141 B(  9-C , 10-S ) :   1.0086
B(  9-C , 29-H ) :   0.8688 B(  9-C , 30-H ) :   0.8749 B( 10-S , 11-P ) :   0.9578
B( 11-P , 12-S ) :   1.6275 B( 11-P , 13-O ) :   1.0742 B( 11-P , 16-O ) :   1.1309
B( 13-O , 14-C ) :   0.9047 B( 14-C , 15-C ) :   1.1633 B( 14-C , 31-H ) :   0.9301
B( 14-C , 32-H ) :   0.9081 B( 15-C , 33-H ) :   0.9457 B( 15-C , 34-H ) :   0.9405
B( 15-C , 35-H ) :   0.9375 B( 16-O , 17-C ) :   0.9056 B( 17-C , 18-C ) :   1.1631
B( 17-C , 36-H ) :   0.9344 B( 17-C , 37-H ) :   0.9180 B( 18-C , 38-H ) :   0.9356
B( 18-C , 39-H ) :   0.9316 B( 18-C , 40-H ) :   0.9427

Dispersion correction           -0.065490061
FINAL SINGLE POINT ENERGY     -2929.521138956068

DIPOLE MOMENT
-------------

Method             : SCF
Type of density    : Electron Density
Multiplicity       :   1
Irrep              :   0
Energy             : -2929.6413646348160000 Eh
Relativity type    :
Basis              : AO
                                X                 Y                 Z
Electronic contribution:      0.992053248       3.761143690     -20.186853004
Nuclear contribution   :     -0.790879044      -4.299176804      21.843572060
                        -----------------------------------------
Total Dipole Moment    :      0.201174204      -0.538033115       1.656719056
                        -----------------------------------------
Magnitude (a.u.)       :      1.753473332
Magnitude (Debye)      :      4.456975008

Rotational constants in cm-1:             0.013783             0.004445             0.004307
Rotational constants in MHz :           413.191551           133.272705           129.109226

                             ****ORCA TERMINATED NORMALLY****
TOTAL RUN TIME: 0 days 0 hours 0 minutes 21 seconds 212 msec
