                         Program Version 6.0.0  -   RELEASE  -
|  1> ! r2scan-3c def2/J RI DEFGRID2 scfconv6 printgap
|  2> %output
|  3>     printlevel normal
|  4> end
|  5> * xyz 0 1
|  6> C 3.5807613063 -2.0372382453 -2.4308081566
|  7> C 3.8980131768 -2.1775410672 -0.956012903
|  8> O 2.7558745077 -1.8979735553 -0.1273024262
|  9> P 2.1359042903 -0.4432039017 0.0141338528
| 10> S 3.4331930889 1.0295358071 0.0801398601
| 11> O 1.2055315904 -0.6239761501 1.2824399649
| 12> C 1.6143774639 -0.2207565793 2.6026398447
| 13> C 2.7041741349 -1.1211029844 3.1453715061
| 14> S 0.673499905 -0.3496205255 -1.5125000539
| 15> C 0.3697558504 1.4289850289 -1.3806053465
| 16> S -0.3641249622 1.9022393851 0.2136291657
| 17> P -2.1778606401 0.8569520401 -0.0498978714
| 18> S -2.948974693 0.8388821249 -1.8531480751
| 19> O -2.971915307 1.6624509452 1.0621338818
| 20> C -4.4121449943 1.7385012757 1.0735896151
| 21> C -5.0534332626 0.3855410645 1.3054852275
| 22> O -1.9670330674 -0.5797276003 0.6049251604
| 23> C -2.1432078406 -1.8377492725 -0.081652274
| 24> C -1.1786956874 -2.8544242494 0.4925567667
| 25> H 2.7059268269 -2.6290359203 -2.6879312627
| 26> H 3.3797037815 -0.9942238398 -2.6718155017
| 27> H 4.4305121992 -2.3753978587 -3.0151395289
| 28> H 4.7066934866 -1.49717337 -0.6707758266
| 29> H 4.1643775826 -3.2028669199 -0.6963133268
| 30> H 1.9522839675 0.820017652 2.5599077514
| 31> H 0.6983741302 -0.283821758 3.1917756187
| 32> H 3.6067667428 -1.0077731865 2.5456837888
| 33> H 2.9249625874 -0.8427335961 4.1710196692
| 34> H 2.3866997014 -2.1598186638 3.1102472047
| 35> H -0.3101918976 1.6918995694 -2.1904352983
| 36> H 1.3126676623 1.9694236883 -1.4615435549
| 37> H -4.6287796526 2.4350256625 1.8846193256
| 38> H -4.7420829364 2.1627478422 0.1201932545
| 39> H -4.8663596258 -0.2620553368 0.4489598427
| 40> H -4.6421726216 -0.0772467242 2.1991038162
| 41> H -6.125423942 0.5103087352 1.4229813171
| 42> H -3.1781264738 -2.1509826106 0.0796191104
| 43> H -1.9799774183 -1.688093999 -1.1533199006
| 44> H -1.3307485651 -2.9455935469 1.5640940968
| 45> H -1.3579003675 -3.8139515931 0.0185449803
| 46> H -0.1503086535 -2.5533291538 0.3092927868
| 47> *
| 48>
| 49>                          ****END OF INPUT****

CARTESIAN COORDINATES (ANGSTROEM)
---------------------------------
  C      3.580761   -2.037238   -2.430808
  C      3.898013   -2.177541   -0.956013
  O      2.755875   -1.897974   -0.127302
  P      2.135904   -0.443204    0.014134
  S      3.433193    1.029536    0.080140
  O      1.205532   -0.623976    1.282440
  C      1.614377   -0.220757    2.602640
  C      2.704174   -1.121103    3.145372
  S      0.673500   -0.349621   -1.512500
  C      0.369756    1.428985   -1.380605
  S     -0.364125    1.902239    0.213629
  P     -2.177861    0.856952   -0.049898
  S     -2.948975    0.838882   -1.853148
  O     -2.971915    1.662451    1.062134
  C     -4.412145    1.738501    1.073590
  C     -5.053433    0.385541    1.305485
  O     -1.967033   -0.579728    0.604925
  C     -2.143208   -1.837749   -0.081652
  C     -1.178696   -2.854424    0.492557
  H      2.705927   -2.629036   -2.687931
  H      3.379704   -0.994224   -2.671816
  H      4.430512   -2.375398   -3.015140
  H      4.706693   -1.497173   -0.670776
  H      4.164378   -3.202867   -0.696313
  H      1.952284    0.820018    2.559908
  H      0.698374   -0.283822    3.191776
  H      3.606767   -1.007773    2.545684
  H      2.924963   -0.842734    4.171020
  H      2.386700   -2.159819    3.110247
  H     -0.310192    1.691900   -2.190435
  H      1.312668    1.969424   -1.461544
  H     -4.628780    2.435026    1.884619
  H     -4.742083    2.162748    0.120193
  H     -4.866360   -0.262055    0.448960
  H     -4.642173   -0.077247    2.199104
  H     -6.125424    0.510309    1.422981
  H     -3.178126   -2.150983    0.079619
  H     -1.979977   -1.688094   -1.153320
  H     -1.330749   -2.945594    1.564094
  H     -1.357900   -3.813952    0.018545
  H     -0.150309   -2.553329    0.309293

 Total Charge           Charge          ....    0
 Multiplicity           Mult            ....    1
 Number of Electrons    NEL             ....  202
 Basis Dimension        Dim             ....  539

ORBITAL ENERGIES
----------------

  NO   OCC          E(Eh)            E(eV)
   0   2.0000     -88.576408     -2410.2866
   1   2.0000     -88.570626     -2410.1293
   2   2.0000     -88.524318     -2408.8692
   3   2.0000     -88.520889     -2408.7759
   4   2.0000     -76.915986     -2092.9904
   5   2.0000     -76.912166     -2092.8864
   6   2.0000     -18.997358      -516.9444
   7   2.0000     -18.988680      -516.7082
   8   2.0000     -18.988333      -516.6988
   9   2.0000     -18.985786      -516.6295
  10   2.0000     -10.103972      -274.9431
  11   2.0000     -10.102399      -274.9003
  12   2.0000     -10.099740      -274.8279
  13   2.0000     -10.095710      -274.7182
  14   2.0000     -10.093346      -274.6539
  15   2.0000     -10.032009      -272.9848
  16   2.0000     -10.031553      -272.9724
  17   2.0000     -10.028531      -272.8902
  18   2.0000     -10.024391      -272.7775
  19   2.0000      -7.870947      -214.1794
  20   2.0000      -7.864901      -214.0148
  21   2.0000      -7.819011      -212.7661
  22   2.0000      -7.815713      -212.6764
  23   2.0000      -6.594650      -179.4495
  24   2.0000      -6.590531      -179.3375
  25   2.0000      -5.817747      -158.3089
  26   2.0000      -5.814854      -158.2302
  27   2.0000      -5.811869      -158.1490
  28   2.0000      -5.808936      -158.0692
  29   2.0000      -5.808057      -158.0453
  30   2.0000      -5.801744      -157.8735
  31   2.0000      -5.766575      -156.9165
  32   2.0000      -5.763306      -156.8275
  33   2.0000      -5.759307      -156.7187
  34   2.0000      -5.759095      -156.7129
  35   2.0000      -5.756272      -156.6361
  36   2.0000      -5.755480      -156.6146
  37   2.0000      -4.739994      -128.9818
  38   2.0000      -4.739511      -128.9686
  39   2.0000      -4.738555      -128.9426
  40   2.0000      -4.735817      -128.8681
  41   2.0000      -4.735276      -128.8534
  42   2.0000      -4.734650      -128.8364
  43   2.0000      -1.052735       -28.6464
  44   2.0000      -1.044327       -28.4176
  45   2.0000      -1.013332       -27.5742
  46   2.0000      -1.006029       -27.3755
  47   2.0000      -0.802337       -21.8327
  48   2.0000      -0.759921       -20.6785
  49   2.0000      -0.748597       -20.3704
  50   2.0000      -0.732372       -19.9288
  51   2.0000      -0.730990       -19.8913
  52   2.0000      -0.709609       -19.3094
  53   2.0000      -0.686363       -18.6769
  54   2.0000      -0.669310       -18.2129
  55   2.0000      -0.636936       -17.3319
  56   2.0000      -0.626528       -17.0487
  57   2.0000      -0.606677       -16.5085
  58   2.0000      -0.600309       -16.3353
  59   2.0000      -0.589184       -16.0325
  60   2.0000      -0.524447       -14.2709
  61   2.0000      -0.517987       -14.0952
  62   2.0000      -0.496122       -13.5002
  63   2.0000      -0.493483       -13.4284
  64   2.0000      -0.476174       -12.9573
  65   2.0000      -0.461393       -12.5551
  66   2.0000      -0.460795       -12.5389
  67   2.0000      -0.453070       -12.3287
  68   2.0000      -0.444951       -12.1077
  69   2.0000      -0.431574       -11.7437
  70   2.0000      -0.417207       -11.3528
  71   2.0000      -0.413982       -11.2650
  72   2.0000      -0.409982       -11.1562
  73   2.0000      -0.407831       -11.0977
  74   2.0000      -0.398498       -10.8437
  75   2.0000      -0.391989       -10.6666
  76   2.0000      -0.382659       -10.4127
  77   2.0000      -0.374585       -10.1930
  78   2.0000      -0.372967       -10.1490
  79   2.0000      -0.365858        -9.9555
  80   2.0000      -0.363766        -9.8986
  81   2.0000      -0.361011        -9.8236
  82   2.0000      -0.356891        -9.7115
  83   2.0000      -0.350233        -9.5303
  84   2.0000      -0.347942        -9.4680
  85   2.0000      -0.336295        -9.1510
  86   2.0000      -0.323016        -8.7897
  87   2.0000      -0.312851        -8.5131
  88   2.0000      -0.308682        -8.3997
  89   2.0000      -0.300626        -8.1805
  90   2.0000      -0.296741        -8.0747
  91   2.0000      -0.290061        -7.8930
  92   2.0000      -0.289599        -7.8804
  93   2.0000      -0.282483        -7.6867
  94   2.0000      -0.271885        -7.3984
  95   2.0000      -0.243818        -6.6346
  96   2.0000      -0.230406        -6.2697
  97   2.0000      -0.227690        -6.1958
  98   2.0000      -0.222435        -6.0528
  99   2.0000      -0.216179        -5.8825
 100   2.0000      -0.211183        -5.7466
 101   0.0000      -0.048883        -1.3302
 102   0.0000      -0.025461        -0.6928
 103   0.0000      -0.002117        -0.0576
 104   0.0000       0.009234         0.2513
 105   0.0000       0.009773         0.2659

MULLIKEN ATOMIC CHARGES
-----------------------
   0 C :   -0.453993
   1 C :   -0.151992
   2 O :   -0.307120
   3 P :    0.692452
   4 S :   -0.482576
   5 O :   -0.254130
   6 C :   -0.158602
   7 C :   -0.444398
   8 S :   -0.138665
   9 C :   -0.235957
  10 S :   -0.125238
  11 P :    0.675642
  12 S :   -0.481082
  13 O :   -0.310292
  14 C :   -0.152860
  15 C :   -0.446566
  16 O :   -0.267502
  17 C :   -0.090924
  18 C :   -0.471466
  19 H :    0.155968
  20 H :    0.178608
  21 H :    0.149330
  22 H :    0.172069
  23 H :    0.149182
  24 H :    0.173735
  25 H :    0.157682
  26 H :    0.166472
  27 H :    0.147870
  28 H :    0.155412
  29 H :    0.213269
  30 H :    0.209915
  31 H :    0.150180
  32 H :    0.173070
  33 H :    0.166570
  34 H :    0.159451
  35 H :    0.149689
  36 H :    0.141737
  37 H :    0.172329
  38 H :    0.146987
  39 H :    0.143806
  40 H :    0.171942
Sum of atomic charges:   -0.0000000

LOEWDIN ATOMIC CHARGES
----------------------
   0 C :   -0.406523
   1 C :    0.020832
   2 O :   -0.662063
   3 P :    0.377117
   4 S :   -0.127032
   5 O :   -0.684367
   6 C :    0.018276
   7 C :   -0.399129
   8 S :    0.171631
   9 C :   -0.417777
  10 S :    0.194773
  11 P :    0.382800
  12 S :   -0.130096
  13 O :   -0.672970
  14 C :    0.024877
  15 C :   -0.401237
  16 O :   -0.663228
  17 C :    0.008627
  18 C :   -0.392978
  19 H :    0.160249
  20 H :    0.166203
  21 H :    0.159951
  22 H :    0.179956
  23 H :    0.179950
  24 H :    0.181727
  25 H :    0.182317
  26 H :    0.164180
  27 H :    0.159580
  28 H :    0.159865
  29 H :    0.190600
  30 H :    0.190610
  31 H :    0.180835
  32 H :    0.179591
  33 H :    0.163195
  34 H :    0.161533
  35 H :    0.160241
  36 H :    0.168990
  37 H :    0.181787
  38 H :    0.159079
  39 H :    0.157815
  40 H :    0.170214

  Mayer bond orders larger than 0.100000
B(  0-C ,  1-C ) :   0.9222 B(  0-C , 19-H ) :   0.9692 B(  0-C , 20-H ) :   0.9620
B(  0-C , 21-H ) :   0.9580 B(  1-C ,  2-O ) :   0.8127 B(  1-C , 22-H ) :   0.9662
B(  1-C , 23-H ) :   0.9582 B(  2-O ,  3-P ) :   1.0516 B(  3-P ,  4-S ) :   1.7712
B(  3-P ,  5-O ) :   1.1171 B(  3-P ,  8-S ) :   1.0734 B(  5-O ,  6-C ) :   0.7802
B(  6-C ,  7-C ) :   0.9160 B(  6-C , 24-H ) :   0.9598 B(  6-C , 25-H ) :   0.9636
B(  7-C , 26-H ) :   0.9606 B(  7-C , 27-H ) :   0.9630 B(  7-C , 28-H ) :   0.9743
B(  8-S ,  9-C ) :   0.8904 B(  9-C , 10-S ) :   0.9043 B(  9-C , 29-H ) :   0.9081
B(  9-C , 30-H ) :   0.9081 B( 10-S , 11-P ) :   1.0849 B( 11-P , 12-S ) :   1.7500
B( 11-P , 13-O ) :   1.1639 B( 11-P , 16-O ) :   1.0865 B( 13-O , 14-C ) :   0.8113
B( 14-C , 15-C ) :   0.9135 B( 14-C , 31-H ) :   0.9598 B( 14-C , 32-H ) :   0.9692
B( 15-C , 33-H ) :   0.9630 B( 15-C , 34-H ) :   0.9694 B( 15-C , 35-H ) :   0.9598
B( 16-O , 17-C ) :   0.7363 B( 17-C , 18-C ) :   0.9359 B( 17-C , 36-H ) :   0.9445
B( 17-C , 37-H ) :   0.9591 B( 18-C , 38-H ) :   0.9689 B( 18-C , 39-H ) :   0.9693
B( 18-C , 40-H ) :   0.9655

Dispersion correction           -0.022199011
FINAL SINGLE POINT ENERGY     -2932.464047842326

DIPOLE MOMENT
-------------

Method             : SCF
Type of density    : Electron Density
Multiplicity       :   1
Irrep              :   0
Energy             : -2932.4884209420338266 Eh
Relativity type    :
Basis              : AO
                                X                 Y                 Z
Electronic contribution:      0.828921457      16.944235346      -7.909487216
Nuclear contribution   :     -0.978571981     -18.216482100       8.680119467
                        -----------------------------------------
Total Dipole Moment    :     -0.149650524      -1.272246754       0.770632251
                        -----------------------------------------
Magnitude (a.u.)       :      1.494951889
Magnitude (Debye)      :      3.799865721

Rotational constants in cm-1:             0.013390             0.004998             0.004875
Rotational constants in MHz :           401.424062           149.847452           146.134584

                             ****ORCA TERMINATED NORMALLY****
TOTAL RUN TIME: 0 days 0 hours 1 minutes 23 seconds 883 msec
