                         Program Version 6.0.0  -   RELEASE  -
|  1> ! r2scan-3c def2/J RI DEFGRID2 scfconv6 printgap
|  2> %output
|  3>     printlevel normal
|  4> end
|  5> %cpcm
|  6>     smd true
|  7>     smdsolvent "water"
|  8> end
|  9> * xyz 0 1
| 10> C 3.5807613063 -2.0372382453 -2.4308081566
| 11> C 3.8980131768 -2.1775410672 -0.956012903
| 12> O 2.7558745077 -1.8979735553 -0.1273024262
| 13> P 2.1359042903 -0.4432039017 0.0141338528
| 14> S 3.4331930889 1.0295358071 0.0801398601
| 15> O 1.2055315904 -0.6239761501 1.2824399649
| 16> C 1.6143774639 -0.2207565793 2.6026398447
| 17> C 2.7041741349 -1.1211029844 3.1453715061
| 18> S 0.673499905 -0.3496205255 -1.5125000539
| 19> C 0.3697558504 1.4289850289 -1.3806053465
| 20> S -0.3641249622 1.9022393851 0.2136291657
| 21> P -2.1778606401 0.8569520401 -0.0498978714
| 22> S -2.948974693 0.8388821249 -1.8531480751
| 23> O -2.971915307 1.6624509452 1.0621338818
| 24> C -4.4121449943 1.7385012757 1.0735896151
| 25> C -5.0534332626 0.3855410645 1.3054852275
| 26> O -1.9670330674 -0.5797276003 0.6049251604
| 27> C -2.1432078406 -1.8377492725 -0.081652274
| 28> C -1.1786956874 -2.8544242494 0.4925567667
| 29> H 2.7059268269 -2.6290359203 -2.6879312627
| 30> H 3.3797037815 -0.9942238398 -2.6718155017
| 31> H 4.4305121992 -2.3753978587 -3.0151395289
| 32> H 4.7066934866 -1.49717337 -0.6707758266
| 33> H 4.1643775826 -3.2028669199 -0.6963133268
| 34> H 1.9522839675 0.820017652 2.5599077514
| 35> H 0.6983741302 -0.283821758 3.1917756187
| 36> H 3.6067667428 -1.0077731865 2.5456837888
| 37> H 2.9249625874 -0.8427335961 4.1710196692
| 38> H 2.3866997014 -2.1598186638 3.1102472047
| 39> H -0.3101918976 1.6918995694 -2.1904352983
| 40> H 1.3126676623 1.9694236883 -1.4615435549
| 41> H -4.6287796526 2.4350256625 1.8846193256
| 42> H -4.7420829364 2.1627478422 0.1201932545
| 43> H -4.8663596258 -0.2620553368 0.4489598427
| 44> H -4.6421726216 -0.0772467242 2.1991038162
| 45> H -6.125423942 0.5103087352 1.4229813171
| 46> H -3.1781264738 -2.1509826106 0.0796191104
| 47> H -1.9799774183 -1.688093999 -1.1533199006
| 48> H -1.3307485651 -2.9455935469 1.5640940968
| 49> H -1.3579003675 -3.8139515931 0.0185449803
| 50> H -0.1503086535 -2.5533291538 0.3092927868
| 51> *
| 52>
| 53>                          ****END OF INPUT****

CARTESIAN COORDINATES (ANGSTROEM)
---------------------------------
  C      3.580761   -2.037238   -2.430808
  C      3.898013   -2.177541   -0.956013
  O      2.755875   -1.897974   -0.127302
  P      2.135904   -0.443204    0.014134
  S      3.433193    1.029536    0.080140
  O      1.205532   -0.623976    1.282440
  C      1.614377   -0.220757    2.602640
  C      2.704174   -1.121103    3.145372
  S      0.673500   -0.349621   -1.512500
  C      0.369756    1.428985   -1.380605
  S     -0.364125    1.902239    0.213629
  P     -2.177861    0.856952   -0.049898
  S     -2.948975    0.838882   -1.853148
  O     -2.971915    1.662451    1.062134
  C     -4.412145    1.738501    1.073590
  C     -5.053433    0.385541    1.305485
  O     -1.967033   -0.579728    0.604925
  C     -2.143208   -1.837749   -0.081652
  C     -1.178696   -2.854424    0.492557
  H      2.705927   -2.629036   -2.687931
  H      3.379704   -0.994224   -2.671816
  H      4.430512   -2.375398   -3.015140
  H      4.706693   -1.497173   -0.670776
  H      4.164378   -3.202867   -0.696313
  H      1.952284    0.820018    2.559908
  H      0.698374   -0.283822    3.191776
  H      3.606767   -1.007773    2.545684
  H      2.924963   -0.842734    4.171020
  H      2.386700   -2.159819    3.110247
  H     -0.310192    1.691900   -2.190435
  H      1.312668    1.969424   -1.461544
  H     -4.628780    2.435026    1.884619
  H     -4.742083    2.162748    0.120193
  H     -4.866360   -0.262055    0.448960
  H     -4.642173   -0.077247    2.199104
  H     -6.125424    0.510309    1.422981
  H     -3.178126   -2.150983    0.079619
  H     -1.979977   -1.688094   -1.153320
  H     -1.330749   -2.945594    1.564094
  H     -1.357900   -3.813952    0.018545
  H     -0.150309   -2.553329    0.309293

 Total Charge           Charge          ....    0
 Multiplicity           Mult            ....    1
 Number of Electrons    NEL             ....  202
 Basis Dimension        Dim             ....  539

ORBITAL ENERGIES
----------------

  NO   OCC          E(Eh)            E(eV)
   0   2.0000     -88.579503     -2410.3708
   1   2.0000     -88.577872     -2410.3264
   2   2.0000     -88.529900     -2409.0210
   3   2.0000     -88.529625     -2409.0136
   4   2.0000     -76.919756     -2093.0930
   5   2.0000     -76.919539     -2093.0871
   6   2.0000     -18.997347      -516.9441
   7   2.0000     -18.993348      -516.8353
   8   2.0000     -18.991851      -516.7945
   9   2.0000     -18.991312      -516.7799
  10   2.0000     -10.105011      -274.9713
  11   2.0000     -10.090735      -274.5829
  12   2.0000     -10.090566      -274.5783
  13   2.0000     -10.088850      -274.5316
  14   2.0000     -10.088143      -274.5123
  15   2.0000     -10.019343      -272.6402
  16   2.0000     -10.019067      -272.6327
  17   2.0000     -10.018468      -272.6164
  18   2.0000     -10.017118      -272.5796
  19   2.0000      -7.874039      -214.2635
  20   2.0000      -7.872228      -214.2142
  21   2.0000      -7.824872      -212.9256
  22   2.0000      -7.824707      -212.9211
  23   2.0000      -6.598441      -179.5527
  24   2.0000      -6.597943      -179.5392
  25   2.0000      -5.820837      -158.3930
  26   2.0000      -5.819125      -158.3465
  27   2.0000      -5.817953      -158.3146
  28   2.0000      -5.816199      -158.2668
  29   2.0000      -5.811145      -158.1293
  30   2.0000      -5.809211      -158.0767
  31   2.0000      -5.772385      -157.0746
  32   2.0000      -5.772257      -157.0711
  33   2.0000      -5.765178      -156.8785
  34   2.0000      -5.765151      -156.8777
  35   2.0000      -5.764972      -156.8729
  36   2.0000      -5.764557      -156.8616
  37   2.0000      -4.743741      -129.0837
  38   2.0000      -4.743311      -129.0721
  39   2.0000      -4.743194      -129.0689
  40   2.0000      -4.742693      -129.0552
  41   2.0000      -4.742411      -129.0476
  42   2.0000      -4.742116      -129.0395
  43   2.0000      -1.053692       -28.6724
  44   2.0000      -1.049149       -28.5488
  45   2.0000      -1.014066       -27.5941
  46   2.0000      -1.010498       -27.4971
  47   2.0000      -0.805736       -21.9252
  48   2.0000      -0.758032       -20.6271
  49   2.0000      -0.742981       -20.2175
  50   2.0000      -0.724173       -19.7058
  51   2.0000      -0.723387       -19.6844
  52   2.0000      -0.709230       -19.2991
  53   2.0000      -0.690076       -18.7779
  54   2.0000      -0.675826       -18.3902
  55   2.0000      -0.635455       -17.2916
  56   2.0000      -0.622991       -16.9524
  57   2.0000      -0.599455       -16.3120
  58   2.0000      -0.595490       -16.2041
  59   2.0000      -0.589074       -16.0295
  60   2.0000      -0.522784       -14.2257
  61   2.0000      -0.514541       -14.0014
  62   2.0000      -0.494353       -13.4520
  63   2.0000      -0.490176       -13.3384
  64   2.0000      -0.476397       -12.9634
  65   2.0000      -0.457776       -12.4567
  66   2.0000      -0.456114       -12.4115
  67   2.0000      -0.449698       -12.2369
  68   2.0000      -0.442002       -12.0275
  69   2.0000      -0.427883       -11.6433
  70   2.0000      -0.415589       -11.3088
  71   2.0000      -0.412307       -11.2194
  72   2.0000      -0.407713       -11.0944
  73   2.0000      -0.406020       -11.0484
  74   2.0000      -0.397917       -10.8279
  75   2.0000      -0.390577       -10.6281
  76   2.0000      -0.381738       -10.3876
  77   2.0000      -0.369414       -10.0523
  78   2.0000      -0.366377        -9.9696
  79   2.0000      -0.360029        -9.7969
  80   2.0000      -0.354982        -9.6595
  81   2.0000      -0.352762        -9.5991
  82   2.0000      -0.348895        -9.4939
  83   2.0000      -0.346179        -9.4200
  84   2.0000      -0.344047        -9.3620
  85   2.0000      -0.332196        -9.0395
  86   2.0000      -0.322177        -8.7669
  87   2.0000      -0.306273        -8.3341
  88   2.0000      -0.305119        -8.3027
  89   2.0000      -0.301621        -8.2075
  90   2.0000      -0.298316        -8.1176
  91   2.0000      -0.290165        -7.8958
  92   2.0000      -0.288786        -7.8583
  93   2.0000      -0.280755        -7.6397
  94   2.0000      -0.274498        -7.4695
  95   2.0000      -0.247880        -6.7451
  96   2.0000      -0.237959        -6.4752
  97   2.0000      -0.235445        -6.4068
  98   2.0000      -0.229405        -6.2424
  99   2.0000      -0.223205        -6.0737
 100   2.0000      -0.219354        -5.9689
 101   0.0000      -0.054985        -1.4962
 102   0.0000      -0.031997        -0.8707
 103   0.0000      -0.006139        -0.1671
 104   0.0000       0.004687         0.1275
 105   0.0000       0.008246         0.2244

MULLIKEN ATOMIC CHARGES
-----------------------
   0 C :   -0.490650
   1 C :   -0.151517
   2 O :   -0.331873
   3 P :    0.730939
   4 S :   -0.527583
   5 O :   -0.281574
   6 C :   -0.153854
   7 C :   -0.485434
   8 S :   -0.141235
   9 C :   -0.249432
  10 S :   -0.150471
  11 P :    0.696446
  12 S :   -0.517739
  13 O :   -0.340591
  14 C :   -0.152328
  15 C :   -0.478252
  16 O :   -0.296445
  17 C :   -0.081343
  18 C :   -0.517419
  19 H :    0.170718
  20 H :    0.173363
  21 H :    0.173809
  22 H :    0.178450
  23 H :    0.176171
  24 H :    0.176085
  25 H :    0.180003
  26 H :    0.167521
  27 H :    0.172380
  28 H :    0.170212
  29 H :    0.234350
  30 H :    0.230914
  31 H :    0.175908
  32 H :    0.178059
  33 H :    0.170455
  34 H :    0.170522
  35 H :    0.174160
  36 H :    0.172118
  37 H :    0.170372
  38 H :    0.167886
  39 H :    0.169863
  40 H :    0.167036
Sum of atomic charges:   -0.0000000

LOEWDIN ATOMIC CHARGES
----------------------
   0 C :   -0.409578
   1 C :    0.026874
   2 O :   -0.670920
   3 P :    0.383153
   4 S :   -0.154372
   5 O :   -0.699833
   6 C :    0.021420
   7 C :   -0.402050
   8 S :    0.172422
   9 C :   -0.412243
  10 S :    0.177753
  11 P :    0.383671
  12 S :   -0.153516
  13 O :   -0.688901
  14 C :    0.029082
  15 C :   -0.402778
  16 O :   -0.677438
  17 C :    0.013154
  18 C :   -0.396952
  19 H :    0.163834
  20 H :    0.161695
  21 H :    0.168882
  22 H :    0.181951
  23 H :    0.191495
  24 H :    0.182187
  25 H :    0.190956
  26 H :    0.162471
  27 H :    0.168649
  28 H :    0.163967
  29 H :    0.196722
  30 H :    0.196982
  31 H :    0.191504
  32 H :    0.181297
  33 H :    0.163087
  34 H :    0.164907
  35 H :    0.169495
  36 H :    0.180861
  37 H :    0.181728
  38 H :    0.164000
  39 H :    0.168273
  40 H :    0.166109

  Mayer bond orders larger than 0.100000
B(  0-C ,  1-C ) :   0.9084 B(  0-C , 19-H ) :   0.9662 B(  0-C , 20-H ) :   0.9634
B(  0-C , 21-H ) :   0.9526 B(  1-C ,  2-O ) :   0.8002 B(  1-C , 22-H ) :   0.9650
B(  1-C , 23-H ) :   0.9482 B(  2-O ,  3-P ) :   1.0616 B(  3-P ,  4-S ) :   1.7305
B(  3-P ,  5-O ) :   1.1240 B(  3-P ,  8-S ) :   1.0816 B(  5-O ,  6-C ) :   0.7675
B(  6-C ,  7-C ) :   0.9086 B(  6-C , 24-H ) :   0.9555 B(  6-C , 25-H ) :   0.9538
B(  7-C , 26-H ) :   0.9599 B(  7-C , 27-H ) :   0.9571 B(  7-C , 28-H ) :   0.9724
B(  8-S ,  9-C ) :   0.8842 B(  9-C , 10-S ) :   0.8932 B(  9-C , 29-H ) :   0.9032
B(  9-C , 30-H ) :   0.9024 B( 10-S , 11-P ) :   1.0970 B( 11-P , 12-S ) :   1.7315
B( 11-P , 13-O ) :   1.1680 B( 11-P , 16-O ) :   1.0857 B( 13-O , 14-C ) :   0.7989
B( 14-C , 15-C ) :   0.9049 B( 14-C , 31-H ) :   0.9500 B( 14-C , 32-H ) :   0.9648
B( 15-C , 33-H ) :   0.9603 B( 15-C , 34-H ) :   0.9674 B( 15-C , 35-H ) :   0.9540
B( 16-O , 17-C ) :   0.7282 B( 17-C , 18-C ) :   0.9232 B( 17-C , 36-H ) :   0.9363
B( 17-C , 37-H ) :   0.9556 B( 18-C , 38-H ) :   0.9673 B( 18-C , 39-H ) :   0.9620
B( 18-C , 40-H ) :   0.9661

Dispersion correction           -0.022199011
FINAL SINGLE POINT ENERGY     -2932.472188261477

DIPOLE MOMENT
-------------

Method             : SCF
Type of density    : Electron Density
Multiplicity       :   1
Irrep              :   0
Energy             : -2932.4965613611848312 Eh
Relativity type    :
Basis              : AO
                                X                 Y                 Z
Electronic contribution:      0.721465216      16.467875366      -7.801834299
Nuclear contribution   :     -0.978571981     -18.216482100       8.680119467
                        -----------------------------------------
Total Dipole Moment    :     -0.257106765      -1.748606734       0.878285168
                        -----------------------------------------
Magnitude (a.u.)       :      1.973604377
Magnitude (Debye)      :      5.016503658

Rotational constants in cm-1:             0.013390             0.004998             0.004875
Rotational constants in MHz :           401.424062           149.847452           146.134584

                             ****ORCA TERMINATED NORMALLY****
TOTAL RUN TIME: 0 days 0 hours 1 minutes 51 seconds 597 msec
