                         Program Version 6.0.0  -   RELEASE  -
|  1> ! wb97x-v def2-tzvp def2/J RIJCOSX DEFGRID2 scfconv7 GCP(DFT/TZ) printgap
|  2> %output
|  3>     printlevel normal
|  4> end
|  5> * xyz 0 1
|  6> C -1.9224085723576516 -0.06459907875835962 0.30709501063638694
|  7> C -0.7287091918283908 -0.663842367829838 -0.3862225492533509
|  8> N 0.568319979332501 0.040529718774679244 -0.05030272416361392
|  9> O 0.5407540275564838 1.0402314383865878 0.6543440338329677
| 10> O 1.5955310376313876 -0.437789002223837 -0.521794409986483
| 11> H -1.8161600408762306 -0.1037525549743295 1.3936585463172468
| 12> H -2.0922895991028545 0.96905219286154 -0.0019236823567644144
| 13> H -2.7994541220587146 -0.6552422376285938 0.027083005795382458
| 14> H -0.7931043501299821 -0.6055797674942492 -1.4769839283064816
| 15> H -0.551441181845049 -1.7080077306252597 -0.11514385717334245
| 16> *
| 17>
| 18>                          ****END OF INPUT****

CARTESIAN COORDINATES (ANGSTROEM)
---------------------------------
  C     -1.922409   -0.064599    0.307095
  C     -0.728709   -0.663842   -0.386223
  N      0.568320    0.040530   -0.050303
  O      0.540754    1.040231    0.654344
  O      1.595531   -0.437789   -0.521794
  H     -1.816160   -0.103753    1.393659
  H     -2.092290    0.969052   -0.001924
  H     -2.799454   -0.655242    0.027083
  H     -0.793104   -0.605580   -1.476984
  H     -0.551441   -1.708008   -0.115144

 Total Charge           Charge          ....    0
 Multiplicity           Mult            ....    1
 Number of Electrons    NEL             ....   40
 Basis Dimension        Dim             ....  185

ORBITAL ENERGIES
----------------

  NO   OCC          E(Eh)            E(eV)
   0   2.0000     -21.712340      -590.8228
   1   2.0000     -21.707399      -590.6884
   2   2.0000     -16.769887      -456.3318
   3   2.0000     -12.123951      -329.9095
   4   2.0000     -12.067335      -328.3689
   5   2.0000      -1.904462       -51.8230
   6   2.0000      -1.750438       -47.6318
   7   2.0000      -1.391280       -37.8586
   8   2.0000      -1.261727       -34.3333
   9   2.0000      -1.179450       -32.0945
  10   2.0000      -1.140286       -31.0288
  11   2.0000      -1.079814       -29.3832
  12   2.0000      -1.062412       -28.9097
  13   2.0000      -0.923990       -25.1431
  14   2.0000      -0.913672       -24.8623
  15   2.0000      -0.896299       -24.3895
  16   2.0000      -0.894590       -24.3430
  17   2.0000      -0.876866       -23.8607
  18   2.0000      -0.838318       -22.8118
  19   2.0000      -0.815905       -22.2019
  20   0.0000      -0.475708       -12.9447
  21   0.0000      -0.229916        -6.2563
  22   0.0000      -0.122608        -3.3363
  23   0.0000      -0.094330        -2.5668
  24   0.0000      -0.026500        -0.7211

MULLIKEN ATOMIC CHARGES
-----------------------
   0 C :   -0.311693
   1 C :   -0.155960
   2 N :    0.404699
   3 O :   -0.301393
   4 O :   -0.308797
   5 H :    0.131692
   6 H :    0.131695
   7 H :    0.120759
   8 H :    0.143341
   9 H :    0.145658
Sum of atomic charges:    0.0000000

LOEWDIN ATOMIC CHARGES
----------------------
   0 C :   -0.301928
   1 C :   -0.251351
   2 N :   -0.048158
   3 O :   -0.027833
   4 O :   -0.044464
   5 H :    0.127477
   6 H :    0.127186
   7 H :    0.128920
   8 H :    0.145505
   9 H :    0.144645

  Mayer bond orders larger than 0.100000
B(  0-C ,  1-C ) :   1.0008 B(  0-C ,  5-H ) :   0.9703 B(  0-C ,  6-H ) :   0.9692
B(  0-C ,  7-H ) :   0.9611 B(  1-C ,  2-N ) :   0.8830 B(  1-C ,  8-H ) :   0.9560
B(  1-C ,  9-H ) :   0.9592 B(  2-N ,  3-O ) :   1.6665 B(  2-N ,  4-O ) :   1.6542
B(  3-O ,  4-O ) :   0.2088

FINAL SINGLE POINT ENERGY      -284.350103446154

DIPOLE MOMENT
-------------

Method             : SCF
Type of density    : Electron Density
Multiplicity       :   1
Irrep              :   0
Energy             :  -284.3566889192536564 Eh
Relativity type    :
Basis              : AO
                                X                 Y                 Z
Electronic contribution:      6.259671828       1.306835216      -0.069107143
Nuclear contribution   :     -7.657104476      -1.922578192      -0.179230704
                        -----------------------------------------
Total Dipole Moment    :     -1.397432648      -0.615742976      -0.248337847
                        -----------------------------------------
Magnitude (a.u.)       :      1.547135774
Magnitude (Debye)      :      3.932506617

Rotational constants in cm-1:             0.360049             0.137740             0.103569
Rotational constants in MHz :         10794.010216          4129.350571          3104.910970

                             ****ORCA TERMINATED NORMALLY****
TOTAL RUN TIME: 0 days 0 hours 0 minutes 59 seconds 999 msec
