                         Program Version 6.0.0  -   RELEASE  -
|  1> ! wb97x-v def2-tzvp def2/J RIJCOSX DEFGRID2 scfconv7 GCP(DFT/TZ) printgap
|  2> %output
|  3>     printlevel normal
|  4> end
|  5> %cpcm
|  6>     smd true
|  7>     smdsolvent "water"
|  8> end
|  9> * xyz 0 1
| 10> C -1.9224085723576516 -0.06459907875835962 0.30709501063638694
| 11> C -0.7287091918283908 -0.663842367829838 -0.3862225492533509
| 12> N 0.568319979332501 0.040529718774679244 -0.05030272416361392
| 13> O 0.5407540275564838 1.0402314383865878 0.6543440338329677
| 14> O 1.5955310376313876 -0.437789002223837 -0.521794409986483
| 15> H -1.8161600408762306 -0.1037525549743295 1.3936585463172468
| 16> H -2.0922895991028545 0.96905219286154 -0.0019236823567644144
| 17> H -2.7994541220587146 -0.6552422376285938 0.027083005795382458
| 18> H -0.7931043501299821 -0.6055797674942492 -1.4769839283064816
| 19> H -0.551441181845049 -1.7080077306252597 -0.11514385717334245
| 20> *
| 21>
| 22>                          ****END OF INPUT****

CARTESIAN COORDINATES (ANGSTROEM)
---------------------------------
  C     -1.922409   -0.064599    0.307095
  C     -0.728709   -0.663842   -0.386223
  N      0.568320    0.040530   -0.050303
  O      0.540754    1.040231    0.654344
  O      1.595531   -0.437789   -0.521794
  H     -1.816160   -0.103753    1.393659
  H     -2.092290    0.969052   -0.001924
  H     -2.799454   -0.655242    0.027083
  H     -0.793104   -0.605580   -1.476984
  H     -0.551441   -1.708008   -0.115144

 Total Charge           Charge          ....    0
 Multiplicity           Mult            ....    1
 Number of Electrons    NEL             ....   40
 Basis Dimension        Dim             ....  185

ORBITAL ENERGIES
----------------

  NO   OCC          E(Eh)            E(eV)
   0   2.0000     -21.723081      -591.1151
   1   2.0000     -21.718532      -590.9913
   2   2.0000     -16.776616      -456.5149
   3   2.0000     -12.102488      -329.3255
   4   2.0000     -12.042120      -327.6827
   5   2.0000      -1.914033       -52.0835
   6   2.0000      -1.761185       -47.9243
   7   2.0000      -1.385002       -37.6878
   8   2.0000      -1.254387       -34.1336
   9   2.0000      -1.176181       -32.0055
  10   2.0000      -1.153816       -31.3969
  11   2.0000      -1.086489       -29.5649
  12   2.0000      -1.047914       -28.5152
  13   2.0000      -0.935374       -25.4528
  14   2.0000      -0.910994       -24.7894
  15   2.0000      -0.899092       -24.4655
  16   2.0000      -0.890009       -24.2184
  17   2.0000      -0.856457       -23.3054
  18   2.0000      -0.815227       -22.1834
  19   2.0000      -0.791008       -21.5244
  20   0.0000      -0.481496       -13.1022
  21   0.0000      -0.227035        -6.1779
  22   0.0000      -0.120837        -3.2881
  23   0.0000      -0.093902        -2.5552
  24   0.0000       0.002077         0.0565

MULLIKEN ATOMIC CHARGES
-----------------------
   0 C :   -0.368758
   1 C :   -0.144565
   2 N :    0.473229
   3 O :   -0.366537
   4 O :   -0.381086
   5 H :    0.142697
   6 H :    0.141318
   7 H :    0.147130
   8 H :    0.178845
   9 H :    0.177728
Sum of atomic charges:    0.0000000

LOEWDIN ATOMIC CHARGES
----------------------
   0 C :   -0.302179
   1 C :   -0.232660
   2 N :   -0.026351
   3 O :   -0.062795
   4 O :   -0.085863
   5 H :    0.128117
   6 H :    0.127423
   7 H :    0.138097
   8 H :    0.159014
   9 H :    0.157197

  Mayer bond orders larger than 0.100000
B(  0-C ,  1-C ) :   1.0064 B(  0-C ,  5-H ) :   0.9687 B(  0-C ,  6-H ) :   0.9675
B(  0-C ,  7-H ) :   0.9574 B(  1-C ,  2-N ) :   0.8795 B(  1-C ,  8-H ) :   0.9393
B(  1-C ,  9-H ) :   0.9435 B(  2-N ,  3-O ) :   1.6339 B(  2-N ,  4-O ) :   1.6106
B(  3-O ,  4-O ) :   0.2037

FINAL SINGLE POINT ENERGY      -284.357500401271

DIPOLE MOMENT
-------------

Method             : SCF
Type of density    : Electron Density
Multiplicity       :   1
Irrep              :   0
Energy             :  -284.3640858743712556 Eh
Relativity type    :
Basis              : AO
                                X                 Y                 Z
Electronic contribution:      5.883779870       1.078586262      -0.184646093
Nuclear contribution   :     -7.657104476      -1.922578192      -0.179230704
                        -----------------------------------------
Total Dipole Moment    :     -1.773324606      -0.843991929      -0.363876797
                        -----------------------------------------
Magnitude (a.u.)       :      1.997350459
Magnitude (Debye)      :      5.076861403

Rotational constants in cm-1:             0.360049             0.137740             0.103569
Rotational constants in MHz :         10794.010216          4129.350571          3104.910970

                             ****ORCA TERMINATED NORMALLY****
TOTAL RUN TIME: 0 days 0 hours 0 minutes 52 seconds 747 msec
