                         Program Version 6.0.0  -   RELEASE  -
|  1> ! pbe def2-sv(p) def2/J RI DEFGRID1 loosescf d4 GCP(DFT/SV(P)) printgap
|  2> %output
|  3>     printlevel normal
|  4> end
|  5> * xyz 0 1
|  6> C 4.805815196 -0.8294464537 -1.3817786637
|  7> C 4.4520132773 -0.6540527042 0.0798473341
|  8> O 3.5096846905 0.4112316005 0.3067776592
|  9> P 2.069287618 0.5367563908 -0.3588492338
| 10> S 1.9794742621 1.0881633154 -2.2328323119
| 11> O 1.4028893901 1.6141529659 0.5780333488
| 12> C 1.4117478461 1.533736398 2.0235212058
| 13> C 2.4939464457 2.421217291 2.6026003505
| 14> S 1.2270154545 -1.3644005791 0.0992085396
| 15> C 0.1230118916 -1.5893187803 -1.3281785959
| 16> S -1.5854643838 -1.9011278192 -0.8432092841
| 17> P -1.9875640082 -0.0104216629 0.0485899289
| 18> S -1.4323476403 1.5133896163 -1.0556534669
| 19> O -1.3399974281 0.0425803606 1.4832223191
| 20> C -1.8279224557 -0.6437565142 2.6687384763
| 21> C -1.7014561137 -2.148971696 2.5656426184
| 22> O -3.5362609854 -0.1013775541 0.3760728361
| 23> C -4.5223556714 -0.0730965385 -0.6770790025
| 24> C -5.8693218721 0.2065274666 -0.0424520118
| 25> H 3.9318099595 -1.1475783106 -1.9476682588
| 26> H 5.1577642095 0.109443275 -1.8024621049
| 27> H 5.5833336597 -1.5806637406 -1.4754254068
| 28> H 5.3224617577 -0.3515302387 0.6647915457
| 29> H 4.0307615378 -1.5759608676 0.4899949877
| 30> H 0.4161672389 1.8714711289 2.3190047173
| 31> H 1.5493907748 0.4895096605 2.3190293609
| 32> H 2.4369108276 2.3890448839 3.6861218651
| 33> H 3.4738203356 2.078946323 2.2809200646
| 34> H 2.3532091507 3.4442575534 2.2643594261
| 35> H 0.4473480606 -2.4717780436 -1.8738984073
| 36> H 0.1828336574 -0.693445409 -1.9538958904
| 37> H -1.1927791777 -0.2431504826 3.4605387945
| 38> H -2.8637529726 -0.3436592557 2.8318773415
| 39> H -0.6889904653 -2.4261930133 2.2801418481
| 40> H -1.9311712965 -2.5853726176 3.5327238761
| 41> H -2.3949622469 -2.5429713308 1.8265318789
| 42> H -4.2428425016 0.7060851181 -1.3937743051
| 43> H -4.5095179402 -1.0432829978 -1.1804308381
| 44> H -5.8523811507 1.168555407 0.4620632783
| 45> H -6.6293234636 0.2226686369 -0.8165807551
| 46> H -6.1081046063 -0.5683960172 0.6798746869
| 47> *
| 48>
| 49>                          ****END OF INPUT****

CARTESIAN COORDINATES (ANGSTROEM)
---------------------------------
  C      4.805815   -0.829446   -1.381779
  C      4.452013   -0.654053    0.079847
  O      3.509685    0.411232    0.306778
  P      2.069288    0.536756   -0.358849
  S      1.979474    1.088163   -2.232832
  O      1.402889    1.614153    0.578033
  C      1.411748    1.533736    2.023521
  C      2.493946    2.421217    2.602600
  S      1.227015   -1.364401    0.099209
  C      0.123012   -1.589319   -1.328179
  S     -1.585464   -1.901128   -0.843209
  P     -1.987564   -0.010422    0.048590
  S     -1.432348    1.513390   -1.055653
  O     -1.339997    0.042580    1.483222
  C     -1.827922   -0.643757    2.668738
  C     -1.701456   -2.148972    2.565643
  O     -3.536261   -0.101378    0.376073
  C     -4.522356   -0.073097   -0.677079
  C     -5.869322    0.206527   -0.042452
  H      3.931810   -1.147578   -1.947668
  H      5.157764    0.109443   -1.802462
  H      5.583334   -1.580664   -1.475425
  H      5.322462   -0.351530    0.664792
  H      4.030762   -1.575961    0.489995
  H      0.416167    1.871471    2.319005
  H      1.549391    0.489510    2.319029
  H      2.436911    2.389045    3.686122
  H      3.473820    2.078946    2.280920
  H      2.353209    3.444258    2.264359
  H      0.447348   -2.471778   -1.873898
  H      0.182834   -0.693445   -1.953896
  H     -1.192779   -0.243150    3.460539
  H     -2.863753   -0.343659    2.831877
  H     -0.688990   -2.426193    2.280142
  H     -1.931171   -2.585373    3.532724
  H     -2.394962   -2.542971    1.826532
  H     -4.242843    0.706085   -1.393774
  H     -4.509518   -1.043283   -1.180431
  H     -5.852381    1.168555    0.462063
  H     -6.629323    0.222669   -0.816581
  H     -6.108105   -0.568396    0.679875

 Total Charge           Charge          ....    0
 Multiplicity           Mult            ....    1
 Number of Electrons    NEL             ....  202
 Basis Dimension        Dim             ....  334

ORBITAL ENERGIES
----------------

  NO   OCC          E(Eh)            E(eV)
   0   2.0000     -88.040924     -2395.7153
   1   2.0000     -88.040641     -2395.7076
   2   2.0000     -87.974575     -2393.9099
   3   2.0000     -87.974320     -2393.9029
   4   2.0000     -76.422486     -2079.5616
   5   2.0000     -76.419767     -2079.4876
   6   2.0000     -18.796223      -511.4712
   7   2.0000     -18.792026      -511.3570
   8   2.0000     -18.790169      -511.3065
   9   2.0000     -18.779807      -511.0245
  10   2.0000      -9.959775      -271.0193
  11   2.0000      -9.955884      -270.9134
  12   2.0000      -9.954398      -270.8729
  13   2.0000      -9.951943      -270.8061
  14   2.0000      -9.947142      -270.6755
  15   2.0000      -9.891406      -269.1588
  16   2.0000      -9.888661      -269.0842
  17   2.0000      -9.880107      -268.8514
  18   2.0000      -9.879628      -268.8383
  19   2.0000      -7.685823      -209.1419
  20   2.0000      -7.685470      -209.1323
  21   2.0000      -7.619876      -207.3474
  22   2.0000      -7.619309      -207.3319
  23   2.0000      -6.419888      -174.6940
  24   2.0000      -6.416864      -174.6117
  25   2.0000      -5.713627      -155.4757
  26   2.0000      -5.713234      -155.4650
  27   2.0000      -5.710268      -155.3843
  28   2.0000      -5.709859      -155.3732
  29   2.0000      -5.702935      -155.1847
  30   2.0000      -5.702734      -155.1793
  31   2.0000      -5.649070      -153.7190
  32   2.0000      -5.648354      -153.6995
  33   2.0000      -5.640439      -153.4841
  34   2.0000      -5.640088      -153.4746
  35   2.0000      -5.639747      -153.4653
  36   2.0000      -5.639213      -153.4508
  37   2.0000      -4.642982      -126.3420
  38   2.0000      -4.641623      -126.3050
  39   2.0000      -4.639830      -126.2562
  40   2.0000      -4.639613      -126.2503
  41   2.0000      -4.638867      -126.2300
  42   2.0000      -4.637008      -126.1794
  43   2.0000      -0.990155       -26.9435
  44   2.0000      -0.981986       -26.7212
  45   2.0000      -0.946274       -25.7494
  46   2.0000      -0.936562       -25.4852
  47   2.0000      -0.760511       -20.6946
  48   2.0000      -0.719863       -19.5885
  49   2.0000      -0.709620       -19.3097
  50   2.0000      -0.695482       -18.9250
  51   2.0000      -0.686218       -18.6729
  52   2.0000      -0.674636       -18.3578
  53   2.0000      -0.645037       -17.5523
  54   2.0000      -0.629819       -17.1382
  55   2.0000      -0.591231       -16.0882
  56   2.0000      -0.584140       -15.8952
  57   2.0000      -0.576010       -15.6740
  58   2.0000      -0.568042       -15.4572
  59   2.0000      -0.565128       -15.3779
  60   2.0000      -0.509104       -13.8534
  61   2.0000      -0.497135       -13.5277
  62   2.0000      -0.476919       -12.9776
  63   2.0000      -0.468757       -12.7555
  64   2.0000      -0.448700       -12.2097
  65   2.0000      -0.448305       -12.1990
  66   2.0000      -0.445723       -12.1287
  67   2.0000      -0.434680       -11.8283
  68   2.0000      -0.429314       -11.6822
  69   2.0000      -0.420627       -11.4458
  70   2.0000      -0.405764       -11.0414
  71   2.0000      -0.401435       -10.9236
  72   2.0000      -0.399825       -10.8798
  73   2.0000      -0.381855       -10.3908
  74   2.0000      -0.378104       -10.2887
  75   2.0000      -0.367702       -10.0057
  76   2.0000      -0.356569        -9.7027
  77   2.0000      -0.353902        -9.6302
  78   2.0000      -0.352702        -9.5975
  79   2.0000      -0.351216        -9.5571
  80   2.0000      -0.345585        -9.4038
  81   2.0000      -0.343513        -9.3475
  82   2.0000      -0.341421        -9.2905
  83   2.0000      -0.336272        -9.1504
  84   2.0000      -0.332782        -9.0555
  85   2.0000      -0.321364        -8.7448
  86   2.0000      -0.313973        -8.5436
  87   2.0000      -0.304414        -8.2835
  88   2.0000      -0.296619        -8.0714
  89   2.0000      -0.292143        -7.9496
  90   2.0000      -0.281492        -7.6598
  91   2.0000      -0.275312        -7.4916
  92   2.0000      -0.269948        -7.3457
  93   2.0000      -0.259365        -7.0577
  94   2.0000      -0.255212        -6.9447
  95   2.0000      -0.232731        -6.3329
  96   2.0000      -0.219130        -5.9628
  97   2.0000      -0.206502        -5.6192
  98   2.0000      -0.194937        -5.3045
  99   2.0000      -0.184381        -5.0173
 100   2.0000      -0.177535        -4.8310
 101   0.0000      -0.041602        -1.1321
 102   0.0000      -0.030502        -0.8300
 103   0.0000      -0.005190        -0.1412
 104   0.0000       0.010265         0.2793
 105   0.0000       0.021437         0.5833

MULLIKEN ATOMIC CHARGES
-----------------------
   0 C :   -0.304707
   1 C :   -0.006550
   2 O :   -0.383866
   3 P :    0.602779
   4 S :   -0.286069
   5 O :   -0.337876
   6 C :   -0.017210
   7 C :   -0.280566
   8 S :   -0.134619
   9 C :   -0.344739
  10 S :   -0.119510
  11 P :    0.593956
  12 S :   -0.278542
  13 O :   -0.355911
  14 C :    0.002348
  15 C :   -0.317182
  16 O :   -0.389293
  17 C :   -0.011810
  18 C :   -0.281840
  19 H :    0.121140
  20 H :    0.125770
  21 H :    0.107636
  22 H :    0.104648
  23 H :    0.107426
  24 H :    0.117393
  25 H :    0.090782
  26 H :    0.102333
  27 H :    0.117990
  28 H :    0.121589
  29 H :    0.179148
  30 H :    0.211938
  31 H :    0.103099
  32 H :    0.112411
  33 H :    0.127967
  34 H :    0.111049
  35 H :    0.123272
  36 H :    0.109144
  37 H :    0.105974
  38 H :    0.122441
  39 H :    0.114805
  40 H :    0.113250
Sum of atomic charges:   -0.0000000

LOEWDIN ATOMIC CHARGES
----------------------
   0 C :   -0.368746
   1 C :   -0.117558
   2 O :   -0.247391
   3 P :    0.567929
   4 S :   -0.288512
   5 O :   -0.222860
   6 C :   -0.114869
   7 C :   -0.358951
   8 S :    0.056279
   9 C :   -0.479720
  10 S :    0.064639
  11 P :    0.555931
  12 S :   -0.289236
  13 O :   -0.232998
  14 C :   -0.107139
  15 C :   -0.370796
  16 O :   -0.252158
  17 C :   -0.119496
  18 C :   -0.350685
  19 H :    0.119983
  20 H :    0.130321
  21 H :    0.128158
  22 H :    0.118564
  23 H :    0.104638
  24 H :    0.120522
  25 H :    0.099028
  26 H :    0.125910
  27 H :    0.124933
  28 H :    0.130017
  29 H :    0.135541
  30 H :    0.126153
  31 H :    0.117217
  32 H :    0.115181
  33 H :    0.123522
  34 H :    0.129882
  35 H :    0.118107
  36 H :    0.111871
  37 H :    0.109525
  38 H :    0.129783
  39 H :    0.132427
  40 H :    0.125056

  Mayer bond orders larger than 0.100000
B(  0-C ,  1-C ) :   1.1672 B(  0-C , 19-H ) :   0.9331 B(  0-C , 20-H ) :   0.9440
B(  0-C , 21-H ) :   0.9350 B(  1-C ,  2-O ) :   0.9164 B(  1-C , 22-H ) :   0.9331
B(  1-C , 23-H ) :   0.9233 B(  2-O ,  3-P ) :   1.0673 B(  3-P ,  4-S ) :   1.6485
B(  3-P ,  5-O ) :   1.1441 B(  3-P ,  8-S ) :   0.9373 B(  4-S ,  8-S ) :   0.1151
B(  5-O ,  6-C ) :   0.8976 B(  6-C ,  7-C ) :   1.1571 B(  6-C , 24-H ) :   0.9274
B(  6-C , 25-H ) :   0.9174 B(  7-C , 26-H ) :   0.9408 B(  7-C , 27-H ) :   0.9419
B(  7-C , 28-H ) :   0.9464 B(  8-S ,  9-C ) :   0.9958 B(  9-C , 10-S ) :   1.0079
B(  9-C , 29-H ) :   0.9113 B(  9-C , 30-H ) :   0.8402 B( 10-S , 11-P ) :   0.9321
B( 10-S , 12-S ) :   0.1099 B( 11-P , 12-S ) :   1.6938 B( 11-P , 13-O ) :   1.1216
B( 11-P , 16-O ) :   1.0712 B( 13-O , 14-C ) :   0.8963 B( 14-C , 15-C ) :   1.1726
B( 14-C , 31-H ) :   0.9320 B( 14-C , 32-H ) :   0.9273 B( 15-C , 33-H ) :   0.9389
B( 15-C , 34-H ) :   0.9352 B( 15-C , 35-H ) :   0.9386 B( 16-O , 17-C ) :   0.9011
B( 17-C , 18-C ) :   1.1599 B( 17-C , 36-H ) :   0.9087 B( 17-C , 37-H ) :   0.9293
B( 18-C , 38-H ) :   0.9508 B( 18-C , 39-H ) :   0.9416 B( 18-C , 40-H ) :   0.9512

Dispersion correction           -0.067030013
FINAL SINGLE POINT ENERGY     -2929.511267931053

DIPOLE MOMENT
-------------

Method             : SCF
Type of density    : Electron Density
Multiplicity       :   1
Irrep              :   0
Energy             : -2929.6303039344584249 Eh
Relativity type    :
Basis              : AO
                                X                 Y                 Z
Electronic contribution:      1.112947392       3.779635867     -14.312574338
Nuclear contribution   :     -1.511484629      -5.200984594      16.058749363
                        -----------------------------------------
Total Dipole Moment    :     -0.398537237      -1.421348726       1.746175025
                        -----------------------------------------
Magnitude (a.u.)       :      2.286523857
Magnitude (Debye)      :      5.811881767

Rotational constants in cm-1:             0.013123             0.005090             0.004903
Rotational constants in MHz :           393.403654           152.598681           147.001480

                             ****ORCA TERMINATED NORMALLY****
TOTAL RUN TIME: 0 days 0 hours 0 minutes 21 seconds 691 msec
