                         Program Version 6.0.0  -   RELEASE  -
|  1> ! pbe def2-sv(p) def2/J RI DEFGRID1 loosescf d4 GCP(DFT/SV(P)) printgap
|  2> %output
|  3>     printlevel normal
|  4> end
|  5> * xyz 0 1
|  6> C 3.644303745 0.2615979626 -2.2707924184
|  7> C 2.1731768797 0.5963948507 -2.1663426215
|  8> O 1.7601381324 0.9465604636 -0.8181181829
|  9> P 1.9894191622 0.0976856937 0.4922636971
| 10> S 0.8745483496 0.7493128131 1.9684506139
| 11> O 3.552252674 0.2355002905 0.7370014463
| 12> C 4.1613072947 -0.0102691164 2.0151885643
| 13> C 4.0750602615 -1.4669469459 2.4230001775
| 14> S 1.722009198 -1.9387408827 -0.0593484952
| 15> C -0.0785542431 -1.9904476227 0.046124149
| 16> S -0.8854941698 -0.9837060968 -1.2388596348
| 17> P -2.1528245916 0.2444326252 -0.0456964096
| 18> S -2.5759451376 -0.4365961791 1.7368557619
| 19> O -3.3607763065 0.5141340893 -1.0463530494
| 20> C -4.1105687374 -0.4917345473 -1.7535808751
| 21> C -4.726011714 -1.5261051594 -0.8351793141
| 22> O -1.5102165387 1.6802186728 0.0337261354
| 23> C -1.157487065 2.4641082684 -1.130664774
| 24> C -2.1925932293 3.5422599757 -1.3752302235
| 25> H 3.8646586671 -0.6529757146 -1.7245773785
| 26> H 3.8966030181 0.1177315653 -3.3169263201
| 27> H 4.245877435 1.0692399587 -1.8624670434
| 28> H 1.5557439444 -0.2417683055 -2.5025902622
| 29> H 1.9227133633 1.4908005134 -2.738799558
| 30> H 5.1950806128 0.3086452755 1.8750108001
| 31> H 3.6724694397 0.6261776327 2.7596694061
| 32> H 4.4515822425 -2.1068415973 1.6290901781
| 33> H 4.6629797544 -1.6224980045 3.3218896386
| 34> H 3.039977203 -1.7341774287 2.6311690227
| 35> H -0.4144176008 -1.6301760814 1.0231754154
| 36> H -0.3610016785 -3.0287752148 -0.1080185352
| 37> H -4.8783578368 0.0832692468 -2.274366589
| 38> H -3.4449026556 -0.9657682369 -2.4801802974
| 39> H -5.3459199915 -2.2000123101 -1.4176037211
| 40> H -3.9473818506 -2.0996239837 -0.3348710069
| 41> H -5.3334824936 -1.0437098571 -0.0731501388
| 42> H -0.1807046972 2.8898955374 -0.8895304047
| 43> H -1.0640504059 1.7974550333 -1.9932031253
| 44> H -2.2891331026 4.1689544021 -0.492766439
| 45> H -1.8794941085 4.1512979843 -2.2173553684
| 46> H -3.1580902194 3.0925632649 -1.5915973808
| 47> *
| 48>
| 49>                          ****END OF INPUT****

CARTESIAN COORDINATES (ANGSTROEM)
---------------------------------
  C      3.644304    0.261598   -2.270792
  C      2.173177    0.596395   -2.166343
  O      1.760138    0.946560   -0.818118
  P      1.989419    0.097686    0.492264
  S      0.874548    0.749313    1.968451
  O      3.552253    0.235500    0.737001
  C      4.161307   -0.010269    2.015189
  C      4.075060   -1.466947    2.423000
  S      1.722009   -1.938741   -0.059348
  C     -0.078554   -1.990448    0.046124
  S     -0.885494   -0.983706   -1.238860
  P     -2.152825    0.244433   -0.045696
  S     -2.575945   -0.436596    1.736856
  O     -3.360776    0.514134   -1.046353
  C     -4.110569   -0.491735   -1.753581
  C     -4.726012   -1.526105   -0.835179
  O     -1.510217    1.680219    0.033726
  C     -1.157487    2.464108   -1.130665
  C     -2.192593    3.542260   -1.375230
  H      3.864659   -0.652976   -1.724577
  H      3.896603    0.117732   -3.316926
  H      4.245877    1.069240   -1.862467
  H      1.555744   -0.241768   -2.502590
  H      1.922713    1.490801   -2.738800
  H      5.195081    0.308645    1.875011
  H      3.672469    0.626178    2.759669
  H      4.451582   -2.106842    1.629090
  H      4.662980   -1.622498    3.321890
  H      3.039977   -1.734177    2.631169
  H     -0.414418   -1.630176    1.023175
  H     -0.361002   -3.028775   -0.108019
  H     -4.878358    0.083269   -2.274367
  H     -3.444903   -0.965768   -2.480180
  H     -5.345920   -2.200012   -1.417604
  H     -3.947382   -2.099624   -0.334871
  H     -5.333482   -1.043710   -0.073150
  H     -0.180705    2.889896   -0.889530
  H     -1.064050    1.797455   -1.993203
  H     -2.289133    4.168954   -0.492766
  H     -1.879494    4.151298   -2.217355
  H     -3.158090    3.092563   -1.591597

 Total Charge           Charge          ....    0
 Multiplicity           Mult            ....    1
 Number of Electrons    NEL             ....  202
 Basis Dimension        Dim             ....  334

ORBITAL ENERGIES
----------------

  NO   OCC          E(Eh)            E(eV)
   0   2.0000     -88.046233     -2395.8598
   1   2.0000     -88.043478     -2395.7848
   2   2.0000     -87.977254     -2393.9828
   3   2.0000     -87.976759     -2393.9693
   4   2.0000     -76.423698     -2079.5946
   5   2.0000     -76.421346     -2079.5306
   6   2.0000     -18.791929      -511.3544
   7   2.0000     -18.791451      -511.3414
   8   2.0000     -18.791021      -511.3297
   9   2.0000     -18.780763      -511.0505
  10   2.0000      -9.956703      -270.9357
  11   2.0000      -9.955683      -270.9079
  12   2.0000      -9.955214      -270.8951
  13   2.0000      -9.951780      -270.8017
  14   2.0000      -9.947364      -270.6815
  15   2.0000      -9.889011      -269.0937
  16   2.0000      -9.883422      -268.9416
  17   2.0000      -9.881058      -268.8772
  18   2.0000      -9.880610      -268.8651
  19   2.0000      -7.691073      -209.2847
  20   2.0000      -7.687933      -209.1993
  21   2.0000      -7.622145      -207.4091
  22   2.0000      -7.622049      -207.4065
  23   2.0000      -6.420940      -174.7227
  24   2.0000      -6.418457      -174.6551
  25   2.0000      -5.718896      -155.6191
  26   2.0000      -5.715706      -155.5323
  27   2.0000      -5.715417      -155.5244
  28   2.0000      -5.712305      -155.4397
  29   2.0000      -5.708300      -155.3307
  30   2.0000      -5.705222      -155.2470
  31   2.0000      -5.651229      -153.7777
  32   2.0000      -5.651197      -153.7769
  33   2.0000      -5.642635      -153.5439
  34   2.0000      -5.642611      -153.5433
  35   2.0000      -5.642348      -153.5361
  36   2.0000      -5.641927      -153.5246
  37   2.0000      -4.643740      -126.3626
  38   2.0000      -4.642820      -126.3376
  39   2.0000      -4.641181      -126.2930
  40   2.0000      -4.641089      -126.2904
  41   2.0000      -4.640501      -126.2745
  42   2.0000      -4.638587      -126.2224
  43   2.0000      -0.986054       -26.8319
  44   2.0000      -0.983296       -26.7568
  45   2.0000      -0.944905       -25.7122
  46   2.0000      -0.937853       -25.5203
  47   2.0000      -0.762765       -20.7559
  48   2.0000      -0.718327       -19.5467
  49   2.0000      -0.709921       -19.3179
  50   2.0000      -0.690850       -18.7990
  51   2.0000      -0.687131       -18.6978
  52   2.0000      -0.677257       -18.4291
  53   2.0000      -0.647688       -17.6245
  54   2.0000      -0.632482       -17.2107
  55   2.0000      -0.596024       -16.2186
  56   2.0000      -0.586044       -15.9471
  57   2.0000      -0.578031       -15.7290
  58   2.0000      -0.568425       -15.4676
  59   2.0000      -0.565262       -15.3816
  60   2.0000      -0.501929       -13.6582
  61   2.0000      -0.490718       -13.3531
  62   2.0000      -0.472221       -12.8498
  63   2.0000      -0.468724       -12.7546
  64   2.0000      -0.450522       -12.2593
  65   2.0000      -0.449277       -12.2254
  66   2.0000      -0.442220       -12.0334
  67   2.0000      -0.435481       -11.8500
  68   2.0000      -0.431039       -11.7292
  69   2.0000      -0.419315       -11.4101
  70   2.0000      -0.409752       -11.1499
  71   2.0000      -0.404832       -11.0160
  72   2.0000      -0.399623       -10.8743
  73   2.0000      -0.381466       -10.3802
  74   2.0000      -0.379307       -10.3215
  75   2.0000      -0.365833        -9.9548
  76   2.0000      -0.361943        -9.8490
  77   2.0000      -0.355100        -9.6628
  78   2.0000      -0.354145        -9.6368
  79   2.0000      -0.350419        -9.5354
  80   2.0000      -0.346760        -9.4358
  81   2.0000      -0.344944        -9.3864
  82   2.0000      -0.340150        -9.2559
  83   2.0000      -0.336089        -9.1454
  84   2.0000      -0.333995        -9.0885
  85   2.0000      -0.315714        -8.5910
  86   2.0000      -0.313208        -8.5228
  87   2.0000      -0.294728        -8.0200
  88   2.0000      -0.293554        -7.9880
  89   2.0000      -0.290189        -7.8964
  90   2.0000      -0.283011        -7.7011
  91   2.0000      -0.274255        -7.4629
  92   2.0000      -0.269944        -7.3455
  93   2.0000      -0.260925        -7.1001
  94   2.0000      -0.257055        -6.9948
  95   2.0000      -0.237386        -6.4596
  96   2.0000      -0.221883        -6.0378
  97   2.0000      -0.207973        -5.6592
  98   2.0000      -0.196909        -5.3582
  99   2.0000      -0.188990        -5.1427
 100   2.0000      -0.180766        -4.9189
 101   0.0000      -0.041661        -1.1336
 102   0.0000      -0.031921        -0.8686
 103   0.0000      -0.010266        -0.2794
 104   0.0000       0.007690         0.2093
 105   0.0000       0.019871         0.5407

MULLIKEN ATOMIC CHARGES
-----------------------
   0 C :   -0.300405
   1 C :   -0.007698
   2 O :   -0.358030
   3 P :    0.584239
   4 S :   -0.277791
   5 O :   -0.374686
   6 C :   -0.000072
   7 C :   -0.320378
   8 S :   -0.115458
   9 C :   -0.336054
  10 S :   -0.141177
  11 P :    0.604707
  12 S :   -0.286999
  13 O :   -0.382901
  14 C :   -0.006538
  15 C :   -0.305719
  16 O :   -0.336701
  17 C :   -0.017160
  18 C :   -0.281671
  19 H :    0.119152
  20 H :    0.112215
  21 H :    0.122061
  22 H :    0.113082
  23 H :    0.103805
  24 H :    0.103301
  25 H :    0.113994
  26 H :    0.114413
  27 H :    0.114464
  28 H :    0.131930
  29 H :    0.210010
  30 H :    0.180606
  31 H :    0.105509
  32 H :    0.107718
  33 H :    0.108339
  34 H :    0.120542
  35 H :    0.126659
  36 H :    0.119613
  37 H :    0.090905
  38 H :    0.122225
  39 H :    0.103590
  40 H :    0.116357
Sum of atomic charges:   -0.0000000

LOEWDIN ATOMIC CHARGES
----------------------
   0 C :   -0.366349
   1 C :   -0.117292
   2 O :   -0.235737
   3 P :    0.562260
   4 S :   -0.286863
   5 O :   -0.242927
   6 C :   -0.118324
   7 C :   -0.371481
   8 S :    0.073736
   9 C :   -0.478478
  10 S :    0.057976
  11 P :    0.568497
  12 S :   -0.289609
  13 O :   -0.247281
  14 C :   -0.117485
  15 C :   -0.368862
  16 O :   -0.222359
  17 C :   -0.114765
  18 C :   -0.357995
  19 H :    0.118087
  20 H :    0.131066
  21 H :    0.128654
  22 H :    0.101636
  23 H :    0.118599
  24 H :    0.117885
  25 H :    0.113139
  26 H :    0.121908
  27 H :    0.131888
  28 H :    0.123187
  29 H :    0.126614
  30 H :    0.136246
  31 H :    0.119088
  32 H :    0.104879
  33 H :    0.128533
  34 H :    0.119740
  35 H :    0.130609
  36 H :    0.121627
  37 H :    0.098599
  38 H :    0.130167
  39 H :    0.126440
  40 H :    0.124750

  Mayer bond orders larger than 0.100000
B(  0-C ,  1-C ) :   1.1733 B(  0-C , 19-H ) :   0.9377 B(  0-C , 20-H ) :   0.9353
B(  0-C , 21-H ) :   0.9426 B(  1-C ,  2-O ) :   0.8978 B(  1-C , 22-H ) :   0.9096
B(  1-C , 23-H ) :   0.9330 B(  2-O ,  3-P ) :   1.1262 B(  3-P ,  4-S ) :   1.6644
B(  3-P ,  5-O ) :   1.0878 B(  3-P ,  8-S ) :   0.9274 B(  4-S ,  8-S ) :   0.1070
B(  5-O ,  6-C ) :   0.9053 B(  6-C ,  7-C ) :   1.1659 B(  6-C , 24-H ) :   0.9338
B(  6-C , 25-H ) :   0.9145 B(  7-C , 26-H ) :   0.9448 B(  7-C , 27-H ) :   0.9376
B(  7-C , 28-H ) :   0.9337 B(  8-S ,  9-C ) :   1.0055 B(  9-C , 10-S ) :   0.9930
B(  9-C , 29-H ) :   0.8427 B(  9-C , 30-H ) :   0.9106 B( 10-S , 11-P ) :   0.9317
B( 10-S , 12-S ) :   0.1137 B( 11-P , 12-S ) :   1.6498 B( 11-P , 13-O ) :   1.0692
B( 11-P , 16-O ) :   1.1455 B( 13-O , 14-C ) :   0.9162 B( 14-C , 15-C ) :   1.1670
B( 14-C , 31-H ) :   0.9331 B( 14-C , 32-H ) :   0.9236 B( 15-C , 33-H ) :   0.9350
B( 15-C , 34-H ) :   0.9331 B( 15-C , 35-H ) :   0.9439 B( 16-O , 17-C ) :   0.8969
B( 17-C , 18-C ) :   1.1586 B( 17-C , 36-H ) :   0.9275 B( 17-C , 37-H ) :   0.9165
B( 18-C , 38-H ) :   0.9469 B( 18-C , 39-H ) :   0.9410 B( 18-C , 40-H ) :   0.9432

Dispersion correction           -0.068203325
FINAL SINGLE POINT ENERGY     -2929.513822213033

DIPOLE MOMENT
-------------

Method             : SCF
Type of density    : Electron Density
Multiplicity       :   1
Irrep              :   0
Energy             : -2929.6322721800579529 Eh
Relativity type    :
Basis              : AO
                                X                 Y                 Z
Electronic contribution:     -3.355933742      -2.420640251      10.533888061
Nuclear contribution   :      4.127982810       2.136871630     -12.472846119
                        -----------------------------------------
Total Dipole Moment    :      0.772049068      -0.283768621      -1.938958058
                        -----------------------------------------
Magnitude (a.u.)       :      2.106215265
Magnitude (Debye)      :      5.353573749

Rotational constants in cm-1:             0.012806             0.005293             0.005010
Rotational constants in MHz :           383.917996           158.672512           150.190256

                             ****ORCA TERMINATED NORMALLY****
TOTAL RUN TIME: 0 days 0 hours 0 minutes 21 seconds 762 msec
