                         Program Version 6.0.1  -  RELEASE   -
|  1> ! pbe def2-sv(p) def2/J RI DEFGRID1 loosescf d4 GCP(DFT/SV(P)) printgap
|  2> %output
|  3>     printlevel normal
|  4> end
|  5> * xyz 0 1
|  6> C 4.2641979993 -3.7605198033 -1.0052918094
|  7> C 2.7514198742 -3.7292144066 -0.8562309026
|  8> O 2.3147813531 -2.4832861784 -0.2779900624
|  9> C 2.1299381231 -1.4529830152 -1.0775744241
| 10> O 2.2542676482 -1.4795110012 -2.2816312411
| 11> C 1.726989889 -0.2148018992 -0.2981838784
| 12> C 0.6633426691 0.5583632323 -1.0689588953
| 13> H 1.0062169691 0.700643159 -2.1000054909
| 14> C 0.3498106018 1.913351983 -0.4641383471
| 15> O -0.7881359365 2.2872535715 -0.2605718871
| 16> O 1.4302752381 2.6060474828 -0.2356704281
| 17> C 1.3048561979 3.8971369854 0.401361326
| 18> C 1.4688959294 3.75517002 1.9052792942
| 19> S -0.890516699 -0.3787390909 -1.230793272
| 20> P -1.8329314282 0.044735244 0.6363919777
| 21> S -0.7389776155 0.4634274623 2.2039532919
| 22> O -3.0634554791 1.0129769819 0.4389273858
| 23> C -4.0101354843 0.8657736215 -0.635607295
| 24> O -2.6375120202 -1.3377353881 0.825477536
| 25> C -1.9582560281 -2.5540374797 1.1430806935
| 26> H 4.586283965 -3.0005813184 -1.7135129963
| 27> H 4.7387240974 -3.5755652338 -0.0455293382
| 28> H 4.5677801035 -4.7350727889 -1.3730129955
| 29> H 2.4052771333 -4.4892654027 -0.1559623404
| 30> H 2.263709541 -3.8511861434 -1.8275460908
| 31> H 2.6081919019 0.421901555 -0.1893542307
| 32> H 1.3788580987 -0.5021862526 0.6951883781
| 33> H 2.1042211097 4.49657966 -0.0345970963
| 34> H 0.3273525294 4.3172221754 0.1512268409
| 35> H 0.701265561 3.0958782245 2.3072479217
| 36> H 2.4426997866 3.3365981681 2.1413088538
| 37> H 1.3744014553 4.7306615473 2.3702123651
| 38> H -3.5044021692 0.9918992935 -1.592812508
| 39> H -4.7369852119 1.6586411104 -0.4796788956
| 40> H -4.4831203272 -0.1134984253 -0.5850148975
| 41> H -2.7365439839 -3.2649610714 1.4079715547
| 42> H -1.2824407955 -2.3967441061 1.9856923364
| 43> H -1.3969493952 -2.9040313589 0.2763881891
| 44> *
| 45>
| 46>                          ****END OF INPUT****

CARTESIAN COORDINATES (ANGSTROEM)
---------------------------------
  C      4.264198   -3.760520   -1.005292
  C      2.751420   -3.729214   -0.856231
  O      2.314781   -2.483286   -0.277990
  C      2.129938   -1.452983   -1.077574
  O      2.254268   -1.479511   -2.281631
  C      1.726990   -0.214802   -0.298184
  C      0.663343    0.558363   -1.068959
  H      1.006217    0.700643   -2.100005
  C      0.349811    1.913352   -0.464138
  O     -0.788136    2.287254   -0.260572
  O      1.430275    2.606047   -0.235670
  C      1.304856    3.897137    0.401361
  C      1.468896    3.755170    1.905279
  S     -0.890517   -0.378739   -1.230793
  P     -1.832931    0.044735    0.636392
  S     -0.738978    0.463427    2.203953
  O     -3.063455    1.012977    0.438927
  C     -4.010135    0.865774   -0.635607
  O     -2.637512   -1.337735    0.825478
  C     -1.958256   -2.554037    1.143081
  H      4.586284   -3.000581   -1.713513
  H      4.738724   -3.575565   -0.045529
  H      4.567780   -4.735073   -1.373013
  H      2.405277   -4.489265   -0.155962
  H      2.263710   -3.851186   -1.827546
  H      2.608192    0.421902   -0.189354
  H      1.378858   -0.502186    0.695188
  H      2.104221    4.496580   -0.034597
  H      0.327353    4.317222    0.151227
  H      0.701266    3.095878    2.307248
  H      2.442700    3.336598    2.141309
  H      1.374401    4.730662    2.370212
  H     -3.504402    0.991899   -1.592813
  H     -4.736985    1.658641   -0.479679
  H     -4.483120   -0.113498   -0.585015
  H     -2.736544   -3.264961    1.407972
  H     -1.282441   -2.396744    1.985692
  H     -1.396949   -2.904031    0.276388

 Total Charge           Charge          ....    0
 Multiplicity           Mult            ....    1
 Number of Electrons    NEL             ....  174
 Basis Dimension        Dim             ....  316

ORBITAL ENERGIES
----------------

  NO   OCC          E(Eh)            E(eV)
   0   2.0000     -88.037944     -2395.6342
   1   2.0000     -87.977723     -2393.9956
   2   2.0000     -76.421837     -2079.5439
   3   2.0000     -18.816818      -512.0317
   4   2.0000     -18.805378      -511.7204
   5   2.0000     -18.783248      -511.1182
   6   2.0000     -18.782165      -511.0887
   7   2.0000     -18.745971      -510.1038
   8   2.0000     -18.742731      -510.0157
   9   2.0000     -10.022552      -272.7275
  10   2.0000     -10.011686      -272.4318
  11   2.0000      -9.952402      -270.8186
  12   2.0000      -9.950805      -270.7752
  13   2.0000      -9.948734      -270.7188
  14   2.0000      -9.942204      -270.5411
  15   2.0000      -9.936754      -270.3928
  16   2.0000      -9.905646      -269.5463
  17   2.0000      -9.890097      -269.1232
  18   2.0000      -9.883593      -268.9462
  19   2.0000      -7.682488      -209.0511
  20   2.0000      -7.622887      -207.4293
  21   2.0000      -6.417982      -174.6422
  22   2.0000      -5.710417      -155.3884
  23   2.0000      -5.706977      -155.2947
  24   2.0000      -5.699500      -155.0913
  25   2.0000      -5.652001      -153.7988
  26   2.0000      -5.643537      -153.5684
  27   2.0000      -5.642703      -153.5458
  28   2.0000      -4.640747      -126.2811
  29   2.0000      -4.640009      -126.2611
  30   2.0000      -4.638368      -126.2164
  31   2.0000      -1.025088       -27.8941
  32   2.0000      -1.013324       -27.5740
  33   2.0000      -0.977784       -26.6069
  34   2.0000      -0.933259       -25.3953
  35   2.0000      -0.927363       -25.2348
  36   2.0000      -0.919513       -25.0212
  37   2.0000      -0.764164       -20.7940
  38   2.0000      -0.712562       -19.3898
  39   2.0000      -0.708800       -19.2874
  40   2.0000      -0.688719       -18.7410
  41   2.0000      -0.656669       -17.8689
  42   2.0000      -0.628476       -17.1017
  43   2.0000      -0.624142       -16.9838
  44   2.0000      -0.616021       -16.7628
  45   2.0000      -0.596614       -16.2347
  46   2.0000      -0.565082       -15.3767
  47   2.0000      -0.511825       -13.9275
  48   2.0000      -0.503699       -13.7064
  49   2.0000      -0.498042       -13.5524
  50   2.0000      -0.485491       -13.2109
  51   2.0000      -0.467134       -12.7114
  52   2.0000      -0.458179       -12.4677
  53   2.0000      -0.448263       -12.1979
  54   2.0000      -0.435623       -11.8539
  55   2.0000      -0.430665       -11.7190
  56   2.0000      -0.423735       -11.5304
  57   2.0000      -0.418664       -11.3924
  58   2.0000      -0.413628       -11.2554
  59   2.0000      -0.407646       -11.0926
  60   2.0000      -0.399004       -10.8574
  61   2.0000      -0.398194       -10.8354
  62   2.0000      -0.393507       -10.7079
  63   2.0000      -0.387386       -10.5413
  64   2.0000      -0.383216       -10.4278
  65   2.0000      -0.367373        -9.9967
  66   2.0000      -0.359948        -9.7947
  67   2.0000      -0.351410        -9.5623
  68   2.0000      -0.349878        -9.5207
  69   2.0000      -0.335964        -9.1420
  70   2.0000      -0.334363        -9.0985
  71   2.0000      -0.330140        -8.9836
  72   2.0000      -0.327177        -8.9029
  73   2.0000      -0.308551        -8.3961
  74   2.0000      -0.301577        -8.2063
  75   2.0000      -0.297483        -8.0949
  76   2.0000      -0.293903        -7.9975
  77   2.0000      -0.288450        -7.8491
  78   2.0000      -0.270743        -7.3673
  79   2.0000      -0.264556        -7.1989
  80   2.0000      -0.262083        -7.1316
  81   2.0000      -0.252612        -6.8739
  82   2.0000      -0.238439        -6.4883
  83   2.0000      -0.229059        -6.2330
  84   2.0000      -0.220023        -5.9871
  85   2.0000      -0.196171        -5.3381
  86   2.0000      -0.192258        -5.2316
  87   0.0000      -0.042816        -1.1651
  88   0.0000      -0.030851        -0.8395
  89   0.0000      -0.017600        -0.4789
  90   0.0000       0.003590         0.0977
  91   0.0000       0.025908         0.7050

MULLIKEN ATOMIC CHARGES
-----------------------
   0 C :   -0.307132
   1 C :   -0.012426
   2 O :   -0.221336
   3 C :    0.128706
   4 O :   -0.208960
   5 C :   -0.096214
   6 C :   -0.302838
   7 H :    0.160472
   8 C :    0.209001
   9 O :   -0.185041
  10 O :   -0.222984
  11 C :   -0.014849
  12 C :   -0.310066
  13 S :   -0.092654
  14 P :    0.616448
  15 S :   -0.320680
  16 O :   -0.352594
  17 C :   -0.102161
  18 O :   -0.393060
  19 C :   -0.100306
  20 H :    0.127491
  21 H :    0.116027
  22 H :    0.114477
  23 H :    0.104007
  24 H :    0.110809
  25 H :    0.127024
  26 H :    0.117533
  27 H :    0.105847
  28 H :    0.117150
  29 H :    0.146373
  30 H :    0.111885
  31 H :    0.112076
  32 H :    0.122013
  33 H :    0.130075
  34 H :    0.120150
  35 H :    0.120853
  36 H :    0.115228
  37 H :    0.109653
Sum of atomic charges:   -0.0000000

LOEWDIN ATOMIC CHARGES
----------------------
   0 C :   -0.356221
   1 C :   -0.110934
   2 O :   -0.053429
   3 C :    0.028487
   4 O :   -0.171443
   5 C :   -0.261344
   6 C :   -0.260541
   7 H :    0.156473
   8 C :    0.013441
   9 O :   -0.161480
  10 O :   -0.039134
  11 C :   -0.106272
  12 C :   -0.358074
  13 S :    0.104904
  14 P :    0.589287
  15 S :   -0.309590
  16 O :   -0.229977
  17 C :   -0.207933
  18 O :   -0.267079
  19 C :   -0.220891
  20 H :    0.130604
  21 H :    0.125704
  22 H :    0.131460
  23 H :    0.118516
  24 H :    0.121043
  25 H :    0.149256
  26 H :    0.130198
  27 H :    0.118836
  28 H :    0.124026
  29 H :    0.131721
  30 H :    0.124352
  31 H :    0.130965
  32 H :    0.112292
  33 H :    0.126098
  34 H :    0.113505
  35 H :    0.120211
  36 H :    0.108732
  37 H :    0.104232

  Mayer bond orders larger than 0.100000
B(  0-C ,  1-C ) :   1.1738 B(  0-C , 20-H ) :   0.9460 B(  0-C , 21-H ) :   0.9486
B(  0-C , 22-H ) :   0.9441 B(  1-C ,  2-O ) :   0.9160 B(  1-C , 23-H ) :   0.9369
B(  1-C , 24-H ) :   0.9145 B(  2-O ,  3-C ) :   1.2502 B(  3-C ,  4-O ) :   2.0298
B(  3-C ,  5-C ) :   0.9981 B(  5-C ,  6-C ) :   1.0649 B(  5-C , 25-H ) :   0.8640
B(  5-C , 26-H ) :   0.8828 B(  6-C ,  7-H ) :   0.8460 B(  6-C ,  8-C ) :   0.9089
B(  6-C , 13-S ) :   1.0165 B(  8-C ,  9-O ) :   2.0027 B(  8-C , 10-O ) :   1.2709
B( 10-O , 11-C ) :   0.8961 B( 11-C , 12-C ) :   1.1804 B( 11-C , 27-H ) :   0.9367
B( 11-C , 28-H ) :   0.9102 B( 12-C , 29-H ) :   0.9306 B( 12-C , 30-H ) :   0.9493
B( 12-C , 31-H ) :   0.9414 B( 13-S , 14-P ) :   0.9415 B( 13-S , 15-S ) :   0.1121
B( 14-P , 15-S ) :   1.5952 B( 14-P , 16-O ) :   1.1394 B( 14-P , 18-O ) :   1.0510
B( 16-O , 17-C ) :   0.9213 B( 17-C , 32-H ) :   0.9411 B( 17-C , 33-H ) :   0.9597
B( 17-C , 34-H ) :   0.9461 B( 18-O , 19-C ) :   0.9402 B( 19-C , 35-H ) :   0.9585
B( 19-C , 36-H ) :   0.9342 B( 19-C , 37-H ) :   0.9441

Dispersion correction           -0.051523585
FINAL SINGLE POINT ENERGY     -1979.019990620325

DIPOLE MOMENT
-------------

Method             : SCF
Type of density    : Electron Density
Multiplicity       :   1
Irrep              :   0
Energy             : -1979.1499032958417956 Eh
Relativity type    :
Basis              : AO
                                X                 Y                 Z
Electronic contribution:    -12.741616658       4.442405055      -0.908086041
Nuclear contribution   :     13.277711354      -4.802239568       0.538329007
                        -----------------------------------------
Total Dipole Moment    :      0.536094696      -0.359834514      -0.369757034
                        -----------------------------------------
Magnitude (a.u.)       :      0.744042112
Magnitude (Debye)      :      1.891204752

Rotational constants in cm-1:             0.011491             0.007419             0.005605
Rotational constants in MHz :           344.485900           222.409619           168.041295

                             ****ORCA TERMINATED NORMALLY****
TOTAL RUN TIME: 0 days 0 hours 0 minutes 44 seconds 376 msec
