                         Program Version 6.0.0  -   RELEASE  -
|  1> ! pbe def2-sv(p) def2/J RI DEFGRID1 loosescf d4 GCP(DFT/SV(P)) printgap
|  2> %output
|  3>     printlevel normal
|  4> end
|  5> * xyz 0 1
|  6> C 5.6090544576 -1.8058726618 -0.4037521436
|  7> C 4.3696463726 -1.1389235377 -0.9650913237
|  8> O 3.5323028874 -0.7572644509 0.1443642108
|  9> P 2.3882348065 0.3290422529 -0.0242823522
| 10> S 2.9620915051 2.005265921 -0.8565224614
| 11> O 1.8874565592 0.5618302902 1.4458744695
| 12> C 1.1295598171 -0.3487231505 2.2812323686
| 13> C 1.7467151235 -1.7267914514 2.3751294043
| 14> S 0.8643437103 -0.7292974088 -1.0902720489
| 15> C 0.0134754299 0.7293449426 -1.7273924954
| 16> S -0.9307457166 1.6063404196 -0.4559834371
| 17> P -2.4915275726 0.1739972405 -0.3408539204
| 18> S -3.0794120222 -0.6350496963 -2.0194469934
| 19> O -3.679491789 0.9384899215 0.371451662
| 20> C -3.55710486 1.9580300894 1.3901418296
| 21> C -2.9053236062 1.4402023967 2.6548140665
| 22> O -1.8698248377 -0.8591306876 0.7108107925
| 23> C -2.1497341578 -2.2701234959 0.6615444198
| 24> C -3.5226286811 -2.5674423934 1.2281745001
| 25> H 6.2524480985 -2.1083137649 -1.2233931244
| 26> H 6.1469747552 -1.1126963259 0.2368046629
| 27> H 5.3308131721 -2.6802763492 0.1769999284
| 28> H 3.800736936 -1.8215800501 -1.6020280271
| 29> H 4.6221582174 -0.2406010312 -1.5385559918
| 30> H 1.121130592 0.1568495781 3.2482689067
| 31> H 0.1130961862 -0.4039627822 1.8836461535
| 32> H 1.1950853111 -2.3115828008 3.1052623273
| 33> H 1.7026122089 -2.2275919744 1.4097502804
| 34> H 2.7855526563 -1.6528069702 2.6856314489
| 35> H -0.6638697897 0.3902115363 -2.5119241124
| 36> H 0.7518400691 1.4358617696 -2.1093875101
| 37> H -2.9897248739 2.7943381192 0.9729503486
| 38> H -4.5904869242 2.2628096151 1.5632583245
| 39> H -1.8712644744 1.1652719044 2.4583597676
| 40> H -2.9244680771 2.2219919158 3.407748117
| 41> H -3.4413425214 0.5712438252 3.0268576186
| 42> H -2.0770484917 -2.6066411965 -0.3772855026
| 43> H -1.3549443186 -2.7257775038 1.2533984226
| 44> H -3.7057990322 -3.6364944158 1.1911636072
| 45> H -3.5913032327 -2.2251193564 2.2571419992
| 46> H -4.2802611675 -2.0567241906 0.6338688169
| 47> *
| 48>
| 49>                          ****END OF INPUT****

CARTESIAN COORDINATES (ANGSTROEM)
---------------------------------
  C      5.609054   -1.805873   -0.403752
  C      4.369646   -1.138924   -0.965091
  O      3.532303   -0.757264    0.144364
  P      2.388235    0.329042   -0.024282
  S      2.962092    2.005266   -0.856522
  O      1.887457    0.561830    1.445874
  C      1.129560   -0.348723    2.281232
  C      1.746715   -1.726791    2.375129
  S      0.864344   -0.729297   -1.090272
  C      0.013475    0.729345   -1.727392
  S     -0.930746    1.606340   -0.455983
  P     -2.491528    0.173997   -0.340854
  S     -3.079412   -0.635050   -2.019447
  O     -3.679492    0.938490    0.371452
  C     -3.557105    1.958030    1.390142
  C     -2.905324    1.440202    2.654814
  O     -1.869825   -0.859131    0.710811
  C     -2.149734   -2.270123    0.661544
  C     -3.522629   -2.567442    1.228175
  H      6.252448   -2.108314   -1.223393
  H      6.146975   -1.112696    0.236805
  H      5.330813   -2.680276    0.177000
  H      3.800737   -1.821580   -1.602028
  H      4.622158   -0.240601   -1.538556
  H      1.121131    0.156850    3.248269
  H      0.113096   -0.403963    1.883646
  H      1.195085   -2.311583    3.105262
  H      1.702612   -2.227592    1.409750
  H      2.785553   -1.652807    2.685631
  H     -0.663870    0.390212   -2.511924
  H      0.751840    1.435862   -2.109388
  H     -2.989725    2.794338    0.972950
  H     -4.590487    2.262810    1.563258
  H     -1.871264    1.165272    2.458360
  H     -2.924468    2.221992    3.407748
  H     -3.441343    0.571244    3.026858
  H     -2.077048   -2.606641   -0.377286
  H     -1.354944   -2.725778    1.253398
  H     -3.705799   -3.636494    1.191164
  H     -3.591303   -2.225119    2.257142
  H     -4.280261   -2.056724    0.633869

 Total Charge           Charge          ....    0
 Multiplicity           Mult            ....    1
 Number of Electrons    NEL             ....  202
 Basis Dimension        Dim             ....  334

ORBITAL ENERGIES
----------------

  NO   OCC          E(Eh)            E(eV)
   0   2.0000     -88.045184     -2395.8312
   1   2.0000     -88.043344     -2395.7812
   2   2.0000     -87.988930     -2394.3005
   3   2.0000     -87.982855     -2394.1352
   4   2.0000     -76.429870     -2079.7625
   5   2.0000     -76.426569     -2079.6727
   6   2.0000     -18.799141      -511.5506
   7   2.0000     -18.796354      -511.4748
   8   2.0000     -18.795436      -511.4498
   9   2.0000     -18.792417      -511.3677
  10   2.0000      -9.965760      -271.1821
  11   2.0000      -9.955896      -270.9137
  12   2.0000      -9.954837      -270.8849
  13   2.0000      -9.954341      -270.8714
  14   2.0000      -9.952653      -270.8255
  15   2.0000      -9.896606      -269.3003
  16   2.0000      -9.891363      -269.1577
  17   2.0000      -9.890083      -269.1228
  18   2.0000      -9.888968      -269.0925
  19   2.0000      -7.690191      -209.2607
  20   2.0000      -7.688099      -209.2038
  21   2.0000      -7.634161      -207.7361
  22   2.0000      -7.628186      -207.5735
  23   2.0000      -6.427686      -174.9062
  24   2.0000      -6.424039      -174.8070
  25   2.0000      -5.717954      -155.5934
  26   2.0000      -5.715757      -155.5337
  27   2.0000      -5.714873      -155.5096
  28   2.0000      -5.712669      -155.4496
  29   2.0000      -5.707130      -155.2989
  30   2.0000      -5.705312      -155.2494
  31   2.0000      -5.663182      -154.1030
  32   2.0000      -5.657141      -153.9386
  33   2.0000      -5.654976      -153.8797
  34   2.0000      -5.653950      -153.8518
  35   2.0000      -5.648724      -153.7096
  36   2.0000      -5.648328      -153.6988
  37   2.0000      -4.650519      -126.5471
  38   2.0000      -4.649247      -126.5124
  39   2.0000      -4.648074      -126.4805
  40   2.0000      -4.646807      -126.4461
  41   2.0000      -4.645949      -126.4227
  42   2.0000      -4.644175      -126.3744
  43   2.0000      -0.989538       -26.9267
  44   2.0000      -0.988931       -26.9102
  45   2.0000      -0.951720       -25.8976
  46   2.0000      -0.947570       -25.7847
  47   2.0000      -0.766401       -20.8548
  48   2.0000      -0.725650       -19.7459
  49   2.0000      -0.715876       -19.4800
  50   2.0000      -0.697892       -18.9906
  51   2.0000      -0.695078       -18.9140
  52   2.0000      -0.677678       -18.4406
  53   2.0000      -0.652020       -17.7424
  54   2.0000      -0.638980       -17.3875
  55   2.0000      -0.602119       -16.3845
  56   2.0000      -0.596872       -16.2417
  57   2.0000      -0.582291       -15.8449
  58   2.0000      -0.570719       -15.5300
  59   2.0000      -0.566072       -15.4036
  60   2.0000      -0.508856       -13.8467
  61   2.0000      -0.498135       -13.5549
  62   2.0000      -0.483464       -13.1557
  63   2.0000      -0.477552       -12.9949
  64   2.0000      -0.463905       -12.6235
  65   2.0000      -0.451890       -12.2965
  66   2.0000      -0.444278       -12.0894
  67   2.0000      -0.438055       -11.9201
  68   2.0000      -0.434464       -11.8224
  69   2.0000      -0.417703       -11.3663
  70   2.0000      -0.414890       -11.2897
  71   2.0000      -0.406374       -11.0580
  72   2.0000      -0.393315       -10.7027
  73   2.0000      -0.391020       -10.6402
  74   2.0000      -0.379219       -10.3191
  75   2.0000      -0.378941       -10.3115
  76   2.0000      -0.369623       -10.0580
  77   2.0000      -0.363352        -9.8873
  78   2.0000      -0.360433        -9.8079
  79   2.0000      -0.356023        -9.6879
  80   2.0000      -0.353503        -9.6193
  81   2.0000      -0.351991        -9.5782
  82   2.0000      -0.350464        -9.5366
  83   2.0000      -0.346519        -9.4293
  84   2.0000      -0.338116        -9.2006
  85   2.0000      -0.322002        -8.7621
  86   2.0000      -0.316360        -8.6086
  87   2.0000      -0.311112        -8.4658
  88   2.0000      -0.300619        -8.1803
  89   2.0000      -0.292162        -7.9501
  90   2.0000      -0.285983        -7.7820
  91   2.0000      -0.281947        -7.6722
  92   2.0000      -0.272268        -7.4088
  93   2.0000      -0.270224        -7.3532
  94   2.0000      -0.260820        -7.0973
  95   2.0000      -0.235222        -6.4007
  96   2.0000      -0.220000        -5.9865
  97   2.0000      -0.212899        -5.7933
  98   2.0000      -0.203070        -5.5258
  99   2.0000      -0.201430        -5.4812
 100   2.0000      -0.199124        -5.4184
 101   0.0000      -0.046397        -1.2625
 102   0.0000      -0.025880        -0.7042
 103   0.0000      -0.006043        -0.1644
 104   0.0000       0.003016         0.0821
 105   0.0000       0.009897         0.2693

MULLIKEN ATOMIC CHARGES
-----------------------
   0 C :   -0.281439
   1 C :   -0.011099
   2 O :   -0.378753
   3 P :    0.604697
   4 S :   -0.318389
   5 O :   -0.353020
   6 C :   -0.065347
   7 C :   -0.305259
   8 S :   -0.111197
   9 C :   -0.359870
  10 S :   -0.093747
  11 P :    0.619403
  12 S :   -0.312880
  13 O :   -0.369396
  14 C :   -0.021294
  15 C :   -0.326820
  16 O :   -0.379140
  17 C :   -0.009529
  18 C :   -0.308953
  19 H :    0.113551
  20 H :    0.122139
  21 H :    0.114527
  22 H :    0.102587
  23 H :    0.108159
  24 H :    0.108497
  25 H :    0.170383
  26 H :    0.112159
  27 H :    0.118310
  28 H :    0.123756
  29 H :    0.194544
  30 H :    0.197938
  31 H :    0.126329
  32 H :    0.117492
  33 H :    0.139077
  34 H :    0.117811
  35 H :    0.122509
  36 H :    0.116155
  37 H :    0.100512
  38 H :    0.113825
  39 H :    0.113230
  40 H :    0.128544
Sum of atomic charges:    0.0000000

LOEWDIN ATOMIC CHARGES
----------------------
   0 C :   -0.350396
   1 C :   -0.120915
   2 O :   -0.244558
   3 P :    0.570273
   4 S :   -0.313228
   5 O :   -0.229849
   6 C :   -0.121019
   7 C :   -0.366565
   8 S :    0.062995
   9 C :   -0.486671
  10 S :    0.084784
  11 P :    0.573887
  12 S :   -0.304695
  13 O :   -0.241144
  14 C :   -0.113724
  15 C :   -0.367515
  16 O :   -0.248281
  17 C :   -0.123434
  18 C :   -0.363064
  19 H :    0.131690
  20 H :    0.129802
  21 H :    0.125541
  22 H :    0.109173
  23 H :    0.110107
  24 H :    0.121560
  25 H :    0.114732
  26 H :    0.129517
  27 H :    0.117073
  28 H :    0.128678
  29 H :    0.129316
  30 H :    0.129295
  31 H :    0.113019
  32 H :    0.125765
  33 H :    0.123983
  34 H :    0.133973
  35 H :    0.126978
  36 H :    0.109676
  37 H :    0.113719
  38 H :    0.131560
  39 H :    0.121502
  40 H :    0.126461

  Mayer bond orders larger than 0.100000
B(  0-C ,  1-C ) :   1.1602 B(  0-C , 19-H ) :   0.9417 B(  0-C , 20-H ) :   0.9506
B(  0-C , 21-H ) :   0.9515 B(  1-C ,  2-O ) :   0.9014 B(  1-C , 22-H ) :   0.9289
B(  1-C , 23-H ) :   0.9081 B(  2-O ,  3-P ) :   1.0910 B(  3-P ,  4-S ) :   1.6370
B(  3-P ,  5-O ) :   1.1595 B(  3-P ,  8-S ) :   0.9330 B(  4-S ,  8-S ) :   0.1096
B(  5-O ,  6-C ) :   0.8925 B(  6-C ,  7-C ) :   1.1706 B(  6-C , 24-H ) :   0.9339
B(  6-C , 25-H ) :   0.8855 B(  7-C , 26-H ) :   0.9344 B(  7-C , 27-H ) :   0.9363
B(  7-C , 28-H ) :   0.9411 B(  8-S ,  9-C ) :   1.0101 B(  9-C , 10-S ) :   1.0065
B(  9-C , 29-H ) :   0.8687 B(  9-C , 30-H ) :   0.8644 B( 10-S , 11-P ) :   0.9587
B( 10-S , 12-S ) :   0.1008 B( 11-P , 12-S ) :   1.6262 B( 11-P , 13-O ) :   1.1296
B( 11-P , 16-O ) :   1.0619 B( 13-O , 14-C ) :   0.9050 B( 14-C , 15-C ) :   1.1646
B( 14-C , 31-H ) :   0.9193 B( 14-C , 32-H ) :   0.9344 B( 15-C , 33-H ) :   0.9346
B( 15-C , 34-H ) :   0.9345 B( 15-C , 35-H ) :   0.9426 B( 16-O , 17-C ) :   0.8976
B( 17-C , 18-C ) :   1.1627 B( 17-C , 36-H ) :   0.9084 B( 17-C , 37-H ) :   0.9300
B( 18-C , 38-H ) :   0.9400 B( 18-C , 39-H ) :   0.9449 B( 18-C , 40-H ) :   0.9369

Dispersion correction           -0.065638214
FINAL SINGLE POINT ENERGY     -2929.519134530421

DIPOLE MOMENT
-------------

Method             : SCF
Type of density    : Electron Density
Multiplicity       :   1
Irrep              :   0
Energy             : -2929.6400705443988954 Eh
Relativity type    :
Basis              : AO
                                X                 Y                 Z
Electronic contribution:     -2.326340740      15.138598655     -17.777192026
Nuclear contribution   :      2.283448004     -16.288399524      19.396631362
                        -----------------------------------------
Total Dipole Moment    :     -0.042892736      -1.149800869       1.619439336
                        -----------------------------------------
Magnitude (a.u.)       :      1.986571315
Magnitude (Debye)      :      5.049462994

Rotational constants in cm-1:             0.012767             0.004773             0.004630
Rotational constants in MHz :           382.755390           143.082997           138.793466

                             ****ORCA TERMINATED NORMALLY****
TOTAL RUN TIME: 0 days 0 hours 0 minutes 21 seconds 500 msec
