                         Program Version 6.0.0  -   RELEASE  -
|  1> ! pbe def2-sv(p) def2/J RI DEFGRID1 loosescf d4 GCP(DFT/SV(P)) printgap
|  2> %output
|  3>     printlevel normal
|  4> end
|  5> * xyz 0 1
|  6> C 5.1654401347 -1.6596740382 -2.5758094685
|  7> C 4.0126471314 -0.8109140059 -2.0794033579
|  8> O 3.7405054071 -1.1957012121 -0.717099439
|  9> P 2.7591460834 -0.3387586522 0.180109384
| 10> S 3.2285001079 1.5578015854 0.4043601321
| 11> O 2.8827625959 -1.2475423942 1.464807638
| 12> C 2.5653920417 -0.7683280924 2.7841926613
| 13> C 1.0689609634 -0.7237665306 3.0195494746
| 14> S 0.8523959475 -0.7122825955 -0.704551378
| 15> C 0.1557027335 0.9652445872 -0.7031986641
| 16> S -1.0699506483 1.2368765542 0.5942217203
| 17> P -2.8144184329 0.5333914179 -0.4266129904
| 18> S -2.6233222732 0.4220656221 -2.3739225806
| 19> O -3.9903763056 1.5156969378 -0.0706954277
| 20> C -4.6768212454 1.5990916505 1.2028870014
| 21> C -3.7622002719 2.0324473068 2.3285330399
| 22> O -3.2559798929 -0.7773006035 0.365375069
| 23> C -2.4172963658 -1.9191457235 0.6028811844
| 24> C -2.210600376 -2.7532250093 -0.6449940486
| 25> H 4.9009314765 -2.7112565191 -2.5169148412
| 26> H 5.3835080422 -1.3988378184 -3.6062037092
| 27> H 6.046345518 -1.4841391924 -1.9651027659
| 28> H 3.1102877354 -0.9775687946 -2.6760995464
| 29> H 4.2628682846 0.2556212648 -2.1005146635
| 30> H 3.0548252359 -1.4835364355 3.4469848085
| 31> H 3.0105199533 0.2233888025 2.9168898255
| 32> H 0.8763712089 -0.4820226023 4.0597806596
| 33> H 0.6122513457 0.042446124 2.3936149327
| 34> H 0.6269446356 -1.6891896358 2.786335056
| 35> H -0.3262185952 1.1162980059 -1.6705135592
| 36> H 0.9645113485 1.6802655325 -0.5371704236
| 37> H -5.4578879576 2.3369701312 1.0133884402
| 38> H -5.126171929 0.626854834 1.4121980125
| 39> H -3.2659216286 2.966265226 2.0768880234
| 40> H -4.3514708842 2.1727287284 3.2294301738
| 41> H -3.0034823527 1.2749824891 2.5167315133
| 42> H -1.457391993 -1.5751214806 1.0000495989
| 43> H -2.954158873 -2.4795744295 1.3705527636
| 44> H -1.6522764402 -3.6479036966 -0.3895308065
| 45> H -3.1689339523 -3.0345594608 -1.0735378719
| 46> H -1.6486789993 -2.1908280918 -1.3886450737
| 47> *
| 48>
| 49>                          ****END OF INPUT****

CARTESIAN COORDINATES (ANGSTROEM)
---------------------------------
  C      5.165440   -1.659674   -2.575809
  C      4.012647   -0.810914   -2.079403
  O      3.740505   -1.195701   -0.717099
  P      2.759146   -0.338759    0.180109
  S      3.228500    1.557802    0.404360
  O      2.882763   -1.247542    1.464808
  C      2.565392   -0.768328    2.784193
  C      1.068961   -0.723767    3.019549
  S      0.852396   -0.712283   -0.704551
  C      0.155703    0.965245   -0.703199
  S     -1.069951    1.236877    0.594222
  P     -2.814418    0.533391   -0.426613
  S     -2.623322    0.422066   -2.373923
  O     -3.990376    1.515697   -0.070695
  C     -4.676821    1.599092    1.202887
  C     -3.762200    2.032447    2.328533
  O     -3.255980   -0.777301    0.365375
  C     -2.417296   -1.919146    0.602881
  C     -2.210600   -2.753225   -0.644994
  H      4.900931   -2.711257   -2.516915
  H      5.383508   -1.398838   -3.606204
  H      6.046346   -1.484139   -1.965103
  H      3.110288   -0.977569   -2.676100
  H      4.262868    0.255621   -2.100515
  H      3.054825   -1.483536    3.446985
  H      3.010520    0.223389    2.916890
  H      0.876371   -0.482023    4.059781
  H      0.612251    0.042446    2.393615
  H      0.626945   -1.689190    2.786335
  H     -0.326219    1.116298   -1.670514
  H      0.964511    1.680266   -0.537170
  H     -5.457888    2.336970    1.013388
  H     -5.126172    0.626855    1.412198
  H     -3.265922    2.966265    2.076888
  H     -4.351471    2.172729    3.229430
  H     -3.003482    1.274982    2.516732
  H     -1.457392   -1.575121    1.000050
  H     -2.954159   -2.479574    1.370553
  H     -1.652276   -3.647904   -0.389531
  H     -3.168934   -3.034559   -1.073538
  H     -1.648679   -2.190828   -1.388645

 Total Charge           Charge          ....    0
 Multiplicity           Mult            ....    1
 Number of Electrons    NEL             ....  202
 Basis Dimension        Dim             ....  334

ORBITAL ENERGIES
----------------

  NO   OCC          E(Eh)            E(eV)
   0   2.0000     -88.047043     -2395.8819
   1   2.0000     -88.046914     -2395.8783
   2   2.0000     -87.995658     -2394.4836
   3   2.0000     -87.986546     -2394.2356
   4   2.0000     -76.430444     -2079.7781
   5   2.0000     -76.429339     -2079.7480
   6   2.0000     -18.796623      -511.4821
   7   2.0000     -18.794937      -511.4362
   8   2.0000     -18.794683      -511.4293
   9   2.0000     -18.793464      -511.3962
  10   2.0000      -9.960943      -271.0510
  11   2.0000      -9.956221      -270.9225
  12   2.0000      -9.956115      -270.9197
  13   2.0000      -9.953928      -270.8602
  14   2.0000      -9.949258      -270.7331
  15   2.0000      -9.895189      -269.2618
  16   2.0000      -9.888295      -269.0742
  17   2.0000      -9.887545      -269.0538
  18   2.0000      -9.880701      -268.8676
  19   2.0000      -7.691391      -209.2934
  20   2.0000      -7.691034      -209.2837
  21   2.0000      -7.640456      -207.9074
  22   2.0000      -7.631707      -207.6693
  23   2.0000      -6.428113      -174.9179
  24   2.0000      -6.426636      -174.8776
  25   2.0000      -5.719113      -155.6250
  26   2.0000      -5.718867      -155.6183
  27   2.0000      -5.715816      -155.5353
  28   2.0000      -5.715444      -155.5251
  29   2.0000      -5.708713      -155.3420
  30   2.0000      -5.708356      -155.3323
  31   2.0000      -5.669184      -154.2663
  32   2.0000      -5.660996      -154.0435
  33   2.0000      -5.660924      -154.0416
  34   2.0000      -5.660788      -154.0379
  35   2.0000      -5.652101      -153.8015
  36   2.0000      -5.651887      -153.7957
  37   2.0000      -4.650268      -126.5402
  38   2.0000      -4.650061      -126.5346
  39   2.0000      -4.649522      -126.5199
  40   2.0000      -4.648676      -126.4969
  41   2.0000      -4.648421      -126.4900
  42   2.0000      -4.646825      -126.4465
  43   2.0000      -0.993580       -27.0367
  44   2.0000      -0.991723       -26.9862
  45   2.0000      -0.949258       -25.8306
  46   2.0000      -0.947110       -25.7722
  47   2.0000      -0.762572       -20.7506
  48   2.0000      -0.725800       -19.7500
  49   2.0000      -0.716649       -19.5010
  50   2.0000      -0.693781       -18.8788
  51   2.0000      -0.687921       -18.7193
  52   2.0000      -0.680911       -18.5285
  53   2.0000      -0.653288       -17.7769
  54   2.0000      -0.640489       -17.4286
  55   2.0000      -0.604191       -16.4409
  56   2.0000      -0.594609       -16.1801
  57   2.0000      -0.582947       -15.8628
  58   2.0000      -0.566088       -15.4040
  59   2.0000      -0.561502       -15.2793
  60   2.0000      -0.509282       -13.8583
  61   2.0000      -0.500107       -13.6086
  62   2.0000      -0.477311       -12.9883
  63   2.0000      -0.475554       -12.9405
  64   2.0000      -0.459721       -12.5097
  65   2.0000      -0.450343       -12.2545
  66   2.0000      -0.443705       -12.0738
  67   2.0000      -0.439415       -11.9571
  68   2.0000      -0.430922       -11.7260
  69   2.0000      -0.429659       -11.6916
  70   2.0000      -0.412546       -11.2260
  71   2.0000      -0.404679       -11.0119
  72   2.0000      -0.399435       -10.8692
  73   2.0000      -0.389977       -10.6118
  74   2.0000      -0.383865       -10.4455
  75   2.0000      -0.375430       -10.2160
  76   2.0000      -0.365867        -9.9558
  77   2.0000      -0.358134        -9.7453
  78   2.0000      -0.357453        -9.7268
  79   2.0000      -0.355171        -9.6647
  80   2.0000      -0.352474        -9.5913
  81   2.0000      -0.346648        -9.4328
  82   2.0000      -0.343168        -9.3381
  83   2.0000      -0.341021        -9.2796
  84   2.0000      -0.336646        -9.1606
  85   2.0000      -0.321832        -8.7575
  86   2.0000      -0.312390        -8.5006
  87   2.0000      -0.306651        -8.3444
  88   2.0000      -0.301080        -8.1928
  89   2.0000      -0.295568        -8.0428
  90   2.0000      -0.294248        -8.0069
  91   2.0000      -0.279896        -7.6164
  92   2.0000      -0.272040        -7.4026
  93   2.0000      -0.265098        -7.2137
  94   2.0000      -0.262237        -7.1358
  95   2.0000      -0.236266        -6.4291
  96   2.0000      -0.225309        -6.1310
  97   2.0000      -0.215714        -5.8699
  98   2.0000      -0.210918        -5.7394
  99   2.0000      -0.203688        -5.5426
 100   2.0000      -0.200427        -5.4539
 101   0.0000      -0.047147        -1.2829
 102   0.0000      -0.036927        -1.0048
 103   0.0000      -0.012724        -0.3462
 104   0.0000       0.000202         0.0055
 105   0.0000       0.008458         0.2302

MULLIKEN ATOMIC CHARGES
-----------------------
   0 C :   -0.277777
   1 C :   -0.013422
   2 O :   -0.358763
   3 P :    0.596564
   4 S :   -0.326342
   5 O :   -0.353318
   6 C :   -0.000785
   7 C :   -0.334668
   8 S :   -0.108064
   9 C :   -0.343781
  10 S :   -0.125720
  11 P :    0.614190
  12 S :   -0.303133
  13 O :   -0.358591
  14 C :    0.004035
  15 C :   -0.333132
  16 O :   -0.380373
  17 C :   -0.035204
  18 C :   -0.301610
  19 H :    0.118274
  20 H :    0.113034
  21 H :    0.121008
  22 H :    0.104713
  23 H :    0.104953
  24 H :    0.107916
  25 H :    0.113997
  26 H :    0.111217
  27 H :    0.138037
  28 H :    0.123201
  29 H :    0.196738
  30 H :    0.193295
  31 H :    0.113797
  32 H :    0.112654
  33 H :    0.132126
  34 H :    0.119204
  35 H :    0.128764
  36 H :    0.125310
  37 H :    0.103006
  38 H :    0.107989
  39 H :    0.117600
  40 H :    0.133059
Sum of atomic charges:   -0.0000000

LOEWDIN ATOMIC CHARGES
----------------------
   0 C :   -0.349354
   1 C :   -0.122011
   2 O :   -0.237181
   3 P :    0.567344
   4 S :   -0.307841
   5 O :   -0.231966
   6 C :   -0.116627
   7 C :   -0.370692
   8 S :    0.080553
   9 C :   -0.493933
  10 S :    0.086697
  11 P :    0.567358
  12 S :   -0.294090
  13 O :   -0.234201
  14 C :   -0.108678
  15 C :   -0.371124
  16 O :   -0.246040
  17 C :   -0.122707
  18 C :   -0.366691
  19 H :    0.128023
  20 H :    0.131363
  21 H :    0.129209
  22 H :    0.107427
  23 H :    0.109385
  24 H :    0.120013
  25 H :    0.110795
  26 H :    0.130973
  27 H :    0.111648
  28 H :    0.124503
  29 H :    0.126680
  30 H :    0.124669
  31 H :    0.124414
  32 H :    0.115744
  33 H :    0.130778
  34 H :    0.134503
  35 H :    0.116857
  36 H :    0.102389
  37 H :    0.117659
  38 H :    0.129567
  39 H :    0.127839
  40 H :    0.116744

  Mayer bond orders larger than 0.100000
B(  0-C ,  1-C ) :   1.1622 B(  0-C , 19-H ) :   0.9507 B(  0-C , 20-H ) :   0.9419
B(  0-C , 21-H ) :   0.9512 B(  1-C ,  2-O ) :   0.9074 B(  1-C , 22-H ) :   0.9216
B(  1-C , 23-H ) :   0.9147 B(  2-O ,  3-P ) :   1.1316 B(  3-P ,  4-S ) :   1.6024
B(  3-P ,  5-O ) :   1.1363 B(  3-P ,  8-S ) :   0.9474 B(  4-S ,  8-S ) :   0.1237
B(  4-S , 30-H ) :   0.1157 B(  5-O ,  6-C ) :   0.9121 B(  6-C ,  7-C ) :   1.1607
B(  6-C , 24-H ) :   0.9335 B(  6-C , 25-H ) :   0.9136 B(  7-C , 26-H ) :   0.9368
B(  7-C , 27-H ) :   0.9276 B(  7-C , 28-H ) :   0.9399 B(  8-S ,  9-C ) :   1.0073
B(  9-C , 10-S ) :   1.0126 B(  9-C , 29-H ) :   0.8546 B(  9-C , 30-H ) :   0.8486
B( 10-S , 11-P ) :   0.9332 B( 10-S , 12-S ) :   0.1147 B( 11-P , 12-S ) :   1.6538
B( 11-P , 13-O ) :   1.1473 B( 11-P , 16-O ) :   1.0702 B( 12-S , 29-H ) :   0.1072
B( 13-O , 14-C ) :   0.8988 B( 14-C , 15-C ) :   1.1696 B( 14-C , 31-H ) :   0.9334
B( 14-C , 32-H ) :   0.9269 B( 15-C , 33-H ) :   0.9425 B( 15-C , 34-H ) :   0.9354
B( 15-C , 35-H ) :   0.9326 B( 16-O , 17-C ) :   0.9129 B( 17-C , 18-C ) :   1.1670
B( 17-C , 36-H ) :   0.9034 B( 17-C , 37-H ) :   0.9344 B( 18-C , 38-H ) :   0.9376
B( 18-C , 39-H ) :   0.9450 B( 18-C , 40-H ) :   0.9273

Dispersion correction           -0.062989074
FINAL SINGLE POINT ENERGY     -2929.521355564414

DIPOLE MOMENT
-------------

Method             : SCF
Type of density    : Electron Density
Multiplicity       :   1
Irrep              :   0
Energy             : -2929.6428618730669768 Eh
Relativity type    :
Basis              : AO
                                X                 Y                 Z
Electronic contribution:     -0.669310849       9.304562183      -8.633925462
Nuclear contribution   :      0.438703811     -10.083725125       9.957763451
                        -----------------------------------------
Total Dipole Moment    :     -0.230607037      -0.779162942       1.323837989
                        -----------------------------------------
Magnitude (a.u.)       :      1.553325953
Magnitude (Debye)      :      3.948240801

Rotational constants in cm-1:             0.012534             0.004324             0.003980
Rotational constants in MHz :           375.747298           129.642831           119.330848

                             ****ORCA TERMINATED NORMALLY****
TOTAL RUN TIME: 0 days 0 hours 0 minutes 20 seconds 752 msec
