                         Program Version 6.0.0  -   RELEASE  -
|  1> ! pbe def2-sv(p) def2/J RI DEFGRID1 loosescf d4 GCP(DFT/SV(P)) printgap
|  2> %output
|  3>     printlevel normal
|  4> end
|  5> * xyz 0 1
|  6> C 1.8980174807 -2.7627434191 -1.865692776
|  7> C 1.6362588205 -1.3251309888 -2.2643053501
|  8> O 1.2023117275 -0.5393722765 -1.1370717738
|  9> P 2.2300953992 0.0545250629 -0.0853371525
| 10> S 3.9511834389 0.6306223816 -0.8213245314
| 11> O 2.3242983284 -1.1133843028 0.9977764465
| 12> C 3.4539276999 -1.2417633952 1.878685102
| 13> C 3.4093726207 -0.2370582675 3.0128427288
| 14> S 1.0358495228 1.5569842174 0.7798027767
| 15> C -0.0980538537 0.5477852545 1.8002188598
| 16> S -1.0094736201 -0.7403366159 0.9278464561
| 17> P -2.1935799325 0.4898003182 -0.3609440819
| 18> S -1.3168957354 1.3694255211 -1.8809445096
| 19> O -2.8726798735 1.5914326558 0.5441984725
| 20> C -4.017034173 1.4004046652 1.415655355
| 21> C -3.6259493747 0.870562621 2.7809321184
| 22> O -3.4148610264 -0.4660911576 -0.7100541063
| 23> C -3.2961413077 -1.8450856332 -1.1056556467
| 24> C -2.3359790967 -2.0398831339 -2.2594529921
| 25> H 2.764374962 -2.8141131545 -1.2091670849
| 26> H 1.035854573 -3.1697154379 -1.3436071489
| 27> H 2.0926405332 -3.3493934418 -2.7578262916
| 28> H 0.8177361165 -1.2364016988 -2.9814349349
| 29> H 2.5356735134 -0.8615996403 -2.6842762368
| 30> H 3.3912416091 -2.2675778505 2.2437628457
| 31> H 4.3667412826 -1.1079565217 1.2890591759
| 32> H 4.2930598742 -0.3595651684 3.6310262179
| 33> H 3.4018701726 0.7755299316 2.6095627636
| 34> H 2.5252726496 -0.384031823 3.6272003729
| 35> H -0.7883711768 1.2710105186 2.2284797699
| 36> H 0.4668313011 0.0361190296 2.574915947
| 37> H -4.4479191294 2.4004494818 1.4863001967
| 38> H -4.7207256695 0.730666579 0.9200103112
| 39> H -3.1775034556 -0.1165971471 2.6986669207
| 40> H -2.9258487154 1.5453136882 3.2667423868
| 41> H -4.5206258717 0.7990638465 3.3919811575
| 42> H -2.97317153 -2.4214031969 -0.2339795711
| 43> H -4.3150379002 -2.1234570831 -1.3806764682
| 44> H -2.6341168992 -1.4301566994 -3.1094168011
| 45> H -1.3337555248 -1.7383717918 -1.957404332
| 46> H -2.322078607 -3.0852706308 -2.5503231114
| 47> *
| 48>
| 49>                          ****END OF INPUT****

CARTESIAN COORDINATES (ANGSTROEM)
---------------------------------
  C      1.898017   -2.762743   -1.865693
  C      1.636259   -1.325131   -2.264305
  O      1.202312   -0.539372   -1.137072
  P      2.230095    0.054525   -0.085337
  S      3.951183    0.630622   -0.821325
  O      2.324298   -1.113384    0.997776
  C      3.453928   -1.241763    1.878685
  C      3.409373   -0.237058    3.012843
  S      1.035850    1.556984    0.779803
  C     -0.098054    0.547785    1.800219
  S     -1.009474   -0.740337    0.927846
  P     -2.193580    0.489800   -0.360944
  S     -1.316896    1.369426   -1.880945
  O     -2.872680    1.591433    0.544198
  C     -4.017034    1.400405    1.415655
  C     -3.625949    0.870563    2.780932
  O     -3.414861   -0.466091   -0.710054
  C     -3.296141   -1.845086   -1.105656
  C     -2.335979   -2.039883   -2.259453
  H      2.764375   -2.814113   -1.209167
  H      1.035855   -3.169715   -1.343607
  H      2.092641   -3.349393   -2.757826
  H      0.817736   -1.236402   -2.981435
  H      2.535674   -0.861600   -2.684276
  H      3.391242   -2.267578    2.243763
  H      4.366741   -1.107957    1.289059
  H      4.293060   -0.359565    3.631026
  H      3.401870    0.775530    2.609563
  H      2.525273   -0.384032    3.627200
  H     -0.788371    1.271011    2.228480
  H      0.466831    0.036119    2.574916
  H     -4.447919    2.400449    1.486300
  H     -4.720726    0.730667    0.920010
  H     -3.177503   -0.116597    2.698667
  H     -2.925849    1.545314    3.266742
  H     -4.520626    0.799064    3.391981
  H     -2.973172   -2.421403   -0.233980
  H     -4.315038   -2.123457   -1.380676
  H     -2.634117   -1.430157   -3.109417
  H     -1.333756   -1.738372   -1.957404
  H     -2.322079   -3.085271   -2.550323

 Total Charge           Charge          ....    0
 Multiplicity           Mult            ....    1
 Number of Electrons    NEL             ....  202
 Basis Dimension        Dim             ....  334

ORBITAL ENERGIES
----------------

  NO   OCC          E(Eh)            E(eV)
   0   2.0000     -88.044782     -2395.8203
   1   2.0000     -88.038149     -2395.6398
   2   2.0000     -87.982097     -2394.1146
   3   2.0000     -87.972053     -2393.8413
   4   2.0000     -76.425534     -2079.6445
   5   2.0000     -76.421100     -2079.5239
   6   2.0000     -18.796640      -511.4826
   7   2.0000     -18.793087      -511.3859
   8   2.0000     -18.791926      -511.3543
   9   2.0000     -18.779979      -511.0292
  10   2.0000      -9.964319      -271.1429
  11   2.0000      -9.964228      -271.1404
  12   2.0000      -9.959258      -271.0052
  13   2.0000      -9.952891      -270.8319
  14   2.0000      -9.942186      -270.5406
  15   2.0000      -9.894683      -269.2480
  16   2.0000      -9.888941      -269.0918
  17   2.0000      -9.888510      -269.0800
  18   2.0000      -9.880854      -268.8717
  19   2.0000      -7.689332      -209.2373
  20   2.0000      -7.683385      -209.0755
  21   2.0000      -7.627254      -207.5481
  22   2.0000      -7.617277      -207.2767
  23   2.0000      -6.422366      -174.7615
  24   2.0000      -6.418932      -174.6680
  25   2.0000      -5.717194      -155.5728
  26   2.0000      -5.713966      -155.4849
  27   2.0000      -5.711815      -155.4264
  28   2.0000      -5.707672      -155.3137
  29   2.0000      -5.706219      -155.2741
  30   2.0000      -5.699959      -155.1038
  31   2.0000      -5.656167      -153.9121
  32   2.0000      -5.647781      -153.6839
  33   2.0000      -5.647499      -153.6763
  34   2.0000      -5.646572      -153.6510
  35   2.0000      -5.637864      -153.4141
  36   2.0000      -5.637113      -153.3936
  37   2.0000      -4.645681      -126.4154
  38   2.0000      -4.644406      -126.3807
  39   2.0000      -4.641927      -126.3133
  40   2.0000      -4.641303      -126.2963
  41   2.0000      -4.640840      -126.2837
  42   2.0000      -4.639412      -126.2448
  43   2.0000      -0.990161       -26.9437
  44   2.0000      -0.981641       -26.7118
  45   2.0000      -0.946790       -25.7635
  46   2.0000      -0.940575       -25.5944
  47   2.0000      -0.763379       -20.7726
  48   2.0000      -0.721392       -19.6301
  49   2.0000      -0.710948       -19.3459
  50   2.0000      -0.696611       -18.9557
  51   2.0000      -0.686779       -18.6882
  52   2.0000      -0.674331       -18.3495
  53   2.0000      -0.651184       -17.7196
  54   2.0000      -0.635344       -17.2886
  55   2.0000      -0.596927       -16.2432
  56   2.0000      -0.588650       -16.0180
  57   2.0000      -0.583485       -15.8774
  58   2.0000      -0.573588       -15.6081
  59   2.0000      -0.563575       -15.3357
  60   2.0000      -0.505135       -13.7454
  61   2.0000      -0.491699       -13.3798
  62   2.0000      -0.477577       -12.9955
  63   2.0000      -0.471835       -12.8393
  64   2.0000      -0.462170       -12.5763
  65   2.0000      -0.447299       -12.1716
  66   2.0000      -0.441869       -12.0239
  67   2.0000      -0.439998       -11.9730
  68   2.0000      -0.429759       -11.6943
  69   2.0000      -0.419101       -11.4043
  70   2.0000      -0.412057       -11.2127
  71   2.0000      -0.402179       -10.9439
  72   2.0000      -0.395616       -10.7653
  73   2.0000      -0.389843       -10.6082
  74   2.0000      -0.384418       -10.4606
  75   2.0000      -0.370425       -10.0798
  76   2.0000      -0.363796        -9.8994
  77   2.0000      -0.361030        -9.8241
  78   2.0000      -0.358415        -9.7530
  79   2.0000      -0.354763        -9.6536
  80   2.0000      -0.349103        -9.4996
  81   2.0000      -0.347663        -9.4604
  82   2.0000      -0.346774        -9.4362
  83   2.0000      -0.340342        -9.2612
  84   2.0000      -0.329171        -8.9572
  85   2.0000      -0.325858        -8.8670
  86   2.0000      -0.315738        -8.5917
  87   2.0000      -0.302688        -8.2365
  88   2.0000      -0.295471        -8.0402
  89   2.0000      -0.292818        -7.9680
  90   2.0000      -0.281719        -7.6660
  91   2.0000      -0.277951        -7.5634
  92   2.0000      -0.269337        -7.3290
  93   2.0000      -0.263671        -7.1749
  94   2.0000      -0.255780        -6.9601
  95   2.0000      -0.232832        -6.3357
  96   2.0000      -0.215246        -5.8571
  97   2.0000      -0.202413        -5.5079
  98   2.0000      -0.201322        -5.4783
  99   2.0000      -0.186723        -5.0810
 100   2.0000      -0.180114        -4.9012
 101   0.0000      -0.046109        -1.2547
 102   0.0000      -0.018838        -0.5126
 103   0.0000      -0.014171        -0.3856
 104   0.0000      -0.008372        -0.2278
 105   0.0000       0.010963         0.2983

MULLIKEN ATOMIC CHARGES
-----------------------
   0 C :   -0.301426
   1 C :   -0.011393
   2 O :   -0.356616
   3 P :    0.624558
   4 S :   -0.327510
   5 O :   -0.385628
   6 C :   -0.009258
   7 C :   -0.323990
   8 S :   -0.056411
   9 C :   -0.356741
  10 S :   -0.125370
  11 P :    0.602805
  12 S :   -0.283746
  13 O :   -0.366373
  14 C :   -0.003561
  15 C :   -0.326743
  16 O :   -0.385859
  17 C :   -0.008231
  18 C :   -0.351649
  19 H :    0.115864
  20 H :    0.111669
  21 H :    0.108954
  22 H :    0.114799
  23 H :    0.113840
  24 H :    0.103764
  25 H :    0.114174
  26 H :    0.115028
  27 H :    0.131754
  28 H :    0.119742
  29 H :    0.188983
  30 H :    0.189990
  31 H :    0.113348
  32 H :    0.113052
  33 H :    0.124134
  34 H :    0.126566
  35 H :    0.114438
  36 H :    0.112296
  37 H :    0.111574
  38 H :    0.130956
  39 H :    0.165965
  40 H :    0.112252
Sum of atomic charges:   -0.0000000

LOEWDIN ATOMIC CHARGES
----------------------
   0 C :   -0.361266
   1 C :   -0.120860
   2 O :   -0.233487
   3 P :    0.565876
   4 S :   -0.320928
   5 O :   -0.250152
   6 C :   -0.123620
   7 C :   -0.365881
   8 S :    0.103995
   9 C :   -0.473425
  10 S :    0.073335
  11 P :    0.562863
  12 S :   -0.296708
  13 O :   -0.241914
  14 C :   -0.110562
  15 C :   -0.368148
  16 O :   -0.247701
  17 C :   -0.114439
  18 C :   -0.373328
  19 H :    0.122443
  20 H :    0.122509
  21 H :    0.128519
  22 H :    0.116826
  23 H :    0.109341
  24 H :    0.117332
  25 H :    0.109733
  26 H :    0.133178
  27 H :    0.125083
  28 H :    0.119468
  29 H :    0.131080
  30 H :    0.130447
  31 H :    0.123175
  32 H :    0.114612
  33 H :    0.117892
  34 H :    0.124444
  35 H :    0.132678
  36 H :    0.106858
  37 H :    0.122252
  38 H :    0.132853
  39 H :    0.125633
  40 H :    0.129997

  Mayer bond orders larger than 0.100000
B(  0-C ,  1-C ) :   1.1647 B(  0-C , 19-H ) :   0.9415 B(  0-C , 20-H ) :   0.9491
B(  0-C , 21-H ) :   0.9405 B(  1-C ,  2-O ) :   0.9033 B(  1-C , 22-H ) :   0.9209
B(  1-C , 23-H ) :   0.9108 B(  2-O ,  3-P ) :   1.1253 B(  3-P ,  4-S ) :   1.6358
B(  3-P ,  5-O ) :   1.0608 B(  3-P ,  8-S ) :   0.9841 B(  5-O ,  6-C ) :   0.9138
B(  6-C ,  7-C ) :   1.1617 B(  6-C , 24-H ) :   0.9332 B(  6-C , 25-H ) :   0.9087
B(  7-C , 26-H ) :   0.9376 B(  7-C , 27-H ) :   0.9357 B(  7-C , 28-H ) :   0.9374
B(  8-S ,  9-C ) :   0.9945 B(  9-C , 10-S ) :   1.0138 B(  9-C , 29-H ) :   0.8891
B(  9-C , 30-H ) :   0.8936 B( 10-S , 11-P ) :   0.9201 B( 10-S , 12-S ) :   0.1150
B( 11-P , 12-S ) :   1.7204 B( 11-P , 13-O ) :   1.1098 B( 11-P , 16-O ) :   1.0642
B( 13-O , 14-C ) :   0.9033 B( 14-C , 15-C ) :   1.1678 B( 14-C , 31-H ) :   0.9348
B( 14-C , 32-H ) :   0.9214 B( 15-C , 33-H ) :   0.9331 B( 15-C , 34-H ) :   0.9378
B( 15-C , 35-H ) :   0.9363 B( 16-O , 17-C ) :   0.9166 B( 17-C , 18-C ) :   1.1675
B( 17-C , 36-H ) :   0.9231 B( 17-C , 37-H ) :   0.9330 B( 18-C , 38-H ) :   0.9397
B( 18-C , 39-H ) :   0.9183 B( 18-C , 40-H ) :   0.9335

Dispersion correction           -0.067912637
FINAL SINGLE POINT ENERGY     -2929.505439850279

DIPOLE MOMENT
-------------

Method             : SCF
Type of density    : Electron Density
Multiplicity       :   1
Irrep              :   0
Energy             : -2929.6237785446587623 Eh
Relativity type    :
Basis              : AO
                                X                 Y                 Z
Electronic contribution:      4.879442276      16.523997212      -7.983942004
Nuclear contribution   :     -6.218497365     -18.314148393       9.579204518
                        -----------------------------------------
Total Dipole Moment    :     -1.339055089      -1.790151180       1.595262514
                        -----------------------------------------
Magnitude (a.u.)       :      2.746374386
Magnitude (Debye)      :      6.980728922

Rotational constants in cm-1:             0.011902             0.005687             0.004907
Rotational constants in MHz :           356.827029           170.482875           147.115526

                             ****ORCA TERMINATED NORMALLY****
TOTAL RUN TIME: 0 days 0 hours 0 minutes 22 seconds 3 msec
