                         Program Version 6.0.0  -   RELEASE  -
|  1> ! pbe def2-sv(p) def2/J RI DEFGRID1 loosescf d4 GCP(DFT/SV(P)) printgap
|  2> %output
|  3>     printlevel normal
|  4> end
|  5> * xyz 0 1
|  6> C 4.2867180743 0.1204530986 -1.9472785615
|  7> C 2.9623870377 -0.6028320793 -2.0705469847
|  8> O 2.4857150178 -1.0569306188 -0.7890048226
|  9> P 1.9579183652 -0.0630746572 0.3242957618
| 10> S 1.2118750772 1.6564916612 -0.2929042749
| 11> O 3.2540371953 0.1337309056 1.2241703017
| 12> C 3.3635595243 1.1426846337 2.2401509494
| 13> C 2.6925001649 0.7061753583 3.5268818009
| 14> S 0.8071763252 -1.4028540493 1.4733492809
| 15> C -0.2730570629 -2.1704761617 0.2112652961
| 16> S -0.5634789784 -1.1717842438 -1.2718706204
| 17> P -2.0398697387 0.15168805 -0.5604656097
| 18> S -2.4836064903 1.6888016734 -1.6883230847
| 19> O -1.4912117048 0.4363609033 0.8959160173
| 20> C -2.1601717329 1.390397475 1.7534482173
| 21> C -1.2135160532 1.7387530215 2.881909507
| 22> O -3.3020063605 -0.7673179578 -0.2058637498
| 23> C -4.3532384112 -1.0167260138 -1.150852659
| 24> C -3.8930402692 -1.9122936819 -2.2835411571
| 25> H 4.1514344723 1.0428365071 -1.3834654045
| 26> H 5.0082045811 -0.5057451493 -1.4294273611
| 27> H 4.658986635 0.3635267789 -2.9374879802
| 28> H 3.049037762 -1.5186371443 -2.6564868552
| 29> H 2.2015061173 0.0479644457 -2.515068785
| 30> H 4.4383500571 1.2755054664 2.3731320952
| 31> H 2.9221825968 2.0703505585 1.858543969
| 32> H 2.8423941082 1.4653946946 4.2876405666
| 33> H 1.6247403236 0.5712489477 3.362524569
| 34> H 3.1123600748 -0.2365929308 3.8663984366
| 35> H -1.2207313307 -2.383799446 0.7014262019
| 36> H 0.207650009 -3.0799333865 -0.1417594396
| 37> H -2.4159333592 2.2720647651 1.1556452982
| 38> H -3.0774737889 0.9250653652 2.1221437781
| 39> H -0.3079516512 2.183885018 2.4760009752
| 40> H -1.6946018825 2.4504197758 3.5444943969
| 41> H -0.9532388814 0.8415499242 3.4372962629
| 42> H -5.1388060224 -1.4849391238 -0.5562508799
| 43> H -4.7006213112 -0.0545510964 -1.540633839
| 44> H -3.1213293798 -1.4053442716 -2.8629764162
| 45> H -3.4866026511 -2.8423438549 -1.8949758456
| 46> H -4.7342354374 -2.1300025344 -2.9335557272
| 47> *
| 48>
| 49>                          ****END OF INPUT****

CARTESIAN COORDINATES (ANGSTROEM)
---------------------------------
  C      4.286718    0.120453   -1.947279
  C      2.962387   -0.602832   -2.070547
  O      2.485715   -1.056931   -0.789005
  P      1.957918   -0.063075    0.324296
  S      1.211875    1.656492   -0.292904
  O      3.254037    0.133731    1.224170
  C      3.363560    1.142685    2.240151
  C      2.692500    0.706175    3.526882
  S      0.807176   -1.402854    1.473349
  C     -0.273057   -2.170476    0.211265
  S     -0.563479   -1.171784   -1.271871
  P     -2.039870    0.151688   -0.560466
  S     -2.483606    1.688802   -1.688323
  O     -1.491212    0.436361    0.895916
  C     -2.160172    1.390397    1.753448
  C     -1.213516    1.738753    2.881910
  O     -3.302006   -0.767318   -0.205864
  C     -4.353238   -1.016726   -1.150853
  C     -3.893040   -1.912294   -2.283541
  H      4.151434    1.042837   -1.383465
  H      5.008205   -0.505745   -1.429427
  H      4.658987    0.363527   -2.937488
  H      3.049038   -1.518637   -2.656487
  H      2.201506    0.047964   -2.515069
  H      4.438350    1.275505    2.373132
  H      2.922183    2.070351    1.858544
  H      2.842394    1.465395    4.287641
  H      1.624740    0.571249    3.362525
  H      3.112360   -0.236593    3.866398
  H     -1.220731   -2.383799    0.701426
  H      0.207650   -3.079933   -0.141759
  H     -2.415933    2.272065    1.155645
  H     -3.077474    0.925065    2.122144
  H     -0.307952    2.183885    2.476001
  H     -1.694602    2.450420    3.544494
  H     -0.953239    0.841550    3.437296
  H     -5.138806   -1.484939   -0.556251
  H     -4.700621   -0.054551   -1.540634
  H     -3.121329   -1.405344   -2.862976
  H     -3.486603   -2.842344   -1.894976
  H     -4.734235   -2.130003   -2.933556

 Total Charge           Charge          ....    0
 Multiplicity           Mult            ....    1
 Number of Electrons    NEL             ....  202
 Basis Dimension        Dim             ....  334

ORBITAL ENERGIES
----------------

  NO   OCC          E(Eh)            E(eV)
   0   2.0000     -88.046855     -2395.8767
   1   2.0000     -88.037365     -2395.6185
   2   2.0000     -87.982623     -2394.1289
   3   2.0000     -87.979387     -2394.0408
   4   2.0000     -76.423614     -2079.5922
   5   2.0000     -76.422042     -2079.5495
   6   2.0000     -18.789364      -511.2846
   7   2.0000     -18.788930      -511.2728
   8   2.0000     -18.787614      -511.2370
   9   2.0000     -18.784735      -511.1586
  10   2.0000      -9.961935      -271.0780
  11   2.0000      -9.949644      -270.7436
  12   2.0000      -9.948343      -270.7082
  13   2.0000      -9.947994      -270.6987
  14   2.0000      -9.947158      -270.6759
  15   2.0000      -9.885570      -269.0000
  16   2.0000      -9.882812      -268.9250
  17   2.0000      -9.879837      -268.8440
  18   2.0000      -9.879502      -268.8349
  19   2.0000      -7.691462      -209.2953
  20   2.0000      -7.682646      -209.0554
  21   2.0000      -7.627811      -207.5633
  22   2.0000      -7.623975      -207.4589
  23   2.0000      -6.420684      -174.7157
  24   2.0000      -6.419725      -174.6896
  25   2.0000      -5.719819      -155.6442
  26   2.0000      -5.715731      -155.5329
  27   2.0000      -5.710857      -155.4003
  28   2.0000      -5.708167      -155.3271
  29   2.0000      -5.707226      -155.3015
  30   2.0000      -5.699138      -155.0814
  31   2.0000      -5.656767      -153.9285
  32   2.0000      -5.652924      -153.8239
  33   2.0000      -5.648644      -153.7074
  34   2.0000      -5.647730      -153.6826
  35   2.0000      -5.644627      -153.5981
  36   2.0000      -5.644141      -153.5849
  37   2.0000      -4.643261      -126.3495
  38   2.0000      -4.642547      -126.3301
  39   2.0000      -4.642124      -126.3186
  40   2.0000      -4.641674      -126.3064
  41   2.0000      -4.641117      -126.2912
  42   2.0000      -4.640155      -126.2650
  43   2.0000      -0.984320       -26.7847
  44   2.0000      -0.982587       -26.7375
  45   2.0000      -0.944133       -25.6912
  46   2.0000      -0.939322       -25.5602
  47   2.0000      -0.763680       -20.7808
  48   2.0000      -0.718654       -19.5556
  49   2.0000      -0.705813       -19.2061
  50   2.0000      -0.685396       -18.6506
  51   2.0000      -0.683074       -18.5874
  52   2.0000      -0.671326       -18.2677
  53   2.0000      -0.651090       -17.7171
  54   2.0000      -0.634275       -17.2595
  55   2.0000      -0.597342       -16.2545
  56   2.0000      -0.588115       -16.0034
  57   2.0000      -0.570778       -15.5317
  58   2.0000      -0.569318       -15.4919
  59   2.0000      -0.560532       -15.2529
  60   2.0000      -0.501275       -13.6404
  61   2.0000      -0.491581       -13.3766
  62   2.0000      -0.473263       -12.8781
  63   2.0000      -0.469158       -12.7664
  64   2.0000      -0.455735       -12.4012
  65   2.0000      -0.441142       -12.0041
  66   2.0000      -0.436726       -11.8839
  67   2.0000      -0.435079       -11.8391
  68   2.0000      -0.424398       -11.5484
  69   2.0000      -0.415286       -11.3005
  70   2.0000      -0.410534       -11.1712
  71   2.0000      -0.394987       -10.7481
  72   2.0000      -0.390461       -10.6250
  73   2.0000      -0.386620       -10.5205
  74   2.0000      -0.384537       -10.4638
  75   2.0000      -0.373315       -10.1584
  76   2.0000      -0.366644        -9.9769
  77   2.0000      -0.355979        -9.6867
  78   2.0000      -0.352480        -9.5915
  79   2.0000      -0.350040        -9.5251
  80   2.0000      -0.346898        -9.4396
  81   2.0000      -0.343683        -9.3521
  82   2.0000      -0.335788        -9.1372
  83   2.0000      -0.332763        -9.0549
  84   2.0000      -0.326047        -8.8722
  85   2.0000      -0.319121        -8.6837
  86   2.0000      -0.311547        -8.4776
  87   2.0000      -0.296534        -8.0691
  88   2.0000      -0.292611        -7.9624
  89   2.0000      -0.289127        -7.8676
  90   2.0000      -0.279610        -7.6086
  91   2.0000      -0.270453        -7.3594
  92   2.0000      -0.268350        -7.3022
  93   2.0000      -0.260609        -7.0915
  94   2.0000      -0.260234        -7.0813
  95   2.0000      -0.231262        -6.2930
  96   2.0000      -0.219423        -5.9708
  97   2.0000      -0.206092        -5.6081
  98   2.0000      -0.197469        -5.3734
  99   2.0000      -0.192369        -5.2346
 100   2.0000      -0.186178        -5.0662
 101   0.0000      -0.049727        -1.3531
 102   0.0000      -0.025659        -0.6982
 103   0.0000      -0.016362        -0.4452
 104   0.0000      -0.002249        -0.0612
 105   0.0000       0.021304         0.5797

MULLIKEN ATOMIC CHARGES
-----------------------
   0 C :   -0.302030
   1 C :   -0.003630
   2 O :   -0.374713
   3 P :    0.613406
   4 S :   -0.308545
   5 O :   -0.367489
   6 C :   -0.007452
   7 C :   -0.330864
   8 S :   -0.109180
   9 C :   -0.309587
  10 S :   -0.084720
  11 P :    0.630323
  12 S :   -0.311232
  13 O :   -0.371084
  14 C :   -0.005262
  15 C :   -0.296779
  16 O :   -0.387735
  17 C :   -0.005071
  18 C :   -0.307893
  19 H :    0.122615
  20 H :    0.114563
  21 H :    0.111050
  22 H :    0.100563
  23 H :    0.117538
  24 H :    0.104711
  25 H :    0.107740
  26 H :    0.113030
  27 H :    0.141216
  28 H :    0.118553
  29 H :    0.181522
  30 H :    0.186312
  31 H :    0.107651
  32 H :    0.097824
  33 H :    0.129988
  34 H :    0.104902
  35 H :    0.124636
  36 H :    0.100629
  37 H :    0.109893
  38 H :    0.123744
  39 H :    0.109216
  40 H :    0.111639
Sum of atomic charges:   -0.0000000

LOEWDIN ATOMIC CHARGES
----------------------
   0 C :   -0.364054
   1 C :   -0.118712
   2 O :   -0.244260
   3 P :    0.563767
   4 S :   -0.306022
   5 O :   -0.243261
   6 C :   -0.122336
   7 C :   -0.367879
   8 S :    0.076491
   9 C :   -0.466101
  10 S :    0.113263
  11 P :    0.569975
  12 S :   -0.309279
  13 O :   -0.241239
  14 C :   -0.112670
  15 C :   -0.356496
  16 O :   -0.256699
  17 C :   -0.123660
  18 C :   -0.366984
  19 H :    0.122983
  20 H :    0.125547
  21 H :    0.130000
  22 H :    0.116783
  23 H :    0.112007
  24 H :    0.118444
  25 H :    0.105994
  26 H :    0.131306
  27 H :    0.121525
  28 H :    0.126796
  29 H :    0.133452
  30 H :    0.137869
  31 H :    0.111040
  32 H :    0.109544
  33 H :    0.125792
  34 H :    0.127921
  35 H :    0.123122
  36 H :    0.116006
  37 H :    0.108773
  38 H :    0.119998
  39 H :    0.121248
  40 H :    0.130006

  Mayer bond orders larger than 0.100000
B(  0-C ,  1-C ) :   1.1667 B(  0-C , 19-H ) :   0.9355 B(  0-C , 20-H ) :   0.9461
B(  0-C , 21-H ) :   0.9395 B(  1-C ,  2-O ) :   0.9002 B(  1-C , 22-H ) :   0.9349
B(  1-C , 23-H ) :   0.9147 B(  2-O ,  3-P ) :   1.1103 B(  3-P ,  4-S ) :   1.5982
B(  3-P ,  5-O ) :   1.1013 B(  3-P ,  8-S ) :   0.9793 B(  4-S ,  8-S ) :   0.1140
B(  5-O ,  6-C ) :   0.9135 B(  6-C ,  7-C ) :   1.1654 B(  6-C , 24-H ) :   0.9325
B(  6-C , 25-H ) :   0.9059 B(  7-C , 26-H ) :   0.9397 B(  7-C , 27-H ) :   0.9272
B(  7-C , 28-H ) :   0.9451 B(  8-S ,  9-C ) :   0.9699 B(  9-C , 10-S ) :   1.0072
B(  9-C , 29-H ) :   0.9036 B(  9-C , 30-H ) :   0.9090 B( 10-S , 11-P ) :   0.9557
B( 11-P , 12-S ) :   1.6609 B( 11-P , 13-O ) :   1.1206 B( 11-P , 16-O ) :   1.0569
B( 13-O , 14-C ) :   0.8946 B( 14-C , 15-C ) :   1.1632 B( 14-C , 31-H ) :   0.9126
B( 14-C , 32-H ) :   0.9312 B( 15-C , 33-H ) :   0.9373 B( 15-C , 34-H ) :   0.9368
B( 15-C , 35-H ) :   0.9400 B( 16-O , 17-C ) :   0.9190 B( 17-C , 18-C ) :   1.1630
B( 17-C , 36-H ) :   0.9338 B( 17-C , 37-H ) :   0.9115 B( 18-C , 38-H ) :   0.9362
B( 18-C , 39-H ) :   0.9467 B( 18-C , 40-H ) :   0.9390

Dispersion correction           -0.068579673
FINAL SINGLE POINT ENERGY     -2929.514911270364

DIPOLE MOMENT
-------------

Method             : SCF
Type of density    : Electron Density
Multiplicity       :   1
Irrep              :   0
Energy             : -2929.6313164832740767 Eh
Relativity type    :
Basis              : AO
                                X                 Y                 Z
Electronic contribution:     -3.228237775      -0.807156272      -7.331384402
Nuclear contribution   :      3.274250307      -0.243969673       8.097136263
                        -----------------------------------------
Total Dipole Moment    :      0.046012532      -1.051125945       0.765751861
                        -----------------------------------------
Magnitude (a.u.)       :      1.301291212
Magnitude (Debye)      :      3.307619400

Rotational constants in cm-1:             0.012021             0.005817             0.005123
Rotational constants in MHz :           360.375178           174.375760           153.588297

                             ****ORCA TERMINATED NORMALLY****
TOTAL RUN TIME: 0 days 0 hours 0 minutes 21 seconds 632 msec
