                         Program Version 6.0.1  -  RELEASE   -
|  1> ! pbe def2-sv(p) def2/J RI DEFGRID1 loosescf d4 GCP(DFT/SV(P)) printgap
|  2> %output
|  3>     printlevel normal
|  4> end
|  5> * xyz 0 1
|  6> C 3.6138190254 -3.6077052192 0.3550197147
|  7> C 3.9544327361 -2.7148061907 -0.8270764611
|  8> O 2.7567005927 -2.2336955788 -1.4728307542
|  9> C 2.1818506829 -1.1490311096 -1.007704813
| 10> O 2.6002240238 -0.4858880184 -0.0797982443
| 11> C 0.9053221886 -0.8251616214 -1.7495592481
| 12> C 0.4936716641 0.6283702349 -1.5210397739
| 13> H 0.9589089305 1.3063130496 -2.236304067
| 14> C 0.7798104132 1.1096914891 -0.1127158292
| 15> O 0.1629739564 0.6442956807 0.8351574725
| 16> O 1.5729465078 2.1381942153 -0.0703907229
| 17> C 1.8711630106 2.7408248516 1.2088822473
| 18> C 3.1920023978 2.2159709985 1.7443815435
| 19> S -1.3136286178 0.8278277813 -1.6992141421
| 20> P -2.0925082065 0.2121890991 0.1851164524
| 21> S -2.4335242413 1.3837776118 1.7317546721
| 22> O -3.4740252399 -0.0714162313 -0.5952033291
| 23> C -4.6938284987 -0.3721678468 0.0839727524
| 24> O -1.6808169771 -1.305026718 0.5212038237
| 25> C -0.9768058623 -1.7173574434 1.6899833303
| 26> H 2.9750691704 -4.4262755774 0.0351643853
| 27> H 4.5293701447 -4.0114472005 0.7742633506
| 28> H 3.0989000556 -3.0353214822 1.1238228557
| 29> H 4.4759330919 -3.2691735308 -1.6069373241
| 30> H 4.5474256006 -1.8540059241 -0.5062605423
| 31> H 0.1353161233 -1.4985413703 -1.3600079617
| 32> H 1.0187573572 -1.0370066215 -2.8113621308
| 33> H 1.9196051797 3.8104751009 1.0011127473
| 34> H 1.0480014647 2.5245957541 1.8960986909
| 35> H 3.3911046965 2.6669373845 2.7106473263
| 36> H 3.1424284019 1.1354958158 1.8534122391
| 37> H 3.9962277734 2.4593250079 1.0564108364
| 38> H -4.7075197187 -1.4226825156 0.3728153604
| 39> H -5.4893480393 -0.1595083609 -0.6259553651
| 40> H -4.7971646119 0.2575629968 0.9708570034
| 41> H -1.3393841752 -2.7166266438 1.9196983362
| 42> H -1.1815521382 -1.0319532735 2.5140405184
| 43> H 0.0950610103 -1.7266351504 1.494772916
| 44> *
| 45>
| 46>                          ****END OF INPUT****

CARTESIAN COORDINATES (ANGSTROEM)
---------------------------------
  C      3.613819   -3.607705    0.355020
  C      3.954433   -2.714806   -0.827076
  O      2.756701   -2.233696   -1.472831
  C      2.181851   -1.149031   -1.007705
  O      2.600224   -0.485888   -0.079798
  C      0.905322   -0.825162   -1.749559
  C      0.493672    0.628370   -1.521040
  H      0.958909    1.306313   -2.236304
  C      0.779810    1.109691   -0.112716
  O      0.162974    0.644296    0.835157
  O      1.572947    2.138194   -0.070391
  C      1.871163    2.740825    1.208882
  C      3.192002    2.215971    1.744382
  S     -1.313629    0.827828   -1.699214
  P     -2.092508    0.212189    0.185116
  S     -2.433524    1.383778    1.731755
  O     -3.474025   -0.071416   -0.595203
  C     -4.693828   -0.372168    0.083973
  O     -1.680817   -1.305027    0.521204
  C     -0.976806   -1.717357    1.689983
  H      2.975069   -4.426276    0.035164
  H      4.529370   -4.011447    0.774263
  H      3.098900   -3.035321    1.123823
  H      4.475933   -3.269174   -1.606937
  H      4.547426   -1.854006   -0.506261
  H      0.135316   -1.498541   -1.360008
  H      1.018757   -1.037007   -2.811362
  H      1.919605    3.810475    1.001113
  H      1.048001    2.524596    1.896099
  H      3.391105    2.666937    2.710647
  H      3.142428    1.135496    1.853412
  H      3.996228    2.459325    1.056411
  H     -4.707520   -1.422683    0.372815
  H     -5.489348   -0.159508   -0.625955
  H     -4.797165    0.257563    0.970857
  H     -1.339384   -2.716627    1.919698
  H     -1.181552   -1.031953    2.514041
  H      0.095061   -1.726635    1.494773

 Total Charge           Charge          ....    0
 Multiplicity           Mult            ....    1
 Number of Electrons    NEL             ....  174
 Basis Dimension        Dim             ....  316

ORBITAL ENERGIES
----------------

  NO   OCC          E(Eh)            E(eV)
   0   2.0000     -88.032075     -2395.4745
   1   2.0000     -87.960423     -2393.5248
   2   2.0000     -76.412021     -2079.2768
   3   2.0000     -18.822523      -512.1869
   4   2.0000     -18.811214      -511.8792
   5   2.0000     -18.778812      -510.9975
   6   2.0000     -18.763707      -510.5864
   7   2.0000     -18.762960      -510.5661
   8   2.0000     -18.752520      -510.2820
   9   2.0000     -10.030879      -272.9541
  10   2.0000     -10.024192      -272.7721
  11   2.0000      -9.963809      -271.1290
  12   2.0000      -9.947832      -270.6943
  13   2.0000      -9.946428      -270.6561
  14   2.0000      -9.930044      -270.2102
  15   2.0000      -9.923793      -270.0401
  16   2.0000      -9.920342      -269.9462
  17   2.0000      -9.900413      -269.4039
  18   2.0000      -9.882649      -268.9205
  19   2.0000      -7.676855      -208.8978
  20   2.0000      -7.605620      -206.9594
  21   2.0000      -6.407374      -174.3535
  22   2.0000      -5.705386      -155.2514
  23   2.0000      -5.701223      -155.1382
  24   2.0000      -5.693352      -154.9240
  25   2.0000      -5.634822      -153.3313
  26   2.0000      -5.626456      -153.1037
  27   2.0000      -5.625260      -153.0711
  28   2.0000      -4.630295      -125.9967
  29   2.0000      -4.629417      -125.9728
  30   2.0000      -4.627738      -125.9272
  31   2.0000      -1.032528       -28.0965
  32   2.0000      -1.022059       -27.8116
  33   2.0000      -0.963330       -26.2136
  34   2.0000      -0.939963       -25.5777
  35   2.0000      -0.930365       -25.3165
  36   2.0000      -0.919902       -25.0318
  37   2.0000      -0.765763       -20.8375
  38   2.0000      -0.725281       -19.7359
  39   2.0000      -0.705147       -19.1880
  40   2.0000      -0.689028       -18.7494
  41   2.0000      -0.656394       -17.8614
  42   2.0000      -0.622218       -16.9314
  43   2.0000      -0.610516       -16.6130
  44   2.0000      -0.609393       -16.5824
  45   2.0000      -0.606434       -16.5019
  46   2.0000      -0.560835       -15.2611
  47   2.0000      -0.516418       -14.0524
  48   2.0000      -0.504106       -13.7174
  49   2.0000      -0.498925       -13.5764
  50   2.0000      -0.485972       -13.2240
  51   2.0000      -0.469029       -12.7629
  52   2.0000      -0.462222       -12.5777
  53   2.0000      -0.448699       -12.2097
  54   2.0000      -0.443526       -12.0690
  55   2.0000      -0.438910       -11.9433
  56   2.0000      -0.434069       -11.8116
  57   2.0000      -0.416764       -11.3407
  58   2.0000      -0.409390       -11.1401
  59   2.0000      -0.407996       -11.1021
  60   2.0000      -0.401811       -10.9338
  61   2.0000      -0.395215       -10.7543
  62   2.0000      -0.390697       -10.6314
  63   2.0000      -0.385076       -10.4784
  64   2.0000      -0.380393       -10.3510
  65   2.0000      -0.371777       -10.1166
  66   2.0000      -0.365391        -9.9428
  67   2.0000      -0.358017        -9.7421
  68   2.0000      -0.351957        -9.5772
  69   2.0000      -0.342859        -9.3297
  70   2.0000      -0.332929        -9.0595
  71   2.0000      -0.328920        -8.9504
  72   2.0000      -0.328159        -8.9297
  73   2.0000      -0.312530        -8.5044
  74   2.0000      -0.300821        -8.1857
  75   2.0000      -0.293498        -7.9865
  76   2.0000      -0.289528        -7.8785
  77   2.0000      -0.282868        -7.6972
  78   2.0000      -0.268399        -7.3035
  79   2.0000      -0.264523        -7.1981
  80   2.0000      -0.256237        -6.9726
  81   2.0000      -0.252544        -6.8721
  82   2.0000      -0.246452        -6.7063
  83   2.0000      -0.236933        -6.4473
  84   2.0000      -0.212587        -5.7848
  85   2.0000      -0.180582        -4.9139
  86   2.0000      -0.172228        -4.6866
  87   0.0000      -0.052226        -1.4211
  88   0.0000      -0.043487        -1.1833
  89   0.0000      -0.015632        -0.4254
  90   0.0000       0.011802         0.3212
  91   0.0000       0.026748         0.7278

MULLIKEN ATOMIC CHARGES
-----------------------
   0 C :   -0.311505
   1 C :   -0.015644
   2 O :   -0.220766
   3 C :    0.131947
   4 O :   -0.204257
   5 C :   -0.066911
   6 C :   -0.295999
   7 H :    0.131680
   8 C :    0.222518
   9 O :   -0.227257
  10 O :   -0.205541
  11 C :   -0.028877
  12 C :   -0.296232
  13 S :   -0.065419
  14 P :    0.647603
  15 S :   -0.338154
  16 O :   -0.401727
  17 C :   -0.095457
  18 O :   -0.395044
  19 C :   -0.099447
  20 H :    0.120270
  21 H :    0.119279
  22 H :    0.131440
  23 H :    0.110215
  24 H :    0.112983
  25 H :    0.147748
  26 H :    0.124696
  27 H :    0.107515
  28 H :    0.129011
  29 H :    0.111562
  30 H :    0.133461
  31 H :    0.108808
  32 H :    0.103205
  33 H :    0.115931
  34 H :    0.112815
  35 H :    0.112513
  36 H :    0.119433
  37 H :    0.113604
Sum of atomic charges:   -0.0000000

LOEWDIN ATOMIC CHARGES
----------------------
   0 C :   -0.355816
   1 C :   -0.108808
   2 O :   -0.049957
   3 C :    0.044198
   4 O :   -0.150311
   5 C :   -0.255853
   6 C :   -0.262183
   7 H :    0.141354
   8 C :    0.019399
   9 O :   -0.169171
  10 O :   -0.028453
  11 C :   -0.106117
  12 C :   -0.354620
  13 S :    0.127559
  14 P :    0.588223
  15 S :   -0.335983
  16 O :   -0.276703
  17 C :   -0.218353
  18 O :   -0.259701
  19 C :   -0.219373
  20 H :    0.127823
  21 H :    0.134151
  22 H :    0.130464
  23 H :    0.121617
  24 H :    0.121579
  25 H :    0.154071
  26 H :    0.146637
  27 H :    0.119953
  28 H :    0.127496
  29 H :    0.129607
  30 H :    0.132243
  31 H :    0.123585
  32 H :    0.107783
  33 H :    0.117591
  34 H :    0.105008
  35 H :    0.114166
  36 H :    0.111219
  37 H :    0.105673

  Mayer bond orders larger than 0.100000
B(  0-C ,  1-C ) :   1.1752 B(  0-C , 20-H ) :   0.9483 B(  0-C , 21-H ) :   0.9426
B(  0-C , 22-H ) :   0.9446 B(  1-C ,  2-O ) :   0.9059 B(  1-C , 23-H ) :   0.9363
B(  1-C , 24-H ) :   0.9154 B(  2-O ,  3-C ) :   1.2604 B(  3-C ,  4-O ) :   1.9325
B(  3-C ,  5-C ) :   1.0121 B(  4-O ,  8-C ) :   0.1217 B(  5-C ,  6-C ) :   0.9971
B(  5-C , 25-H ) :   0.8664 B(  5-C , 26-H ) :   0.9030 B(  6-C ,  7-H ) :   0.8847
B(  6-C ,  8-C ) :   0.9156 B(  6-C , 13-S ) :   1.0246 B(  8-C ,  9-O ) :   1.8157
B(  8-C , 10-O ) :   1.2976 B(  9-O , 14-P ) :   0.1774 B( 10-O , 11-C ) :   0.9006
B( 11-C , 12-C ) :   1.1763 B( 11-C , 27-H ) :   0.9370 B( 11-C , 28-H ) :   0.9084
B( 12-C , 29-H ) :   0.9432 B( 12-C , 30-H ) :   0.9386 B( 12-C , 31-H ) :   0.9494
B( 13-S , 14-P ) :   0.9181 B( 13-S , 15-S ) :   0.1008 B( 14-P , 15-S ) :   1.5777
B( 14-P , 16-O ) :   1.0500 B( 14-P , 18-O ) :   1.0500 B( 16-O , 17-C ) :   0.9434
B( 17-C , 32-H ) :   0.9534 B( 17-C , 33-H ) :   0.9605 B( 17-C , 34-H ) :   0.9257
B( 18-O , 19-C ) :   0.9320 B( 19-C , 35-H ) :   0.9535 B( 19-C , 36-H ) :   0.9314
B( 19-C , 37-H ) :   0.9446

Dispersion correction           -0.052021841
FINAL SINGLE POINT ENERGY     -1979.004199099421

DIPOLE MOMENT
-------------

Method             : SCF
Type of density    : Electron Density
Multiplicity       :   1
Irrep              :   0
Energy             : -1979.1376701648214294 Eh
Relativity type    :
Basis              : AO
                                X                 Y                 Z
Electronic contribution:    -16.751263965      10.269914536      -8.269731432
Nuclear contribution   :     18.722377203     -11.557837383       7.866919456
                        -----------------------------------------
Total Dipole Moment    :      1.971113239      -1.287922847      -0.402811976
                        -----------------------------------------
Magnitude (a.u.)       :      2.388784240
Magnitude (Debye)      :      6.071807004

Rotational constants in cm-1:             0.013728             0.006834             0.005842
Rotational constants in MHz :           411.550035           204.863859           175.134991

                             ****ORCA TERMINATED NORMALLY****
TOTAL RUN TIME: 0 days 0 hours 0 minutes 41 seconds 236 msec
