                         Program Version 6.0.0  -   RELEASE  -
|  1> ! pbe def2-sv(p) def2/J RI DEFGRID1 loosescf d4 GCP(DFT/SV(P)) printgap
|  2> %output
|  3>     printlevel normal
|  4> end
|  5> * xyz 0 1
|  6> C 2.4919495371 -3.1700024892 1.1193522412
|  7> C 1.3856985548 -2.8754344688 0.1271690491
|  8> O 1.6706361025 -1.7279182364 -0.7079336374
|  9> P 1.7978764978 -0.2307769876 -0.1947801063
| 10> S 1.7235076929 1.013147509 -1.708092274
| 11> O 3.191729491 -0.1086932757 0.5908203098
| 12> C 4.447507552 0.0278193957 -0.0973982615
| 13> C 5.503150291 0.3839789079 0.9295040223
| 14> S 0.5759509958 -0.1112013637 1.5210272963
| 15> C 0.2242033851 1.6506208684 1.5099323052
| 16> S -0.9361944161 2.2225744337 0.1954399044
| 17> P -2.0430362321 0.5145632926 -0.3405252183
| 18> S -3.5569442599 0.9520258307 -1.4990010951
| 19> O -2.4162580538 -0.2857918104 0.9830486136
| 20> C -3.5979423929 0.0032705763 1.7512819892
| 21> C -3.3740828447 1.1573489976 2.7081043601
| 22> O -0.9408553593 -0.4552932156 -0.9678145169
| 23> C -1.280990092 -1.3529162068 -2.0462226511
| 24> C -2.1421467333 -2.5009396898 -1.5648392832
| 25> H 2.2510655874 -4.0850315071 1.651627793
| 26> H 3.439535053 -3.298537337 0.6020629873
| 27> H 2.584173275 -2.3575813052 1.8367672487
| 28> H 0.4399768191 -2.6956725331 0.6455198331
| 29> H 1.2665578804 -3.6867008495 -0.5935266228
| 30> H 4.6759009383 -0.9190575016 -0.5955996215
| 31> H 4.3449680234 0.806625884 -0.8605621039
| 32> H 5.2534702743 1.3256674665 1.409360597
| 33> H 5.5619438198 -0.392179034 1.6868926865
| 34> H 6.4638459362 0.4781740451 0.4339181099
| 35> H 1.1393874 2.2171150779 1.3490866633
| 36> H -0.2165197403 1.8834881595 2.4762852769
| 37> H -4.4184155284 0.2206769038 1.0591298696
| 38> H -3.7992597958 -0.9257583352 2.2863139028
| 39> H -4.2663102963 1.2984024774 3.3097342982
| 40> H -2.5323961304 0.942275582 3.360985913
| 41> H -3.1759942476 2.0731371839 2.1532308909
| 42> H -1.7965486634 -0.7793673679 -2.8230897161
| 43> H -0.3128425553 -1.6869380821 -2.4235048263
| 44> H -2.3011218681 -3.1938741008 -2.3849581234
| 45> H -1.6614441217 -3.0184082074 -0.7391240495
| 46> H -3.106288634 -2.1188692693 -1.2316719544
| 47> *
| 48>
| 49>                          ****END OF INPUT****

CARTESIAN COORDINATES (ANGSTROEM)
---------------------------------
  C      2.491950   -3.170002    1.119352
  C      1.385699   -2.875434    0.127169
  O      1.670636   -1.727918   -0.707934
  P      1.797876   -0.230777   -0.194780
  S      1.723508    1.013148   -1.708092
  O      3.191729   -0.108693    0.590820
  C      4.447508    0.027819   -0.097398
  C      5.503150    0.383979    0.929504
  S      0.575951   -0.111201    1.521027
  C      0.224203    1.650621    1.509932
  S     -0.936194    2.222574    0.195440
  P     -2.043036    0.514563   -0.340525
  S     -3.556944    0.952026   -1.499001
  O     -2.416258   -0.285792    0.983049
  C     -3.597942    0.003271    1.751282
  C     -3.374083    1.157349    2.708104
  O     -0.940855   -0.455293   -0.967815
  C     -1.280990   -1.352916   -2.046223
  C     -2.142147   -2.500940   -1.564839
  H      2.251066   -4.085032    1.651628
  H      3.439535   -3.298537    0.602063
  H      2.584173   -2.357581    1.836767
  H      0.439977   -2.695673    0.645520
  H      1.266558   -3.686701   -0.593527
  H      4.675901   -0.919058   -0.595600
  H      4.344968    0.806626   -0.860562
  H      5.253470    1.325667    1.409361
  H      5.561944   -0.392179    1.686893
  H      6.463846    0.478174    0.433918
  H      1.139387    2.217115    1.349087
  H     -0.216520    1.883488    2.476285
  H     -4.418416    0.220677    1.059130
  H     -3.799260   -0.925758    2.286314
  H     -4.266310    1.298402    3.309734
  H     -2.532396    0.942276    3.360986
  H     -3.175994    2.073137    2.153231
  H     -1.796549   -0.779367   -2.823090
  H     -0.312843   -1.686938   -2.423505
  H     -2.301122   -3.193874   -2.384958
  H     -1.661444   -3.018408   -0.739124
  H     -3.106289   -2.118869   -1.231672

 Total Charge           Charge          ....    0
 Multiplicity           Mult            ....    1
 Number of Electrons    NEL             ....  202
 Basis Dimension        Dim             ....  334

ORBITAL ENERGIES
----------------

  NO   OCC          E(Eh)            E(eV)
   0   2.0000     -88.048710     -2395.9272
   1   2.0000     -88.037658     -2395.6265
   2   2.0000     -87.982719     -2394.1315
   3   2.0000     -87.978101     -2394.0058
   4   2.0000     -76.425202     -2079.6355
   5   2.0000     -76.423328     -2079.5845
   6   2.0000     -18.797883      -511.5164
   7   2.0000     -18.789566      -511.2901
   8   2.0000     -18.785558      -511.1810
   9   2.0000     -18.783362      -511.1213
  10   2.0000      -9.964487      -271.1475
  11   2.0000      -9.964265      -271.1414
  12   2.0000      -9.951907      -270.8052
  13   2.0000      -9.947199      -270.6770
  14   2.0000      -9.940986      -270.5080
  15   2.0000      -9.895507      -269.2704
  16   2.0000      -9.887829      -269.0615
  17   2.0000      -9.886872      -269.0355
  18   2.0000      -9.879690      -268.8400
  19   2.0000      -7.693781      -209.3584
  20   2.0000      -7.682618      -209.0547
  21   2.0000      -7.627938      -207.5668
  22   2.0000      -7.623363      -207.4423
  23   2.0000      -6.422316      -174.7601
  24   2.0000      -6.420762      -174.7178
  25   2.0000      -5.721806      -155.6983
  26   2.0000      -5.718521      -155.6089
  27   2.0000      -5.711254      -155.4111
  28   2.0000      -5.710196      -155.3823
  29   2.0000      -5.706793      -155.2897
  30   2.0000      -5.699169      -155.0823
  31   2.0000      -5.656847      -153.9306
  32   2.0000      -5.652709      -153.8180
  33   2.0000      -5.648399      -153.7008
  34   2.0000      -5.648231      -153.6962
  35   2.0000      -5.644239      -153.5876
  36   2.0000      -5.642795      -153.5483
  37   2.0000      -4.645294      -126.4049
  38   2.0000      -4.644028      -126.3704
  39   2.0000      -4.643011      -126.3428
  40   2.0000      -4.642815      -126.3374
  41   2.0000      -4.642543      -126.3300
  42   2.0000      -4.641282      -126.2957
  43   2.0000      -0.984512       -26.7899
  44   2.0000      -0.980827       -26.6897
  45   2.0000      -0.943692       -25.6792
  46   2.0000      -0.939837       -25.5743
  47   2.0000      -0.765982       -20.8434
  48   2.0000      -0.721185       -19.6244
  49   2.0000      -0.710143       -19.3240
  50   2.0000      -0.695765       -18.9327
  51   2.0000      -0.684491       -18.6259
  52   2.0000      -0.674452       -18.3528
  53   2.0000      -0.649345       -17.6696
  54   2.0000      -0.637354       -17.3433
  55   2.0000      -0.598917       -16.2974
  56   2.0000      -0.590757       -16.0753
  57   2.0000      -0.580732       -15.8025
  58   2.0000      -0.567195       -15.4342
  59   2.0000      -0.561206       -15.2712
  60   2.0000      -0.505992       -13.7687
  61   2.0000      -0.491569       -13.3763
  62   2.0000      -0.483746       -13.1634
  63   2.0000      -0.469779       -12.7833
  64   2.0000      -0.457013       -12.4359
  65   2.0000      -0.445723       -12.1287
  66   2.0000      -0.440150       -11.9771
  67   2.0000      -0.435932       -11.8623
  68   2.0000      -0.433957       -11.8086
  69   2.0000      -0.412766       -11.2319
  70   2.0000      -0.406892       -11.0721
  71   2.0000      -0.402064       -10.9407
  72   2.0000      -0.396665       -10.7938
  73   2.0000      -0.387277       -10.5383
  74   2.0000      -0.382306       -10.4031
  75   2.0000      -0.373187       -10.1549
  76   2.0000      -0.366358        -9.9691
  77   2.0000      -0.360871        -9.8198
  78   2.0000      -0.358729        -9.7615
  79   2.0000      -0.355467        -9.6727
  80   2.0000      -0.349827        -9.5193
  81   2.0000      -0.347178        -9.4472
  82   2.0000      -0.344129        -9.3642
  83   2.0000      -0.338071        -9.1994
  84   2.0000      -0.327964        -8.9244
  85   2.0000      -0.321662        -8.7529
  86   2.0000      -0.314505        -8.5581
  87   2.0000      -0.311314        -8.4713
  88   2.0000      -0.294515        -8.0142
  89   2.0000      -0.285532        -7.7697
  90   2.0000      -0.281678        -7.6648
  91   2.0000      -0.273664        -7.4468
  92   2.0000      -0.269359        -7.3296
  93   2.0000      -0.261501        -7.1158
  94   2.0000      -0.259334        -7.0568
  95   2.0000      -0.231219        -6.2918
  96   2.0000      -0.212967        -5.7951
  97   2.0000      -0.204479        -5.5642
  98   2.0000      -0.202999        -5.5239
  99   2.0000      -0.191614        -5.2141
 100   2.0000      -0.186010        -5.0616
 101   0.0000      -0.051521        -1.4020
 102   0.0000      -0.028170        -0.7666
 103   0.0000      -0.017498        -0.4761
 104   0.0000       0.004955         0.1348
 105   0.0000       0.016337         0.4446

MULLIKEN ATOMIC CHARGES
-----------------------
   0 C :   -0.304873
   1 C :   -0.053544
   2 O :   -0.380245
   3 P :    0.625660
   4 S :   -0.298282
   5 O :   -0.384490
   6 C :   -0.017608
   7 C :   -0.275683
   8 S :   -0.112893
   9 C :   -0.304756
  10 S :   -0.077685
  11 P :    0.631242
  12 S :   -0.321207
  13 O :   -0.372846
  14 C :   -0.007099
  15 C :   -0.319026
  16 O :   -0.384517
  17 C :   -0.003963
  18 C :   -0.311848
  19 H :    0.115318
  20 H :    0.119911
  21 H :    0.133165
  22 H :    0.140066
  23 H :    0.115163
  24 H :    0.095276
  25 H :    0.108995
  26 H :    0.115279
  27 H :    0.111427
  28 H :    0.110415
  29 H :    0.184459
  30 H :    0.185155
  31 H :    0.110303
  32 H :    0.103514
  33 H :    0.113814
  34 H :    0.111998
  35 H :    0.129956
  36 H :    0.118322
  37 H :    0.111726
  38 H :    0.109922
  39 H :    0.110486
  40 H :    0.118991
Sum of atomic charges:   -0.0000000

LOEWDIN ATOMIC CHARGES
----------------------
   0 C :   -0.366280
   1 C :   -0.121358
   2 O :   -0.240706
   3 P :    0.574047
   4 S :   -0.296948
   5 O :   -0.264723
   6 C :   -0.125121
   7 C :   -0.350689
   8 S :    0.106117
   9 C :   -0.464693
  10 S :    0.089838
  11 P :    0.565946
  12 S :   -0.316543
  13 O :   -0.245728
  14 C :   -0.121486
  15 C :   -0.366698
  16 O :   -0.248025
  17 C :   -0.121943
  18 C :   -0.365649
  19 H :    0.132754
  20 H :    0.127200
  21 H :    0.123728
  22 H :    0.110875
  23 H :    0.122803
  24 H :    0.105910
  25 H :    0.107314
  26 H :    0.126822
  27 H :    0.123861
  28 H :    0.129853
  29 H :    0.135433
  30 H :    0.133504
  31 H :    0.108873
  32 H :    0.117540
  33 H :    0.131723
  34 H :    0.120263
  35 H :    0.122855
  36 H :    0.112839
  37 H :    0.117010
  38 H :    0.129728
  39 H :    0.118855
  40 H :    0.120899

  Mayer bond orders larger than 0.100000
B(  0-C ,  1-C ) :   1.1631 B(  0-C , 19-H ) :   0.9368 B(  0-C , 20-H ) :   0.9436
B(  0-C , 21-H ) :   0.9355 B(  1-C ,  2-O ) :   0.9047 B(  1-C , 22-H ) :   0.9061
B(  1-C , 23-H ) :   0.9341 B(  2-O ,  3-P ) :   1.0955 B(  3-P ,  4-S ) :   1.6524
B(  3-P ,  5-O ) :   1.0657 B(  3-P ,  8-S ) :   0.9315 B(  4-S ,  8-S ) :   0.1123
B(  5-O ,  6-C ) :   0.9101 B(  6-C ,  7-C ) :   1.1567 B(  6-C , 24-H ) :   0.9272
B(  6-C , 25-H ) :   0.9097 B(  7-C , 26-H ) :   0.9509 B(  7-C , 27-H ) :   0.9518
B(  7-C , 28-H ) :   0.9427 B(  8-S ,  9-C ) :   1.0383 B(  9-C , 10-S ) :   0.9568
B(  9-C , 29-H ) :   0.8996 B(  9-C , 30-H ) :   0.9045 B( 10-S , 11-P ) :   1.0084
B( 11-P , 12-S ) :   1.6268 B( 11-P , 13-O ) :   1.0738 B( 11-P , 16-O ) :   1.0797
B( 13-O , 14-C ) :   0.9159 B( 14-C , 15-C ) :   1.1642 B( 14-C , 31-H ) :   0.9072
B( 14-C , 32-H ) :   0.9343 B( 15-C , 33-H ) :   0.9386 B( 15-C , 34-H ) :   0.9436
B( 15-C , 35-H ) :   0.9355 B( 16-O , 17-C ) :   0.8921 B( 17-C , 18-C ) :   1.1616
B( 17-C , 36-H ) :   0.9163 B( 17-C , 37-H ) :   0.9217 B( 18-C , 38-H ) :   0.9395
B( 18-C , 39-H ) :   0.9444 B( 18-C , 40-H ) :   0.9324

Dispersion correction           -0.069220480
FINAL SINGLE POINT ENERGY     -2929.504963144048

DIPOLE MOMENT
-------------

Method             : SCF
Type of density    : Electron Density
Multiplicity       :   1
Irrep              :   0
Energy             : -2929.6227167368533628 Eh
Relativity type    :
Basis              : AO
                                X                 Y                 Z
Electronic contribution:     -8.656636277      15.726300961     -10.655132084
Nuclear contribution   :      9.530529872     -17.214665933      12.349233434
                        -----------------------------------------
Total Dipole Moment    :      0.873893595      -1.488364972       1.694101350
                        -----------------------------------------
Magnitude (a.u.)       :      2.418449852
Magnitude (Debye)      :      6.147210998

Rotational constants in cm-1:             0.012714             0.005534             0.005263
Rotational constants in MHz :           381.164755           165.914704           157.785639

                             ****ORCA TERMINATED NORMALLY****
TOTAL RUN TIME: 0 days 0 hours 0 minutes 22 seconds 182 msec
