                         Program Version 6.0.0  -   RELEASE  -
|  1> ! pbe def2-sv(p) def2/J RI DEFGRID1 loosescf d4 GCP(DFT/SV(P)) printgap
|  2> %output
|  3>     printlevel normal
|  4> end
|  5> * xyz 0 1
|  6> C 4.135548799 -1.3976274235 -1.980370713
|  7> C 4.5385572964 -0.012581827 -1.5243087405
|  8> O 4.164008963 0.2636223862 -0.1519989881
|  9> P 2.7377299441 0.1039281095 0.4878886362
| 10> S 2.5725617028 1.12951226 2.1461602902
| 11> O 2.6433214317 -1.4728765303 0.6847869582
| 12> C 1.570132843 -2.1268962888 1.3831189819
| 13> C 0.630509269 -2.7999682785 0.4003255427
| 14> S 1.3688696023 0.6384233934 -1.0688902689
| 15> C 0.2122710243 1.611433158 -0.0745303046
| 16> S -0.897121612 0.6081242134 0.9486010103
| 17> P -2.3404010075 0.2106525871 -0.582938653
| 18> S -1.6881264956 -0.6762848475 -2.1972803465
| 19> O -2.9626184342 1.62419703 -0.9012675929
| 20> C -3.6516293908 2.4402858673 0.0805638299
| 21> C -5.1469186325 2.2075157545 0.0192742627
| 22> O -3.5076201545 -0.5416175362 0.1845734919
| 23> C -3.4314186423 -1.9416588137 0.5175813538
| 24> C -2.9190987243 -2.1345779527 1.9314450683
| 25> H 4.5183568703 -2.1469786125 -1.2925600327
| 26> H 3.0507137101 -1.4786816798 -2.026598058
| 27> H 4.5413518693 -1.5761768796 -2.9714709031
| 28> H 4.0852722623 0.7531687123 -2.1590194324
| 29> H 5.6227034439 0.1096396662 -1.5125183395
| 30> H 2.0573537236 -2.8644058396 2.0240820456
| 31> H 1.0477642467 -1.3962665013 2.0104863056
| 32> H 1.1860722194 -3.4835835849 -0.2351866019
| 33> H -0.1226731069 -3.355392689 0.9496347744
| 34> H 0.1374187315 -2.0671211366 -0.2363714877
| 35> H -0.3722223351 2.2046134287 -0.7747604871
| 36> H 0.7763718389 2.2395524241 0.6153485667
| 37> H -3.2549423526 2.2128982409 1.073638705
| 38> H -3.3994080868 3.4665014194 -0.1936952707
| 39> H -5.6392223943 2.8875650488 0.7075488144
| 40> H -5.5108652038 2.3907253956 -0.988058793
| 41> H -5.3815214069 1.183607412 0.2961458894
| 42> H -4.455376293 -2.305577779 0.4153439046
| 43> H -2.7931935161 -2.4442826448 -0.2161316256
| 44> H -3.566593666 -1.6212378493 2.6365358667
| 45> H -2.9079777032 -3.1944707253 2.1643179084
| 46> H -1.9123034504 -1.7347637772 2.0313270743
| 47> *
| 48>
| 49>                          ****END OF INPUT****

CARTESIAN COORDINATES (ANGSTROEM)
---------------------------------
  C      4.135549   -1.397627   -1.980371
  C      4.538557   -0.012582   -1.524309
  O      4.164009    0.263622   -0.151999
  P      2.737730    0.103928    0.487889
  S      2.572562    1.129512    2.146160
  O      2.643321   -1.472877    0.684787
  C      1.570133   -2.126896    1.383119
  C      0.630509   -2.799968    0.400326
  S      1.368870    0.638423   -1.068890
  C      0.212271    1.611433   -0.074530
  S     -0.897122    0.608124    0.948601
  P     -2.340401    0.210653   -0.582939
  S     -1.688126   -0.676285   -2.197280
  O     -2.962618    1.624197   -0.901268
  C     -3.651629    2.440286    0.080564
  C     -5.146919    2.207516    0.019274
  O     -3.507620   -0.541618    0.184573
  C     -3.431419   -1.941659    0.517581
  C     -2.919099   -2.134578    1.931445
  H      4.518357   -2.146979   -1.292560
  H      3.050714   -1.478682   -2.026598
  H      4.541352   -1.576177   -2.971471
  H      4.085272    0.753169   -2.159019
  H      5.622703    0.109640   -1.512518
  H      2.057354   -2.864406    2.024082
  H      1.047764   -1.396267    2.010486
  H      1.186072   -3.483584   -0.235187
  H     -0.122673   -3.355393    0.949635
  H      0.137419   -2.067121   -0.236371
  H     -0.372222    2.204613   -0.774760
  H      0.776372    2.239552    0.615349
  H     -3.254942    2.212898    1.073639
  H     -3.399408    3.466501   -0.193695
  H     -5.639222    2.887565    0.707549
  H     -5.510865    2.390725   -0.988059
  H     -5.381521    1.183607    0.296146
  H     -4.455376   -2.305578    0.415344
  H     -2.793194   -2.444283   -0.216132
  H     -3.566594   -1.621238    2.636536
  H     -2.907978   -3.194471    2.164318
  H     -1.912303   -1.734764    2.031327

 Total Charge           Charge          ....    0
 Multiplicity           Mult            ....    1
 Number of Electrons    NEL             ....  202
 Basis Dimension        Dim             ....  334

ORBITAL ENERGIES
----------------

  NO   OCC          E(Eh)            E(eV)
   0   2.0000     -88.046859     -2395.8769
   1   2.0000     -88.040910     -2395.7150
   2   2.0000     -87.988039     -2394.2763
   3   2.0000     -87.981906     -2394.1094
   4   2.0000     -76.430942     -2079.7917
   5   2.0000     -76.423258     -2079.5826
   6   2.0000     -18.802370      -511.6385
   7   2.0000     -18.799850      -511.5699
   8   2.0000     -18.789596      -511.2909
   9   2.0000     -18.785589      -511.1819
  10   2.0000      -9.961664      -271.0707
  11   2.0000      -9.961482      -271.0657
  12   2.0000      -9.957733      -270.9637
  13   2.0000      -9.957101      -270.9465
  14   2.0000      -9.946593      -270.6606
  15   2.0000      -9.895069      -269.2585
  16   2.0000      -9.890571      -269.1361
  17   2.0000      -9.888018      -269.0667
  18   2.0000      -9.876863      -268.7631
  19   2.0000      -7.691051      -209.2841
  20   2.0000      -7.685431      -209.1312
  21   2.0000      -7.633096      -207.7071
  22   2.0000      -7.627210      -207.5469
  23   2.0000      -6.428429      -174.9264
  24   2.0000      -6.420730      -174.7169
  25   2.0000      -5.718679      -155.6132
  26   2.0000      -5.715662      -155.5311
  27   2.0000      -5.713274      -155.4661
  28   2.0000      -5.709936      -155.3753
  29   2.0000      -5.708319      -155.3313
  30   2.0000      -5.702534      -155.1738
  31   2.0000      -5.662099      -154.0735
  32   2.0000      -5.656201      -153.9130
  33   2.0000      -5.653767      -153.8468
  34   2.0000      -5.653123      -153.8293
  35   2.0000      -5.647804      -153.6846
  36   2.0000      -5.647262      -153.6698
  37   2.0000      -4.651539      -126.5748
  38   2.0000      -4.650218      -126.5389
  39   2.0000      -4.648336      -126.4876
  40   2.0000      -4.643431      -126.3542
  41   2.0000      -4.642491      -126.3286
  42   2.0000      -4.641086      -126.2904
  43   2.0000      -0.996514       -27.1165
  44   2.0000      -0.983628       -26.7659
  45   2.0000      -0.954305       -25.9680
  46   2.0000      -0.941333       -25.6150
  47   2.0000      -0.763993       -20.7893
  48   2.0000      -0.724296       -19.7091
  49   2.0000      -0.714063       -19.4306
  50   2.0000      -0.698958       -19.0196
  51   2.0000      -0.688040       -18.7225
  52   2.0000      -0.675251       -18.3745
  53   2.0000      -0.651133       -17.7182
  54   2.0000      -0.637774       -17.3547
  55   2.0000      -0.600034       -16.3278
  56   2.0000      -0.595018       -16.1913
  57   2.0000      -0.581207       -15.8155
  58   2.0000      -0.570170       -15.5151
  59   2.0000      -0.562003       -15.2929
  60   2.0000      -0.510820       -13.9001
  61   2.0000      -0.494765       -13.4632
  62   2.0000      -0.488004       -13.2793
  63   2.0000      -0.474192       -12.9034
  64   2.0000      -0.464489       -12.6394
  65   2.0000      -0.452998       -12.3267
  66   2.0000      -0.443047       -12.0559
  67   2.0000      -0.438329       -11.9275
  68   2.0000      -0.432590       -11.7714
  69   2.0000      -0.418816       -11.3966
  70   2.0000      -0.406017       -11.0483
  71   2.0000      -0.400781       -10.9058
  72   2.0000      -0.395130       -10.7520
  73   2.0000      -0.389730       -10.6051
  74   2.0000      -0.382766       -10.4156
  75   2.0000      -0.377218       -10.2646
  76   2.0000      -0.366226        -9.9655
  77   2.0000      -0.361213        -9.8291
  78   2.0000      -0.358966        -9.7680
  79   2.0000      -0.355976        -9.6866
  80   2.0000      -0.353806        -9.6275
  81   2.0000      -0.352481        -9.5915
  82   2.0000      -0.344104        -9.3636
  83   2.0000      -0.339799        -9.2464
  84   2.0000      -0.331638        -9.0243
  85   2.0000      -0.325113        -8.8468
  86   2.0000      -0.314941        -8.5700
  87   2.0000      -0.302518        -8.2319
  88   2.0000      -0.299206        -8.1418
  89   2.0000      -0.290029        -7.8921
  90   2.0000      -0.288590        -7.8529
  91   2.0000      -0.279067        -7.5938
  92   2.0000      -0.274074        -7.4579
  93   2.0000      -0.267849        -7.2885
  94   2.0000      -0.258337        -7.0297
  95   2.0000      -0.241373        -6.5681
  96   2.0000      -0.216450        -5.8899
  97   2.0000      -0.209976        -5.7137
  98   2.0000      -0.203184        -5.5289
  99   2.0000      -0.199432        -5.4268
 100   2.0000      -0.193339        -5.2610
 101   0.0000      -0.042653        -1.1607
 102   0.0000      -0.031418        -0.8549
 103   0.0000      -0.009231        -0.2512
 104   0.0000      -0.000964        -0.0262
 105   0.0000       0.015840         0.4310

MULLIKEN ATOMIC CHARGES
-----------------------
   0 C :   -0.321916
   1 C :   -0.005866
   2 O :   -0.360196
   3 P :    0.594466
   4 S :   -0.317801
   5 O :   -0.371208
   6 C :   -0.010435
   7 C :   -0.321807
   8 S :   -0.096118
   9 C :   -0.335660
  10 S :   -0.100134
  11 P :    0.586821
  12 S :   -0.293061
  13 O :   -0.361539
  14 C :   -0.013849
  15 C :   -0.290565
  16 O :   -0.378678
  17 C :   -0.011517
  18 C :   -0.320336
  19 H :    0.126347
  20 H :    0.135386
  21 H :    0.116208
  22 H :    0.115522
  23 H :    0.113412
  24 H :    0.103063
  25 H :    0.110787
  26 H :    0.111275
  27 H :    0.104539
  28 H :    0.138971
  29 H :    0.185649
  30 H :    0.196565
  31 H :    0.104307
  32 H :    0.109975
  33 H :    0.111694
  34 H :    0.121420
  35 H :    0.123183
  36 H :    0.111096
  37 H :    0.112001
  38 H :    0.118009
  39 H :    0.117101
  40 H :    0.142888
Sum of atomic charges:    0.0000000

LOEWDIN ATOMIC CHARGES
----------------------
   0 C :   -0.368414
   1 C :   -0.112017
   2 O :   -0.234823
   3 P :    0.566340
   4 S :   -0.314211
   5 O :   -0.243580
   6 C :   -0.119089
   7 C :   -0.370207
   8 S :    0.080977
   9 C :   -0.482517
  10 S :    0.082029
  11 P :    0.563579
  12 S :   -0.301863
  13 O :   -0.238039
  14 C :   -0.115940
  15 C :   -0.359119
  16 O :   -0.243847
  17 C :   -0.116628
  18 C :   -0.364522
  19 H :    0.130448
  20 H :    0.121752
  21 H :    0.132860
  22 H :    0.111882
  23 H :    0.124169
  24 H :    0.117255
  25 H :    0.101057
  26 H :    0.124750
  27 H :    0.123588
  28 H :    0.114327
  29 H :    0.133717
  30 H :    0.130827
  31 H :    0.105361
  32 H :    0.120854
  33 H :    0.130682
  34 H :    0.129519
  35 H :    0.126443
  36 H :    0.121323
  37 H :    0.110679
  38 H :    0.127552
  39 H :    0.132629
  40 H :    0.120214

  Mayer bond orders larger than 0.100000
B(  0-C ,  1-C ) :   1.1685 B(  0-C , 19-H ) :   0.9417 B(  0-C , 20-H ) :   0.9364
B(  0-C , 21-H ) :   0.9339 B(  1-C ,  2-O ) :   0.9016 B(  1-C , 22-H ) :   0.9233
B(  1-C , 23-H ) :   0.9341 B(  2-O ,  3-P ) :   1.1511 B(  3-P ,  4-S ) :   1.6316
B(  3-P ,  5-O ) :   1.0915 B(  3-P ,  8-S ) :   0.9352 B(  4-S ,  8-S ) :   0.1110
B(  5-O ,  6-C ) :   0.9067 B(  6-C ,  7-C ) :   1.1634 B(  6-C , 24-H ) :   0.9341
B(  6-C , 25-H ) :   0.9019 B(  7-C , 26-H ) :   0.9436 B(  7-C , 27-H ) :   0.9347
B(  7-C , 28-H ) :   0.9192 B(  8-S ,  9-C ) :   1.0229 B(  9-C , 10-S ) :   0.9863
B(  9-C , 29-H ) :   0.8915 B(  9-C , 30-H ) :   0.8677 B( 10-S , 11-P ) :   0.9492
B( 10-S , 12-S ) :   0.1098 B( 11-P , 12-S ) :   1.6724 B( 11-P , 13-O ) :   1.1201
B( 11-P , 16-O ) :   1.0818 B( 13-O , 14-C ) :   0.8890 B( 14-C , 15-C ) :   1.1679
B( 14-C , 31-H ) :   0.9099 B( 14-C , 32-H ) :   0.9352 B( 15-C , 33-H ) :   0.9394
B( 15-C , 34-H ) :   0.9469 B( 15-C , 35-H ) :   0.9416 B( 16-O , 17-C ) :   0.9015
B( 17-C , 18-C ) :   1.1683 B( 17-C , 36-H ) :   0.9336 B( 17-C , 37-H ) :   0.9055
B( 18-C , 38-H ) :   0.9455 B( 18-C , 39-H ) :   0.9379 B( 18-C , 40-H ) :   0.9280

Dispersion correction           -0.065662641
FINAL SINGLE POINT ENERGY     -2929.518348088027

DIPOLE MOMENT
-------------

Method             : SCF
Type of density    : Electron Density
Multiplicity       :   1
Irrep              :   0
Energy             : -2929.6383378459977394 Eh
Relativity type    :
Basis              : AO
                                X                 Y                 Z
Electronic contribution:     10.896609965      11.364977715      -2.200536064
Nuclear contribution   :    -11.922152282     -11.797245469       2.261884479
                        -----------------------------------------
Total Dipole Moment    :     -1.025542317      -0.432267754       0.061348415
                        -----------------------------------------
Magnitude (a.u.)       :      1.114610283
Magnitude (Debye)      :      2.833114188

Rotational constants in cm-1:             0.012967             0.004646             0.004532
Rotational constants in MHz :           388.753722           139.289355           135.867840

                             ****ORCA TERMINATED NORMALLY****
TOTAL RUN TIME: 0 days 0 hours 0 minutes 21 seconds 375 msec
