                         Program Version 6.0.0  -   RELEASE  -
|  1> ! wb97x-v def2-tzvp def2/J RIJCOSX DEFGRID2 scfconv7 GCP(DFT/TZ) printgap
|  2> %output
|  3>     printlevel normal
|  4> end
|  5> * xyz 0 1
|  6> C -0.6700591370250851 1.2656251084933492 0.0002967652945445375
|  7> C 0.6702060938405774 1.2655710225752084 0.00018331384794506865
|  8> C 1.4251661410686318 -7.296433456281655e-05 -2.2945206311044168e-05
|  9> O 2.6584766361003047 -0.00012455946681319929 -0.00020068074555942475
| 10> C 0.6701037507165636 -1.2656554609058164 0.0002897719043320811
| 11> C -0.6701633460114864 -1.2655993785495996 0.0004006905760465965
| 12> C -1.4251234852727181 4.4442752882856426e-05 -0.0007691411006279365
| 13> O -2.658435562383514 9.230048251978431e-05 1.3651748003298544e-05
| 14> H -1.2527792481568154 2.181626881965539 0.0004688079747510325
| 15> H 1.2529960795638855 2.1815274512775313 -8.251139155004483e-05
| 16> H 1.252820181145119 -2.181659271476196 0.00010839966266030829
| 17> H -1.2529566605881586 -2.181555555502739 0.0006515431253360617
| 18> *
| 19>
| 20>                          ****END OF INPUT****

CARTESIAN COORDINATES (ANGSTROEM)
---------------------------------
  C     -0.670059    1.265625    0.000297
  C      0.670206    1.265571    0.000183
  C      1.425166   -0.000073   -0.000023
  O      2.658477   -0.000125   -0.000201
  C      0.670104   -1.265655    0.000290
  C     -0.670163   -1.265599    0.000401
  C     -1.425123    0.000044   -0.000769
  O     -2.658436    0.000092    0.000014
  H     -1.252779    2.181627    0.000469
  H      1.252996    2.181527   -0.000083
  H      1.252820   -2.181659    0.000108
  H     -1.252957   -2.181556    0.000652

 Total Charge           Charge          ....    0
 Multiplicity           Mult            ....    1
 Number of Electrons    NEL             ....   56
 Basis Dimension        Dim             ....  272

ORBITAL ENERGIES
----------------

  NO   OCC          E(Eh)            E(eV)
   0   2.0000     -21.691316      -590.2507
   1   2.0000     -21.691286      -590.2499
   2   2.0000     -12.167466      -331.0936
   3   2.0000     -12.167163      -331.0853
   4   2.0000     -12.098919      -329.2283
   5   2.0000     -12.098383      -329.2137
   6   2.0000     -12.096501      -329.1625
   7   2.0000     -12.096064      -329.1506
   8   2.0000      -1.729242       -47.0551
   9   2.0000      -1.728506       -47.0351
  10   2.0000      -1.404967       -38.2311
  11   2.0000      -1.334969       -36.3264
  12   2.0000      -1.258323       -34.2407
  13   2.0000      -1.150944       -31.3188
  14   2.0000      -1.150483       -31.3062
  15   2.0000      -1.065966       -29.0064
  16   2.0000      -1.051750       -28.6196
  17   2.0000      -1.040044       -28.3010
  18   2.0000      -0.940195       -25.5840
  19   2.0000      -0.936668       -25.4880
  20   2.0000      -0.933123       -25.3916
  21   2.0000      -0.932282       -25.3687
  22   2.0000      -0.929800       -25.3011
  23   2.0000      -0.914530       -24.8856
  24   2.0000      -0.871635       -23.7184
  25   2.0000      -0.805269       -21.9125
  26   2.0000      -0.748469       -20.3669
  27   2.0000      -0.707109       -19.2414
  28   0.0000      -0.450354       -12.2548
  29   0.0000      -0.285912        -7.7801
  30   0.0000      -0.251984        -6.8568
  31   0.0000      -0.116877        -3.1804
  32   0.0000      -0.106605        -2.9009

MULLIKEN ATOMIC CHARGES
-----------------------
   0 C :   -0.147449
   1 C :   -0.147269
   2 C :    0.281663
   3 O :   -0.287773
   4 C :   -0.147388
   5 C :   -0.147326
   6 C :    0.281699
   7 O :   -0.287774
   8 H :    0.150388
   9 H :    0.150431
  10 H :    0.150395
  11 H :    0.150403
Sum of atomic charges:   -0.0000000

LOEWDIN ATOMIC CHARGES
----------------------
   0 C :   -0.078650
   1 C :   -0.078649
   2 C :   -0.291226
   3 O :    0.136843
   4 C :   -0.078649
   5 C :   -0.078649
   6 C :   -0.291224
   7 O :    0.136841
   8 H :    0.155841
   9 H :    0.155841
  10 H :    0.155841
  11 H :    0.155841

  Mayer bond orders larger than 0.100000
B(  0-C ,  1-C ) :   1.7324 B(  0-C ,  6-C ) :   1.0388 B(  0-C ,  8-H ) :   0.9550
B(  1-C ,  2-C ) :   1.0388 B(  1-C ,  9-H ) :   0.9549 B(  2-C ,  3-O ) :   2.0069
B(  2-C ,  4-C ) :   1.0388 B(  4-C ,  5-C ) :   1.7324 B(  4-C , 10-H ) :   0.9550
B(  5-C ,  6-C ) :   1.0388 B(  5-C , 11-H ) :   0.9549 B(  6-C ,  7-O ) :   2.0070

FINAL SINGLE POINT ENERGY      -381.475514273100

DIPOLE MOMENT
-------------

Method             : SCF
Type of density    : Electron Density
Multiplicity       :   1
Irrep              :   0
Energy             :  -381.4809994857998277 Eh
Relativity type    :
Basis              : AO
                                X                 Y                 Z
Electronic contribution:      0.000005216       0.000003931      -0.001212148
Nuclear contribution   :     -0.000004477      -0.000000379       0.000977829
                        -----------------------------------------
Total Dipole Moment    :      0.000000739       0.000003552      -0.000234319
                        -----------------------------------------
Magnitude (a.u.)       :      0.000234347
Magnitude (Debye)      :      0.000595662

Rotational constants in cm-1:             0.175335             0.055666             0.042252
Rotational constants in MHz :          5256.408353          1668.819165          1266.672543

                             ****ORCA TERMINATED NORMALLY****
TOTAL RUN TIME: 0 days 0 hours 1 minutes 42 seconds 79 msec
