                         Program Version 6.0.0  -   RELEASE  -
|  1> ! wb97x-v def2-tzvp def2/J RIJCOSX DEFGRID2 scfconv7 GCP(DFT/TZ) printgap
|  2> %output
|  3>     printlevel normal
|  4> end
|  5> %cpcm
|  6>     smd true
|  7>     smdsolvent "water"
|  8> end
|  9> * xyz 0 1
| 10> C -0.6700591370250851 1.2656251084933492 0.0002967652945445375
| 11> C 0.6702060938405774 1.2655710225752084 0.00018331384794506865
| 12> C 1.4251661410686318 -7.296433456281655e-05 -2.2945206311044168e-05
| 13> O 2.6584766361003047 -0.00012455946681319929 -0.00020068074555942475
| 14> C 0.6701037507165636 -1.2656554609058164 0.0002897719043320811
| 15> C -0.6701633460114864 -1.2655993785495996 0.0004006905760465965
| 16> C -1.4251234852727181 4.4442752882856426e-05 -0.0007691411006279365
| 17> O -2.658435562383514 9.230048251978431e-05 1.3651748003298544e-05
| 18> H -1.2527792481568154 2.181626881965539 0.0004688079747510325
| 19> H 1.2529960795638855 2.1815274512775313 -8.251139155004483e-05
| 20> H 1.252820181145119 -2.181659271476196 0.00010839966266030829
| 21> H -1.2529566605881586 -2.181555555502739 0.0006515431253360617
| 22> *
| 23>
| 24>                          ****END OF INPUT****

CARTESIAN COORDINATES (ANGSTROEM)
---------------------------------
  C     -0.670059    1.265625    0.000297
  C      0.670206    1.265571    0.000183
  C      1.425166   -0.000073   -0.000023
  O      2.658477   -0.000125   -0.000201
  C      0.670104   -1.265655    0.000290
  C     -0.670163   -1.265599    0.000401
  C     -1.425123    0.000044   -0.000769
  O     -2.658436    0.000092    0.000014
  H     -1.252779    2.181627    0.000469
  H      1.252996    2.181527   -0.000083
  H      1.252820   -2.181659    0.000108
  H     -1.252957   -2.181556    0.000652

 Total Charge           Charge          ....    0
 Multiplicity           Mult            ....    1
 Number of Electrons    NEL             ....   56
 Basis Dimension        Dim             ....  272

ORBITAL ENERGIES
----------------

  NO   OCC          E(Eh)            E(eV)
   0   2.0000     -21.690622      -590.2318
   1   2.0000     -21.690592      -590.2310
   2   2.0000     -12.164643      -331.0168
   3   2.0000     -12.164338      -331.0085
   4   2.0000     -12.083637      -328.8125
   5   2.0000     -12.083118      -328.7983
   6   2.0000     -12.081200      -328.7462
   7   2.0000     -12.080793      -328.7351
   8   2.0000      -1.730977       -47.1023
   9   2.0000      -1.730285       -47.0834
  10   2.0000      -1.391705       -37.8702
  11   2.0000      -1.319458       -35.9043
  12   2.0000      -1.250451       -34.0265
  13   2.0000      -1.147033       -31.2124
  14   2.0000      -1.139096       -30.9964
  15   2.0000      -1.068756       -29.0823
  16   2.0000      -1.045447       -28.4481
  17   2.0000      -1.033729       -28.1292
  18   2.0000      -0.935498       -25.4562
  19   2.0000      -0.934047       -25.4167
  20   2.0000      -0.925229       -25.1768
  21   2.0000      -0.920127       -25.0379
  22   2.0000      -0.915518       -24.9125
  23   2.0000      -0.912005       -24.8169
  24   2.0000      -0.869683       -23.6653
  25   2.0000      -0.793755       -21.5992
  26   2.0000      -0.737458       -20.0672
  27   2.0000      -0.690268       -18.7831
  28   0.0000      -0.439424       -11.9573
  29   0.0000      -0.274948        -7.4817
  30   0.0000      -0.235520        -6.4088
  31   0.0000      -0.103274        -2.8102
  32   0.0000      -0.094663        -2.5759

MULLIKEN ATOMIC CHARGES
-----------------------
   0 C :   -0.177562
   1 C :   -0.177375
   2 C :    0.397639
   3 O :   -0.406716
   4 C :   -0.177500
   5 C :   -0.177430
   6 C :    0.397674
   7 O :   -0.406718
   8 H :    0.181979
   9 H :    0.182022
  10 H :    0.181989
  11 H :    0.181997
Sum of atomic charges:   -0.0000000

LOEWDIN ATOMIC CHARGES
----------------------
   0 C :   -0.066253
   1 C :   -0.066252
   2 C :   -0.269703
   3 O :    0.070745
   4 C :   -0.066252
   5 C :   -0.066252
   6 C :   -0.269702
   7 O :    0.070743
   8 H :    0.165732
   9 H :    0.165732
  10 H :    0.165732
  11 H :    0.165732

  Mayer bond orders larger than 0.100000
B(  0-C ,  1-C ) :   1.7552 B(  0-C ,  6-C ) :   1.0232 B(  0-C ,  8-H ) :   0.9485
B(  1-C ,  2-C ) :   1.0233 B(  1-C ,  9-H ) :   0.9484 B(  2-C ,  3-O ) :   1.8858
B(  2-C ,  4-C ) :   1.0232 B(  4-C ,  5-C ) :   1.7552 B(  4-C , 10-H ) :   0.9484
B(  5-C ,  6-C ) :   1.0232 B(  5-C , 11-H ) :   0.9484 B(  6-C ,  7-O ) :   1.8858

FINAL SINGLE POINT ENERGY      -381.486971706599

DIPOLE MOMENT
-------------

Method             : SCF
Type of density    : Electron Density
Multiplicity       :   1
Irrep              :   0
Energy             :  -381.4924569192992294 Eh
Relativity type    :
Basis              : AO
                                X                 Y                 Z
Electronic contribution:      0.000007461       0.000005760      -0.001388341
Nuclear contribution   :     -0.000004477      -0.000000379       0.000977829
                        -----------------------------------------
Total Dipole Moment    :      0.000002984       0.000005381      -0.000410512
                        -----------------------------------------
Magnitude (a.u.)       :      0.000410558
Magnitude (Debye)      :      0.001043555

Rotational constants in cm-1:             0.175335             0.055666             0.042252
Rotational constants in MHz :          5256.408353          1668.819165          1266.672543

                             ****ORCA TERMINATED NORMALLY****
TOTAL RUN TIME: 0 days 0 hours 1 minutes 54 seconds 384 msec
