                         Program Version 6.0.0  -   RELEASE  -
|  1> ! pbe def2-sv(p) def2/J RI DEFGRID1 loosescf d4 GCP(DFT/SV(P)) printgap
|  2> %output
|  3>     printlevel normal
|  4> end
|  5> * xyz 0 1
|  6> C 2.8454469687 0.3571030307 -3.1121842123
|  7> C 2.7213837099 0.9212452154 -1.7130071089
|  8> O 2.3919587907 -0.1682472872 -0.8285322281
|  9> P 2.0082956423 0.1020289962 0.7016942059
| 10> S 0.8320492908 1.6285146144 1.0306321729
| 11> O 3.3691182491 0.3334661212 1.4822002089
| 12> C 4.4770865121 -0.6013958028 1.4372858078
| 13> C 4.5141298634 -1.4438597058 2.6960932726
| 14> S 1.4029782872 -1.8375529283 1.2194905347
| 15> C -0.0871649345 -1.9905837161 0.2000434353
| 16> S -1.5372107033 -1.1329730311 0.8891811685
| 17> P -1.9616930508 0.2547035213 -0.6785444864
| 18> S -0.7400273768 0.2286333717 -2.2004783571
| 19> O -2.1530975648 1.6743894409 -0.0441957937
| 20> C -2.9941108714 1.9212984332 1.1133593136
| 21> C -2.5667398246 3.2427440383 1.7143724634
| 22> O -3.4713774031 -0.1094852868 -1.0492126109
| 23> C -3.803987388 -1.3431088612 -1.7155400743
| 24> C -5.2510088485 -1.2573949359 -2.1564933487
| 25> H 3.5855204424 -0.4373115897 -3.1301023387
| 26> H 1.8849183104 -0.0402740654 -3.431123993
| 27> H 3.1454978602 1.1502786385 -3.788713293
| 28> H 1.9242755153 1.6699927098 -1.654897916
| 29> H 3.656867924 1.3738645168 -1.3708821551
| 30> H 4.3847672959 -1.2240221856 0.543858346
| 31> H 5.363567745 0.0306746724 1.3591788837
| 32> H 4.5507479366 -0.8008085829 3.5709691424
| 33> H 3.6293092326 -2.0736337207 2.7595141016
| 34> H 5.3984880322 -2.072740064 2.6747572484
| 35> H -0.3134928236 -3.0533712069 0.1799400241
| 36> H 0.1099972198 -1.6013707864 -0.8027069184
| 37> H -4.0304771853 1.9425238164 0.77088524
| 38> H -2.8590669897 1.0998080085 1.8231850885
| 39> H -2.7019332853 4.0428426508 0.992555543
| 40> H -3.1627706271 3.4438871125 2.598352892
| 41> H -1.5147258156 3.1970479767 1.9874881251
| 42> H -3.1300051005 -1.4691609295 -2.5693381778
| 43> H -3.6494304347 -2.1646505117 -1.0098996719
| 44> H -5.3835640866 -0.4221223249 -2.8383382576
| 45> H -5.5245293405 -2.1787294985 -2.6598640093
| 46> H -5.8943394481 -1.1130105441 -1.293492243
| 47> *
| 48>
| 49>                          ****END OF INPUT****

CARTESIAN COORDINATES (ANGSTROEM)
---------------------------------
  C      2.845447    0.357103   -3.112184
  C      2.721384    0.921245   -1.713007
  O      2.391959   -0.168247   -0.828532
  P      2.008296    0.102029    0.701694
  S      0.832049    1.628515    1.030632
  O      3.369118    0.333466    1.482200
  C      4.477087   -0.601396    1.437286
  C      4.514130   -1.443860    2.696093
  S      1.402978   -1.837553    1.219491
  C     -0.087165   -1.990584    0.200043
  S     -1.537211   -1.132973    0.889181
  P     -1.961693    0.254704   -0.678544
  S     -0.740027    0.228633   -2.200478
  O     -2.153098    1.674389   -0.044196
  C     -2.994111    1.921298    1.113359
  C     -2.566740    3.242744    1.714372
  O     -3.471377   -0.109485   -1.049213
  C     -3.803987   -1.343109   -1.715540
  C     -5.251009   -1.257395   -2.156493
  H      3.585520   -0.437312   -3.130102
  H      1.884918   -0.040274   -3.431124
  H      3.145498    1.150279   -3.788713
  H      1.924276    1.669993   -1.654898
  H      3.656868    1.373865   -1.370882
  H      4.384767   -1.224022    0.543858
  H      5.363568    0.030675    1.359179
  H      4.550748   -0.800809    3.570969
  H      3.629309   -2.073634    2.759514
  H      5.398488   -2.072740    2.674757
  H     -0.313493   -3.053371    0.179940
  H      0.109997   -1.601371   -0.802707
  H     -4.030477    1.942524    0.770885
  H     -2.859067    1.099808    1.823185
  H     -2.701933    4.042843    0.992556
  H     -3.162771    3.443887    2.598353
  H     -1.514726    3.197048    1.987488
  H     -3.130005   -1.469161   -2.569338
  H     -3.649430   -2.164651   -1.009900
  H     -5.383564   -0.422122   -2.838338
  H     -5.524529   -2.178729   -2.659864
  H     -5.894339   -1.113011   -1.293492

 Total Charge           Charge          ....    0
 Multiplicity           Mult            ....    1
 Number of Electrons    NEL             ....  202
 Basis Dimension        Dim             ....  334

ORBITAL ENERGIES
----------------

  NO   OCC          E(Eh)            E(eV)
   0   2.0000     -88.041795     -2395.7390
   1   2.0000     -88.039368     -2395.6730
   2   2.0000     -87.984415     -2394.1776
   3   2.0000     -87.972443     -2393.8519
   4   2.0000     -76.422413     -2079.5596
   5   2.0000     -76.416904     -2079.4097
   6   2.0000     -18.788423      -511.2590
   7   2.0000     -18.787544      -511.2351
   8   2.0000     -18.784756      -511.1592
   9   2.0000     -18.782187      -511.0893
  10   2.0000      -9.955975      -270.9158
  11   2.0000      -9.955549      -270.9043
  12   2.0000      -9.953296      -270.8429
  13   2.0000      -9.949430      -270.7378
  14   2.0000      -9.940262      -270.4883
  15   2.0000      -9.888328      -269.0751
  16   2.0000      -9.886956      -269.0377
  17   2.0000      -9.880811      -268.8705
  18   2.0000      -9.877119      -268.7701
  19   2.0000      -7.687470      -209.1867
  20   2.0000      -7.684236      -209.0987
  21   2.0000      -7.629454      -207.6080
  22   2.0000      -7.617547      -207.2840
  23   2.0000      -6.419875      -174.6937
  24   2.0000      -6.415083      -174.5633
  25   2.0000      -5.715352      -155.5226
  26   2.0000      -5.712120      -155.4347
  27   2.0000      -5.711885      -155.4283
  28   2.0000      -5.708714      -155.3420
  29   2.0000      -5.704387      -155.2243
  30   2.0000      -5.701293      -155.1401
  31   2.0000      -5.658241      -153.9686
  32   2.0000      -5.650246      -153.7510
  33   2.0000      -5.649460      -153.7296
  34   2.0000      -5.646628      -153.6525
  35   2.0000      -5.638064      -153.4195
  36   2.0000      -5.637588      -153.4066
  37   2.0000      -4.642512      -126.3292
  38   2.0000      -4.641596      -126.3042
  39   2.0000      -4.640335      -126.2699
  40   2.0000      -4.638108      -126.2093
  41   2.0000      -4.636663      -126.1700
  42   2.0000      -4.635239      -126.1313
  43   2.0000      -0.984064       -26.7778
  44   2.0000      -0.978851       -26.6359
  45   2.0000      -0.939079       -25.5536
  46   2.0000      -0.936961       -25.4960
  47   2.0000      -0.760222       -20.6867
  48   2.0000      -0.719983       -19.5917
  49   2.0000      -0.709613       -19.3096
  50   2.0000      -0.688616       -18.7382
  51   2.0000      -0.687749       -18.7146
  52   2.0000      -0.671187       -18.2639
  53   2.0000      -0.646105       -17.5814
  54   2.0000      -0.631614       -17.1871
  55   2.0000      -0.585224       -15.9248
  56   2.0000      -0.577123       -15.7043
  57   2.0000      -0.572041       -15.5660
  58   2.0000      -0.565503       -15.3881
  59   2.0000      -0.557107       -15.1597
  60   2.0000      -0.509294       -13.8586
  61   2.0000      -0.503600       -13.7037
  62   2.0000      -0.479307       -13.0426
  63   2.0000      -0.475517       -12.9395
  64   2.0000      -0.451332       -12.2814
  65   2.0000      -0.444918       -12.1068
  66   2.0000      -0.438985       -11.9454
  67   2.0000      -0.435557       -11.8521
  68   2.0000      -0.427149       -11.6233
  69   2.0000      -0.414183       -11.2705
  70   2.0000      -0.404655       -11.0112
  71   2.0000      -0.396889       -10.7999
  72   2.0000      -0.385427       -10.4880
  73   2.0000      -0.378257       -10.2929
  74   2.0000      -0.374230       -10.1833
  75   2.0000      -0.363553        -9.8928
  76   2.0000      -0.359127        -9.7724
  77   2.0000      -0.356989        -9.7142
  78   2.0000      -0.352118        -9.5816
  79   2.0000      -0.351101        -9.5540
  80   2.0000      -0.347243        -9.4490
  81   2.0000      -0.342293        -9.3143
  82   2.0000      -0.337047        -9.1715
  83   2.0000      -0.333880        -9.0853
  84   2.0000      -0.325470        -8.8565
  85   2.0000      -0.312845        -8.5129
  86   2.0000      -0.312123        -8.4933
  87   2.0000      -0.302931        -8.2432
  88   2.0000      -0.298589        -8.1250
  89   2.0000      -0.292462        -7.9583
  90   2.0000      -0.275545        -7.4980
  91   2.0000      -0.271927        -7.3995
  92   2.0000      -0.265917        -7.2360
  93   2.0000      -0.258346        -7.0299
  94   2.0000      -0.255701        -6.9580
  95   2.0000      -0.237968        -6.4754
  96   2.0000      -0.220693        -6.0054
  97   2.0000      -0.204077        -5.5532
  98   2.0000      -0.202204        -5.5023
  99   2.0000      -0.187670        -5.1068
 100   2.0000      -0.183140        -4.9835
 101   0.0000      -0.037120        -1.0101
 102   0.0000      -0.028996        -0.7890
 103   0.0000      -0.009893        -0.2692
 104   0.0000       0.006807         0.1852
 105   0.0000       0.020719         0.5638

MULLIKEN ATOMIC CHARGES
-----------------------
   0 C :   -0.282269
   1 C :   -0.012877
   2 O :   -0.389822
   3 P :    0.615655
   4 S :   -0.313180
   5 O :   -0.368289
   6 C :   -0.030652
   7 C :   -0.294586
   8 S :   -0.109382
   9 C :   -0.338545
  10 S :   -0.107046
  11 P :    0.618265
  12 S :   -0.312011
  13 O :   -0.347655
  14 C :   -0.016733
  15 C :   -0.287430
  16 O :   -0.387261
  17 C :   -0.005363
  18 C :   -0.279280
  19 H :    0.105361
  20 H :    0.130218
  21 H :    0.107388
  22 H :    0.121855
  23 H :    0.093352
  24 H :    0.108986
  25 H :    0.110090
  26 H :    0.123835
  27 H :    0.130953
  28 H :    0.110944
  29 H :    0.179753
  30 H :    0.200710
  31 H :    0.108123
  32 H :    0.111232
  33 H :    0.119252
  34 H :    0.108080
  35 H :    0.141112
  36 H :    0.099494
  37 H :    0.093002
  38 H :    0.120772
  39 H :    0.110088
  40 H :    0.113860
Sum of atomic charges:    0.0000000

LOEWDIN ATOMIC CHARGES
----------------------
   0 C :   -0.352230
   1 C :   -0.123096
   2 O :   -0.256503
   3 P :    0.559446
   4 S :   -0.306137
   5 O :   -0.244458
   6 C :   -0.121124
   7 C :   -0.360067
   8 S :    0.082176
   9 C :   -0.479061
  10 S :    0.064437
  11 P :    0.573292
  12 S :   -0.290465
  13 O :   -0.223272
  14 C :   -0.110692
  15 C :   -0.351446
  16 O :   -0.256861
  17 C :   -0.123922
  18 C :   -0.350257
  19 H :    0.121689
  20 H :    0.125069
  21 H :    0.129231
  22 H :    0.112165
  23 H :    0.105223
  24 H :    0.109108
  25 H :    0.120626
  26 H :    0.130864
  27 H :    0.119391
  28 H :    0.130655
  29 H :    0.136339
  30 H :    0.123816
  31 H :    0.114552
  32 H :    0.107812
  33 H :    0.129155
  34 H :    0.129327
  35 H :    0.131818
  36 H :    0.106440
  37 H :    0.102630
  38 H :    0.128927
  39 H :    0.129811
  40 H :    0.125592

  Mayer bond orders larger than 0.100000
B(  0-C ,  1-C ) :   1.1630 B(  0-C , 19-H ) :   0.9499 B(  0-C , 20-H ) :   0.9447
B(  0-C , 21-H ) :   0.9419 B(  1-C ,  2-O ) :   0.8935 B(  1-C , 22-H ) :   0.9076
B(  1-C , 23-H ) :   0.9298 B(  2-O ,  3-P ) :   1.0706 B(  3-P ,  4-S ) :   1.6785
B(  3-P ,  5-O ) :   1.1133 B(  3-P ,  8-S ) :   0.9685 B(  4-S ,  8-S ) :   0.1106
B(  5-O ,  6-C ) :   0.9010 B(  6-C ,  7-C ) :   1.1678 B(  6-C , 24-H ) :   0.9149
B(  6-C , 25-H ) :   0.9330 B(  7-C , 26-H ) :   0.9457 B(  7-C , 27-H ) :   0.9373
B(  7-C , 28-H ) :   0.9389 B(  8-S ,  9-C ) :   0.9955 B(  9-C , 10-S ) :   1.0041
B(  9-C , 29-H ) :   0.9126 B(  9-C , 30-H ) :   0.8450 B( 10-S , 11-P ) :   0.9453
B( 10-S , 12-S ) :   0.1157 B( 11-P , 12-S ) :   1.6254 B( 11-P , 13-O ) :   1.1601
B( 11-P , 16-O ) :   1.0679 B( 12-S , 30-H ) :   0.1126 B( 13-O , 14-C ) :   0.8854
B( 14-C , 15-C ) :   1.1655 B( 14-C , 31-H ) :   0.9299 B( 14-C , 32-H ) :   0.9157
B( 15-C , 33-H ) :   0.9496 B( 15-C , 34-H ) :   0.9400 B( 15-C , 35-H ) :   0.9423
B( 16-O , 17-C ) :   0.9151 B( 17-C , 18-C ) :   1.1607 B( 17-C , 36-H ) :   0.9126
B( 17-C , 37-H ) :   0.9207 B( 18-C , 38-H ) :   0.9513 B( 18-C , 39-H ) :   0.9424
B( 18-C , 40-H ) :   0.9513

Dispersion correction           -0.064733575
FINAL SINGLE POINT ENERGY     -2929.516269111620

DIPOLE MOMENT
-------------

Method             : SCF
Type of density    : Electron Density
Multiplicity       :   1
Irrep              :   0
Energy             : -2929.6356500083497849 Eh
Relativity type    :
Basis              : AO
                                X                 Y                 Z
Electronic contribution:      0.532765475      -0.059968138       5.027171945
Nuclear contribution   :     -0.535979977      -0.917878187      -5.016058445
                        -----------------------------------------
Total Dipole Moment    :     -0.003214502      -0.977846325       0.011113500
                        -----------------------------------------
Magnitude (a.u.)       :      0.977914760
Magnitude (Debye)      :      2.485661781

Rotational constants in cm-1:             0.012037             0.004925             0.004741
Rotational constants in MHz :           360.854869           147.656177           142.131257

                             ****ORCA TERMINATED NORMALLY****
TOTAL RUN TIME: 0 days 0 hours 0 minutes 20 seconds 791 msec
