                         Program Version 6.0.0  -   RELEASE  -
|  1> ! r2scan-3c def2/J RI DEFGRID2 scfconv6 printgap
|  2> %output
|  3>     printlevel normal
|  4> end
|  5> * xyz 0 1
|  6> C 4.9764767229 1.166196927 0.1414437759
|  7> C 3.7243667049 1.434414835 -0.6660871896
|  8> O 2.9407234474 0.235218143 -0.8439640286
|  9> P 2.1502789907 -0.4268628971 0.3559802338
| 10> S 1.5299394991 0.7869774214 1.7703690958
| 11> O 3.1789454037 -1.520797136 0.8847506708
| 12> C 3.0020814871 -2.1819350079 2.1466848548
| 13> C 1.8129342322 -3.1208431004 2.1214687088
| 14> S 0.7781497679 -1.5947460824 -0.7732761344
| 15> C 0.3445111951 -0.4092544745 -2.0768439918
| 16> S -0.2687930135 1.173746805 -1.4381289824
| 17> P -2.0077176844 0.4001428223 -0.5236528437
| 18> S -2.9223169923 -1.038332899 -1.4969613237
| 19> O -2.8816844247 1.6955470198 -0.253660403
| 20> C -3.676355997 2.3075944157 -1.2905786156
| 21> C -4.7444135572 3.1506729065 -0.6238070634
| 22> O -1.472435914 0.0554877084 0.9200801231
| 23> C -2.1216161496 -0.9010318262 1.782349371
| 24> C -3.4949479136 -0.4289746294 2.2074398477
| 25> H 5.5428920805 0.3524609417 -0.3034974769
| 26> H 5.5873367153 2.0630576523 0.1672830021
| 27> H 4.7063369885 0.8915595365 1.1602357676
| 28> H 3.9557336681 1.7498686275 -1.6842125742
| 29> H 3.0991844738 2.1881228149 -0.1764584334
| 30> H 3.9392358109 -2.7177886333 2.3013973517
| 31> H 2.8738216838 -1.4190197037 2.9223077904
| 32> H 1.7389923619 -3.6428597927 3.0699547258
| 33> H 0.8986646818 -2.5487099211 1.9577295495
| 34> H 1.9161076968 -3.8424595801 1.3151669464
| 35> H -0.439233125 -0.8908901366 -2.6631144161
| 36> H 1.2187570345 -0.1907596545 -2.6837824851
| 37> H -3.0141895502 2.9180775396 -1.9102844156
| 38> H -4.1151659476 1.5152179577 -1.9066270858
| 39> H -4.2805274658 3.8923437235 0.0199472847
| 40> H -5.3301205307 3.6515138522 -1.3875434044
| 41> H -5.3980981861 2.5237838773 -0.023991749
| 42> H -2.1818093371 -1.8574872672 1.2521941804
| 43> H -1.4397130615 -0.9851961626 2.6305547464
| 44> H -3.9131792682 -1.1320587672 2.9208367713
| 45> H -3.4267347993 0.5559040387 2.6622654541
| 46> H -4.149052689 -0.3729879683 1.3376813681
| 47> *
| 48>
| 49>                          ****END OF INPUT****

CARTESIAN COORDINATES (ANGSTROEM)
---------------------------------
  C      4.976477    1.166197    0.141444
  C      3.724367    1.434415   -0.666087
  O      2.940723    0.235218   -0.843964
  P      2.150279   -0.426863    0.355980
  S      1.529939    0.786977    1.770369
  O      3.178945   -1.520797    0.884751
  C      3.002081   -2.181935    2.146685
  C      1.812934   -3.120843    2.121469
  S      0.778150   -1.594746   -0.773276
  C      0.344511   -0.409254   -2.076844
  S     -0.268793    1.173747   -1.438129
  P     -2.007718    0.400143   -0.523653
  S     -2.922317   -1.038333   -1.496961
  O     -2.881684    1.695547   -0.253660
  C     -3.676356    2.307594   -1.290579
  C     -4.744414    3.150673   -0.623807
  O     -1.472436    0.055488    0.920080
  C     -2.121616   -0.901032    1.782349
  C     -3.494948   -0.428975    2.207440
  H      5.542892    0.352461   -0.303497
  H      5.587337    2.063058    0.167283
  H      4.706337    0.891560    1.160236
  H      3.955734    1.749869   -1.684213
  H      3.099184    2.188123   -0.176458
  H      3.939236   -2.717789    2.301397
  H      2.873822   -1.419020    2.922308
  H      1.738992   -3.642860    3.069955
  H      0.898665   -2.548710    1.957730
  H      1.916108   -3.842460    1.315167
  H     -0.439233   -0.890890   -2.663114
  H      1.218757   -0.190760   -2.683782
  H     -3.014190    2.918078   -1.910284
  H     -4.115166    1.515218   -1.906627
  H     -4.280527    3.892344    0.019947
  H     -5.330121    3.651514   -1.387543
  H     -5.398098    2.523784   -0.023992
  H     -2.181809   -1.857487    1.252194
  H     -1.439713   -0.985196    2.630555
  H     -3.913179   -1.132059    2.920837
  H     -3.426735    0.555904    2.662265
  H     -4.149053   -0.372988    1.337681

 Total Charge           Charge          ....    0
 Multiplicity           Mult            ....    1
 Number of Electrons    NEL             ....  202
 Basis Dimension        Dim             ....  539

ORBITAL ENERGIES
----------------

  NO   OCC          E(Eh)            E(eV)
   0   2.0000     -88.572706     -2410.1859
   1   2.0000     -88.570226     -2410.1184
   2   2.0000     -88.517183     -2408.6750
   3   2.0000     -88.513181     -2408.5661
   4   2.0000     -76.910820     -2092.8498
   5   2.0000     -76.910257     -2092.8345
   6   2.0000     -18.992084      -516.8009
   7   2.0000     -18.990700      -516.7632
   8   2.0000     -18.988140      -516.6936
   9   2.0000     -18.982440      -516.5384
  10   2.0000     -10.105186      -274.9761
  11   2.0000     -10.097804      -274.7752
  12   2.0000     -10.097297      -274.7614
  13   2.0000     -10.096842      -274.7490
  14   2.0000     -10.091540      -274.6048
  15   2.0000     -10.032034      -272.9855
  16   2.0000     -10.031304      -272.9657
  17   2.0000     -10.027932      -272.8739
  18   2.0000     -10.023687      -272.7584
  19   2.0000      -7.867089      -214.0744
  20   2.0000      -7.864546      -214.0052
  21   2.0000      -7.812079      -212.5775
  22   2.0000      -7.807877      -212.4631
  23   2.0000      -6.589229      -179.3020
  24   2.0000      -6.588876      -179.2924
  25   2.0000      -5.813973      -158.2062
  26   2.0000      -5.811768      -158.1462
  27   2.0000      -5.810971      -158.1246
  28   2.0000      -5.808292      -158.0516
  29   2.0000      -5.804161      -157.9392
  30   2.0000      -5.801411      -157.8644
  31   2.0000      -5.759637      -156.7277
  32   2.0000      -5.755562      -156.6168
  33   2.0000      -5.752433      -156.5316
  34   2.0000      -5.752072      -156.5218
  35   2.0000      -5.748345      -156.4204
  36   2.0000      -5.747687      -156.4025
  37   2.0000      -4.734856      -128.8420
  38   2.0000      -4.734266      -128.8259
  39   2.0000      -4.734211      -128.8244
  40   2.0000      -4.733801      -128.8133
  41   2.0000      -4.732757      -128.7849
  42   2.0000      -4.732708      -128.7835
  43   2.0000      -1.049082       -28.5470
  44   2.0000      -1.046249       -28.4699
  45   2.0000      -1.011502       -27.5244
  46   2.0000      -1.007028       -27.4026
  47   2.0000      -0.799248       -21.7486
  48   2.0000      -0.756427       -20.5834
  49   2.0000      -0.747083       -20.3292
  50   2.0000      -0.731666       -19.9096
  51   2.0000      -0.729003       -19.8372
  52   2.0000      -0.705839       -19.2068
  53   2.0000      -0.683404       -18.5964
  54   2.0000      -0.666289       -18.1307
  55   2.0000      -0.630148       -17.1472
  56   2.0000      -0.623819       -16.9750
  57   2.0000      -0.605835       -16.4856
  58   2.0000      -0.597776       -16.2663
  59   2.0000      -0.590312       -16.0632
  60   2.0000      -0.526159       -14.3175
  61   2.0000      -0.516775       -14.0622
  62   2.0000      -0.493690       -13.4340
  63   2.0000      -0.490721       -13.3532
  64   2.0000      -0.475000       -12.9254
  65   2.0000      -0.461042       -12.5456
  66   2.0000      -0.456778       -12.4296
  67   2.0000      -0.450041       -12.2462
  68   2.0000      -0.441948       -12.0260
  69   2.0000      -0.431764       -11.7489
  70   2.0000      -0.422711       -11.5026
  71   2.0000      -0.411086       -11.1862
  72   2.0000      -0.408452       -11.1145
  73   2.0000      -0.405522       -11.0348
  74   2.0000      -0.393107       -10.6970
  75   2.0000      -0.387687       -10.5495
  76   2.0000      -0.384799       -10.4709
  77   2.0000      -0.373201       -10.1553
  78   2.0000      -0.371113       -10.0985
  79   2.0000      -0.366885        -9.9835
  80   2.0000      -0.362479        -9.8636
  81   2.0000      -0.359507        -9.7827
  82   2.0000      -0.356011        -9.6876
  83   2.0000      -0.353351        -9.6152
  84   2.0000      -0.343065        -9.3353
  85   2.0000      -0.331695        -9.0259
  86   2.0000      -0.319021        -8.6810
  87   2.0000      -0.313302        -8.5254
  88   2.0000      -0.308579        -8.3969
  89   2.0000      -0.299873        -8.1600
  90   2.0000      -0.295647        -8.0450
  91   2.0000      -0.287629        -7.8268
  92   2.0000      -0.284942        -7.7537
  93   2.0000      -0.274858        -7.4793
  94   2.0000      -0.274311        -7.4644
  95   2.0000      -0.247128        -6.7247
  96   2.0000      -0.228317        -6.2128
  97   2.0000      -0.219784        -5.9806
  98   2.0000      -0.215974        -5.8770
  99   2.0000      -0.207124        -5.6361
 100   2.0000      -0.202259        -5.5038
 101   0.0000      -0.047457        -1.2914
 102   0.0000      -0.021532        -0.5859
 103   0.0000      -0.013883        -0.3778
 104   0.0000       0.010385         0.2826
 105   0.0000       0.019137         0.5207

MULLIKEN ATOMIC CHARGES
-----------------------
   0 C :   -0.444914
   1 C :   -0.151424
   2 O :   -0.336887
   3 P :    0.729078
   4 S :   -0.460689
   5 O :   -0.290859
   6 C :   -0.145315
   7 C :   -0.471274
   8 S :   -0.148027
   9 C :   -0.191918
  10 S :   -0.155609
  11 P :    0.721105
  12 S :   -0.497760
  13 O :   -0.286544
  14 C :   -0.155689
  15 C :   -0.440477
  16 O :   -0.241885
  17 C :   -0.167106
  18 C :   -0.454526
  19 H :    0.155482
  20 H :    0.146757
  21 H :    0.171176
  22 H :    0.146875
  23 H :    0.177014
  24 H :    0.148148
  25 H :    0.175494
  26 H :    0.151138
  27 H :    0.168552
  28 H :    0.164668
  29 H :    0.209943
  30 H :    0.187436
  31 H :    0.150896
  32 H :    0.171790
  33 H :    0.155366
  34 H :    0.146420
  35 H :    0.154877
  36 H :    0.174336
  37 H :    0.160105
  38 H :    0.145777
  39 H :    0.159405
  40 H :    0.169062
Sum of atomic charges:    0.0000000

LOEWDIN ATOMIC CHARGES
----------------------
   0 C :   -0.399001
   1 C :    0.020970
   2 O :   -0.683238
   3 P :    0.389988
   4 S :   -0.099205
   5 O :   -0.667184
   6 C :    0.016093
   7 C :   -0.405255
   8 S :    0.170286
   9 C :   -0.412701
  10 S :    0.168267
  11 P :    0.375812
  12 S :   -0.138880
  13 O :   -0.660823
  14 C :    0.020024
  15 C :   -0.385892
  16 O :   -0.675143
  17 C :    0.015809
  18 C :   -0.400703
  19 H :    0.160907
  20 H :    0.159527
  21 H :    0.166371
  22 H :    0.178143
  23 H :    0.182269
  24 H :    0.179484
  25 H :    0.180014
  26 H :    0.160315
  27 H :    0.163949
  28 H :    0.161708
  29 H :    0.192112
  30 H :    0.183945
  31 H :    0.171619
  32 H :    0.180891
  33 H :    0.160623
  34 H :    0.159748
  35 H :    0.160083
  36 H :    0.179990
  37 H :    0.183499
  38 H :    0.158853
  39 H :    0.161800
  40 H :    0.164926

  Mayer bond orders larger than 0.100000
B(  0-C ,  1-C ) :   0.9318 B(  0-C , 19-H ) :   0.9707 B(  0-C , 20-H ) :   0.9625
B(  0-C , 21-H ) :   0.9593 B(  1-C ,  2-O ) :   0.8004 B(  1-C , 22-H ) :   0.9599
B(  1-C , 23-H ) :   0.9617 B(  2-O ,  3-P ) :   1.1576 B(  3-P ,  4-S ) :   1.7602
B(  3-P ,  5-O ) :   1.0694 B(  3-P ,  8-S ) :   1.0508 B(  5-O ,  6-C ) :   0.8176
B(  6-C ,  7-C ) :   0.9094 B(  6-C , 24-H ) :   0.9556 B(  6-C , 25-H ) :   0.9656
B(  7-C , 26-H ) :   0.9590 B(  7-C , 27-H ) :   0.9648 B(  7-C , 28-H ) :   0.9679
B(  8-S ,  9-C ) :   0.8932 B(  9-C , 10-S ) :   0.9147 B(  9-C , 29-H ) :   0.9101
B(  9-C , 30-H ) :   0.9165 B( 10-S , 11-P ) :   1.0562 B( 11-P , 12-S ) :   1.7233
B( 11-P , 13-O ) :   1.0924 B( 11-P , 16-O ) :   1.1851 B( 13-O , 14-C ) :   0.7767
B( 14-C , 15-C ) :   0.9573 B( 14-C , 31-H ) :   0.9469 B( 14-C , 32-H ) :   0.9526
B( 15-C , 33-H ) :   0.9713 B( 15-C , 34-H ) :   0.9646 B( 15-C , 35-H ) :   0.9711
B( 16-O , 17-C ) :   0.7801 B( 17-C , 18-C ) :   0.9226 B( 17-C , 36-H ) :   0.9655
B( 17-C , 37-H ) :   0.9575 B( 18-C , 38-H ) :   0.9617 B( 18-C , 39-H ) :   0.9720
B( 18-C , 40-H ) :   0.9611

Dispersion correction           -0.021696582
FINAL SINGLE POINT ENERGY     -2932.458795951274

DIPOLE MOMENT
-------------

Method             : SCF
Type of density    : Electron Density
Multiplicity       :   1
Irrep              :   0
Energy             : -2932.4834847819183778 Eh
Relativity type    :
Basis              : AO
                                X                 Y                 Z
Electronic contribution:      2.566016815      -2.295926531     -10.337503085
Nuclear contribution   :     -2.149743577       2.584883002      10.515680199
                        -----------------------------------------
Total Dipole Moment    :      0.416273239       0.288956471       0.178177114
                        -----------------------------------------
Magnitude (a.u.)       :      0.537146474
Magnitude (Debye)      :      1.365317835

Rotational constants in cm-1:             0.012776             0.005106             0.004637
Rotational constants in MHz :           383.014277           153.087820           139.009213

                             ****ORCA TERMINATED NORMALLY****
TOTAL RUN TIME: 0 days 0 hours 1 minutes 23 seconds 858 msec
