                         Program Version 6.0.0  -   RELEASE  -
|  1> ! r2scan-3c def2/J RI DEFGRID2 scfconv6 printgap
|  2> %output
|  3>     printlevel normal
|  4> end
|  5> %cpcm
|  6>     smd true
|  7>     smdsolvent "water"
|  8> end
|  9> * xyz 0 1
| 10> C 4.9764767229 1.166196927 0.1414437759
| 11> C 3.7243667049 1.434414835 -0.6660871896
| 12> O 2.9407234474 0.235218143 -0.8439640286
| 13> P 2.1502789907 -0.4268628971 0.3559802338
| 14> S 1.5299394991 0.7869774214 1.7703690958
| 15> O 3.1789454037 -1.520797136 0.8847506708
| 16> C 3.0020814871 -2.1819350079 2.1466848548
| 17> C 1.8129342322 -3.1208431004 2.1214687088
| 18> S 0.7781497679 -1.5947460824 -0.7732761344
| 19> C 0.3445111951 -0.4092544745 -2.0768439918
| 20> S -0.2687930135 1.173746805 -1.4381289824
| 21> P -2.0077176844 0.4001428223 -0.5236528437
| 22> S -2.9223169923 -1.038332899 -1.4969613237
| 23> O -2.8816844247 1.6955470198 -0.253660403
| 24> C -3.676355997 2.3075944157 -1.2905786156
| 25> C -4.7444135572 3.1506729065 -0.6238070634
| 26> O -1.472435914 0.0554877084 0.9200801231
| 27> C -2.1216161496 -0.9010318262 1.782349371
| 28> C -3.4949479136 -0.4289746294 2.2074398477
| 29> H 5.5428920805 0.3524609417 -0.3034974769
| 30> H 5.5873367153 2.0630576523 0.1672830021
| 31> H 4.7063369885 0.8915595365 1.1602357676
| 32> H 3.9557336681 1.7498686275 -1.6842125742
| 33> H 3.0991844738 2.1881228149 -0.1764584334
| 34> H 3.9392358109 -2.7177886333 2.3013973517
| 35> H 2.8738216838 -1.4190197037 2.9223077904
| 36> H 1.7389923619 -3.6428597927 3.0699547258
| 37> H 0.8986646818 -2.5487099211 1.9577295495
| 38> H 1.9161076968 -3.8424595801 1.3151669464
| 39> H -0.439233125 -0.8908901366 -2.6631144161
| 40> H 1.2187570345 -0.1907596545 -2.6837824851
| 41> H -3.0141895502 2.9180775396 -1.9102844156
| 42> H -4.1151659476 1.5152179577 -1.9066270858
| 43> H -4.2805274658 3.8923437235 0.0199472847
| 44> H -5.3301205307 3.6515138522 -1.3875434044
| 45> H -5.3980981861 2.5237838773 -0.023991749
| 46> H -2.1818093371 -1.8574872672 1.2521941804
| 47> H -1.4397130615 -0.9851961626 2.6305547464
| 48> H -3.9131792682 -1.1320587672 2.9208367713
| 49> H -3.4267347993 0.5559040387 2.6622654541
| 50> H -4.149052689 -0.3729879683 1.3376813681
| 51> *
| 52>
| 53>                          ****END OF INPUT****

CARTESIAN COORDINATES (ANGSTROEM)
---------------------------------
  C      4.976477    1.166197    0.141444
  C      3.724367    1.434415   -0.666087
  O      2.940723    0.235218   -0.843964
  P      2.150279   -0.426863    0.355980
  S      1.529939    0.786977    1.770369
  O      3.178945   -1.520797    0.884751
  C      3.002081   -2.181935    2.146685
  C      1.812934   -3.120843    2.121469
  S      0.778150   -1.594746   -0.773276
  C      0.344511   -0.409254   -2.076844
  S     -0.268793    1.173747   -1.438129
  P     -2.007718    0.400143   -0.523653
  S     -2.922317   -1.038333   -1.496961
  O     -2.881684    1.695547   -0.253660
  C     -3.676356    2.307594   -1.290579
  C     -4.744414    3.150673   -0.623807
  O     -1.472436    0.055488    0.920080
  C     -2.121616   -0.901032    1.782349
  C     -3.494948   -0.428975    2.207440
  H      5.542892    0.352461   -0.303497
  H      5.587337    2.063058    0.167283
  H      4.706337    0.891560    1.160236
  H      3.955734    1.749869   -1.684213
  H      3.099184    2.188123   -0.176458
  H      3.939236   -2.717789    2.301397
  H      2.873822   -1.419020    2.922308
  H      1.738992   -3.642860    3.069955
  H      0.898665   -2.548710    1.957730
  H      1.916108   -3.842460    1.315167
  H     -0.439233   -0.890890   -2.663114
  H      1.218757   -0.190760   -2.683782
  H     -3.014190    2.918078   -1.910284
  H     -4.115166    1.515218   -1.906627
  H     -4.280527    3.892344    0.019947
  H     -5.330121    3.651514   -1.387543
  H     -5.398098    2.523784   -0.023992
  H     -2.181809   -1.857487    1.252194
  H     -1.439713   -0.985196    2.630555
  H     -3.913179   -1.132059    2.920837
  H     -3.426735    0.555904    2.662265
  H     -4.149053   -0.372988    1.337681

 Total Charge           Charge          ....    0
 Multiplicity           Mult            ....    1
 Number of Electrons    NEL             ....  202
 Basis Dimension        Dim             ....  539

ORBITAL ENERGIES
----------------

  NO   OCC          E(Eh)            E(eV)
   0   2.0000     -88.578146     -2410.3339
   1   2.0000     -88.575380     -2410.2586
   2   2.0000     -88.526232     -2408.9212
   3   2.0000     -88.521250     -2408.7857
   4   2.0000     -76.917232     -2093.0243
   5   2.0000     -76.916796     -2093.0124
   6   2.0000     -18.995355      -516.8899
   7   2.0000     -18.994499      -516.8666
   8   2.0000     -18.992215      -516.8044
   9   2.0000     -18.988605      -516.7062
  10   2.0000     -10.104399      -274.9547
  11   2.0000     -10.090029      -274.5637
  12   2.0000     -10.089279      -274.5432
  13   2.0000     -10.088595      -274.5246
  14   2.0000     -10.088320      -274.5171
  15   2.0000     -10.020642      -272.6755
  16   2.0000     -10.019588      -272.6469
  17   2.0000     -10.018404      -272.6146
  18   2.0000     -10.018084      -272.6059
  19   2.0000      -7.872516      -214.2220
  20   2.0000      -7.869723      -214.1460
  21   2.0000      -7.821399      -212.8311
  22   2.0000      -7.816251      -212.6910
  23   2.0000      -6.595934      -179.4845
  24   2.0000      -6.595248      -179.4658
  25   2.0000      -5.819365      -158.3530
  26   2.0000      -5.816903      -158.2860
  27   2.0000      -5.816385      -158.2719
  28   2.0000      -5.813421      -158.1912
  29   2.0000      -5.809650      -158.0886
  30   2.0000      -5.806685      -158.0079
  31   2.0000      -5.768903      -156.9798
  32   2.0000      -5.763882      -156.8432
  33   2.0000      -5.761719      -156.7844
  34   2.0000      -5.761428      -156.7764
  35   2.0000      -5.756674      -156.6471
  36   2.0000      -5.756104      -156.6316
  37   2.0000      -4.741245      -129.0158
  38   2.0000      -4.740859      -129.0053
  39   2.0000      -4.740818      -129.0042
  40   2.0000      -4.740274      -128.9894
  41   2.0000      -4.739858      -128.9781
  42   2.0000      -4.738826      -128.9500
  43   2.0000      -1.052019       -28.6269
  44   2.0000      -1.051414       -28.6104
  45   2.0000      -1.013737       -27.5852
  46   2.0000      -1.011730       -27.5306
  47   2.0000      -0.802053       -21.8250
  48   2.0000      -0.754636       -20.5347
  49   2.0000      -0.742356       -20.2005
  50   2.0000      -0.724156       -19.7053
  51   2.0000      -0.723365       -19.6838
  52   2.0000      -0.706657       -19.2291
  53   2.0000      -0.687832       -18.7169
  54   2.0000      -0.673512       -18.3272
  55   2.0000      -0.630322       -17.1519
  56   2.0000      -0.621932       -16.9236
  57   2.0000      -0.599720       -16.3192
  58   2.0000      -0.593267       -16.1436
  59   2.0000      -0.589478       -16.0405
  60   2.0000      -0.525377       -14.2962
  61   2.0000      -0.513877       -13.9833
  62   2.0000      -0.493291       -13.4231
  63   2.0000      -0.489426       -13.3180
  64   2.0000      -0.474916       -12.9231
  65   2.0000      -0.459021       -12.4906
  66   2.0000      -0.453247       -12.3335
  67   2.0000      -0.446295       -12.1443
  68   2.0000      -0.441206       -12.0058
  69   2.0000      -0.429076       -11.6757
  70   2.0000      -0.422221       -11.4892
  71   2.0000      -0.409013       -11.1298
  72   2.0000      -0.406533       -11.0623
  73   2.0000      -0.404336       -11.0025
  74   2.0000      -0.393726       -10.7138
  75   2.0000      -0.386491       -10.5169
  76   2.0000      -0.382924       -10.4199
  77   2.0000      -0.369145       -10.0450
  78   2.0000      -0.364876        -9.9288
  79   2.0000      -0.362133        -9.8541
  80   2.0000      -0.354187        -9.6379
  81   2.0000      -0.352790        -9.5999
  82   2.0000      -0.350404        -9.5350
  83   2.0000      -0.347825        -9.4648
  84   2.0000      -0.340822        -9.2742
  85   2.0000      -0.328947        -8.9511
  86   2.0000      -0.317718        -8.6455
  87   2.0000      -0.312181        -8.4949
  88   2.0000      -0.304469        -8.2850
  89   2.0000      -0.299781        -8.1575
  90   2.0000      -0.297103        -8.0846
  91   2.0000      -0.287966        -7.8359
  92   2.0000      -0.286562        -7.7978
  93   2.0000      -0.277101        -7.5403
  94   2.0000      -0.276590        -7.5264
  95   2.0000      -0.252962        -6.8834
  96   2.0000      -0.235104        -6.3975
  97   2.0000      -0.229067        -6.2332
  98   2.0000      -0.225768        -6.1435
  99   2.0000      -0.214836        -5.8460
 100   2.0000      -0.211110        -5.7446
 101   0.0000      -0.052984        -1.4418
 102   0.0000      -0.028624        -0.7789
 103   0.0000      -0.018149        -0.4939
 104   0.0000       0.004694         0.1277
 105   0.0000       0.015218         0.4141

MULLIKEN ATOMIC CHARGES
-----------------------
   0 C :   -0.486540
   1 C :   -0.144465
   2 O :   -0.357469
   3 P :    0.766139
   4 S :   -0.514529
   5 O :   -0.320918
   6 C :   -0.145871
   7 C :   -0.500561
   8 S :   -0.170483
   9 C :   -0.200174
  10 S :   -0.163854
  11 P :    0.740707
  12 S :   -0.543913
  13 O :   -0.312681
  14 C :   -0.147096
  15 C :   -0.483240
  16 O :   -0.266159
  17 C :   -0.162332
  18 C :   -0.489427
  19 H :    0.169089
  20 H :    0.172494
  21 H :    0.168727
  22 H :    0.176263
  23 H :    0.177107
  24 H :    0.174783
  25 H :    0.178108
  26 H :    0.176927
  27 H :    0.168675
  28 H :    0.175463
  29 H :    0.226556
  30 H :    0.222988
  31 H :    0.171774
  32 H :    0.172803
  33 H :    0.166256
  34 H :    0.169596
  35 H :    0.166142
  36 H :    0.178410
  37 H :    0.178899
  38 H :    0.172299
  39 H :    0.170142
  40 H :    0.169365
Sum of atomic charges:    0.0000000

LOEWDIN ATOMIC CHARGES
----------------------
   0 C :   -0.402946
   1 C :    0.026512
   2 O :   -0.690684
   3 P :    0.395098
   4 S :   -0.132490
   5 O :   -0.682117
   6 C :    0.021367
   7 C :   -0.406636
   8 S :    0.160006
   9 C :   -0.404538
  10 S :    0.164652
  11 P :    0.377925
  12 S :   -0.167862
  13 O :   -0.675978
  14 C :    0.024778
  15 C :   -0.389513
  16 O :   -0.689886
  17 C :    0.019781
  18 C :   -0.403748
  19 H :    0.164055
  20 H :    0.169047
  21 H :    0.162774
  22 H :    0.190308
  23 H :    0.182408
  24 H :    0.190638
  25 H :    0.181154
  26 H :    0.170184
  27 H :    0.162019
  28 H :    0.164156
  29 H :    0.197512
  30 H :    0.196927
  31 H :    0.179874
  32 H :    0.181917
  33 H :    0.163403
  34 H :    0.168936
  35 H :    0.162502
  36 H :    0.181858
  37 H :    0.190842
  38 H :    0.168643
  39 H :    0.164145
  40 H :    0.162975

  Mayer bond orders larger than 0.100000
B(  0-C ,  1-C ) :   0.9183 B(  0-C , 19-H ) :   0.9700 B(  0-C , 20-H ) :   0.9564
B(  0-C , 21-H ) :   0.9598 B(  1-C ,  2-O ) :   0.7890 B(  1-C , 22-H ) :   0.9503
B(  1-C , 23-H ) :   0.9589 B(  2-O ,  3-P ) :   1.1686 B(  3-P ,  4-S ) :   1.7113
B(  3-P ,  5-O ) :   1.0759 B(  3-P ,  8-S ) :   1.0672 B(  5-O ,  6-C ) :   0.8062
B(  6-C ,  7-C ) :   0.9003 B(  6-C , 24-H ) :   0.9464 B(  6-C , 25-H ) :   0.9632
B(  7-C , 26-H ) :   0.9526 B(  7-C , 27-H ) :   0.9617 B(  7-C , 28-H ) :   0.9656
B(  8-S ,  9-C ) :   0.8831 B(  9-C , 10-S ) :   0.9118 B(  9-C , 29-H ) :   0.9065
B(  9-C , 30-H ) :   0.9063 B( 10-S , 11-P ) :   1.0767 B( 11-P , 12-S ) :   1.6844
B( 11-P , 13-O ) :   1.0974 B( 11-P , 16-O ) :   1.1901 B( 13-O , 14-C ) :   0.7691
B( 14-C , 15-C ) :   0.9525 B( 14-C , 31-H ) :   0.9378 B( 14-C , 32-H ) :   0.9490
B( 15-C , 33-H ) :   0.9690 B( 15-C , 34-H ) :   0.9584 B( 15-C , 35-H ) :   0.9689
B( 16-O , 17-C ) :   0.7729 B( 17-C , 18-C ) :   0.9106 B( 17-C , 36-H ) :   0.9610
B( 17-C , 37-H ) :   0.9507 B( 18-C , 38-H ) :   0.9558 B( 18-C , 39-H ) :   0.9707
B( 18-C , 40-H ) :   0.9601

Dispersion correction           -0.021696582
FINAL SINGLE POINT ENERGY     -2932.467403694757

DIPOLE MOMENT
-------------

Method             : SCF
Type of density    : Electron Density
Multiplicity       :   1
Irrep              :   0
Energy             : -2932.4920925254014037 Eh
Relativity type    :
Basis              : AO
                                X                 Y                 Z
Electronic contribution:      2.760157272      -2.279698195     -10.440984334
Nuclear contribution   :     -2.149743577       2.584883002      10.515680199
                        -----------------------------------------
Total Dipole Moment    :      0.610413696       0.305184806       0.074695865
                        -----------------------------------------
Magnitude (a.u.)       :      0.686529037
Magnitude (Debye)      :      1.745018132

Rotational constants in cm-1:             0.012776             0.005106             0.004637
Rotational constants in MHz :           383.014277           153.087820           139.009213

                             ****ORCA TERMINATED NORMALLY****
TOTAL RUN TIME: 0 days 0 hours 1 minutes 55 seconds 864 msec
