                         Program Version 6.0.0  -   RELEASE  -
|  1> ! pbe def2-sv(p) def2/J RI DEFGRID1 loosescf d4 GCP(DFT/SV(P)) printgap
|  2> %output
|  3>     printlevel normal
|  4> end
|  5> * xyz 0 1
|  6> C 4.4184315302 2.4477078043 -1.185941012
|  7> C 3.0765502133 1.8916239278 -0.7555163597
|  8> O 3.3210929605 0.7027150121 0.0227743321
|  9> P 2.1543647534 0.021857591 0.8571562073
| 10> S 1.1784522241 1.2236625269 2.0470121034
| 11> O 2.8726082214 -1.1359929452 1.6430471808
| 12> C 3.8009276914 -2.0712658272 1.0336317673
| 13> C 5.2283975424 -1.5956878158 1.2056550471
| 14> S 1.0575138637 -0.9625681312 -0.7025976395
| 15> C -0.0806993883 -1.9058973971 0.3442370915
| 16> S -1.4287053813 -0.9174256342 1.0479556988
| 17> P -2.1919814809 -0.1866328248 -0.8077132619
| 18> S -2.0994635376 -1.4389710515 -2.3033725906
| 19> O -1.4501656516 1.169121478 -1.1068847226
| 20> C -1.464858823 2.3109845029 -0.2140066643
| 21> C -2.5504040661 3.2887120021 -0.6095014304
| 22> O -3.6501108338 0.2886486686 -0.3980744712
| 23> C -4.6901267472 -0.6712651324 -0.1143604831
| 24> C -6.018073507 0.0569928713 -0.1534249449
| 25> H 4.9512292696 1.7136431943 -1.7833851942
| 26> H 4.2590260126 3.343220382 -1.7773776328
| 27> H 5.0155175678 2.6962038599 -0.3131759495
| 28> H 2.4604238786 1.6179709176 -1.6172372185
| 29> H 2.5262556652 2.6044577937 -0.1323107776
| 30> H 3.6285160727 -3.0090106739 1.5650082384
| 31> H 3.5452373373 -2.1879632486 -0.0228648367
| 32> H 5.3812814696 -0.6612361326 0.6729318274
| 33> H 5.4435832893 -1.4383777463 2.2589950371
| 34> H 5.9026655077 -2.3489985683 0.8102266451
| 35> H 0.4551813783 -2.3399100347 1.1856640464
| 36> H -0.5046093691 -2.6748957625 -0.3009240882
| 37> H -1.5915944437 1.9623363389 0.8150661465
| 38> H -0.4712390794 2.7520478932 -0.3181263939
| 39> H -2.4853256533 4.1629820126 0.0305225826
| 40> H -2.41981771 3.5886348034 -1.6456133403
| 41> H -3.5291074668 2.8308443288 -0.4958728675
| 42> H -4.6439361944 -1.4649784707 -0.8672213844
| 43> H -4.4968651102 -1.1007659348 0.872366217
| 44> H -6.8149273058 -0.646636984 0.0635086516
| 45> H -6.0292849406 0.8515719743 0.5871021182
| 46> H -6.1786381666 0.4877320269 -1.1377643319
| 47> *
| 48>
| 49>                          ****END OF INPUT****

CARTESIAN COORDINATES (ANGSTROEM)
---------------------------------
  C      4.418432    2.447708   -1.185941
  C      3.076550    1.891624   -0.755516
  O      3.321093    0.702715    0.022774
  P      2.154365    0.021858    0.857156
  S      1.178452    1.223663    2.047012
  O      2.872608   -1.135993    1.643047
  C      3.800928   -2.071266    1.033632
  C      5.228398   -1.595688    1.205655
  S      1.057514   -0.962568   -0.702598
  C     -0.080699   -1.905897    0.344237
  S     -1.428705   -0.917426    1.047956
  P     -2.191981   -0.186633   -0.807713
  S     -2.099464   -1.438971   -2.303373
  O     -1.450166    1.169121   -1.106885
  C     -1.464859    2.310985   -0.214007
  C     -2.550404    3.288712   -0.609501
  O     -3.650111    0.288649   -0.398074
  C     -4.690127   -0.671265   -0.114360
  C     -6.018074    0.056993   -0.153425
  H      4.951229    1.713643   -1.783385
  H      4.259026    3.343220   -1.777378
  H      5.015518    2.696204   -0.313176
  H      2.460424    1.617971   -1.617237
  H      2.526256    2.604458   -0.132311
  H      3.628516   -3.009011    1.565008
  H      3.545237   -2.187963   -0.022865
  H      5.381281   -0.661236    0.672932
  H      5.443583   -1.438378    2.258995
  H      5.902666   -2.348999    0.810227
  H      0.455181   -2.339910    1.185664
  H     -0.504609   -2.674896   -0.300924
  H     -1.591594    1.962336    0.815066
  H     -0.471239    2.752048   -0.318126
  H     -2.485326    4.162982    0.030523
  H     -2.419818    3.588635   -1.645613
  H     -3.529107    2.830844   -0.495873
  H     -4.643936   -1.464978   -0.867221
  H     -4.496865   -1.100766    0.872366
  H     -6.814927   -0.646637    0.063509
  H     -6.029285    0.851572    0.587102
  H     -6.178638    0.487732   -1.137764

 Total Charge           Charge          ....    0
 Multiplicity           Mult            ....    1
 Number of Electrons    NEL             ....  202
 Basis Dimension        Dim             ....  334

ORBITAL ENERGIES
----------------

  NO   OCC          E(Eh)            E(eV)
   0   2.0000     -88.040108     -2395.6931
   1   2.0000     -88.034588     -2395.5429
   2   2.0000     -87.982520     -2394.1261
   3   2.0000     -87.980496     -2394.0710
   4   2.0000     -76.425745     -2079.6502
   5   2.0000     -76.421798     -2079.5428
   6   2.0000     -18.797774      -511.5134
   7   2.0000     -18.797387      -511.5029
   8   2.0000     -18.792917      -511.3813
   9   2.0000     -18.786370      -511.2031
  10   2.0000      -9.959785      -271.0195
  11   2.0000      -9.957906      -270.9684
  12   2.0000      -9.955697      -270.9083
  13   2.0000      -9.952485      -270.8209
  14   2.0000      -9.945861      -270.6406
  15   2.0000      -9.892742      -269.1952
  16   2.0000      -9.889001      -269.0934
  17   2.0000      -9.888624      -269.0831
  18   2.0000      -9.879744      -268.8415
  19   2.0000      -7.684551      -209.1073
  20   2.0000      -7.679728      -208.9760
  21   2.0000      -7.627762      -207.5620
  22   2.0000      -7.625886      -207.5109
  23   2.0000      -6.423478      -174.7917
  24   2.0000      -6.419230      -174.6761
  25   2.0000      -5.712247      -155.4381
  26   2.0000      -5.709177      -155.3546
  27   2.0000      -5.707510      -155.3092
  28   2.0000      -5.704303      -155.2220
  29   2.0000      -5.701691      -155.1509
  30   2.0000      -5.696720      -155.0156
  31   2.0000      -5.656743      -153.9278
  32   2.0000      -5.654854      -153.8764
  33   2.0000      -5.648402      -153.7008
  34   2.0000      -5.647793      -153.6843
  35   2.0000      -5.646422      -153.6469
  36   2.0000      -5.646031      -153.6363
  37   2.0000      -4.646628      -126.4412
  38   2.0000      -4.645284      -126.4046
  39   2.0000      -4.643304      -126.3507
  40   2.0000      -4.642156      -126.3195
  41   2.0000      -4.641013      -126.2884
  42   2.0000      -4.639369      -126.2437
  43   2.0000      -0.993096       -27.0235
  44   2.0000      -0.985654       -26.8210
  45   2.0000      -0.951333       -25.8871
  46   2.0000      -0.942165       -25.6376
  47   2.0000      -0.760247       -20.6874
  48   2.0000      -0.722305       -19.6549
  49   2.0000      -0.711072       -19.3493
  50   2.0000      -0.697012       -18.9666
  51   2.0000      -0.689073       -18.7506
  52   2.0000      -0.669134       -18.2081
  53   2.0000      -0.646777       -17.5997
  54   2.0000      -0.636394       -17.3172
  55   2.0000      -0.591087       -16.0843
  56   2.0000      -0.585918       -15.9436
  57   2.0000      -0.575002       -15.6466
  58   2.0000      -0.566765       -15.4224
  59   2.0000      -0.564110       -15.3502
  60   2.0000      -0.514606       -14.0032
  61   2.0000      -0.503805       -13.7092
  62   2.0000      -0.487097       -13.2546
  63   2.0000      -0.476254       -12.9595
  64   2.0000      -0.456127       -12.4118
  65   2.0000      -0.447792       -12.1850
  66   2.0000      -0.442412       -12.0386
  67   2.0000      -0.438232       -11.9249
  68   2.0000      -0.430381       -11.7113
  69   2.0000      -0.413409       -11.2494
  70   2.0000      -0.404918       -11.0184
  71   2.0000      -0.394873       -10.7450
  72   2.0000      -0.386775       -10.5247
  73   2.0000      -0.383379       -10.4323
  74   2.0000      -0.380015       -10.3407
  75   2.0000      -0.372341       -10.1319
  76   2.0000      -0.363509        -9.8916
  77   2.0000      -0.359874        -9.7927
  78   2.0000      -0.356377        -9.6975
  79   2.0000      -0.355723        -9.6797
  80   2.0000      -0.350738        -9.5441
  81   2.0000      -0.348312        -9.4781
  82   2.0000      -0.345310        -9.3964
  83   2.0000      -0.340815        -9.2741
  84   2.0000      -0.331753        -9.0274
  85   2.0000      -0.321801        -8.7566
  86   2.0000      -0.313987        -8.5440
  87   2.0000      -0.304031        -8.2731
  88   2.0000      -0.298752        -8.1295
  89   2.0000      -0.298143        -8.1129
  90   2.0000      -0.286891        -7.8067
  91   2.0000      -0.277155        -7.5418
  92   2.0000      -0.270510        -7.3610
  93   2.0000      -0.262568        -7.1448
  94   2.0000      -0.255193        -6.9441
  95   2.0000      -0.238887        -6.5004
  96   2.0000      -0.215531        -5.8649
  97   2.0000      -0.205998        -5.6055
  98   2.0000      -0.200555        -5.4574
  99   2.0000      -0.197535        -5.3752
 100   2.0000      -0.185556        -5.0492
 101   0.0000      -0.040926        -1.1137
 102   0.0000      -0.023513        -0.6398
 103   0.0000      -0.002770        -0.0754
 104   0.0000       0.006226         0.1694
 105   0.0000       0.017412         0.4738

MULLIKEN ATOMIC CHARGES
-----------------------
   0 C :   -0.279556
   1 C :   -0.029007
   2 O :   -0.385484
   3 P :    0.592574
   4 S :   -0.308145
   5 O :   -0.361572
   6 C :   -0.013562
   7 C :   -0.292343
   8 S :   -0.086512
   9 C :   -0.349315
  10 S :   -0.085901
  11 P :    0.601115
  12 S :   -0.323830
  13 O :   -0.350618
  14 C :   -0.019005
  15 C :   -0.287935
  16 O :   -0.383685
  17 C :   -0.010479
  18 C :   -0.283113
  19 H :    0.117823
  20 H :    0.114545
  21 H :    0.121953
  22 H :    0.115570
  23 H :    0.113112
  24 H :    0.108518
  25 H :    0.104514
  26 H :    0.125429
  27 H :    0.120857
  28 H :    0.110901
  29 H :    0.179349
  30 H :    0.194301
  31 H :    0.116591
  32 H :    0.106785
  33 H :    0.108887
  34 H :    0.114101
  35 H :    0.120638
  36 H :    0.105812
  37 H :    0.104340
  38 H :    0.112993
  39 H :    0.117200
  40 H :    0.122154
Sum of atomic charges:    0.0000000

LOEWDIN ATOMIC CHARGES
----------------------
   0 C :   -0.350317
   1 C :   -0.120865
   2 O :   -0.250320
   3 P :    0.559970
   4 S :   -0.306100
   5 O :   -0.237207
   6 C :   -0.115621
   7 C :   -0.359204
   8 S :    0.076632
   9 C :   -0.478652
  10 S :    0.068836
  11 P :    0.566363
  12 S :   -0.321032
  13 O :   -0.230532
  14 C :   -0.115607
  15 C :   -0.360924
  16 O :   -0.248770
  17 C :   -0.120561
  18 C :   -0.350662
  19 H :    0.126775
  20 H :    0.132358
  21 H :    0.129235
  22 H :    0.113034
  23 H :    0.109426
  24 H :    0.119957
  25 H :    0.105716
  26 H :    0.126768
  27 H :    0.129219
  28 H :    0.130339
  29 H :    0.131138
  30 H :    0.132462
  31 H :    0.107825
  32 H :    0.115026
  33 H :    0.129169
  34 H :    0.126193
  35 H :    0.124262
  36 H :    0.109774
  37 H :    0.109052
  38 H :    0.131424
  39 H :    0.126081
  40 H :    0.129334

  Mayer bond orders larger than 0.100000
B(  0-C ,  1-C ) :   1.1581 B(  0-C , 19-H ) :   0.9504 B(  0-C , 20-H ) :   0.9415
B(  0-C , 21-H ) :   0.9503 B(  1-C ,  2-O ) :   0.9060 B(  1-C , 22-H ) :   0.9274
B(  1-C , 23-H ) :   0.9098 B(  2-O ,  3-P ) :   1.0697 B(  3-P ,  4-S ) :   1.6825
B(  3-P ,  5-O ) :   1.1254 B(  3-P ,  8-S ) :   0.9504 B(  4-S ,  8-S ) :   0.1142
B(  5-O ,  6-C ) :   0.8882 B(  6-C ,  7-C ) :   1.1689 B(  6-C , 24-H ) :   0.9352
B(  6-C , 25-H ) :   0.9089 B(  7-C , 26-H ) :   0.9411 B(  7-C , 27-H ) :   0.9469
B(  7-C , 28-H ) :   0.9394 B(  8-S ,  9-C ) :   0.9997 B(  9-C , 10-S ) :   1.0054
B(  9-C , 29-H ) :   0.9003 B(  9-C , 30-H ) :   0.8867 B( 10-S , 11-P ) :   0.9603
B( 10-S , 12-S ) :   0.1108 B( 11-P , 12-S ) :   1.6348 B( 11-P , 13-O ) :   1.1477
B( 11-P , 16-O ) :   1.0790 B( 13-O , 14-C ) :   0.8880 B( 14-C , 15-C ) :   1.1570
B( 14-C , 31-H ) :   0.9140 B( 14-C , 32-H ) :   0.9317 B( 15-C , 33-H ) :   0.9406
B( 15-C , 34-H ) :   0.9463 B( 15-C , 35-H ) :   0.9407 B( 16-O , 17-C ) :   0.9043
B( 17-C , 18-C ) :   1.1593 B( 17-C , 36-H ) :   0.9103 B( 17-C , 37-H ) :   0.9272
B( 18-C , 38-H ) :   0.9419 B( 18-C , 39-H ) :   0.9506 B( 18-C , 40-H ) :   0.9508

Dispersion correction           -0.063239245
FINAL SINGLE POINT ENERGY     -2929.519455282640

DIPOLE MOMENT
-------------

Method             : SCF
Type of density    : Electron Density
Multiplicity       :   1
Irrep              :   0
Energy             : -2929.6397528024576786 Eh
Relativity type    :
Basis              : AO
                                X                 Y                 Z
Electronic contribution:     -3.688355435     -10.193786011       1.635209951
Nuclear contribution   :      4.218517321      10.297960524      -1.498990316
                        -----------------------------------------
Total Dipole Moment    :      0.530161886       0.104174513       0.136219636
                        -----------------------------------------
Magnitude (a.u.)       :      0.557207092
Magnitude (Debye)      :      1.416307873

Rotational constants in cm-1:             0.013488             0.004521             0.004157
Rotational constants in MHz :           404.352451           135.545289           124.614144

                             ****ORCA TERMINATED NORMALLY****
TOTAL RUN TIME: 0 days 0 hours 0 minutes 20 seconds 471 msec
