                         Program Version 6.0.0  -   RELEASE  -
|  1> ! r2scan-3c def2/J RI DEFGRID2 scfconv6 printgap
|  2> %output
|  3>     printlevel normal
|  4> end
|  5> * xyz 0 1
|  6> C 1.0384443463 -2.9543625883 0.8433407897
|  7> C 2.0801153165 -1.9909896533 1.3763383596
|  8> O 1.7662191236 -0.6329240479 1.0075899795
|  9> P 2.454278314 0.1279898925 -0.2185426946
| 10> S 3.1473590833 -1.0226710688 -1.6364772118
| 11> O 3.6370112883 0.9983661928 0.3839358296
| 12> C 3.5015867157 2.2133681327 1.1566426195
| 13> C 2.7288928792 2.0043587802 2.4421529943
| 14> S 0.9684379957 1.5515303475 -0.7020408839
| 15> C 0.1957583357 0.6288276462 -2.0532721553
| 16> S -0.6080759203 -0.9010774959 -1.5096055934
| 17> P -1.9752973957 -0.0066273429 -0.1674593415
| 18> S -2.7298802601 1.7200117819 -0.7224276468
| 19> O -1.1692645367 -0.0367080694 1.1911733736
| 20> C -1.4265511272 0.9017994154 2.2553260408
| 21> C -2.7733421262 0.6529176624 2.9002099544
| 22> O -3.0350889171 -1.1628363112 0.0778513285
| 23> C -4.0648812369 -1.4630346562 -0.8852966512
| 24> C -5.1422541357 -2.2630187089 -0.1811690774
| 25> H 1.0908970457 -3.0031843273 -0.2423214329
| 26> H 1.2230860811 -3.9423644241 1.252629554
| 27> H 0.0430187414 -2.6231530864 1.1298892512
| 28> H 3.0744324267 -2.2468195344 0.9980457855
| 29> H 2.0913796317 -1.9839965217 2.4677890079
| 30> H 4.5356687035 2.5041946425 1.3485507669
| 31> H 3.0155887788 2.9650707453 0.5290851944
| 32> H 1.7060815764 1.7084133981 2.216971285
| 33> H 3.1984596758 1.2305708478 3.0441297043
| 34> H 2.7129313559 2.934562646 3.0014050379
| 35> H 0.9538334386 0.3367682138 -2.7794150787
| 36> H -0.5444066913 1.297623685 -2.4917148142
| 37> H -0.6048873811 0.7371280256 2.9539768224
| 38> H -1.3720041291 1.9159837753 1.8459981252
| 39> H -2.9005006494 1.3250246785 3.7430068713
| 40> H -3.5656424688 0.8387779101 2.1757603916
| 41> H -2.8431882779 -0.3766120192 3.2410138194
| 42> H -4.4576791299 -0.5204035668 -1.2813685117
| 43> H -3.6131210056 -2.0329465207 -1.7017955155
| 44> H -4.7140250185 -3.1672773638 0.2411823149
| 45> H -5.5844369469 -1.6753204527 0.6182159173
| 46> H -5.9124708611 -2.5298111168 -0.8972762801
| 47> *
| 48>
| 49>                          ****END OF INPUT****

CARTESIAN COORDINATES (ANGSTROEM)
---------------------------------
  C      1.038444   -2.954363    0.843341
  C      2.080115   -1.990990    1.376338
  O      1.766219   -0.632924    1.007590
  P      2.454278    0.127990   -0.218543
  S      3.147359   -1.022671   -1.636477
  O      3.637011    0.998366    0.383936
  C      3.501587    2.213368    1.156643
  C      2.728893    2.004359    2.442153
  S      0.968438    1.551530   -0.702041
  C      0.195758    0.628828   -2.053272
  S     -0.608076   -0.901077   -1.509606
  P     -1.975297   -0.006627   -0.167459
  S     -2.729880    1.720012   -0.722428
  O     -1.169265   -0.036708    1.191173
  C     -1.426551    0.901799    2.255326
  C     -2.773342    0.652918    2.900210
  O     -3.035089   -1.162836    0.077851
  C     -4.064881   -1.463035   -0.885297
  C     -5.142254   -2.263019   -0.181169
  H      1.090897   -3.003184   -0.242321
  H      1.223086   -3.942364    1.252630
  H      0.043019   -2.623153    1.129889
  H      3.074432   -2.246820    0.998046
  H      2.091380   -1.983997    2.467789
  H      4.535669    2.504195    1.348551
  H      3.015589    2.965071    0.529085
  H      1.706082    1.708413    2.216971
  H      3.198460    1.230571    3.044130
  H      2.712931    2.934563    3.001405
  H      0.953833    0.336768   -2.779415
  H     -0.544407    1.297624   -2.491715
  H     -0.604887    0.737128    2.953977
  H     -1.372004    1.915984    1.845998
  H     -2.900501    1.325025    3.743007
  H     -3.565642    0.838778    2.175760
  H     -2.843188   -0.376612    3.241014
  H     -4.457679   -0.520404   -1.281369
  H     -3.613121   -2.032947   -1.701796
  H     -4.714025   -3.167277    0.241182
  H     -5.584437   -1.675320    0.618216
  H     -5.912471   -2.529811   -0.897276

 Total Charge           Charge          ....    0
 Multiplicity           Mult            ....    1
 Number of Electrons    NEL             ....  202
 Basis Dimension        Dim             ....  539

ORBITAL ENERGIES
----------------

  NO   OCC          E(Eh)            E(eV)
   0   2.0000     -88.577062     -2410.3044
   1   2.0000     -88.575189     -2410.2534
   2   2.0000     -88.522281     -2408.8137
   3   2.0000     -88.515835     -2408.6383
   4   2.0000     -76.914902     -2092.9609
   5   2.0000     -76.912186     -2092.8870
   6   2.0000     -18.994904      -516.8776
   7   2.0000     -18.990934      -516.7696
   8   2.0000     -18.988962      -516.7159
   9   2.0000     -18.983142      -516.5576
  10   2.0000     -10.107453      -275.0378
  11   2.0000     -10.105959      -274.9971
  12   2.0000     -10.100800      -274.8567
  13   2.0000     -10.100054      -274.8364
  14   2.0000     -10.093848      -274.6676
  15   2.0000     -10.037554      -273.1357
  16   2.0000     -10.035519      -273.0804
  17   2.0000     -10.030639      -272.9476
  18   2.0000     -10.018756      -272.6242
  19   2.0000      -7.871610      -214.1974
  20   2.0000      -7.869543      -214.1411
  21   2.0000      -7.817055      -212.7129
  22   2.0000      -7.810755      -212.5414
  23   2.0000      -6.593561      -179.4199
  24   2.0000      -6.590336      -179.3321
  25   2.0000      -5.818523      -158.3300
  26   2.0000      -5.816434      -158.2732
  27   2.0000      -5.815458      -158.2467
  28   2.0000      -5.813406      -158.1908
  29   2.0000      -5.808634      -158.0610
  30   2.0000      -5.806626      -158.0063
  31   2.0000      -5.764664      -156.8645
  32   2.0000      -5.758566      -156.6985
  33   2.0000      -5.757326      -156.6648
  34   2.0000      -5.757101      -156.6587
  35   2.0000      -5.751290      -156.5006
  36   2.0000      -5.750307      -156.4738
  37   2.0000      -4.738909      -128.9523
  38   2.0000      -4.738495      -128.9410
  39   2.0000      -4.737402      -128.9113
  40   2.0000      -4.736144      -128.8770
  41   2.0000      -4.735072      -128.8479
  42   2.0000      -4.734018      -128.8192
  43   2.0000      -1.052431       -28.6381
  44   2.0000      -1.041983       -28.3538
  45   2.0000      -1.013295       -27.5732
  46   2.0000      -1.004963       -27.3464
  47   2.0000      -0.804265       -21.8852
  48   2.0000      -0.760656       -20.6985
  49   2.0000      -0.752234       -20.4693
  50   2.0000      -0.735195       -20.0057
  51   2.0000      -0.732636       -19.9361
  52   2.0000      -0.709113       -19.2960
  53   2.0000      -0.685061       -18.6415
  54   2.0000      -0.670668       -18.2498
  55   2.0000      -0.632494       -17.2110
  56   2.0000      -0.622762       -16.9462
  57   2.0000      -0.611359       -16.6359
  58   2.0000      -0.601499       -16.3676
  59   2.0000      -0.591099       -16.0846
  60   2.0000      -0.531203       -14.4548
  61   2.0000      -0.521046       -14.1784
  62   2.0000      -0.498892       -13.5755
  63   2.0000      -0.493847       -13.4383
  64   2.0000      -0.476020       -12.9532
  65   2.0000      -0.466506       -12.6943
  66   2.0000      -0.457851       -12.4588
  67   2.0000      -0.454528       -12.3683
  68   2.0000      -0.447732       -12.1834
  69   2.0000      -0.431146       -11.7321
  70   2.0000      -0.422863       -11.5067
  71   2.0000      -0.417053       -11.3486
  72   2.0000      -0.411902       -11.2084
  73   2.0000      -0.401465       -10.9244
  74   2.0000      -0.394224       -10.7274
  75   2.0000      -0.389747       -10.6056
  76   2.0000      -0.383499       -10.4355
  77   2.0000      -0.375407       -10.2153
  78   2.0000      -0.371105       -10.0983
  79   2.0000      -0.369605       -10.0575
  80   2.0000      -0.363862        -9.9012
  81   2.0000      -0.361089        -9.8257
  82   2.0000      -0.360896        -9.8205
  83   2.0000      -0.354847        -9.6559
  84   2.0000      -0.349267        -9.5040
  85   2.0000      -0.333707        -9.0806
  86   2.0000      -0.323260        -8.7964
  87   2.0000      -0.318475        -8.6662
  88   2.0000      -0.315052        -8.5730
  89   2.0000      -0.303091        -8.2475
  90   2.0000      -0.293532        -7.9874
  91   2.0000      -0.293097        -7.9756
  92   2.0000      -0.287755        -7.8302
  93   2.0000      -0.279718        -7.6115
  94   2.0000      -0.272258        -7.4085
  95   2.0000      -0.244159        -6.6439
  96   2.0000      -0.229991        -6.2584
  97   2.0000      -0.227800        -6.1988
  98   2.0000      -0.219527        -5.9736
  99   2.0000      -0.212675        -5.7872
 100   2.0000      -0.208695        -5.6789
 101   0.0000      -0.048637        -1.3235
 102   0.0000      -0.026611        -0.7241
 103   0.0000      -0.000121        -0.0033
 104   0.0000       0.005925         0.1612
 105   0.0000       0.009946         0.2707

MULLIKEN ATOMIC CHARGES
-----------------------
   0 C :   -0.468311
   1 C :   -0.133738
   2 O :   -0.239097
   3 P :    0.645615
   4 S :   -0.456594
   5 O :   -0.261806
   6 C :   -0.172581
   7 C :   -0.427332
   8 S :   -0.160926
   9 C :   -0.240794
  10 S :   -0.131677
  11 P :    0.701880
  12 S :   -0.488715
  13 O :   -0.250103
  14 C :   -0.165127
  15 C :   -0.453100
  16 O :   -0.286306
  17 C :   -0.157940
  18 C :   -0.440002
  19 H :    0.180494
  20 H :    0.139172
  21 H :    0.162299
  22 H :    0.161307
  23 H :    0.143581
  24 H :    0.156169
  25 H :    0.164814
  26 H :    0.160922
  27 H :    0.156049
  28 H :    0.152555
  29 H :    0.210619
  30 H :    0.211413
  31 H :    0.153324
  32 H :    0.178488
  33 H :    0.147135
  34 H :    0.171746
  35 H :    0.155657
  36 H :    0.170892
  37 H :    0.153278
  38 H :    0.154125
  39 H :    0.154777
  40 H :    0.147840
Sum of atomic charges:   -0.0000000

LOEWDIN ATOMIC CHARGES
----------------------
   0 C :   -0.406763
   1 C :    0.022740
   2 O :   -0.685597
   3 P :    0.388077
   4 S :   -0.102618
   5 O :   -0.662508
   6 C :    0.020709
   7 C :   -0.401044
   8 S :    0.165677
   9 C :   -0.417370
  10 S :    0.172442
  11 P :    0.374215
  12 S :   -0.132922
  13 O :   -0.667735
  14 C :    0.014392
  15 C :   -0.399778
  16 O :   -0.664629
  17 C :    0.019728
  18 C :   -0.385475
  19 H :    0.167247
  20 H :    0.155174
  21 H :    0.163582
  22 H :    0.178298
  23 H :    0.174611
  24 H :    0.183862
  25 H :    0.174950
  26 H :    0.165310
  27 H :    0.161668
  28 H :    0.160260
  29 H :    0.192026
  30 H :    0.190260
  31 H :    0.179749
  32 H :    0.181543
  33 H :    0.159549
  34 H :    0.166429
  35 H :    0.160333
  36 H :    0.180629
  37 H :    0.172456
  38 H :    0.160122
  39 H :    0.160032
  40 H :    0.160370

  Mayer bond orders larger than 0.100000
B(  0-C ,  1-C ) :   0.9438 B(  0-C , 19-H ) :   0.9622 B(  0-C , 20-H ) :   0.9621
B(  0-C , 21-H ) :   0.9690 B(  1-C ,  2-O ) :   0.7761 B(  1-C , 22-H ) :   0.9630
B(  1-C , 23-H ) :   0.9643 B(  2-O ,  3-P ) :   1.0641 B(  3-P ,  4-S ) :   1.8305
B(  3-P ,  5-O ) :   1.1389 B(  3-P ,  8-S ) :   1.0390 B(  5-O ,  6-C ) :   0.8034
B(  6-C ,  7-C ) :   0.9264 B(  6-C , 24-H ) :   0.9556 B(  6-C , 25-H ) :   0.9689
B(  7-C , 26-H ) :   0.9565 B(  7-C , 27-H ) :   0.9703 B(  7-C , 28-H ) :   0.9632
B(  8-S ,  9-C ) :   0.9071 B(  9-C , 10-S ) :   0.9051 B(  9-C , 29-H ) :   0.9104
B(  9-C , 30-H ) :   0.9118 B( 10-S , 11-P ) :   1.0623 B( 11-P , 12-S ) :   1.7342
B( 11-P , 13-O ) :   1.1593 B( 11-P , 16-O ) :   1.0868 B( 13-O , 14-C ) :   0.7787
B( 14-C , 15-C ) :   0.9272 B( 14-C , 31-H ) :   0.9596 B( 14-C , 32-H ) :   0.9619
B( 15-C , 33-H ) :   0.9622 B( 15-C , 34-H ) :   0.9598 B( 15-C , 35-H ) :   0.9727
B( 16-O , 17-C ) :   0.7792 B( 17-C , 18-C ) :   0.9569 B( 17-C , 36-H ) :   0.9520
B( 17-C , 37-H ) :   0.9453 B( 18-C , 38-H ) :   0.9718 B( 18-C , 39-H ) :   0.9714
B( 18-C , 40-H ) :   0.9643

Dispersion correction           -0.022149982
FINAL SINGLE POINT ENERGY     -2932.460397323889

DIPOLE MOMENT
-------------

Method             : SCF
Type of density    : Electron Density
Multiplicity       :   1
Irrep              :   0
Energy             : -2932.4845952825171480 Eh
Relativity type    :
Basis              : AO
                                X                 Y                 Z
Electronic contribution:     11.425732086       5.962471649     -19.019708527
Nuclear contribution   :    -12.128906512      -6.077578404      20.606387029
                        -----------------------------------------
Total Dipole Moment    :     -0.703174426      -0.115106755       1.586678503
                        -----------------------------------------
Magnitude (a.u.)       :      1.739325303
Magnitude (Debye)      :      4.421013576

Rotational constants in cm-1:             0.012137             0.005426             0.005065
Rotational constants in MHz :           363.856774           162.659386           151.849547

                             ****ORCA TERMINATED NORMALLY****
TOTAL RUN TIME: 0 days 0 hours 1 minutes 23 seconds 490 msec
