                         Program Version 6.0.0  -   RELEASE  -
|  1> ! r2scan-3c def2/J RI DEFGRID2 scfconv6 printgap
|  2> %output
|  3>     printlevel normal
|  4> end
|  5> %cpcm
|  6>     smd true
|  7>     smdsolvent "water"
|  8> end
|  9> * xyz 0 1
| 10> C 1.0384443463 -2.9543625883 0.8433407897
| 11> C 2.0801153165 -1.9909896533 1.3763383596
| 12> O 1.7662191236 -0.6329240479 1.0075899795
| 13> P 2.454278314 0.1279898925 -0.2185426946
| 14> S 3.1473590833 -1.0226710688 -1.6364772118
| 15> O 3.6370112883 0.9983661928 0.3839358296
| 16> C 3.5015867157 2.2133681327 1.1566426195
| 17> C 2.7288928792 2.0043587802 2.4421529943
| 18> S 0.9684379957 1.5515303475 -0.7020408839
| 19> C 0.1957583357 0.6288276462 -2.0532721553
| 20> S -0.6080759203 -0.9010774959 -1.5096055934
| 21> P -1.9752973957 -0.0066273429 -0.1674593415
| 22> S -2.7298802601 1.7200117819 -0.7224276468
| 23> O -1.1692645367 -0.0367080694 1.1911733736
| 24> C -1.4265511272 0.9017994154 2.2553260408
| 25> C -2.7733421262 0.6529176624 2.9002099544
| 26> O -3.0350889171 -1.1628363112 0.0778513285
| 27> C -4.0648812369 -1.4630346562 -0.8852966512
| 28> C -5.1422541357 -2.2630187089 -0.1811690774
| 29> H 1.0908970457 -3.0031843273 -0.2423214329
| 30> H 1.2230860811 -3.9423644241 1.252629554
| 31> H 0.0430187414 -2.6231530864 1.1298892512
| 32> H 3.0744324267 -2.2468195344 0.9980457855
| 33> H 2.0913796317 -1.9839965217 2.4677890079
| 34> H 4.5356687035 2.5041946425 1.3485507669
| 35> H 3.0155887788 2.9650707453 0.5290851944
| 36> H 1.7060815764 1.7084133981 2.216971285
| 37> H 3.1984596758 1.2305708478 3.0441297043
| 38> H 2.7129313559 2.934562646 3.0014050379
| 39> H 0.9538334386 0.3367682138 -2.7794150787
| 40> H -0.5444066913 1.297623685 -2.4917148142
| 41> H -0.6048873811 0.7371280256 2.9539768224
| 42> H -1.3720041291 1.9159837753 1.8459981252
| 43> H -2.9005006494 1.3250246785 3.7430068713
| 44> H -3.5656424688 0.8387779101 2.1757603916
| 45> H -2.8431882779 -0.3766120192 3.2410138194
| 46> H -4.4576791299 -0.5204035668 -1.2813685117
| 47> H -3.6131210056 -2.0329465207 -1.7017955155
| 48> H -4.7140250185 -3.1672773638 0.2411823149
| 49> H -5.5844369469 -1.6753204527 0.6182159173
| 50> H -5.9124708611 -2.5298111168 -0.8972762801
| 51> *
| 52>
| 53>                          ****END OF INPUT****

CARTESIAN COORDINATES (ANGSTROEM)
---------------------------------
  C      1.038444   -2.954363    0.843341
  C      2.080115   -1.990990    1.376338
  O      1.766219   -0.632924    1.007590
  P      2.454278    0.127990   -0.218543
  S      3.147359   -1.022671   -1.636477
  O      3.637011    0.998366    0.383936
  C      3.501587    2.213368    1.156643
  C      2.728893    2.004359    2.442153
  S      0.968438    1.551530   -0.702041
  C      0.195758    0.628828   -2.053272
  S     -0.608076   -0.901077   -1.509606
  P     -1.975297   -0.006627   -0.167459
  S     -2.729880    1.720012   -0.722428
  O     -1.169265   -0.036708    1.191173
  C     -1.426551    0.901799    2.255326
  C     -2.773342    0.652918    2.900210
  O     -3.035089   -1.162836    0.077851
  C     -4.064881   -1.463035   -0.885297
  C     -5.142254   -2.263019   -0.181169
  H      1.090897   -3.003184   -0.242321
  H      1.223086   -3.942364    1.252630
  H      0.043019   -2.623153    1.129889
  H      3.074432   -2.246820    0.998046
  H      2.091380   -1.983997    2.467789
  H      4.535669    2.504195    1.348551
  H      3.015589    2.965071    0.529085
  H      1.706082    1.708413    2.216971
  H      3.198460    1.230571    3.044130
  H      2.712931    2.934563    3.001405
  H      0.953833    0.336768   -2.779415
  H     -0.544407    1.297624   -2.491715
  H     -0.604887    0.737128    2.953977
  H     -1.372004    1.915984    1.845998
  H     -2.900501    1.325025    3.743007
  H     -3.565642    0.838778    2.175760
  H     -2.843188   -0.376612    3.241014
  H     -4.457679   -0.520404   -1.281369
  H     -3.613121   -2.032947   -1.701796
  H     -4.714025   -3.167277    0.241182
  H     -5.584437   -1.675320    0.618216
  H     -5.912471   -2.529811   -0.897276

 Total Charge           Charge          ....    0
 Multiplicity           Mult            ....    1
 Number of Electrons    NEL             ....  202
 Basis Dimension        Dim             ....  539

ORBITAL ENERGIES
----------------

  NO   OCC          E(Eh)            E(eV)
   0   2.0000     -88.581311     -2410.4200
   1   2.0000     -88.578553     -2410.3450
   2   2.0000     -88.528158     -2408.9736
   3   2.0000     -88.527410     -2408.9533
   4   2.0000     -76.919782     -2093.0937
   5   2.0000     -76.918938     -2093.0707
   6   2.0000     -18.995884      -516.9043
   7   2.0000     -18.993187      -516.8309
   8   2.0000     -18.992934      -516.8240
   9   2.0000     -18.987824      -516.6850
  10   2.0000     -10.106812      -275.0203
  11   2.0000     -10.093811      -274.6666
  12   2.0000     -10.090307      -274.5712
  13   2.0000     -10.089785      -274.5570
  14   2.0000     -10.087698      -274.5002
  15   2.0000     -10.021002      -272.6853
  16   2.0000     -10.019735      -272.6508
  17   2.0000     -10.018551      -272.6186
  18   2.0000     -10.014230      -272.5011
  19   2.0000      -7.875810      -214.3117
  20   2.0000      -7.872954      -214.2340
  21   2.0000      -7.823209      -212.8803
  22   2.0000      -7.822693      -212.8663
  23   2.0000      -6.597967      -179.5398
  24   2.0000      -6.597628      -179.5306
  25   2.0000      -5.822725      -158.4444
  26   2.0000      -5.819816      -158.3652
  27   2.0000      -5.819640      -158.3604
  28   2.0000      -5.816806      -158.2833
  29   2.0000      -5.812862      -158.1760
  30   2.0000      -5.810079      -158.1003
  31   2.0000      -5.770768      -157.0306
  32   2.0000      -5.770389      -157.0203
  33   2.0000      -5.763467      -156.8319
  34   2.0000      -5.763268      -156.8265
  35   2.0000      -5.763157      -156.8235
  36   2.0000      -5.762359      -156.8018
  37   2.0000      -4.743719      -129.0832
  38   2.0000      -4.742931      -129.0617
  39   2.0000      -4.742679      -129.0549
  40   2.0000      -4.742568      -129.0518
  41   2.0000      -4.741770      -129.0301
  42   2.0000      -4.741535      -129.0237
  43   2.0000      -1.053747       -28.6739
  44   2.0000      -1.045773       -28.4569
  45   2.0000      -1.013931       -27.5905
  46   2.0000      -1.008327       -27.4380
  47   2.0000      -0.806487       -21.9456
  48   2.0000      -0.756993       -20.5988
  49   2.0000      -0.745031       -20.2733
  50   2.0000      -0.726525       -19.7698
  51   2.0000      -0.724163       -19.7055
  52   2.0000      -0.708447       -19.2778
  53   2.0000      -0.688256       -18.7284
  54   2.0000      -0.676337       -18.4041
  55   2.0000      -0.629952       -17.1419
  56   2.0000      -0.620127       -16.8745
  57   2.0000      -0.605661       -16.4809
  58   2.0000      -0.592355       -16.1188
  59   2.0000      -0.589036       -16.0285
  60   2.0000      -0.527144       -14.3443
  61   2.0000      -0.518333       -14.1046
  62   2.0000      -0.495484       -13.4828
  63   2.0000      -0.490153       -13.3377
  64   2.0000      -0.474860       -12.9216
  65   2.0000      -0.461725       -12.5642
  66   2.0000      -0.453934       -12.3522
  67   2.0000      -0.446794       -12.1579
  68   2.0000      -0.442394       -12.0382
  69   2.0000      -0.430933       -11.7263
  70   2.0000      -0.418786       -11.3957
  71   2.0000      -0.412322       -11.2198
  72   2.0000      -0.408034       -11.1032
  73   2.0000      -0.399540       -10.8720
  74   2.0000      -0.390668       -10.6306
  75   2.0000      -0.386204       -10.5091
  76   2.0000      -0.383750       -10.4424
  77   2.0000      -0.370625       -10.0852
  78   2.0000      -0.362908        -9.8752
  79   2.0000      -0.358617        -9.7585
  80   2.0000      -0.354181        -9.6377
  81   2.0000      -0.353154        -9.6098
  82   2.0000      -0.352658        -9.5963
  83   2.0000      -0.347876        -9.4662
  84   2.0000      -0.346626        -9.4322
  85   2.0000      -0.328418        -8.9367
  86   2.0000      -0.317948        -8.6518
  87   2.0000      -0.314675        -8.5627
  88   2.0000      -0.312391        -8.5006
  89   2.0000      -0.300574        -8.1790
  90   2.0000      -0.295235        -8.0338
  91   2.0000      -0.291842        -7.9414
  92   2.0000      -0.286183        -7.7874
  93   2.0000      -0.279124        -7.5953
  94   2.0000      -0.273464        -7.4413
  95   2.0000      -0.247604        -6.7377
  96   2.0000      -0.237448        -6.4613
  97   2.0000      -0.234921        -6.3925
  98   2.0000      -0.227314        -6.1855
  99   2.0000      -0.221903        -6.0383
 100   2.0000      -0.219174        -5.9640
 101   0.0000      -0.053050        -1.4436
 102   0.0000      -0.032811        -0.8928
 103   0.0000      -0.003110        -0.0846
 104   0.0000       0.001306         0.0355
 105   0.0000       0.008582         0.2335

MULLIKEN ATOMIC CHARGES
-----------------------
   0 C :   -0.491821
   1 C :   -0.130158
   2 O :   -0.260479
   3 P :    0.659912
   4 S :   -0.513928
   5 O :   -0.299814
   6 C :   -0.166658
   7 C :   -0.460078
   8 S :   -0.164950
   9 C :   -0.252625
  10 S :   -0.142796
  11 P :    0.732492
  12 S :   -0.530762
  13 O :   -0.283991
  14 C :   -0.150720
  15 C :   -0.493702
  16 O :   -0.314024
  17 C :   -0.149370
  18 C :   -0.482928
  19 H :    0.171835
  20 H :    0.164951
  21 H :    0.164081
  22 H :    0.167616
  23 H :    0.174452
  24 H :    0.179928
  25 H :    0.176806
  26 H :    0.161729
  27 H :    0.171725
  28 H :    0.177613
  29 H :    0.230605
  30 H :    0.235099
  31 H :    0.180761
  32 H :    0.180354
  33 H :    0.173009
  34 H :    0.169080
  35 H :    0.170325
  36 H :    0.172549
  37 H :    0.171767
  38 H :    0.166108
  39 H :    0.166226
  40 H :    0.169782
Sum of atomic charges:   -0.0000000

LOEWDIN ATOMIC CHARGES
----------------------
   0 C :   -0.409148
   1 C :    0.027870
   2 O :   -0.695133
   3 P :    0.389902
   4 S :   -0.144332
   5 O :   -0.683179
   6 C :    0.027089
   7 C :   -0.400744
   8 S :    0.166788
   9 C :   -0.412088
  10 S :    0.166254
  11 P :    0.378384
  12 S :   -0.159286
  13 O :   -0.684084
  14 C :    0.020478
  15 C :   -0.402949
  16 O :   -0.676750
  17 C :    0.024376
  18 C :   -0.389120
  19 H :    0.162132
  20 H :    0.164428
  21 H :    0.163207
  22 H :    0.180725
  23 H :    0.187546
  24 H :    0.194172
  25 H :    0.180396
  26 H :    0.164249
  27 H :    0.165668
  28 H :    0.170617
  29 H :    0.197867
  30 H :    0.197609
  31 H :    0.191337
  32 H :    0.182891
  33 H :    0.169195
  34 H :    0.162993
  35 H :    0.164184
  36 H :    0.181649
  37 H :    0.179811
  38 H :    0.163371
  39 H :    0.162665
  40 H :    0.168963

  Mayer bond orders larger than 0.100000
B(  0-C ,  1-C ) :   0.9333 B(  0-C , 19-H ) :   0.9647 B(  0-C , 20-H ) :   0.9583
B(  0-C , 21-H ) :   0.9669 B(  1-C ,  2-O ) :   0.7630 B(  1-C , 22-H ) :   0.9611
B(  1-C , 23-H ) :   0.9545 B(  2-O ,  3-P ) :   1.0699 B(  3-P ,  4-S ) :   1.8025
B(  3-P ,  5-O ) :   1.1477 B(  3-P ,  8-S ) :   1.0591 B(  5-O ,  6-C ) :   0.7912
B(  6-C ,  7-C ) :   0.9156 B(  6-C , 24-H ) :   0.9452 B(  6-C , 25-H ) :   0.9589
B(  7-C , 26-H ) :   0.9534 B(  7-C , 27-H ) :   0.9692 B(  7-C , 28-H ) :   0.9566
B(  8-S ,  9-C ) :   0.8934 B(  9-C , 10-S ) :   0.8954 B(  9-C , 29-H ) :   0.9050
B(  9-C , 30-H ) :   0.9053 B( 10-S , 11-P ) :   1.0750 B( 11-P , 12-S ) :   1.6999
B( 11-P , 13-O ) :   1.1637 B( 11-P , 16-O ) :   1.0936 B( 13-O , 14-C ) :   0.7686
B( 14-C , 15-C ) :   0.9144 B( 14-C , 31-H ) :   0.9487 B( 14-C , 32-H ) :   0.9575
B( 15-C , 33-H ) :   0.9563 B( 15-C , 34-H ) :   0.9599 B( 15-C , 35-H ) :   0.9711
B( 16-O , 17-C ) :   0.7724 B( 17-C , 18-C ) :   0.9524 B( 17-C , 36-H ) :   0.9486
B( 17-C , 37-H ) :   0.9368 B( 18-C , 38-H ) :   0.9691 B( 18-C , 39-H ) :   0.9690
B( 18-C , 40-H ) :   0.9584

Dispersion correction           -0.022149982
FINAL SINGLE POINT ENERGY     -2932.470930337135

DIPOLE MOMENT
-------------

Method             : SCF
Type of density    : Electron Density
Multiplicity       :   1
Irrep              :   0
Energy             : -2932.4951282957631520 Eh
Relativity type    :
Basis              : AO
                                X                 Y                 Z
Electronic contribution:     11.228283789       6.040525964     -18.501946808
Nuclear contribution   :    -12.128906512      -6.077578404      20.606387029
                        -----------------------------------------
Total Dipole Moment    :     -0.900622723      -0.037052440       2.104440222
                        -----------------------------------------
Magnitude (a.u.)       :      2.289358604
Magnitude (Debye)      :      5.819087121

Rotational constants in cm-1:             0.012137             0.005426             0.005065
Rotational constants in MHz :           363.856774           162.659386           151.849547

                             ****ORCA TERMINATED NORMALLY****
TOTAL RUN TIME: 0 days 0 hours 1 minutes 53 seconds 900 msec
