                         Program Version 6.0.0  -   RELEASE  -
|  1> ! wb97x-v def2-tzvp def2/J RIJCOSX DEFGRID2 scfconv7 GCP(DFT/TZ) printgap
|  2> %output
|  3>     printlevel normal
|  4> end
|  5> * xyz 0 1
|  6> C -2.403750573677186 0.03637420021605346 -3.9286721758166637e-05
|  7> C -0.905092457399568 0.011297203357776418 7.830642399789499e-05
|  8> C -0.18146340722586504 1.2092471381918544 2.33694488397364e-05
|  9> C 1.2042005378572163 1.1706677062185693 -0.00019226465095939542
| 10> C 1.8395288906101468 -0.06875557345451408 -0.00028619478049972554
| 11> C 1.048352115706579 -1.2070339033166173 -0.00010760422597784415
| 12> N -0.29504505689267013 -1.1865273841132216 2.568360931044509e-05
| 13> H -2.7802903908486396 0.5653121183437436 -0.8822461433533777
| 14> H -2.8119993418314664 -0.9753933953130364 0.0035273173454725324
| 15> H -2.780553603508479 0.5718679734542077 0.8780519756737147
| 16> H -0.7118240662557263 2.156657479351984 0.00011264480356825676
| 17> H 1.7813397483128635 2.09012344652065 -0.00030851383320360974
| 18> H 2.9208679713165018 -0.15136417279044667 -0.0004188320417109368
| 19> H 1.510376615626149 -2.1922043137617666 -0.00023511034643306305
| 20> *
| 21>
| 22>                          ****END OF INPUT****

CARTESIAN COORDINATES (ANGSTROEM)
---------------------------------
  C     -2.403751    0.036374   -0.000039
  C     -0.905092    0.011297    0.000078
  C     -0.181463    1.209247    0.000023
  C      1.204201    1.170668   -0.000192
  C      1.839529   -0.068756   -0.000286
  C      1.048352   -1.207034   -0.000108
  N     -0.295045   -1.186527    0.000026
  H     -2.780290    0.565312   -0.882246
  H     -2.811999   -0.975393    0.003527
  H     -2.780554    0.571868    0.878052
  H     -0.711824    2.156657    0.000113
  H      1.781340    2.090123   -0.000309
  H      2.920868   -0.151364   -0.000419
  H      1.510377   -2.192204   -0.000235

 Total Charge           Charge          ....    0
 Multiplicity           Mult            ....    1
 Number of Electrons    NEL             ....   50
 Basis Dimension        Dim             ....  259

ORBITAL ENERGIES
----------------

  NO   OCC          E(Eh)            E(eV)
   0   2.0000     -16.521603      -449.5757
   1   2.0000     -12.093125      -329.0707
   2   2.0000     -12.082699      -328.7870
   3   2.0000     -12.070664      -328.4595
   4   2.0000     -12.056092      -328.0629
   5   2.0000     -12.055681      -328.0518
   6   2.0000     -12.041531      -327.6667
   7   2.0000      -1.515418       -41.2366
   8   2.0000      -1.343201       -36.5504
   9   2.0000      -1.312834       -35.7240
  10   2.0000      -1.213195       -33.0127
  11   2.0000      -1.148957       -31.2647
  12   2.0000      -1.117890       -30.4193
  13   2.0000      -0.996775       -27.1236
  14   2.0000      -0.969231       -26.3741
  15   2.0000      -0.922356       -25.0986
  16   2.0000      -0.880617       -23.9628
  17   2.0000      -0.873924       -23.7807
  18   2.0000      -0.854884       -23.2626
  19   2.0000      -0.834497       -22.7078
  20   2.0000      -0.820062       -22.3150
  21   2.0000      -0.805176       -21.9100
  22   2.0000      -0.760839       -20.7035
  23   2.0000      -0.697380       -18.9767
  24   2.0000      -0.645094       -17.5539
  25   0.0000      -0.288838        -7.8597
  26   0.0000      -0.245387        -6.6773
  27   0.0000      -0.095207        -2.5907
  28   0.0000      -0.042795        -1.1645
  29   0.0000      -0.037894        -1.0312

MULLIKEN ATOMIC CHARGES
-----------------------
   0 C :   -0.366493
   1 C :    0.175833
   2 C :   -0.180490
   3 C :   -0.107578
   4 C :   -0.103064
   5 C :   -0.053299
   6 N :   -0.238349
   7 H :    0.121317
   8 H :    0.136743
   9 H :    0.121293
  10 H :    0.122301
  11 H :    0.128309
  12 H :    0.123698
  13 H :    0.119780
Sum of atomic charges:   -0.0000000

LOEWDIN ATOMIC CHARGES
----------------------
   0 C :   -0.254832
   1 C :   -0.234257
   2 C :   -0.127017
   3 C :   -0.118743
   4 C :   -0.160195
   5 C :   -0.197870
   6 N :    0.139691
   7 H :    0.128378
   8 H :    0.129269
   9 H :    0.128320
  10 H :    0.145601
  11 H :    0.144223
  12 H :    0.142599
  13 H :    0.134833

  Mayer bond orders larger than 0.100000
B(  0-C ,  1-C ) :   0.9273 B(  0-C ,  7-H ) :   0.9725 B(  0-C ,  8-H ) :   0.9919
B(  0-C ,  9-H ) :   0.9729 B(  1-C ,  2-C ) :   1.3755 B(  1-C ,  6-N ) :   1.5031
B(  2-C ,  3-C ) :   1.4792 B(  2-C , 10-H ) :   0.9644 B(  3-C ,  4-C ) :   1.4228
B(  3-C , 11-H ) :   0.9652 B(  4-C ,  5-C ) :   1.4248 B(  4-C , 12-H ) :   0.9633
B(  5-C ,  6-N ) :   1.4958 B(  5-C , 13-H ) :   0.9866

FINAL SINGLE POINT ENERGY      -287.613238087551

DIPOLE MOMENT
-------------

Method             : SCF
Type of density    : Electron Density
Multiplicity       :   1
Irrep              :   0
Energy             :  -287.6207196105514754 Eh
Relativity type    :
Basis              : AO
                                X                 Y                 Z
Electronic contribution:      2.977295519      -1.253784150       0.000633295
Nuclear contribution   :     -2.710272301       1.980481411      -0.000896330
                        -----------------------------------------
Total Dipole Moment    :      0.267023218       0.726697261      -0.000263035
                        -----------------------------------------
Magnitude (a.u.)       :      0.774203059
Magnitude (Debye)      :      1.967867788

Rotational constants in cm-1:             0.190613             0.087871             0.060823
Rotational constants in MHz :          5714.439104          2634.304882          1823.414639

                             ****ORCA TERMINATED NORMALLY****
TOTAL RUN TIME: 0 days 0 hours 1 minutes 53 seconds 246 msec
