                         Program Version 6.0.0  -   RELEASE  -
|  1> ! wb97x-v def2-tzvp def2/J RIJCOSX DEFGRID2 scfconv7 GCP(DFT/TZ) printgap
|  2> %output
|  3>     printlevel normal
|  4> end
|  5> %cpcm
|  6>     smd true
|  7>     smdsolvent "water"
|  8> end
|  9> * xyz 0 1
| 10> C -2.403750573677186 0.03637420021605346 -3.9286721758166637e-05
| 11> C -0.905092457399568 0.011297203357776418 7.830642399789499e-05
| 12> C -0.18146340722586504 1.2092471381918544 2.33694488397364e-05
| 13> C 1.2042005378572163 1.1706677062185693 -0.00019226465095939542
| 14> C 1.8395288906101468 -0.06875557345451408 -0.00028619478049972554
| 15> C 1.048352115706579 -1.2070339033166173 -0.00010760422597784415
| 16> N -0.29504505689267013 -1.1865273841132216 2.568360931044509e-05
| 17> H -2.7802903908486396 0.5653121183437436 -0.8822461433533777
| 18> H -2.8119993418314664 -0.9753933953130364 0.0035273173454725324
| 19> H -2.780553603508479 0.5718679734542077 0.8780519756737147
| 20> H -0.7118240662557263 2.156657479351984 0.00011264480356825676
| 21> H 1.7813397483128635 2.09012344652065 -0.00030851383320360974
| 22> H 2.9208679713165018 -0.15136417279044667 -0.0004188320417109368
| 23> H 1.510376615626149 -2.1922043137617666 -0.00023511034643306305
| 24> *
| 25>
| 26>                          ****END OF INPUT****

CARTESIAN COORDINATES (ANGSTROEM)
---------------------------------
  C     -2.403751    0.036374   -0.000039
  C     -0.905092    0.011297    0.000078
  C     -0.181463    1.209247    0.000023
  C      1.204201    1.170668   -0.000192
  C      1.839529   -0.068756   -0.000286
  C      1.048352   -1.207034   -0.000108
  N     -0.295045   -1.186527    0.000026
  H     -2.780290    0.565312   -0.882246
  H     -2.811999   -0.975393    0.003527
  H     -2.780554    0.571868    0.878052
  H     -0.711824    2.156657    0.000113
  H      1.781340    2.090123   -0.000309
  H      2.920868   -0.151364   -0.000419
  H      1.510377   -2.192204   -0.000235

 Total Charge           Charge          ....    0
 Multiplicity           Mult            ....    1
 Number of Electrons    NEL             ....   50
 Basis Dimension        Dim             ....  259

ORBITAL ENERGIES
----------------

  NO   OCC          E(Eh)            E(eV)
   0   2.0000     -16.525012      -449.6684
   1   2.0000     -12.091765      -329.0337
   2   2.0000     -12.080474      -328.7264
   3   2.0000     -12.064233      -328.2845
   4   2.0000     -12.050200      -327.9026
   5   2.0000     -12.049719      -327.8895
   6   2.0000     -12.034083      -327.4640
   7   2.0000      -1.518028       -41.3077
   8   2.0000      -1.339242       -36.4426
   9   2.0000      -1.310294       -35.6549
  10   2.0000      -1.207765       -32.8650
  11   2.0000      -1.146563       -31.1996
  12   2.0000      -1.113896       -30.3107
  13   2.0000      -0.993227       -27.0271
  14   2.0000      -0.963674       -26.2229
  15   2.0000      -0.915057       -24.9000
  16   2.0000      -0.874868       -23.8064
  17   2.0000      -0.868994       -23.6465
  18   2.0000      -0.852673       -23.2024
  19   2.0000      -0.828187       -22.5361
  20   2.0000      -0.814221       -22.1561
  21   2.0000      -0.802673       -21.8418
  22   2.0000      -0.763273       -20.7697
  23   2.0000      -0.695777       -18.9331
  24   2.0000      -0.642397       -17.4805
  25   0.0000      -0.287676        -7.8281
  26   0.0000      -0.242751        -6.6056
  27   0.0000      -0.091575        -2.4919
  28   0.0000      -0.038651        -1.0517
  29   0.0000      -0.026152        -0.7116

MULLIKEN ATOMIC CHARGES
-----------------------
   0 C :   -0.396476
   1 C :    0.190626
   2 C :   -0.218063
   3 C :   -0.131308
   4 C :   -0.155795
   5 C :   -0.064632
   6 N :   -0.316938
   7 H :    0.145866
   8 H :    0.134805
   9 H :    0.145898
  10 H :    0.166218
  11 H :    0.172736
  12 H :    0.168736
  13 H :    0.158327
Sum of atomic charges:    0.0000000

LOEWDIN ATOMIC CHARGES
----------------------
   0 C :   -0.257407
   1 C :   -0.239881
   2 C :   -0.124056
   3 C :   -0.113871
   4 C :   -0.161191
   5 C :   -0.209430
   6 N :    0.098373
   7 H :    0.135718
   8 H :    0.126327
   9 H :    0.135684
  10 H :    0.157300
  11 H :    0.156269
  12 H :    0.153721
  13 H :    0.142444

  Mayer bond orders larger than 0.100000
B(  0-C ,  1-C ) :   0.9348 B(  0-C ,  7-H ) :   0.9650 B(  0-C ,  8-H ) :   0.9903
B(  0-C ,  9-H ) :   0.9653 B(  1-C ,  2-C ) :   1.3776 B(  1-C ,  6-N ) :   1.4823
B(  2-C ,  3-C ) :   1.4602 B(  2-C , 10-H ) :   0.9650 B(  3-C ,  4-C ) :   1.4065
B(  3-C , 11-H ) :   0.9628 B(  4-C ,  5-C ) :   1.4440 B(  4-C , 12-H ) :   0.9599
B(  5-C ,  6-N ) :   1.4805 B(  5-C , 13-H ) :   0.9686

FINAL SINGLE POINT ENERGY      -287.619930400755

DIPOLE MOMENT
-------------

Method             : SCF
Type of density    : Electron Density
Multiplicity       :   1
Irrep              :   0
Energy             :  -287.6274119237553464 Eh
Relativity type    :
Basis              : AO
                                X                 Y                 Z
Electronic contribution:      3.115135640      -0.869664750       0.000510848
Nuclear contribution   :     -2.710272301       1.980481411      -0.000896330
                        -----------------------------------------
Total Dipole Moment    :      0.404863339       1.110816660      -0.000385482
                        -----------------------------------------
Magnitude (a.u.)       :      1.182297816
Magnitude (Debye)      :      3.005162223

Rotational constants in cm-1:             0.190613             0.087871             0.060823
Rotational constants in MHz :          5714.439104          2634.304882          1823.414639

                             ****ORCA TERMINATED NORMALLY****
TOTAL RUN TIME: 0 days 0 hours 1 minutes 57 seconds 416 msec
