                         Program Version 6.0.0  -   RELEASE  -
|  1> ! pbe def2-sv(p) def2/J RI DEFGRID1 loosescf d4 GCP(DFT/SV(P)) printgap
|  2> %output
|  3>     printlevel normal
|  4> end
|  5> * xyz 0 1
|  6> C 0.6057583193 1.7000099497 -0.0334145319
|  7> C 1.399358054 0.4067786746 -0.246707281
|  8> H 1.6221288753 0.283000531 -1.3176762934
|  9> C 0.5534504456 -0.7994330942 0.1941130775
| 10> H 0.3857467668 -0.7513076391 1.2792663133
| 11> C -0.809646207 -0.7636334365 -0.5028082625
| 12> H -0.6364196337 -0.8973477188 -1.5810497376
| 13> C -1.4745709818 0.6160644678 -0.287615156
| 14> H -2.3589791191 0.6969617924 -0.9372524437
| 15> O -0.6341135587 1.658620026 -0.7232385438
| 16> O -1.8141832976 0.7419607837 1.0530261773
| 17> O -1.5963181887 -1.7996964278 0.0155052275
| 18> O 1.1920786773 -2.0023075397 -0.1552528721
| 19> O 2.5818411687 0.3796288099 0.5168802974
| 20> H 1.1287860819 2.5643883998 -0.4430348651
| 21> H 0.4390534312 1.8370169512 1.0419251576
| 22> H -2.3873697465 1.5130896206 1.1849008867
| 23> H -2.4081069048 -1.8929153259 -0.503481155
| 24> H 2.0538502639 -2.0222189819 0.2877357235
| 25> H 3.1889390758 1.0682807816 0.2113335156
| 26> *
| 27>
| 28>                          ****END OF INPUT****

CARTESIAN COORDINATES (ANGSTROEM)
---------------------------------
  C      0.605758    1.700010   -0.033415
  C      1.399358    0.406779   -0.246707
  H      1.622129    0.283001   -1.317676
  C      0.553450   -0.799433    0.194113
  H      0.385747   -0.751308    1.279266
  C     -0.809646   -0.763633   -0.502808
  H     -0.636420   -0.897348   -1.581050
  C     -1.474571    0.616064   -0.287615
  H     -2.358979    0.696962   -0.937252
  O     -0.634114    1.658620   -0.723239
  O     -1.814183    0.741961    1.053026
  O     -1.596318   -1.799696    0.015505
  O      1.192079   -2.002308   -0.155253
  O      2.581841    0.379629    0.516880
  H      1.128786    2.564388   -0.443035
  H      0.439053    1.837017    1.041925
  H     -2.387370    1.513090    1.184901
  H     -2.408107   -1.892915   -0.503481
  H      2.053850   -2.022219    0.287736
  H      3.188939    1.068281    0.211334

 Total Charge           Charge          ....    0
 Multiplicity           Mult            ....    1
 Number of Electrons    NEL             ....   80
 Basis Dimension        Dim             ....  160

ORBITAL ENERGIES
----------------

  NO   OCC          E(Eh)            E(eV)
   0   2.0000     -18.766075      -510.6509
   1   2.0000     -18.762262      -510.5471
   2   2.0000     -18.760422      -510.4970
   3   2.0000     -18.741935      -509.9940
   4   2.0000     -18.734546      -509.7929
   5   2.0000      -9.983249      -271.6580
   6   2.0000      -9.937907      -270.4242
   7   2.0000      -9.937080      -270.4017
   8   2.0000      -9.931389      -270.2468
   9   2.0000      -9.930863      -270.2325
  10   2.0000      -0.979320       -26.6486
  11   2.0000      -0.940347       -25.5881
  12   2.0000      -0.925269       -25.1778
  13   2.0000      -0.910049       -24.7637
  14   2.0000      -0.903864       -24.5954
  15   2.0000      -0.695838       -18.9347
  16   2.0000      -0.675875       -18.3915
  17   2.0000      -0.580991       -15.8096
  18   2.0000      -0.574202       -15.6248
  19   2.0000      -0.520321       -14.1587
  20   2.0000      -0.487803       -13.2738
  21   2.0000      -0.482575       -13.1315
  22   2.0000      -0.470999       -12.8165
  23   2.0000      -0.457284       -12.4433
  24   2.0000      -0.439861       -11.9692
  25   2.0000      -0.399640       -10.8748
  26   2.0000      -0.383185       -10.4270
  27   2.0000      -0.371217       -10.1013
  28   2.0000      -0.357815        -9.7366
  29   2.0000      -0.348422        -9.4810
  30   2.0000      -0.332170        -9.0388
  31   2.0000      -0.311064        -8.4645
  32   2.0000      -0.295771        -8.0483
  33   2.0000      -0.269507        -7.3337
  34   2.0000      -0.258787        -7.0420
  35   2.0000      -0.251754        -6.8506
  36   2.0000      -0.241052        -6.5594
  37   2.0000      -0.222022        -6.0415
  38   2.0000      -0.212479        -5.7818
  39   2.0000      -0.198077        -5.3900
  40   0.0000       0.012182         0.3315
  41   0.0000       0.020159         0.5486
  42   0.0000       0.037972         1.0333
  43   0.0000       0.052095         1.4176
  44   0.0000       0.076115         2.0712

MULLIKEN ATOMIC CHARGES
-----------------------
   0 C :    0.085466
   1 C :   -0.025711
   2 H :    0.058563
   3 C :    0.053580
   4 H :    0.075876
   5 C :    0.093110
   6 H :    0.062604
   7 C :    0.115043
   8 H :    0.051960
   9 O :   -0.315710
  10 O :   -0.381057
  11 O :   -0.396977
  12 O :   -0.411948
  13 O :   -0.421137
  14 H :    0.080321
  15 H :    0.066532
  16 H :    0.306123
  17 H :    0.296221
  18 H :    0.302107
  19 H :    0.305035
Sum of atomic charges:    0.0000000

LOEWDIN ATOMIC CHARGES
----------------------
   0 C :   -0.133713
   1 C :   -0.090537
   2 H :    0.100684
   3 C :   -0.061606
   4 H :    0.114178
   5 C :   -0.075387
   6 H :    0.106246
   7 C :   -0.014582
   8 H :    0.090688
   9 O :   -0.162215
  10 O :   -0.297291
  11 O :   -0.304379
  12 O :   -0.317096
  13 O :   -0.321465
  14 H :    0.109847
  15 H :    0.104648
  16 H :    0.290813
  17 H :    0.286067
  18 H :    0.285313
  19 H :    0.289785

  Mayer bond orders larger than 0.100000
B(  0-C ,  1-C ) :   1.0444 B(  0-C ,  9-O ) :   1.0016 B(  0-C , 14-H ) :   0.9251
B(  0-C , 15-H ) :   0.8839 B(  1-C ,  2-H ) :   0.8794 B(  1-C ,  3-C ) :   1.0159
B(  1-C , 13-O ) :   1.0619 B(  3-C ,  4-H ) :   0.8838 B(  3-C ,  5-C ) :   1.0010
B(  3-C , 12-O ) :   1.1002 B(  5-C ,  6-H ) :   0.8815 B(  5-C ,  7-C ) :   0.9645
B(  5-C , 11-O ) :   1.1018 B(  7-C ,  8-H ) :   0.9031 B(  7-C ,  9-O ) :   1.0504
B(  7-C , 10-O ) :   1.1256 B( 10-O , 16-H ) :   0.8419 B( 11-O , 17-H ) :   0.8502
B( 12-O , 18-H ) :   0.8421 B( 13-O , 19-H ) :   0.8480

Dispersion correction           -0.019061995
FINAL SINGLE POINT ENERGY      -571.412046617559

DIPOLE MOMENT
-------------

Method             : SCF
Type of density    : Electron Density
Multiplicity       :   1
Irrep              :   0
Energy             :  -571.5189971112839658 Eh
Relativity type    :
Basis              : AO
                                X                 Y                 Z
Electronic contribution:     -1.026897236      -1.161932634       0.348780383
Nuclear contribution   :      0.960080694       2.235484350      -0.718797832
                        -----------------------------------------
Total Dipole Moment    :     -0.066816542       1.073551716      -0.370017449
                        -----------------------------------------
Magnitude (a.u.)       :      1.137493143
Magnitude (Debye)      :      2.891277796

Rotational constants in cm-1:             0.056943             0.044700             0.028991
Rotational constants in MHz :          1707.109245          1340.079624           869.115454

                             ****ORCA TERMINATED NORMALLY****
TOTAL RUN TIME: 0 days 0 hours 0 minutes 17 seconds 707 msec
