                         Program Version 6.0.0  -   RELEASE  -
|  1> ! pbe def2-sv(p) def2/J RI DEFGRID1 loosescf d4 GCP(DFT/SV(P)) printgap
|  2> %output
|  3>     printlevel normal
|  4> end
|  5> * xyz 0 1
|  6> C 1.374575378 -2.1413237389 1.9546073892
|  7> C 2.8608077233 -1.9494152976 1.7346682978
|  8> O 3.1763181004 -0.6208255822 1.2808745522
|  9> P 2.7923666642 -0.0909384225 -0.1714992047
| 10> S 2.9809181774 -1.3828627706 -1.6254628759
| 11> O 3.7733995113 1.1322185875 -0.3249542273
| 12> C 3.8691264446 2.1818261157 0.6725517337
| 13> C 4.5810963355 3.3569149926 0.0365376603
| 14> S 0.8687035813 0.842380207 0.0407800738
| 15> C -0.0302640937 -0.0150119374 -1.275893503
| 16> S -1.2399572931 -1.2019863105 -0.6482152736
| 17> P -2.7326394723 0.2472976896 -0.1729009636
| 18> S -3.0024168307 1.6541460695 -1.5037314784
| 19> O -2.3108539593 0.840643965 1.2228719948
| 20> C -2.1058698183 0.0228062896 2.4050925917
| 21> C -1.156035008 0.76644885 3.3207364189
| 22> O -4.006691055 -0.6250571415 0.2061623463
| 23> C -4.9683400961 -1.0732261431 -0.7664106052
| 24> C -4.3731123695 -2.0509174263 -1.758602725
| 25> H 0.9873705883 -1.3627301414 2.6065963883
| 26> H 0.8471758606 -2.1084039489 1.0016172181
| 27> H 1.2029680764 -3.1109098185 2.4107705611
| 28> H 3.2383831883 -2.665384152 0.998231824
| 29> H 3.420823597 -2.0441359832 2.6661552522
| 30> H 2.8575094738 2.450141099 0.9914859551
| 31> H 4.4243610483 1.7846467746 1.5241141437
| 32> H 4.6887837992 4.1486776078 0.7707934425
| 33> H 5.5634727507 3.0514630057 -0.3119670357
| 34> H 4.0102474257 3.7274669852 -0.8103079916
| 35> H 0.6834542779 -0.5718288885 -1.8876034048
| 36> H -0.5578820887 0.737210913 -1.8638187455
| 37> H -3.0807216531 -0.1306570532 2.871064316
| 38> H -1.6974666319 -0.9439700677 2.0957526142
| 39> H -1.5793362056 1.7290637512 3.5919840365
| 40> H -0.992146202 0.1790932641 4.2185734831
| 41> H -0.208745019 0.937996189 2.8154090396
| 42> H -5.7486487563 -1.5376009836 -0.1617148987
| 43> H -5.3694628342 -0.1962958604 -1.283552931
| 44> H -3.651340611 -1.5430447082 -2.3967629186
| 45> H -3.8711408091 -2.8624797523 -1.2376312069
| 46> H -5.1647849019 -2.4562395943 -2.3805308222
| 47> *
| 48>
| 49>                          ****END OF INPUT****

CARTESIAN COORDINATES (ANGSTROEM)
---------------------------------
  C      1.374575   -2.141324    1.954607
  C      2.860808   -1.949415    1.734668
  O      3.176318   -0.620826    1.280875
  P      2.792367   -0.090938   -0.171499
  S      2.980918   -1.382863   -1.625463
  O      3.773400    1.132219   -0.324954
  C      3.869126    2.181826    0.672552
  C      4.581096    3.356915    0.036538
  S      0.868704    0.842380    0.040780
  C     -0.030264   -0.015012   -1.275894
  S     -1.239957   -1.201986   -0.648215
  P     -2.732639    0.247298   -0.172901
  S     -3.002417    1.654146   -1.503731
  O     -2.310854    0.840644    1.222872
  C     -2.105870    0.022806    2.405093
  C     -1.156035    0.766449    3.320736
  O     -4.006691   -0.625057    0.206162
  C     -4.968340   -1.073226   -0.766411
  C     -4.373112   -2.050917   -1.758603
  H      0.987371   -1.362730    2.606596
  H      0.847176   -2.108404    1.001617
  H      1.202968   -3.110910    2.410771
  H      3.238383   -2.665384    0.998232
  H      3.420824   -2.044136    2.666155
  H      2.857509    2.450141    0.991486
  H      4.424361    1.784647    1.524114
  H      4.688784    4.148678    0.770793
  H      5.563473    3.051463   -0.311967
  H      4.010247    3.727467   -0.810308
  H      0.683454   -0.571829   -1.887603
  H     -0.557882    0.737211   -1.863819
  H     -3.080722   -0.130657    2.871064
  H     -1.697467   -0.943970    2.095753
  H     -1.579336    1.729064    3.591984
  H     -0.992146    0.179093    4.218573
  H     -0.208745    0.937996    2.815409
  H     -5.748649   -1.537601   -0.161715
  H     -5.369463   -0.196296   -1.283553
  H     -3.651341   -1.543045   -2.396763
  H     -3.871141   -2.862480   -1.237631
  H     -5.164785   -2.456240   -2.380531

 Total Charge           Charge          ....    0
 Multiplicity           Mult            ....    1
 Number of Electrons    NEL             ....  202
 Basis Dimension        Dim             ....  334

ORBITAL ENERGIES
----------------

  NO   OCC          E(Eh)            E(eV)
   0   2.0000     -88.044899     -2395.8235
   1   2.0000     -88.042723     -2395.7643
   2   2.0000     -87.993281     -2394.4189
   3   2.0000     -87.987430     -2394.2597
   4   2.0000     -76.428738     -2079.7317
   5   2.0000     -76.427436     -2079.6963
   6   2.0000     -18.797011      -511.4927
   7   2.0000     -18.794865      -511.4343
   8   2.0000     -18.793716      -511.4030
   9   2.0000     -18.793375      -511.3937
  10   2.0000      -9.960060      -271.0270
  11   2.0000      -9.956885      -270.9406
  12   2.0000      -9.956681      -270.9351
  13   2.0000      -9.956271      -270.9239
  14   2.0000      -9.949312      -270.7345
  15   2.0000      -9.890777      -269.1417
  16   2.0000      -9.888755      -269.0867
  17   2.0000      -9.887393      -269.0496
  18   2.0000      -9.886541      -269.0265
  19   2.0000      -7.689282      -209.2360
  20   2.0000      -7.687300      -209.1821
  21   2.0000      -7.638400      -207.8514
  22   2.0000      -7.632681      -207.6958
  23   2.0000      -6.426556      -174.8755
  24   2.0000      -6.425168      -174.8377
  25   2.0000      -5.716893      -155.5646
  26   2.0000      -5.715084      -155.5154
  27   2.0000      -5.713873      -155.4824
  28   2.0000      -5.711840      -155.4271
  29   2.0000      -5.706545      -155.2830
  30   2.0000      -5.704401      -155.2246
  31   2.0000      -5.667297      -154.2150
  32   2.0000      -5.661642      -154.0611
  33   2.0000      -5.658955      -153.9880
  34   2.0000      -5.658614      -153.9787
  35   2.0000      -5.653255      -153.8329
  36   2.0000      -5.652819      -153.8210
  37   2.0000      -4.649287      -126.5135
  38   2.0000      -4.648094      -126.4811
  39   2.0000      -4.648056      -126.4800
  40   2.0000      -4.647089      -126.4537
  41   2.0000      -4.646805      -126.4460
  42   2.0000      -4.645392      -126.4076
  43   2.0000      -0.991109       -26.9695
  44   2.0000      -0.991045       -26.9677
  45   2.0000      -0.947790       -25.7907
  46   2.0000      -0.947057       -25.7707
  47   2.0000      -0.762440       -20.7470
  48   2.0000      -0.725198       -19.7336
  49   2.0000      -0.715568       -19.4716
  50   2.0000      -0.692827       -18.8528
  51   2.0000      -0.691952       -18.8290
  52   2.0000      -0.679198       -18.4819
  53   2.0000      -0.652859       -17.7652
  54   2.0000      -0.640114       -17.4184
  55   2.0000      -0.600067       -16.3287
  56   2.0000      -0.592230       -16.1154
  57   2.0000      -0.575724       -15.6663
  58   2.0000      -0.574363       -15.6292
  59   2.0000      -0.559181       -15.2161
  60   2.0000      -0.511558       -13.9202
  61   2.0000      -0.505729       -13.7616
  62   2.0000      -0.478393       -13.0177
  63   2.0000      -0.477064       -12.9816
  64   2.0000      -0.463695       -12.6178
  65   2.0000      -0.448025       -12.1914
  66   2.0000      -0.441053       -12.0017
  67   2.0000      -0.440442       -11.9850
  68   2.0000      -0.436580       -11.8799
  69   2.0000      -0.427657       -11.6371
  70   2.0000      -0.410903       -11.1812
  71   2.0000      -0.397149       -10.8070
  72   2.0000      -0.393723       -10.7138
  73   2.0000      -0.390653       -10.6302
  74   2.0000      -0.378349       -10.2954
  75   2.0000      -0.369726       -10.0607
  76   2.0000      -0.366480        -9.9724
  77   2.0000      -0.362001        -9.8506
  78   2.0000      -0.358629        -9.7588
  79   2.0000      -0.358103        -9.7445
  80   2.0000      -0.350607        -9.5405
  81   2.0000      -0.345672        -9.4062
  82   2.0000      -0.342335        -9.3154
  83   2.0000      -0.341217        -9.2850
  84   2.0000      -0.337665        -9.1883
  85   2.0000      -0.320043        -8.7088
  86   2.0000      -0.316384        -8.6092
  87   2.0000      -0.306113        -8.3297
  88   2.0000      -0.304231        -8.2785
  89   2.0000      -0.299849        -8.1593
  90   2.0000      -0.296706        -8.0738
  91   2.0000      -0.275128        -7.4866
  92   2.0000      -0.271824        -7.3967
  93   2.0000      -0.266198        -7.2436
  94   2.0000      -0.258116        -7.0237
  95   2.0000      -0.233678        -6.3587
  96   2.0000      -0.221955        -6.0397
  97   2.0000      -0.214376        -5.8335
  98   2.0000      -0.209479        -5.7002
  99   2.0000      -0.206955        -5.6315
 100   2.0000      -0.200526        -5.4566
 101   0.0000      -0.043411        -1.1813
 102   0.0000      -0.033178        -0.9028
 103   0.0000      -0.016318        -0.4440
 104   0.0000       0.003460         0.0941
 105   0.0000       0.013237         0.3602

MULLIKEN ATOMIC CHARGES
-----------------------
   0 C :   -0.344468
   1 C :    0.008051
   2 O :   -0.385878
   3 P :    0.602950
   4 S :   -0.300057
   5 O :   -0.358868
   6 C :   -0.021739
   7 C :   -0.277600
   8 S :   -0.108912
   9 C :   -0.358434
  10 S :   -0.099061
  11 P :    0.598024
  12 S :   -0.307132
  13 O :   -0.356000
  14 C :   -0.017911
  15 C :   -0.292418
  16 O :   -0.385261
  17 C :    0.000826
  18 C :   -0.322843
  19 H :    0.123637
  20 H :    0.135937
  21 H :    0.111532
  22 H :    0.112853
  23 H :    0.103197
  24 H :    0.109483
  25 H :    0.110367
  26 H :    0.111902
  27 H :    0.123859
  28 H :    0.124561
  29 H :    0.194743
  30 H :    0.195737
  31 H :    0.108510
  32 H :    0.109992
  33 H :    0.120526
  34 H :    0.108088
  35 H :    0.134927
  36 H :    0.105697
  37 H :    0.114073
  38 H :    0.132821
  39 H :    0.118382
  40 H :    0.115905
Sum of atomic charges:   -0.0000000

LOEWDIN ATOMIC CHARGES
----------------------
   0 C :   -0.373354
   1 C :   -0.115136
   2 O :   -0.251339
   3 P :    0.569759
   4 S :   -0.292632
   5 O :   -0.239576
   6 C :   -0.114715
   7 C :   -0.349202
   8 S :    0.071162
   9 C :   -0.491533
  10 S :    0.088039
  11 P :    0.568768
  12 S :   -0.307239
  13 O :   -0.236525
  14 C :   -0.114858
  15 C :   -0.356269
  16 O :   -0.249252
  17 C :   -0.114917
  18 C :   -0.371597
  19 H :    0.124108
  20 H :    0.113638
  21 H :    0.130947
  22 H :    0.112271
  23 H :    0.118099
  24 H :    0.104919
  25 H :    0.115584
  26 H :    0.131073
  27 H :    0.131038
  28 H :    0.131581
  29 H :    0.125789
  30 H :    0.127569
  31 H :    0.116234
  32 H :    0.104158
  33 H :    0.129889
  34 H :    0.128286
  35 H :    0.122029
  36 H :    0.119085
  37 H :    0.114360
  38 H :    0.123565
  39 H :    0.123544
  40 H :    0.132651

  Mayer bond orders larger than 0.100000
B(  0-C ,  1-C ) :   1.1613 B(  0-C , 19-H ) :   0.9368 B(  0-C , 20-H ) :   0.9266
B(  0-C , 21-H ) :   0.9363 B(  1-C ,  2-O ) :   0.9139 B(  1-C , 22-H ) :   0.9175
B(  1-C , 23-H ) :   0.9334 B(  2-O ,  3-P ) :   1.0807 B(  3-P ,  4-S ) :   1.6348
B(  3-P ,  5-O ) :   1.1419 B(  3-P ,  8-S ) :   0.9457 B(  4-S ,  8-S ) :   0.1152
B(  4-S , 29-H ) :   0.1178 B(  5-O ,  6-C ) :   0.8941 B(  6-C ,  7-C ) :   1.1653
B(  6-C , 24-H ) :   0.9139 B(  6-C , 25-H ) :   0.9285 B(  7-C , 26-H ) :   0.9404
B(  7-C , 27-H ) :   0.9499 B(  7-C , 28-H ) :   0.9494 B(  8-S ,  9-C ) :   1.0067
B(  9-C , 10-S ) :   1.0052 B(  9-C , 29-H ) :   0.8490 B(  9-C , 30-H ) :   0.8641
B( 10-S , 11-P ) :   0.9481 B( 10-S , 12-S ) :   0.1069 B( 11-P , 12-S ) :   1.6415
B( 11-P , 13-O ) :   1.1428 B( 11-P , 16-O ) :   1.0905 B( 13-O , 14-C ) :   0.8861
B( 14-C , 15-C ) :   1.1702 B( 14-C , 31-H ) :   0.9307 B( 14-C , 32-H ) :   0.9076
B( 15-C , 33-H ) :   0.9459 B( 15-C , 34-H ) :   0.9389 B( 15-C , 35-H ) :   0.9335
B( 16-O , 17-C ) :   0.9058 B( 17-C , 18-C ) :   1.1658 B( 17-C , 36-H ) :   0.9344
B( 17-C , 37-H ) :   0.9199 B( 18-C , 38-H ) :   0.9345 B( 18-C , 39-H ) :   0.9434
B( 18-C , 40-H ) :   0.9368

Dispersion correction           -0.062898382
FINAL SINGLE POINT ENERGY     -2929.520679125942

DIPOLE MOMENT
-------------

Method             : SCF
Type of density    : Electron Density
Multiplicity       :   1
Irrep              :   0
Energy             : -2929.6424976274197434 Eh
Relativity type    :
Basis              : AO
                                X                 Y                 Z
Electronic contribution:     -0.140415895       2.210521813     -13.874464327
Nuclear contribution   :     -0.029938281      -2.741933704      15.676479758
                        -----------------------------------------
Total Dipole Moment    :     -0.170354176      -0.531411891       1.802015431
                        -----------------------------------------
Magnitude (a.u.)       :      1.886446065
Magnitude (Debye)      :      4.794964835

Rotational constants in cm-1:             0.012259             0.004265             0.004207
Rotational constants in MHz :           367.521931           127.859950           126.108973

                             ****ORCA TERMINATED NORMALLY****
TOTAL RUN TIME: 0 days 0 hours 0 minutes 20 seconds 695 msec
