                         Program Version 6.0.0  -   RELEASE  -
|  1> ! pbe def2-sv(p) def2/J RI DEFGRID1 loosescf d4 GCP(DFT/SV(P)) printgap
|  2> %output
|  3>     printlevel normal
|  4> end
|  5> * xyz 0 1
|  6> C 2.224454454 -1.7907078407 2.9215625039
|  7> C 0.991876625 -1.6913552857 2.0487637065
|  8> O 0.969011248 -0.4516719464 1.3106853087
|  9> P 2.0035068469 -0.1499447894 0.1520425987
| 10> S 2.7178389397 -1.7093003024 -0.8040622339
| 11> O 3.0363757108 0.7796251595 0.9204770443
| 12> C 4.1650977412 1.3991892878 0.2721304355
| 13> C 5.3943734974 0.5143589039 0.3506828477
| 14> S 0.9363131173 1.2469261068 -1.0327099443
| 15> C 0.1584346532 0.0376677182 -2.1374042334
| 16> S -0.9108288462 -1.1278236106 -1.265555883
| 17> P -2.3624321172 0.2897817308 -0.5952726292
| 18> S -2.6689075827 1.8267800937 -1.7619844538
| 19> O -1.9544805692 0.6569549018 0.9012118179
| 20> C -1.4387343135 1.9263060836 1.3317304595
| 21> C -2.3870936727 2.5266075112 2.3505881605
| 22> O -3.6600454566 -0.5868414485 -0.4237672405
| 23> C -3.7220432694 -1.9669625114 0.0075729767
| 24> C -3.1646705994 -2.1600401599 1.4009572638
| 25> H 3.1144831719 -1.8255318148 2.2940170088
| 26> H 2.2916188775 -0.9272796303 3.5781086689
| 27> H 2.1747955486 -2.6975131725 3.5160024664
| 28> H 0.076334643 -1.6617355512 2.6414452532
| 29> H 0.9497517123 -2.5214180272 1.3359924168
| 30> H 3.9063331354 1.6233344029 -0.7668352328
| 31> H 4.312267584 2.333011168 0.8179645244
| 32> H 5.6226179043 0.2826572498 1.3872773728
| 33> H 5.2268318217 -0.4152996134 -0.1886519502
| 34> H 6.2368999184 1.0336562675 -0.0944830228
| 35> H 0.9268517778 -0.5583869258 -2.6289403531
| 36> H -0.4281746245 0.6104720251 -2.8552156133
| 37> H -0.4534061037 1.7309897187 1.7625175161
| 38> H -1.3309426572 2.586254416 0.4640158881
| 39> H -3.3546899563 2.7119542256 1.8898105281
| 40> H -2.517856203 1.8475174847 3.1880798464
| 41> H -1.9768326326 3.4655849677 2.7077522507
| 42> H -4.7879055619 -2.1952017969 -0.039582108
| 43> H -3.1789017892 -2.5780005878 -0.7184810235
| 44> H -3.6861140151 -1.519964687 2.1074841581
| 45> H -3.2872552396 -3.1980963921 1.6936380738
| 46> H -2.105801775 -1.9095635107 1.4116573222
| 47> *
| 48>
| 49>                          ****END OF INPUT****

CARTESIAN COORDINATES (ANGSTROEM)
---------------------------------
  C      2.224454   -1.790708    2.921563
  C      0.991877   -1.691355    2.048764
  O      0.969011   -0.451672    1.310685
  P      2.003507   -0.149945    0.152043
  S      2.717839   -1.709300   -0.804062
  O      3.036376    0.779625    0.920477
  C      4.165098    1.399189    0.272130
  C      5.394373    0.514359    0.350683
  S      0.936313    1.246926   -1.032710
  C      0.158435    0.037668   -2.137404
  S     -0.910829   -1.127824   -1.265556
  P     -2.362432    0.289782   -0.595273
  S     -2.668908    1.826780   -1.761984
  O     -1.954481    0.656955    0.901212
  C     -1.438734    1.926306    1.331730
  C     -2.387094    2.526608    2.350588
  O     -3.660045   -0.586841   -0.423767
  C     -3.722043   -1.966963    0.007573
  C     -3.164671   -2.160040    1.400957
  H      3.114483   -1.825532    2.294017
  H      2.291619   -0.927280    3.578109
  H      2.174796   -2.697513    3.516002
  H      0.076335   -1.661736    2.641445
  H      0.949752   -2.521418    1.335992
  H      3.906333    1.623334   -0.766835
  H      4.312268    2.333011    0.817965
  H      5.622618    0.282657    1.387277
  H      5.226832   -0.415300   -0.188652
  H      6.236900    1.033656   -0.094483
  H      0.926852   -0.558387   -2.628940
  H     -0.428175    0.610472   -2.855216
  H     -0.453406    1.730990    1.762518
  H     -1.330943    2.586254    0.464016
  H     -3.354690    2.711954    1.889811
  H     -2.517856    1.847517    3.188080
  H     -1.976833    3.465585    2.707752
  H     -4.787906   -2.195202   -0.039582
  H     -3.178902   -2.578001   -0.718481
  H     -3.686114   -1.519965    2.107484
  H     -3.287255   -3.198096    1.693638
  H     -2.105802   -1.909564    1.411657

 Total Charge           Charge          ....    0
 Multiplicity           Mult            ....    1
 Number of Electrons    NEL             ....  202
 Basis Dimension        Dim             ....  334

ORBITAL ENERGIES
----------------

  NO   OCC          E(Eh)            E(eV)
   0   2.0000     -88.046048     -2395.8548
   1   2.0000     -88.041350     -2395.7269
   2   2.0000     -87.993617     -2394.4280
   3   2.0000     -87.982653     -2394.1297
   4   2.0000     -76.431571     -2079.8088
   5   2.0000     -76.424687     -2079.6215
   6   2.0000     -18.798924      -511.5447
   7   2.0000     -18.794580      -511.4265
   8   2.0000     -18.793464      -511.3961
   9   2.0000     -18.785423      -511.1774
  10   2.0000      -9.961171      -271.0572
  11   2.0000      -9.959659      -271.0161
  12   2.0000      -9.955261      -270.8964
  13   2.0000      -9.955242      -270.8959
  14   2.0000      -9.941010      -270.5086
  15   2.0000      -9.891955      -269.1738
  16   2.0000      -9.887044      -269.0401
  17   2.0000      -9.885203      -268.9901
  18   2.0000      -9.879809      -268.8433
  19   2.0000      -7.690703      -209.2747
  20   2.0000      -7.686035      -209.1476
  21   2.0000      -7.638487      -207.8538
  22   2.0000      -7.627927      -207.5664
  23   2.0000      -6.428942      -174.9404
  24   2.0000      -6.422072      -174.7535
  25   2.0000      -5.718518      -155.6088
  26   2.0000      -5.715250      -155.5199
  27   2.0000      -5.713894      -155.4830
  28   2.0000      -5.710604      -155.3934
  29   2.0000      -5.707745      -155.3156
  30   2.0000      -5.703024      -155.1872
  31   2.0000      -5.667270      -154.2142
  32   2.0000      -5.659100      -153.9919
  33   2.0000      -5.658815      -153.9842
  34   2.0000      -5.656943      -153.9332
  35   2.0000      -5.648568      -153.7054
  36   2.0000      -5.647902      -153.6872
  37   2.0000      -4.651365      -126.5701
  38   2.0000      -4.650764      -126.5537
  39   2.0000      -4.649502      -126.5194
  40   2.0000      -4.644756      -126.3902
  41   2.0000      -4.643772      -126.3635
  42   2.0000      -4.642529      -126.3296
  43   2.0000      -0.992545       -27.0085
  44   2.0000      -0.983578       -26.7645
  45   2.0000      -0.950853       -25.8740
  46   2.0000      -0.941763       -25.6267
  47   2.0000      -0.766380       -20.8543
  48   2.0000      -0.723092       -19.6763
  49   2.0000      -0.712691       -19.3933
  50   2.0000      -0.690897       -18.8003
  51   2.0000      -0.689470       -18.7614
  52   2.0000      -0.674123       -18.3438
  53   2.0000      -0.652756       -17.7624
  54   2.0000      -0.640120       -17.4185
  55   2.0000      -0.601808       -16.3760
  56   2.0000      -0.595592       -16.2069
  57   2.0000      -0.575354       -15.6562
  58   2.0000      -0.570101       -15.5132
  59   2.0000      -0.564074       -15.3492
  60   2.0000      -0.506957       -13.7950
  61   2.0000      -0.493752       -13.4357
  62   2.0000      -0.479680       -13.0527
  63   2.0000      -0.478350       -13.0166
  64   2.0000      -0.457971       -12.4620
  65   2.0000      -0.448986       -12.2175
  66   2.0000      -0.443910       -12.0794
  67   2.0000      -0.437216       -11.8973
  68   2.0000      -0.426753       -11.6125
  69   2.0000      -0.409146       -11.1334
  70   2.0000      -0.408271       -11.1096
  71   2.0000      -0.402531       -10.9534
  72   2.0000      -0.394767       -10.7421
  73   2.0000      -0.392468       -10.6796
  74   2.0000      -0.381488       -10.3808
  75   2.0000      -0.377446       -10.2708
  76   2.0000      -0.367658       -10.0045
  77   2.0000      -0.357729        -9.7343
  78   2.0000      -0.356863        -9.7107
  79   2.0000      -0.353849        -9.6287
  80   2.0000      -0.351498        -9.5647
  81   2.0000      -0.347512        -9.4563
  82   2.0000      -0.345151        -9.3920
  83   2.0000      -0.339327        -9.2336
  84   2.0000      -0.336297        -9.1511
  85   2.0000      -0.321715        -8.7543
  86   2.0000      -0.312064        -8.4917
  87   2.0000      -0.302014        -8.2182
  88   2.0000      -0.295502        -8.0410
  89   2.0000      -0.290713        -7.9107
  90   2.0000      -0.284367        -7.7380
  91   2.0000      -0.280222        -7.6252
  92   2.0000      -0.275184        -7.4881
  93   2.0000      -0.268932        -7.3180
  94   2.0000      -0.254272        -6.9191
  95   2.0000      -0.236458        -6.4343
  96   2.0000      -0.216827        -5.9002
  97   2.0000      -0.215063        -5.8522
  98   2.0000      -0.209741        -5.7073
  99   2.0000      -0.198945        -5.4136
 100   2.0000      -0.197055        -5.3621
 101   0.0000      -0.047815        -1.3011
 102   0.0000      -0.026618        -0.7243
 103   0.0000      -0.004459        -0.1213
 104   0.0000       0.002384         0.0649
 105   0.0000       0.009915         0.2698

MULLIKEN ATOMIC CHARGES
-----------------------
   0 C :   -0.292433
   1 C :   -0.029211
   2 O :   -0.360075
   3 P :    0.615637
   4 S :   -0.330834
   5 O :   -0.372088
   6 C :   -0.012517
   7 C :   -0.296903
   8 S :   -0.083564
   9 C :   -0.343485
  10 S :   -0.119906
  11 P :    0.619542
  12 S :   -0.318562
  13 O :   -0.379159
  14 C :   -0.021790
  15 C :   -0.274406
  16 O :   -0.362483
  17 C :   -0.015734
  18 C :   -0.333413
  19 H :    0.124655
  20 H :    0.114995
  21 H :    0.111720
  22 H :    0.119478
  23 H :    0.115424
  24 H :    0.104990
  25 H :    0.109399
  26 H :    0.114507
  27 H :    0.130989
  28 H :    0.109795
  29 H :    0.191546
  30 H :    0.194372
  31 H :    0.103815
  32 H :    0.113687
  33 H :    0.115237
  34 H :    0.107322
  35 H :    0.106856
  36 H :    0.115681
  37 H :    0.121253
  38 H :    0.122502
  39 H :    0.113798
  40 H :    0.149361
Sum of atomic charges:    0.0000000

LOEWDIN ATOMIC CHARGES
----------------------
   0 C :   -0.365039
   1 C :   -0.119519
   2 O :   -0.230800
   3 P :    0.570321
   4 S :   -0.317702
   5 O :   -0.244482
   6 C :   -0.115863
   7 C :   -0.364291
   8 S :    0.096938
   9 C :   -0.479492
  10 S :    0.070809
  11 P :    0.571626
  12 S :   -0.311541
  13 O :   -0.243781
  14 C :   -0.129150
  15 C :   -0.354167
  16 O :   -0.237689
  17 C :   -0.113154
  18 C :   -0.368297
  19 H :    0.122555
  20 H :    0.126048
  21 H :    0.130832
  22 H :    0.118447
  23 H :    0.111091
  24 H :    0.107906
  25 H :    0.119922
  26 H :    0.125612
  27 H :    0.124533
  28 H :    0.129903
  29 H :    0.131050
  30 H :    0.131991
  31 H :    0.107429
  32 H :    0.102636
  33 H :    0.126277
  34 H :    0.121430
  35 H :    0.128424
  36 H :    0.124976
  37 H :    0.110193
  38 H :    0.129710
  39 H :    0.131376
  40 H :    0.122934

  Mayer bond orders larger than 0.100000
B(  0-C ,  1-C ) :   1.1630 B(  0-C , 19-H ) :   0.9312 B(  0-C , 20-H ) :   0.9455
B(  0-C , 21-H ) :   0.9387 B(  1-C ,  2-O ) :   0.9000 B(  1-C , 22-H ) :   0.9230
B(  1-C , 23-H ) :   0.9163 B(  2-O ,  3-P ) :   1.1173 B(  3-P ,  4-S ) :   1.5933
B(  3-P ,  5-O ) :   1.1128 B(  3-P ,  8-S ) :   0.9568 B(  4-S ,  8-S ) :   0.1095
B(  5-O ,  6-C ) :   0.9037 B(  6-C ,  7-C ) :   1.1672 B(  6-C , 24-H ) :   0.9159
B(  6-C , 25-H ) :   0.9358 B(  7-C , 26-H ) :   0.9466 B(  7-C , 27-H ) :   0.9316
B(  7-C , 28-H ) :   0.9391 B(  8-S ,  9-C ) :   0.9972 B(  9-C , 10-S ) :   1.0203
B(  9-C , 29-H ) :   0.8840 B(  9-C , 30-H ) :   0.8799 B( 10-S , 11-P ) :   0.9247
B( 10-S , 12-S ) :   0.1019 B( 11-P , 12-S ) :   1.6302 B( 11-P , 13-O ) :   1.0913
B( 11-P , 16-O ) :   1.1468 B( 13-O , 14-C ) :   0.9005 B( 14-C , 15-C ) :   1.1584
B( 14-C , 31-H ) :   0.9231 B( 14-C , 32-H ) :   0.8999 B( 15-C , 33-H ) :   0.9481
B( 15-C , 34-H ) :   0.9505 B( 15-C , 35-H ) :   0.9421 B( 16-O , 17-C ) :   0.9058
B( 17-C , 18-C ) :   1.1655 B( 17-C , 36-H ) :   0.9341 B( 17-C , 37-H ) :   0.9176
B( 18-C , 38-H ) :   0.9436 B( 18-C , 39-H ) :   0.9352 B( 18-C , 40-H ) :   0.9280

Dispersion correction           -0.067065359
FINAL SINGLE POINT ENERGY     -2929.522784206976

DIPOLE MOMENT
-------------

Method             : SCF
Type of density    : Electron Density
Multiplicity       :   1
Irrep              :   0
Energy             : -2929.6415943590486677 Eh
Relativity type    :
Basis              : AO
                                X                 Y                 Z
Electronic contribution:     -6.958461470       3.247415067     -21.192432339
Nuclear contribution   :      7.547633408      -3.674588950      22.627342050
                        -----------------------------------------
Total Dipole Moment    :      0.589171938      -0.427173884       1.434909710
                        -----------------------------------------
Magnitude (a.u.)       :      1.608902414
Magnitude (Debye)      :      4.089504937

Rotational constants in cm-1:             0.012065             0.005355             0.005091
Rotational constants in MHz :           361.687021           160.552483           152.628548

                             ****ORCA TERMINATED NORMALLY****
TOTAL RUN TIME: 0 days 0 hours 0 minutes 22 seconds 22 msec
