                         Program Version 6.0.0  -   RELEASE  -
|  1> ! pbe def2-sv(p) def2/J RI DEFGRID1 loosescf d4 GCP(DFT/SV(P)) printgap
|  2> %output
|  3>     printlevel normal
|  4> end
|  5> * xyz 0 1
|  6> C 3.9184622847 -1.163899579 -2.7186177584
|  7> C 4.2343047402 -1.5839436842 -1.2976227312
|  8> O 3.0470825079 -1.716254731 -0.496570611
|  9> P 2.1644965775 -0.463610555 -0.061819732
| 10> S 3.2168565097 1.1243638809 0.4153867272
| 11> O 1.2807988366 -1.1164057591 1.0787231953
| 12> C 1.7018097729 -1.1569926007 2.4602398129
| 13> C 0.9920348598 -0.0811548648 3.2583854222
| 14> S 0.7208613474 -0.2744744451 -1.5825875545
| 15> C 0.2280787263 1.4320107597 -1.2150239304
| 16> S -0.5056212166 1.6314946329 0.4317910976
| 17> P -2.1761872527 0.3870230379 0.1270470643
| 18> S -2.9819695588 0.344056058 -1.663451938
| 19> O -3.1951933942 0.7881638885 1.2836108333
| 20> C -4.2011251726 1.8012868563 1.1089497961
| 21> C -3.599632931 3.1872698457 0.9967373724
| 22> O -1.6119561513 -0.9770122583 0.7009399469
| 23> C -2.2414353878 -2.2503851391 0.4369830551
| 24> C -1.4840560469 -2.9984416647 -0.6424066084
| 25> H 4.8259532978 -1.1963524291 -3.3129211105
| 26> H 3.1765443904 -1.8289508285 -3.1534730863
| 27> H 3.5260123011 -0.1479367586 -2.7283229542
| 28> H 4.8940432171 -0.8536112635 -0.8180866462
| 29> H 4.6871924289 -2.5755752318 -1.2605683288
| 30> H 1.4317136143 -2.155973371 2.806401095
| 31> H 2.7871639007 -1.0308777248 2.5121775463
| 32> H 1.304044141 0.9053324948 2.9211065056
| 33> H -0.0835855522 -0.1684701985 3.1242117116
| 34> H 1.2365761847 -0.192839019 4.3097857762
| 35> H -0.4973734064 1.7087579893 -1.9790784438
| 36> H 1.1016278895 2.0824489096 -1.2382579757
| 37> H -4.7813713011 1.5599046965 0.2124934067
| 38> H -4.8282779234 1.703488069 1.9960200977
| 39> H -3.030356037 3.2725760068 0.0721060164
| 40> H -4.3957476495 3.9247762807 0.9892116717
| 41> H -2.9349309471 3.3800478135 1.8350836861
| 42> H -2.2092670622 -2.7815422433 1.3896522798
| 43> H -3.2820729037 -2.0860956299 0.1426319081
| 44> H -0.433577185 -3.0766021863 -0.3723124337
| 45> H -1.9047407322 -3.9925685588 -0.7540292108
| 46> H -1.5592000049 -2.4695028846 -1.5904497315
| 47> *
| 48>
| 49>                          ****END OF INPUT****

CARTESIAN COORDINATES (ANGSTROEM)
---------------------------------
  C      3.918462   -1.163900   -2.718618
  C      4.234305   -1.583944   -1.297623
  O      3.047083   -1.716255   -0.496571
  P      2.164497   -0.463611   -0.061820
  S      3.216857    1.124364    0.415387
  O      1.280799   -1.116406    1.078723
  C      1.701810   -1.156993    2.460240
  C      0.992035   -0.081155    3.258385
  S      0.720861   -0.274474   -1.582588
  C      0.228079    1.432011   -1.215024
  S     -0.505621    1.631495    0.431791
  P     -2.176187    0.387023    0.127047
  S     -2.981970    0.344056   -1.663452
  O     -3.195193    0.788164    1.283611
  C     -4.201125    1.801287    1.108950
  C     -3.599633    3.187270    0.996737
  O     -1.611956   -0.977012    0.700940
  C     -2.241435   -2.250385    0.436983
  C     -1.484056   -2.998442   -0.642407
  H      4.825953   -1.196352   -3.312921
  H      3.176544   -1.828951   -3.153473
  H      3.526012   -0.147937   -2.728323
  H      4.894043   -0.853611   -0.818087
  H      4.687192   -2.575575   -1.260568
  H      1.431714   -2.155973    2.806401
  H      2.787164   -1.030878    2.512178
  H      1.304044    0.905332    2.921107
  H     -0.083586   -0.168470    3.124212
  H      1.236576   -0.192839    4.309786
  H     -0.497373    1.708758   -1.979078
  H      1.101628    2.082449   -1.238258
  H     -4.781371    1.559905    0.212493
  H     -4.828278    1.703488    1.996020
  H     -3.030356    3.272576    0.072106
  H     -4.395748    3.924776    0.989212
  H     -2.934931    3.380048    1.835084
  H     -2.209267   -2.781542    1.389652
  H     -3.282073   -2.086096    0.142632
  H     -0.433577   -3.076602   -0.372312
  H     -1.904741   -3.992569   -0.754029
  H     -1.559200   -2.469503   -1.590450

 Total Charge           Charge          ....    0
 Multiplicity           Mult            ....    1
 Number of Electrons    NEL             ....  202
 Basis Dimension        Dim             ....  334

ORBITAL ENERGIES
----------------

  NO   OCC          E(Eh)            E(eV)
   0   2.0000     -88.043980     -2395.7985
   1   2.0000     -88.043952     -2395.7977
   2   2.0000     -87.989443     -2394.3145
   3   2.0000     -87.989390     -2394.3130
   4   2.0000     -76.426013     -2079.6575
   5   2.0000     -76.425984     -2079.6567
   6   2.0000     -18.792825      -511.3788
   7   2.0000     -18.792740      -511.3765
   8   2.0000     -18.785625      -511.1828
   9   2.0000     -18.785559      -511.1811
  10   2.0000      -9.956513      -270.9305
  11   2.0000      -9.951436      -270.7923
  12   2.0000      -9.951420      -270.7919
  13   2.0000      -9.949820      -270.7484
  14   2.0000      -9.949795      -270.7477
  15   2.0000      -9.883727      -268.9499
  16   2.0000      -9.883678      -268.9486
  17   2.0000      -9.875198      -268.7178
  18   2.0000      -9.875171      -268.7171
  19   2.0000      -7.688904      -209.2257
  20   2.0000      -7.688892      -209.2254
  21   2.0000      -7.634351      -207.7413
  22   2.0000      -7.634301      -207.7399
  23   2.0000      -6.423592      -174.7948
  24   2.0000      -6.423562      -174.7940
  25   2.0000      -5.716788      -155.5617
  26   2.0000      -5.716765      -155.5611
  27   2.0000      -5.713543      -155.4734
  28   2.0000      -5.713521      -155.4728
  29   2.0000      -5.705684      -155.2596
  30   2.0000      -5.705676      -155.2593
  31   2.0000      -5.663158      -154.1024
  32   2.0000      -5.663099      -154.1008
  33   2.0000      -5.655117      -153.8835
  34   2.0000      -5.655070      -153.8823
  35   2.0000      -5.654514      -153.8671
  36   2.0000      -5.654469      -153.8659
  37   2.0000      -4.646011      -126.4244
  38   2.0000      -4.645990      -126.4238
  39   2.0000      -4.645290      -126.4048
  40   2.0000      -4.645272      -126.4043
  41   2.0000      -4.644247      -126.3764
  42   2.0000      -4.644219      -126.3756
  43   2.0000      -0.985194       -26.8085
  44   2.0000      -0.984080       -26.7782
  45   2.0000      -0.943088       -25.6627
  46   2.0000      -0.941708       -25.6252
  47   2.0000      -0.767213       -20.8769
  48   2.0000      -0.720785       -19.6136
  49   2.0000      -0.706350       -19.2208
  50   2.0000      -0.684917       -18.6375
  51   2.0000      -0.682527       -18.5725
  52   2.0000      -0.672652       -18.3038
  53   2.0000      -0.651255       -17.7215
  54   2.0000      -0.640426       -17.4269
  55   2.0000      -0.602296       -16.3893
  56   2.0000      -0.590532       -16.0692
  57   2.0000      -0.573107       -15.5950
  58   2.0000      -0.569482       -15.4964
  59   2.0000      -0.555215       -15.1082
  60   2.0000      -0.499417       -13.5898
  61   2.0000      -0.498479       -13.5643
  62   2.0000      -0.468691       -12.7537
  63   2.0000      -0.468373       -12.7451
  64   2.0000      -0.459962       -12.5162
  65   2.0000      -0.439386       -11.9563
  66   2.0000      -0.437254       -11.8983
  67   2.0000      -0.436380       -11.8745
  68   2.0000      -0.426991       -11.6190
  69   2.0000      -0.415951       -11.3186
  70   2.0000      -0.408741       -11.1224
  71   2.0000      -0.396287       -10.7835
  72   2.0000      -0.391028       -10.6404
  73   2.0000      -0.379878       -10.3370
  74   2.0000      -0.378366       -10.2959
  75   2.0000      -0.378057       -10.2874
  76   2.0000      -0.368503       -10.0275
  77   2.0000      -0.355506        -9.6738
  78   2.0000      -0.349649        -9.5144
  79   2.0000      -0.348435        -9.4814
  80   2.0000      -0.348416        -9.4809
  81   2.0000      -0.341842        -9.3020
  82   2.0000      -0.340080        -9.2541
  83   2.0000      -0.336908        -9.1677
  84   2.0000      -0.333625        -9.0784
  85   2.0000      -0.315924        -8.5967
  86   2.0000      -0.301076        -8.1927
  87   2.0000      -0.296381        -8.0649
  88   2.0000      -0.295681        -8.0459
  89   2.0000      -0.290059        -7.8929
  90   2.0000      -0.279358        -7.6017
  91   2.0000      -0.277874        -7.5613
  92   2.0000      -0.264479        -7.1968
  93   2.0000      -0.264228        -7.1900
  94   2.0000      -0.263557        -7.1717
  95   2.0000      -0.231585        -6.3018
  96   2.0000      -0.217814        -5.9270
  97   2.0000      -0.215815        -5.8726
  98   2.0000      -0.207523        -5.6470
  99   2.0000      -0.202118        -5.4999
 100   2.0000      -0.201668        -5.4877
 101   0.0000      -0.046637        -1.2691
 102   0.0000      -0.026403        -0.7185
 103   0.0000      -0.001897        -0.0516
 104   0.0000       0.001281         0.0348
 105   0.0000       0.005890         0.1603

MULLIKEN ATOMIC CHARGES
-----------------------
   0 C :   -0.313573
   1 C :   -0.005044
   2 O :   -0.375448
   3 P :    0.615987
   4 S :   -0.339880
   5 O :   -0.354942
   6 C :   -0.001835
   7 C :   -0.293009
   8 S :   -0.066963
   9 C :   -0.360109
  10 S :   -0.066924
  11 P :    0.616129
  12 S :   -0.339837
  13 O :   -0.375302
  14 C :   -0.004668
  15 C :   -0.314425
  16 O :   -0.355267
  17 C :   -0.002030
  18 C :   -0.292065
  19 H :    0.112967
  20 H :    0.118128
  21 H :    0.124261
  22 H :    0.111133
  23 H :    0.104730
  24 H :    0.102468
  25 H :    0.101272
  26 H :    0.126658
  27 H :    0.119159
  28 H :    0.103224
  29 H :    0.190461
  30 H :    0.190711
  31 H :    0.111162
  32 H :    0.104742
  33 H :    0.124652
  34 H :    0.112995
  35 H :    0.118294
  36 H :    0.102652
  37 H :    0.101096
  38 H :    0.118729
  39 H :    0.103105
  40 H :    0.126605
Sum of atomic charges:   -0.0000000

LOEWDIN ATOMIC CHARGES
----------------------
   0 C :   -0.368856
   1 C :   -0.120335
   2 O :   -0.248589
   3 P :    0.570361
   4 S :   -0.328508
   5 O :   -0.234263
   6 C :   -0.111006
   7 C :   -0.362891
   8 S :    0.111868
   9 C :   -0.480195
  10 S :    0.111850
  11 P :    0.570393
  12 S :   -0.328450
  13 O :   -0.248530
  14 C :   -0.120344
  15 C :   -0.369005
  16 O :   -0.234361
  17 C :   -0.110956
  18 C :   -0.362723
  19 H :    0.130905
  20 H :    0.124644
  21 H :    0.120209
  22 H :    0.109915
  23 H :    0.118441
  24 H :    0.116782
  25 H :    0.107829
  26 H :    0.123255
  27 H :    0.123523
  28 H :    0.125524
  29 H :    0.131193
  30 H :    0.131236
  31 H :    0.109910
  32 H :    0.118452
  33 H :    0.120291
  34 H :    0.130956
  35 H :    0.124703
  36 H :    0.116847
  37 H :    0.107826
  38 H :    0.123389
  39 H :    0.125477
  40 H :    0.123234

  Mayer bond orders larger than 0.100000
B(  0-C ,  1-C ) :   1.1645 B(  0-C , 19-H ) :   0.9381 B(  0-C , 20-H ) :   0.9450
B(  0-C , 21-H ) :   0.9360 B(  1-C ,  2-O ) :   0.9113 B(  1-C , 22-H ) :   0.9151
B(  1-C , 23-H ) :   0.9339 B(  2-O ,  3-P ) :   1.1059 B(  3-P ,  4-S ) :   1.5804
B(  3-P ,  5-O ) :   1.1322 B(  3-P ,  8-S ) :   0.9632 B(  4-S ,  8-S ) :   0.1087
B(  5-O ,  6-C ) :   0.8954 B(  6-C ,  7-C ) :   1.1720 B(  6-C , 24-H ) :   0.9337
B(  6-C , 25-H ) :   0.9142 B(  7-C , 26-H ) :   0.9378 B(  7-C , 27-H ) :   0.9427
B(  7-C , 28-H ) :   0.9393 B(  8-S ,  9-C ) :   1.0060 B(  9-C , 10-S ) :   1.0056
B(  9-C , 29-H ) :   0.8855 B(  9-C , 30-H ) :   0.8854 B( 10-S , 11-P ) :   0.9629
B( 10-S , 12-S ) :   0.1087 B( 11-P , 12-S ) :   1.5806 B( 11-P , 13-O ) :   1.1064
B( 11-P , 16-O ) :   1.1319 B( 13-O , 14-C ) :   0.9111 B( 14-C , 15-C ) :   1.1646
B( 14-C , 31-H ) :   0.9150 B( 14-C , 32-H ) :   0.9338 B( 15-C , 33-H ) :   0.9359
B( 15-C , 34-H ) :   0.9381 B( 15-C , 35-H ) :   0.9450 B( 16-O , 17-C ) :   0.8956
B( 17-C , 18-C ) :   1.1719 B( 17-C , 36-H ) :   0.9338 B( 17-C , 37-H ) :   0.9144
B( 18-C , 38-H ) :   0.9427 B( 18-C , 39-H ) :   0.9394 B( 18-C , 40-H ) :   0.9378

Dispersion correction           -0.068163946
FINAL SINGLE POINT ENERGY     -2929.527687561172

DIPOLE MOMENT
-------------

Method             : SCF
Type of density    : Electron Density
Multiplicity       :   1
Irrep              :   0
Energy             : -2929.6443116697923870 Eh
Relativity type    :
Basis              : AO
                                X                 Y                 Z
Electronic contribution:      0.822224118       5.109155930      -4.330512665
Nuclear contribution   :     -0.919361215      -5.705493612       4.837021707
                        -----------------------------------------
Total Dipole Moment    :     -0.097137097      -0.596337681       0.506509042
                        -----------------------------------------
Magnitude (a.u.)       :      0.788419720
Magnitude (Debye)      :      2.004003669

Rotational constants in cm-1:             0.012751             0.005346             0.005088
Rotational constants in MHz :           382.268474           160.274480           152.547190

                             ****ORCA TERMINATED NORMALLY****
TOTAL RUN TIME: 0 days 0 hours 0 minutes 22 seconds 31 msec
