                         Program Version 6.0.0  -   RELEASE  -
|  1> ! r2scan-3c def2/J RI DEFGRID2 scfconv6 printgap
|  2> %output
|  3>     printlevel normal
|  4> end
|  5> * xyz 0 1
|  6> C -0.0038894402 -2.2790045932 2.3864876166
|  7> C 1.3455870772 -2.0580500295 1.7352196631
|  8> O 1.517268239 -0.6464641306 1.481867445
|  9> P 2.3637108648 -0.0501743319 0.2839549647
| 10> S 3.2264755859 -1.4020143501 -0.8506223685
| 11> O 3.2899865362 0.9103936501 1.1380714599
| 12> C 3.9874590371 2.0653970679 0.6351474739
| 13> C 4.8732446561 1.7461432887 -0.5516000718
| 14> S 1.0895647016 1.3187846218 -0.7277789422
| 15> C 0.4400451862 0.13685255 -1.9339522845
| 16> S -0.5350855999 -1.1808944575 -1.1614574046
| 17> P -2.0199874827 0.0855269083 -0.3396873456
| 18> S -2.6071403259 1.5681112799 -1.4856075843
| 19> O -1.3976005029 0.4638262304 1.0619363145
| 20> C -1.6853800883 1.7112928177 1.7226712658
| 21> C -3.094064841 1.7237300445 2.2766629748
| 22> O -3.1549183367 -0.935160206 0.0928619441
| 23> C -4.0699316762 -1.5032783008 -0.8663573301
| 24> C -5.2630387921 -2.046603864 -0.1064921493
| 25> H -0.1111893352 -3.3327636537 2.6221879692
| 26> H -0.0753136894 -1.6940221362 3.2986707052
| 27> H -0.8057428592 -1.9800768717 1.7157702308
| 28> H 1.4309184469 -2.6063641681 0.79098127
| 29> H 2.1573257429 -2.3671379312 2.3982631194
| 30> H 3.2466643878 2.8261504475 0.3727681444
| 31> H 4.574310742 2.4012267092 1.4920223246
| 32> H 4.2667678397 1.4409256826 -1.4031791234
| 33> H 5.4441260261 2.6284412641 -0.8225241643
| 34> H 5.5561068097 0.9357990271 -0.3073635971
| 35> H 1.265717093 -0.351356711 -2.4517127236
| 36> H -0.1874276648 0.7040110023 -2.6208194119
| 37> H -0.932252536 1.7717797217 2.5096339693
| 38> H -1.5390958606 2.5281459481 1.0080042519
| 39> H -3.8090834261 1.6683000865 1.4563669022
| 40> H -3.2472886281 0.8728037689 2.9347962899
| 41> H -3.2584826687 2.644446823 2.8274273512
| 42> H -4.364942078 -0.7201871331 -1.5729880596
| 43> H -3.5469485954 -2.2953344505 -1.4091991999
| 44> H -5.9507940647 -2.5076575682 -0.807691332
| 45> H -4.9347946117 -2.7873754179 0.6166127421
| 46> H -5.7716159733 -1.2428863416 0.4181888547
| 47> *
| 48>
| 49>                          ****END OF INPUT****

CARTESIAN COORDINATES (ANGSTROEM)
---------------------------------
  C     -0.003889   -2.279005    2.386488
  C      1.345587   -2.058050    1.735220
  O      1.517268   -0.646464    1.481867
  P      2.363711   -0.050174    0.283955
  S      3.226476   -1.402014   -0.850622
  O      3.289987    0.910394    1.138071
  C      3.987459    2.065397    0.635147
  C      4.873245    1.746143   -0.551600
  S      1.089565    1.318785   -0.727779
  C      0.440045    0.136853   -1.933952
  S     -0.535086   -1.180894   -1.161457
  P     -2.019987    0.085527   -0.339687
  S     -2.607140    1.568111   -1.485608
  O     -1.397601    0.463826    1.061936
  C     -1.685380    1.711293    1.722671
  C     -3.094065    1.723730    2.276663
  O     -3.154918   -0.935160    0.092862
  C     -4.069932   -1.503278   -0.866357
  C     -5.263039   -2.046604   -0.106492
  H     -0.111189   -3.332764    2.622188
  H     -0.075314   -1.694022    3.298671
  H     -0.805743   -1.980077    1.715770
  H      1.430918   -2.606364    0.790981
  H      2.157326   -2.367138    2.398263
  H      3.246664    2.826150    0.372768
  H      4.574311    2.401227    1.492022
  H      4.266768    1.440926   -1.403179
  H      5.444126    2.628441   -0.822524
  H      5.556107    0.935799   -0.307364
  H      1.265717   -0.351357   -2.451713
  H     -0.187428    0.704011   -2.620819
  H     -0.932253    1.771780    2.509634
  H     -1.539096    2.528146    1.008004
  H     -3.809083    1.668300    1.456367
  H     -3.247289    0.872804    2.934796
  H     -3.258483    2.644447    2.827427
  H     -4.364942   -0.720187   -1.572988
  H     -3.546949   -2.295334   -1.409199
  H     -5.950794   -2.507658   -0.807691
  H     -4.934795   -2.787375    0.616613
  H     -5.771616   -1.242886    0.418189

 Total Charge           Charge          ....    0
 Multiplicity           Mult            ....    1
 Number of Electrons    NEL             ....  202
 Basis Dimension        Dim             ....  539

ORBITAL ENERGIES
----------------

  NO   OCC          E(Eh)            E(eV)
   0   2.0000     -88.577184     -2410.3077
   1   2.0000     -88.575759     -2410.2689
   2   2.0000     -88.523095     -2408.8359
   3   2.0000     -88.516934     -2408.6682
   4   2.0000     -76.915775     -2092.9846
   5   2.0000     -76.912562     -2092.8972
   6   2.0000     -18.996611      -516.9241
   7   2.0000     -18.990607      -516.7607
   8   2.0000     -18.990406      -516.7552
   9   2.0000     -18.983173      -516.5584
  10   2.0000     -10.106177      -275.0030
  11   2.0000     -10.102835      -274.9121
  12   2.0000     -10.102117      -274.8926
  13   2.0000     -10.097045      -274.7546
  14   2.0000     -10.089649      -274.5533
  15   2.0000     -10.036264      -273.1006
  16   2.0000     -10.028810      -272.8978
  17   2.0000     -10.026487      -272.8346
  18   2.0000     -10.022198      -272.7179
  19   2.0000      -7.871495      -214.1943
  20   2.0000      -7.870101      -214.1563
  21   2.0000      -7.817855      -212.7346
  22   2.0000      -7.811833      -212.5708
  23   2.0000      -6.594463      -179.4445
  24   2.0000      -6.590710      -179.3423
  25   2.0000      -5.818309      -158.3242
  26   2.0000      -5.816919      -158.2864
  27   2.0000      -5.815377      -158.2445
  28   2.0000      -5.813909      -158.2045
  29   2.0000      -5.808665      -158.0618
  30   2.0000      -5.807329      -158.0254
  31   2.0000      -5.765439      -156.8856
  32   2.0000      -5.759509      -156.7242
  33   2.0000      -5.758124      -156.6865
  34   2.0000      -5.757933      -156.6813
  35   2.0000      -5.752142      -156.5237
  36   2.0000      -5.751764      -156.5135
  37   2.0000      -4.739788      -128.9762
  38   2.0000      -4.739406      -128.9658
  39   2.0000      -4.738307      -128.9359
  40   2.0000      -4.736150      -128.8772
  41   2.0000      -4.735802      -128.8677
  42   2.0000      -4.734379      -128.8290
  43   2.0000      -1.053210       -28.6593
  44   2.0000      -1.046765       -28.4839
  45   2.0000      -1.013973       -27.5916
  46   2.0000      -1.004777       -27.3414
  47   2.0000      -0.804220       -21.8839
  48   2.0000      -0.760323       -20.6894
  49   2.0000      -0.750649       -20.4262
  50   2.0000      -0.733914       -19.9708
  51   2.0000      -0.727000       -19.7827
  52   2.0000      -0.709822       -19.3153
  53   2.0000      -0.684526       -18.6269
  54   2.0000      -0.669680       -18.2229
  55   2.0000      -0.632328       -17.2065
  56   2.0000      -0.624640       -16.9973
  57   2.0000      -0.604105       -16.4385
  58   2.0000      -0.600290       -16.3347
  59   2.0000      -0.590616       -16.0715
  60   2.0000      -0.532033       -14.4774
  61   2.0000      -0.522428       -14.2160
  62   2.0000      -0.499140       -13.5823
  63   2.0000      -0.487854       -13.2752
  64   2.0000      -0.477360       -12.9896
  65   2.0000      -0.464254       -12.6330
  66   2.0000      -0.455167       -12.3857
  67   2.0000      -0.450673       -12.2634
  68   2.0000      -0.441229       -12.0065
  69   2.0000      -0.435432       -11.8487
  70   2.0000      -0.429098       -11.6764
  71   2.0000      -0.413976       -11.2649
  72   2.0000      -0.411388       -11.1944
  73   2.0000      -0.400931       -10.9099
  74   2.0000      -0.398695       -10.8490
  75   2.0000      -0.390037       -10.6134
  76   2.0000      -0.384626       -10.4662
  77   2.0000      -0.375456       -10.2167
  78   2.0000      -0.364489        -9.9183
  79   2.0000      -0.363831        -9.9004
  80   2.0000      -0.362823        -9.8729
  81   2.0000      -0.359966        -9.7952
  82   2.0000      -0.357907        -9.7391
  83   2.0000      -0.351121        -9.5545
  84   2.0000      -0.343117        -9.3367
  85   2.0000      -0.336019        -9.1435
  86   2.0000      -0.324985        -8.8433
  87   2.0000      -0.318985        -8.6800
  88   2.0000      -0.310572        -8.4511
  89   2.0000      -0.303126        -8.2485
  90   2.0000      -0.298579        -8.1247
  91   2.0000      -0.292177        -7.9505
  92   2.0000      -0.285736        -7.7753
  93   2.0000      -0.280832        -7.6418
  94   2.0000      -0.267943        -7.2911
  95   2.0000      -0.246291        -6.7019
  96   2.0000      -0.231599        -6.3021
  97   2.0000      -0.227715        -6.1965
  98   2.0000      -0.220908        -6.0112
  99   2.0000      -0.211939        -5.7672
 100   2.0000      -0.211111        -5.7446
 101   0.0000      -0.050071        -1.3625
 102   0.0000      -0.025945        -0.7060
 103   0.0000      -0.002198        -0.0598
 104   0.0000      -0.000164        -0.0045
 105   0.0000       0.009897         0.2693

MULLIKEN ATOMIC CHARGES
-----------------------
   0 C :   -0.465600
   1 C :   -0.105180
   2 O :   -0.275837
   3 P :    0.673543
   4 S :   -0.464729
   5 O :   -0.300883
   6 C :   -0.149921
   7 C :   -0.425654
   8 S :   -0.150697
   9 C :   -0.229391
  10 S :   -0.155148
  11 P :    0.711607
  12 S :   -0.487453
  13 O :   -0.246408
  14 C :   -0.161604
  15 C :   -0.445831
  16 O :   -0.292519
  17 C :   -0.157732
  18 C :   -0.438873
  19 H :    0.142973
  20 H :    0.147475
  21 H :    0.168025
  22 H :    0.171492
  23 H :    0.147001
  24 H :    0.150995
  25 H :    0.150376
  26 H :    0.168794
  27 H :    0.146640
  28 H :    0.164418
  29 H :    0.211070
  30 H :    0.213169
  31 H :    0.159662
  32 H :    0.173396
  33 H :    0.167907
  34 H :    0.155607
  35 H :    0.147561
  36 H :    0.171575
  37 H :    0.152681
  38 H :    0.148036
  39 H :    0.153913
  40 H :    0.155545
Sum of atomic charges:   -0.0000000

LOEWDIN ATOMIC CHARGES
----------------------
   0 C :   -0.392779
   1 C :    0.014272
   2 O :   -0.653755
   3 P :    0.387045
   4 S :   -0.130541
   5 O :   -0.652000
   6 C :    0.023034
   7 C :   -0.406556
   8 S :    0.160973
   9 C :   -0.419910
  10 S :    0.167552
  11 P :    0.372509
  12 S :   -0.130191
  13 O :   -0.674724
  14 C :    0.017558
  15 C :   -0.398895
  16 O :   -0.664826
  17 C :    0.020480
  18 C :   -0.385102
  19 H :    0.157551
  20 H :    0.158952
  21 H :    0.167915
  22 H :    0.182264
  23 H :    0.172096
  24 H :    0.171528
  25 H :    0.181687
  26 H :    0.165958
  27 H :    0.157912
  28 H :    0.165481
  29 H :    0.191659
  30 H :    0.189984
  31 H :    0.182421
  32 H :    0.181690
  33 H :    0.164905
  34 H :    0.159797
  35 H :    0.159702
  36 H :    0.180986
  37 H :    0.172214
  38 H :    0.160525
  39 H :    0.160121
  40 H :    0.160507

  Mayer bond orders larger than 0.100000
B(  0-C ,  1-C ) :   0.9373 B(  0-C , 19-H ) :   0.9677 B(  0-C , 20-H ) :   0.9682
B(  0-C , 21-H ) :   0.9665 B(  1-C ,  2-O ) :   0.7546 B(  1-C , 22-H ) :   0.9604
B(  1-C , 23-H ) :   0.9453 B(  2-O ,  3-P ) :   1.1601 B(  3-P ,  4-S ) :   1.7802
B(  3-P ,  5-O ) :   1.1206 B(  3-P ,  8-S ) :   1.0166 B(  5-O ,  6-C ) :   0.8077
B(  6-C ,  7-C ) :   0.9406 B(  6-C , 24-H ) :   0.9628 B(  6-C , 25-H ) :   0.9585
B(  7-C , 26-H ) :   0.9544 B(  7-C , 27-H ) :   0.9629 B(  7-C , 28-H ) :   0.9662
B(  8-S ,  9-C ) :   0.9058 B(  9-C , 10-S ) :   0.9018 B(  9-C , 29-H ) :   0.9071
B(  9-C , 30-H ) :   0.9099 B( 10-S , 11-P ) :   1.0471 B( 11-P , 12-S ) :   1.7550
B( 11-P , 13-O ) :   1.1348 B( 11-P , 16-O ) :   1.0788 B( 13-O , 14-C ) :   0.7690
B( 14-C , 15-C ) :   0.9199 B( 14-C , 31-H ) :   0.9633 B( 14-C , 32-H ) :   0.9584
B( 15-C , 33-H ) :   0.9609 B( 15-C , 34-H ) :   0.9744 B( 15-C , 35-H ) :   0.9635
B( 16-O , 17-C ) :   0.7790 B( 17-C , 18-C ) :   0.9577 B( 17-C , 36-H ) :   0.9520
B( 17-C , 37-H ) :   0.9449 B( 18-C , 38-H ) :   0.9642 B( 18-C , 39-H ) :   0.9714
B( 18-C , 40-H ) :   0.9710

Dispersion correction           -0.021887212
FINAL SINGLE POINT ENERGY     -2932.462519095967

DIPOLE MOMENT
-------------

Method             : SCF
Type of density    : Electron Density
Multiplicity       :   1
Irrep              :   0
Energy             : -2932.4871153425201555 Eh
Relativity type    :
Basis              : AO
                                X                 Y                 Z
Electronic contribution:      9.679754931       1.553755215     -11.616195878
Nuclear contribution   :    -10.275411212      -1.416128041      12.486373166
                        -----------------------------------------
Total Dipole Moment    :     -0.595656281       0.137627174       0.870177288
                        -----------------------------------------
Magnitude (a.u.)       :      1.063464225
Magnitude (Debye)      :      2.703111240

Rotational constants in cm-1:             0.013124             0.005030             0.004816
Rotational constants in MHz :           393.446725           150.797654           144.380802

                             ****ORCA TERMINATED NORMALLY****
TOTAL RUN TIME: 0 days 0 hours 1 minutes 23 seconds 296 msec
