                         Program Version 6.0.0  -   RELEASE  -
|  1> ! r2scan-3c def2/J RI DEFGRID2 scfconv6 printgap
|  2> %output
|  3>     printlevel normal
|  4> end
|  5> %cpcm
|  6>     smd true
|  7>     smdsolvent "water"
|  8> end
|  9> * xyz 0 1
| 10> C -0.0038894402 -2.2790045932 2.3864876166
| 11> C 1.3455870772 -2.0580500295 1.7352196631
| 12> O 1.517268239 -0.6464641306 1.481867445
| 13> P 2.3637108648 -0.0501743319 0.2839549647
| 14> S 3.2264755859 -1.4020143501 -0.8506223685
| 15> O 3.2899865362 0.9103936501 1.1380714599
| 16> C 3.9874590371 2.0653970679 0.6351474739
| 17> C 4.8732446561 1.7461432887 -0.5516000718
| 18> S 1.0895647016 1.3187846218 -0.7277789422
| 19> C 0.4400451862 0.13685255 -1.9339522845
| 20> S -0.5350855999 -1.1808944575 -1.1614574046
| 21> P -2.0199874827 0.0855269083 -0.3396873456
| 22> S -2.6071403259 1.5681112799 -1.4856075843
| 23> O -1.3976005029 0.4638262304 1.0619363145
| 24> C -1.6853800883 1.7112928177 1.7226712658
| 25> C -3.094064841 1.7237300445 2.2766629748
| 26> O -3.1549183367 -0.935160206 0.0928619441
| 27> C -4.0699316762 -1.5032783008 -0.8663573301
| 28> C -5.2630387921 -2.046603864 -0.1064921493
| 29> H -0.1111893352 -3.3327636537 2.6221879692
| 30> H -0.0753136894 -1.6940221362 3.2986707052
| 31> H -0.8057428592 -1.9800768717 1.7157702308
| 32> H 1.4309184469 -2.6063641681 0.79098127
| 33> H 2.1573257429 -2.3671379312 2.3982631194
| 34> H 3.2466643878 2.8261504475 0.3727681444
| 35> H 4.574310742 2.4012267092 1.4920223246
| 36> H 4.2667678397 1.4409256826 -1.4031791234
| 37> H 5.4441260261 2.6284412641 -0.8225241643
| 38> H 5.5561068097 0.9357990271 -0.3073635971
| 39> H 1.265717093 -0.351356711 -2.4517127236
| 40> H -0.1874276648 0.7040110023 -2.6208194119
| 41> H -0.932252536 1.7717797217 2.5096339693
| 42> H -1.5390958606 2.5281459481 1.0080042519
| 43> H -3.8090834261 1.6683000865 1.4563669022
| 44> H -3.2472886281 0.8728037689 2.9347962899
| 45> H -3.2584826687 2.644446823 2.8274273512
| 46> H -4.364942078 -0.7201871331 -1.5729880596
| 47> H -3.5469485954 -2.2953344505 -1.4091991999
| 48> H -5.9507940647 -2.5076575682 -0.807691332
| 49> H -4.9347946117 -2.7873754179 0.6166127421
| 50> H -5.7716159733 -1.2428863416 0.4181888547
| 51> *
| 52>
| 53>                          ****END OF INPUT****

CARTESIAN COORDINATES (ANGSTROEM)
---------------------------------
  C     -0.003889   -2.279005    2.386488
  C      1.345587   -2.058050    1.735220
  O      1.517268   -0.646464    1.481867
  P      2.363711   -0.050174    0.283955
  S      3.226476   -1.402014   -0.850622
  O      3.289987    0.910394    1.138071
  C      3.987459    2.065397    0.635147
  C      4.873245    1.746143   -0.551600
  S      1.089565    1.318785   -0.727779
  C      0.440045    0.136853   -1.933952
  S     -0.535086   -1.180894   -1.161457
  P     -2.019987    0.085527   -0.339687
  S     -2.607140    1.568111   -1.485608
  O     -1.397601    0.463826    1.061936
  C     -1.685380    1.711293    1.722671
  C     -3.094065    1.723730    2.276663
  O     -3.154918   -0.935160    0.092862
  C     -4.069932   -1.503278   -0.866357
  C     -5.263039   -2.046604   -0.106492
  H     -0.111189   -3.332764    2.622188
  H     -0.075314   -1.694022    3.298671
  H     -0.805743   -1.980077    1.715770
  H      1.430918   -2.606364    0.790981
  H      2.157326   -2.367138    2.398263
  H      3.246664    2.826150    0.372768
  H      4.574311    2.401227    1.492022
  H      4.266768    1.440926   -1.403179
  H      5.444126    2.628441   -0.822524
  H      5.556107    0.935799   -0.307364
  H      1.265717   -0.351357   -2.451713
  H     -0.187428    0.704011   -2.620819
  H     -0.932253    1.771780    2.509634
  H     -1.539096    2.528146    1.008004
  H     -3.809083    1.668300    1.456367
  H     -3.247289    0.872804    2.934796
  H     -3.258483    2.644447    2.827427
  H     -4.364942   -0.720187   -1.572988
  H     -3.546949   -2.295334   -1.409199
  H     -5.950794   -2.507658   -0.807691
  H     -4.934795   -2.787375    0.616613
  H     -5.771616   -1.242886    0.418189

 Total Charge           Charge          ....    0
 Multiplicity           Mult            ....    1
 Number of Electrons    NEL             ....  202
 Basis Dimension        Dim             ....  539

ORBITAL ENERGIES
----------------

  NO   OCC          E(Eh)            E(eV)
   0   2.0000     -88.580284     -2410.3921
   1   2.0000     -88.579991     -2410.3841
   2   2.0000     -88.529089     -2408.9990
   3   2.0000     -88.526547     -2408.9298
   4   2.0000     -76.920200     -2093.1050
   5   2.0000     -76.919881     -2093.0964
   6   2.0000     -18.997010      -516.9349
   7   2.0000     -18.995495      -516.8937
   8   2.0000     -18.993544      -516.8406
   9   2.0000     -18.991595      -516.7876
  10   2.0000     -10.105601      -274.9874
  11   2.0000     -10.093265      -274.6517
  12   2.0000     -10.090873      -274.5866
  13   2.0000     -10.089725      -274.5554
  14   2.0000     -10.087827      -274.5037
  15   2.0000     -10.019927      -272.6561
  16   2.0000     -10.018644      -272.6212
  17   2.0000     -10.018586      -272.6196
  18   2.0000     -10.017190      -272.5816
  19   2.0000      -7.874620      -214.2793
  20   2.0000      -7.874294      -214.2704
  21   2.0000      -7.824123      -212.9052
  22   2.0000      -7.821730      -212.8401
  23   2.0000      -6.598589      -179.5567
  24   2.0000      -6.598434      -179.5525
  25   2.0000      -5.821408      -158.4086
  26   2.0000      -5.821127      -158.4009
  27   2.0000      -5.818492      -158.3292
  28   2.0000      -5.818100      -158.3186
  29   2.0000      -5.811829      -158.1479
  30   2.0000      -5.811519      -158.1395
  31   2.0000      -5.771656      -157.0548
  32   2.0000      -5.769342      -156.9918
  33   2.0000      -5.764375      -156.8566
  34   2.0000      -5.764217      -156.8523
  35   2.0000      -5.762069      -156.7939
  36   2.0000      -5.761641      -156.7822
  37   2.0000      -4.743873      -129.0874
  38   2.0000      -4.743845      -129.0866
  39   2.0000      -4.743544      -129.0784
  40   2.0000      -4.743544      -129.0784
  41   2.0000      -4.742491      -129.0497
  42   2.0000      -4.742135      -129.0400
  43   2.0000      -1.054714       -28.7002
  44   2.0000      -1.052797       -28.6481
  45   2.0000      -1.014908       -27.6170
  46   2.0000      -1.010703       -27.5026
  47   2.0000      -0.806404       -21.9434
  48   2.0000      -0.757665       -20.6171
  49   2.0000      -0.746155       -20.3039
  50   2.0000      -0.724404       -19.7120
  51   2.0000      -0.722106       -19.6495
  52   2.0000      -0.710298       -19.3282
  53   2.0000      -0.688738       -18.7415
  54   2.0000      -0.675623       -18.3846
  55   2.0000      -0.630500       -17.1568
  56   2.0000      -0.622841       -16.9484
  57   2.0000      -0.600814       -16.3490
  58   2.0000      -0.592261       -16.1162
  59   2.0000      -0.589534       -16.0420
  60   2.0000      -0.528975       -14.3941
  61   2.0000      -0.521129       -14.1806
  62   2.0000      -0.496813       -13.5190
  63   2.0000      -0.487521       -13.2661
  64   2.0000      -0.477517       -12.9939
  65   2.0000      -0.461033       -12.5453
  66   2.0000      -0.449301       -12.2261
  67   2.0000      -0.446571       -12.1518
  68   2.0000      -0.441071       -12.0021
  69   2.0000      -0.435468       -11.8497
  70   2.0000      -0.427908       -11.6440
  71   2.0000      -0.411683       -11.2025
  72   2.0000      -0.409678       -11.1479
  73   2.0000      -0.400141       -10.8884
  74   2.0000      -0.398838       -10.8529
  75   2.0000      -0.384830       -10.4717
  76   2.0000      -0.384101       -10.4519
  77   2.0000      -0.363860        -9.9011
  78   2.0000      -0.362652        -9.8683
  79   2.0000      -0.357783        -9.7358
  80   2.0000      -0.355275        -9.6675
  81   2.0000      -0.353446        -9.6177
  82   2.0000      -0.350673        -9.5423
  83   2.0000      -0.347910        -9.4671
  84   2.0000      -0.341096        -9.2817
  85   2.0000      -0.332368        -9.0442
  86   2.0000      -0.322882        -8.7861
  87   2.0000      -0.313918        -8.5422
  88   2.0000      -0.309827        -8.4308
  89   2.0000      -0.304256        -8.2792
  90   2.0000      -0.299604        -8.1527
  91   2.0000      -0.291826        -7.9410
  92   2.0000      -0.287130        -7.8132
  93   2.0000      -0.279227        -7.5981
  94   2.0000      -0.271163        -7.3787
  95   2.0000      -0.250266        -6.8101
  96   2.0000      -0.237506        -6.4629
  97   2.0000      -0.235104        -6.3975
  98   2.0000      -0.228109        -6.2072
  99   2.0000      -0.220001        -5.9865
 100   2.0000      -0.219725        -5.9790
 101   0.0000      -0.054687        -1.4881
 102   0.0000      -0.031975        -0.8701
 103   0.0000      -0.007827        -0.2130
 104   0.0000      -0.003491        -0.0950
 105   0.0000       0.009205         0.2505

MULLIKEN ATOMIC CHARGES
-----------------------
   0 C :   -0.511902
   1 C :   -0.099730
   2 O :   -0.309693
   3 P :    0.703866
   4 S :   -0.508737
   5 O :   -0.333980
   6 C :   -0.150533
   7 C :   -0.465722
   8 S :   -0.152960
   9 C :   -0.239912
  10 S :   -0.163988
  11 P :    0.739404
  12 S :   -0.529486
  13 O :   -0.274720
  14 C :   -0.153355
  15 C :   -0.486290
  16 O :   -0.318078
  17 C :   -0.148576
  18 C :   -0.482535
  19 H :    0.169182
  20 H :    0.167553
  21 H :    0.166364
  22 H :    0.172302
  23 H :    0.170527
  24 H :    0.171461
  25 H :    0.177386
  26 H :    0.166004
  27 H :    0.173555
  28 H :    0.170088
  29 H :    0.230341
  30 H :    0.235704
  31 H :    0.181548
  32 H :    0.176529
  33 H :    0.167409
  34 H :    0.170175
  35 H :    0.172696
  36 H :    0.173418
  37 H :    0.172041
  38 H :    0.170113
  39 H :    0.166176
  40 H :    0.166356
Sum of atomic charges:   -0.0000000

LOEWDIN ATOMIC CHARGES
----------------------
   0 C :   -0.396475
   1 C :    0.016582
   2 O :   -0.673137
   3 P :    0.389655
   4 S :   -0.159672
   5 O :   -0.668226
   6 C :    0.029519
   7 C :   -0.409995
   8 S :    0.163076
   9 C :   -0.413773
  10 S :    0.163694
  11 P :    0.377304
  12 S :   -0.156900
  13 O :   -0.691199
  14 C :    0.021517
  15 C :   -0.401842
  16 O :   -0.675797
  17 C :    0.025416
  18 C :   -0.388813
  19 H :    0.168077
  20 H :    0.163618
  21 H :    0.165059
  22 H :    0.182726
  23 H :    0.180961
  24 H :    0.179522
  25 H :    0.193221
  26 H :    0.161828
  27 H :    0.168230
  28 H :    0.164377
  29 H :    0.197656
  30 H :    0.196950
  31 H :    0.191180
  32 H :    0.182759
  33 H :    0.162612
  34 H :    0.163868
  35 H :    0.168992
  36 H :    0.181989
  37 H :    0.180010
  38 H :    0.169197
  39 H :    0.163434
  40 H :    0.162799

  Mayer bond orders larger than 0.100000
B(  0-C ,  1-C ) :   0.9275 B(  0-C , 19-H ) :   0.9605 B(  0-C , 20-H ) :   0.9662
B(  0-C , 21-H ) :   0.9665 B(  1-C ,  2-O ) :   0.7475 B(  1-C , 22-H ) :   0.9569
B(  1-C , 23-H ) :   0.9364 B(  2-O ,  3-P ) :   1.1550 B(  3-P ,  4-S ) :   1.7479
B(  3-P ,  5-O ) :   1.1263 B(  3-P ,  8-S ) :   1.0357 B(  5-O ,  6-C ) :   0.7981
B(  6-C ,  7-C ) :   0.9218 B(  6-C , 24-H ) :   0.9572 B(  6-C , 25-H ) :   0.9486
B(  7-C , 26-H ) :   0.9567 B(  7-C , 27-H ) :   0.9566 B(  7-C , 28-H ) :   0.9672
B(  8-S ,  9-C ) :   0.8947 B(  9-C , 10-S ) :   0.8912 B(  9-C , 29-H ) :   0.9022
B(  9-C , 30-H ) :   0.9036 B( 10-S , 11-P ) :   1.0606 B( 11-P , 12-S ) :   1.7210
B( 11-P , 13-O ) :   1.1397 B( 11-P , 16-O ) :   1.0866 B( 13-O , 14-C ) :   0.7571
B( 14-C , 15-C ) :   0.9120 B( 14-C , 31-H ) :   0.9534 B( 14-C , 32-H ) :   0.9537
B( 15-C , 33-H ) :   0.9605 B( 15-C , 34-H ) :   0.9725 B( 15-C , 35-H ) :   0.9576
B( 16-O , 17-C ) :   0.7720 B( 17-C , 18-C ) :   0.9527 B( 17-C , 36-H ) :   0.9487
B( 17-C , 37-H ) :   0.9360 B( 18-C , 38-H ) :   0.9583 B( 18-C , 39-H ) :   0.9688
B( 18-C , 40-H ) :   0.9689

Dispersion correction           -0.021887212
FINAL SINGLE POINT ENERGY     -2932.470881562008

DIPOLE MOMENT
-------------

Method             : SCF
Type of density    : Electron Density
Multiplicity       :   1
Irrep              :   0
Energy             : -2932.4954778085607359 Eh
Relativity type    :
Basis              : AO
                                X                 Y                 Z
Electronic contribution:      9.568446635       1.641962821     -11.491485135
Nuclear contribution   :    -10.275411212      -1.416128041      12.486373166
                        -----------------------------------------
Total Dipole Moment    :     -0.706964577       0.225834780       0.994888031
                        -----------------------------------------
Magnitude (a.u.)       :      1.241210077
Magnitude (Debye)      :      3.154905291

Rotational constants in cm-1:             0.013124             0.005030             0.004816
Rotational constants in MHz :           393.446725           150.797654           144.380802

                             ****ORCA TERMINATED NORMALLY****
TOTAL RUN TIME: 0 days 0 hours 1 minutes 58 seconds 712 msec
