                         Program Version 6.0.0  -   RELEASE  -
|  1> ! pbe def2-sv(p) def2/J RI DEFGRID1 loosescf d4 GCP(DFT/SV(P)) printgap
|  2> %output
|  3>     printlevel normal
|  4> end
|  5> * xyz 0 1
|  6> C 2.9925272662 0.2138885219 3.319807724
|  7> C 1.657244183 -0.2453085389 2.773797071
|  8> O 1.4004203088 0.2969528375 1.4613127683
|  9> P 2.2437451112 -0.1395650377 0.1938525639
| 10> S 2.9010869603 -1.9904366995 0.1932650897
| 11> O 3.3635701067 0.9859272999 0.1459964868
| 12> C 4.558126365 0.8535279453 -0.6430460117
| 13> C 4.2684973892 0.9030509268 -2.1293763213
| 14> S 0.8947898658 0.3934354255 -1.3457845286
| 15> C -0.0585005722 -1.1475156792 -1.2977524352
| 16> S -1.1249879495 -1.2768034233 0.156891486
| 17> P -2.4998154985 0.241963313 -0.4494897841
| 18> S -2.909290804 0.3047120537 -2.3582759754
| 19> O -1.8917864624 1.6003433907 0.0703288943
| 20> C -1.6406228904 1.8688526686 1.4728015581
| 21> C -0.6221296213 2.986417625 1.5541131887
| 22> O -3.7352428831 0.0432983127 0.5325656685
| 23> C -4.8344671972 -0.8379231911 0.2336499712
| 24> C -4.4138626595 -2.2923177214 0.1894403652
| 25> H 3.1011615003 -0.1317527543 4.3430229927
| 26> H 3.80040783 -0.2021471161 2.7189662759
| 27> H 3.0575624259 1.298358107 3.2934549527
| 28> H 0.8259994237 0.1207510214 3.3777437162
| 29> H 1.617217211 -1.3373692554 2.7104066957
| 30> H 5.1773314974 1.6932633371 -0.3248313438
| 31> H 5.0444781282 -0.0910709243 -0.3787980932
| 32> H 3.6983801946 0.024099639 -2.4282187395
| 33> H 3.6909670707 1.7914123333 -2.3732309857
| 34> H 5.204306341 0.9186205553 -2.6788400906
| 35> H 0.624377182 -1.9969409571 -1.2672364723
| 36> H -0.6748234755 -1.1616981914 -2.1969468865
| 37> H -2.590592361 2.1516184669 1.9302959724
| 38> H -1.2718355694 0.9517972066 1.9420147705
| 39> H -0.9822359909 3.8547564558 1.0098959049
| 40> H -0.464639668 3.251233051 2.5947249682
| 41> H 0.3209293617 2.666906208 1.1172663232
| 42> H -5.5434687518 -0.6472567862 1.0405540956
| 43> H -5.2673786014 -0.5336832333 -0.7239915872
| 44> H -5.2961946429 -2.9164412853 0.0908465982
| 45> H -3.7628953465 -2.4663723277 -0.6660007602
| 46> H -3.8798331232 -2.5615710747 1.0973388219
| 47> *
| 48>
| 49>                          ****END OF INPUT****

CARTESIAN COORDINATES (ANGSTROEM)
---------------------------------
  C      2.992527    0.213889    3.319808
  C      1.657244   -0.245309    2.773797
  O      1.400420    0.296953    1.461313
  P      2.243745   -0.139565    0.193853
  S      2.901087   -1.990437    0.193265
  O      3.363570    0.985927    0.145996
  C      4.558126    0.853528   -0.643046
  C      4.268497    0.903051   -2.129376
  S      0.894790    0.393435   -1.345785
  C     -0.058501   -1.147516   -1.297752
  S     -1.124988   -1.276803    0.156891
  P     -2.499815    0.241963   -0.449490
  S     -2.909291    0.304712   -2.358276
  O     -1.891786    1.600343    0.070329
  C     -1.640623    1.868853    1.472802
  C     -0.622130    2.986418    1.554113
  O     -3.735243    0.043298    0.532566
  C     -4.834467   -0.837923    0.233650
  C     -4.413863   -2.292318    0.189440
  H      3.101162   -0.131753    4.343023
  H      3.800408   -0.202147    2.718966
  H      3.057562    1.298358    3.293455
  H      0.825999    0.120751    3.377744
  H      1.617217   -1.337369    2.710407
  H      5.177331    1.693263   -0.324831
  H      5.044478   -0.091071   -0.378798
  H      3.698380    0.024100   -2.428219
  H      3.690967    1.791412   -2.373231
  H      5.204306    0.918621   -2.678840
  H      0.624377   -1.996941   -1.267236
  H     -0.674823   -1.161698   -2.196947
  H     -2.590592    2.151618    1.930296
  H     -1.271836    0.951797    1.942015
  H     -0.982236    3.854756    1.009896
  H     -0.464640    3.251233    2.594725
  H      0.320929    2.666906    1.117266
  H     -5.543469   -0.647257    1.040554
  H     -5.267379   -0.533683   -0.723992
  H     -5.296195   -2.916441    0.090847
  H     -3.762895   -2.466372   -0.666001
  H     -3.879833   -2.561571    1.097339

 Total Charge           Charge          ....    0
 Multiplicity           Mult            ....    1
 Number of Electrons    NEL             ....  202
 Basis Dimension        Dim             ....  334

ORBITAL ENERGIES
----------------

  NO   OCC          E(Eh)            E(eV)
   0   2.0000     -88.042404     -2395.7556
   1   2.0000     -88.040057     -2395.6917
   2   2.0000     -87.993790     -2394.4328
   3   2.0000     -87.985874     -2394.2173
   4   2.0000     -76.430381     -2079.7764
   5   2.0000     -76.424780     -2079.6240
   6   2.0000     -18.799092      -511.5493
   7   2.0000     -18.795519      -511.4521
   8   2.0000     -18.794929      -511.4360
   9   2.0000     -18.787967      -511.2466
  10   2.0000      -9.956506      -270.9303
  11   2.0000      -9.956312      -270.9250
  12   2.0000      -9.954472      -270.8749
  13   2.0000      -9.951096      -270.7831
  14   2.0000      -9.950979      -270.7799
  15   2.0000      -9.888399      -269.0770
  16   2.0000      -9.886166      -269.0162
  17   2.0000      -9.884547      -268.9722
  18   2.0000      -9.881229      -268.8819
  19   2.0000      -7.687520      -209.1881
  20   2.0000      -7.684884      -209.1163
  21   2.0000      -7.638629      -207.8577
  22   2.0000      -7.631183      -207.6550
  23   2.0000      -6.428013      -174.9151
  24   2.0000      -6.422327      -174.7604
  25   2.0000      -5.715332      -155.5221
  26   2.0000      -5.712596      -155.4476
  27   2.0000      -5.712228      -155.4376
  28   2.0000      -5.709506      -155.3636
  29   2.0000      -5.704334      -155.2228
  30   2.0000      -5.701934      -155.1575
  31   2.0000      -5.667418      -154.2183
  32   2.0000      -5.660104      -154.0193
  33   2.0000      -5.659280      -153.9969
  34   2.0000      -5.658928      -153.9873
  35   2.0000      -5.651729      -153.7914
  36   2.0000      -5.651371      -153.7816
  37   2.0000      -4.650474      -126.5458
  38   2.0000      -4.649737      -126.5258
  39   2.0000      -4.648566      -126.4939
  40   2.0000      -4.645249      -126.4037
  41   2.0000      -4.643948      -126.3683
  42   2.0000      -4.642620      -126.3321
  43   2.0000      -0.992539       -27.0084
  44   2.0000      -0.987245       -26.8643
  45   2.0000      -0.951824       -25.9005
  46   2.0000      -0.943151       -25.6644
  47   2.0000      -0.764332       -20.7985
  48   2.0000      -0.722482       -19.6597
  49   2.0000      -0.710214       -19.3259
  50   2.0000      -0.691050       -18.8044
  51   2.0000      -0.688414       -18.7327
  52   2.0000      -0.677051       -18.4235
  53   2.0000      -0.652270       -17.7492
  54   2.0000      -0.638726       -17.3806
  55   2.0000      -0.605824       -16.4853
  56   2.0000      -0.592093       -16.1117
  57   2.0000      -0.576803       -15.6956
  58   2.0000      -0.568390       -15.4667
  59   2.0000      -0.559147       -15.2152
  60   2.0000      -0.504732       -13.7345
  61   2.0000      -0.496598       -13.5131
  62   2.0000      -0.478339       -13.0163
  63   2.0000      -0.473763       -12.8918
  64   2.0000      -0.460555       -12.5323
  65   2.0000      -0.447564       -12.1788
  66   2.0000      -0.442974       -12.0539
  67   2.0000      -0.438018       -11.9191
  68   2.0000      -0.428633       -11.6637
  69   2.0000      -0.421114       -11.4591
  70   2.0000      -0.410107       -11.1596
  71   2.0000      -0.398837       -10.8529
  72   2.0000      -0.391091       -10.6421
  73   2.0000      -0.388820       -10.5803
  74   2.0000      -0.379678       -10.3316
  75   2.0000      -0.374975       -10.2036
  76   2.0000      -0.364053        -9.9064
  77   2.0000      -0.362112        -9.8536
  78   2.0000      -0.357351        -9.7240
  79   2.0000      -0.352700        -9.5975
  80   2.0000      -0.351002        -9.5513
  81   2.0000      -0.347250        -9.4491
  82   2.0000      -0.341800        -9.3008
  83   2.0000      -0.337353        -9.1798
  84   2.0000      -0.336977        -9.1696
  85   2.0000      -0.321018        -8.7353
  86   2.0000      -0.310356        -8.4452
  87   2.0000      -0.300526        -8.1777
  88   2.0000      -0.299336        -8.1453
  89   2.0000      -0.294923        -8.0253
  90   2.0000      -0.288820        -7.8592
  91   2.0000      -0.278961        -7.5909
  92   2.0000      -0.269293        -7.3278
  93   2.0000      -0.265662        -7.2290
  94   2.0000      -0.258740        -7.0407
  95   2.0000      -0.234326        -6.3763
  96   2.0000      -0.219456        -5.9717
  97   2.0000      -0.215770        -5.8714
  98   2.0000      -0.206604        -5.6220
  99   2.0000      -0.204741        -5.5713
 100   2.0000      -0.200355        -5.4519
 101   0.0000      -0.044309        -1.2057
 102   0.0000      -0.023952        -0.6518
 103   0.0000      -0.002455        -0.0668
 104   0.0000      -0.000280        -0.0076
 105   0.0000       0.014390         0.3916

MULLIKEN ATOMIC CHARGES
-----------------------
   0 C :   -0.304971
   1 C :   -0.007897
   2 O :   -0.361657
   3 P :    0.614100
   4 S :   -0.333888
   5 O :   -0.374302
   6 C :   -0.006532
   7 C :   -0.317005
   8 S :   -0.054822
   9 C :   -0.377379
  10 S :   -0.092659
  11 P :    0.605364
  12 S :   -0.313972
  13 O :   -0.353413
  14 C :   -0.015460
  15 C :   -0.284959
  16 O :   -0.387064
  17 C :   -0.000071
  18 C :   -0.318264
  19 H :    0.113224
  20 H :    0.123151
  21 H :    0.117332
  22 H :    0.105715
  23 H :    0.114279
  24 H :    0.107079
  25 H :    0.111804
  26 H :    0.129100
  27 H :    0.121538
  28 H :    0.115018
  29 H :    0.191227
  30 H :    0.195152
  31 H :    0.104237
  32 H :    0.108961
  33 H :    0.117426
  34 H :    0.100750
  35 H :    0.129595
  36 H :    0.104608
  37 H :    0.113692
  38 H :    0.114118
  39 H :    0.129520
  40 H :    0.117328
Sum of atomic charges:    0.0000000

LOEWDIN ATOMIC CHARGES
----------------------
   0 C :   -0.364604
   1 C :   -0.117677
   2 O :   -0.234416
   3 P :    0.574558
   4 S :   -0.322878
   5 O :   -0.242370
   6 C :   -0.118808
   7 C :   -0.369207
   8 S :    0.104854
   9 C :   -0.489802
  10 S :    0.075806
  11 P :    0.572162
  12 S :   -0.310033
  13 O :   -0.234417
  14 C :   -0.113679
  15 C :   -0.353995
  16 O :   -0.250371
  17 C :   -0.115401
  18 C :   -0.371043
  19 H :    0.131086
  20 H :    0.122820
  21 H :    0.126654
  22 H :    0.115196
  23 H :    0.112125
  24 H :    0.119606
  25 H :    0.110936
  26 H :    0.122349
  27 H :    0.126182
  28 H :    0.132169
  29 H :    0.128072
  30 H :    0.129093
  31 H :    0.112908
  32 H :    0.103495
  33 H :    0.128299
  34 H :    0.125836
  35 H :    0.125119
  36 H :    0.118555
  37 H :    0.113706
  38 H :    0.131646
  39 H :    0.122232
  40 H :    0.123239

  Mayer bond orders larger than 0.100000
B(  0-C ,  1-C ) :   1.1650 B(  0-C , 19-H ) :   0.9386 B(  0-C , 20-H ) :   0.9352
B(  0-C , 21-H ) :   0.9465 B(  1-C ,  2-O ) :   0.9031 B(  1-C , 22-H ) :   0.9296
B(  1-C , 23-H ) :   0.9164 B(  2-O ,  3-P ) :   1.1089 B(  3-P ,  4-S ) :   1.5854
B(  3-P ,  5-O ) :   1.1076 B(  3-P ,  8-S ) :   0.9705 B(  4-S ,  8-S ) :   0.1089
B(  5-O ,  6-C ) :   0.9063 B(  6-C ,  7-C ) :   1.1663 B(  6-C , 24-H ) :   0.9335
B(  6-C , 25-H ) :   0.9166 B(  7-C , 26-H ) :   0.9352 B(  7-C , 27-H ) :   0.9444
B(  7-C , 28-H ) :   0.9377 B(  8-S ,  9-C ) :   1.0033 B(  9-C , 10-S ) :   1.0046
B(  9-C , 29-H ) :   0.8732 B(  9-C , 30-H ) :   0.8721 B( 10-S , 11-P ) :   0.9465
B( 10-S , 12-S ) :   0.1087 B( 11-P , 12-S ) :   1.6363 B( 11-P , 13-O ) :   1.1432
B( 11-P , 16-O ) :   1.0851 B( 13-O , 14-C ) :   0.8889 B( 14-C , 15-C ) :   1.1681
B( 14-C , 31-H ) :   0.9310 B( 14-C , 32-H ) :   0.9079 B( 15-C , 33-H ) :   0.9478
B( 15-C , 34-H ) :   0.9408 B( 15-C , 35-H ) :   0.9386 B( 16-O , 17-C ) :   0.9071
B( 17-C , 18-C ) :   1.1659 B( 17-C , 36-H ) :   0.9345 B( 17-C , 37-H ) :   0.9196
B( 18-C , 38-H ) :   0.9368 B( 18-C , 39-H ) :   0.9345 B( 18-C , 40-H ) :   0.9438

Dispersion correction           -0.066203992
FINAL SINGLE POINT ENERGY     -2929.526210519285

DIPOLE MOMENT
-------------

Method             : SCF
Type of density    : Electron Density
Multiplicity       :   1
Irrep              :   0
Energy             : -2929.6458516915527071 Eh
Relativity type    :
Basis              : AO
                                X                 Y                 Z
Electronic contribution:     -5.969110674      -4.130080020     -12.274239008
Nuclear contribution   :      6.254633009       4.413589196      13.706951513
                        -----------------------------------------
Total Dipole Moment    :      0.285522335       0.283509176       1.432712505
                        -----------------------------------------
Magnitude (a.u.)       :      1.488141653
Magnitude (Debye)      :      3.782555477

Rotational constants in cm-1:             0.012925             0.004848             0.004634
Rotational constants in MHz :           387.483845           145.324989           138.936333

                             ****ORCA TERMINATED NORMALLY****
TOTAL RUN TIME: 0 days 0 hours 0 minutes 21 seconds 490 msec
