                         Program Version 6.0.0  -   RELEASE  -
|  1> ! pbe def2-sv(p) def2/J RI DEFGRID1 loosescf d4 GCP(DFT/SV(P)) printgap
|  2> %output
|  3>     printlevel normal
|  4> end
|  5> * xyz 0 1
|  6> C 5.5208825501 0.3999649623 -1.0830168764
|  7> C 4.6188432868 -0.5990930632 -0.385277139
|  8> O 3.534296095 0.0830397927 0.2781230734
|  9> P 2.063758159 0.1269373324 -0.3322518383
| 10> S 1.9951373912 0.5078604883 -2.2578759923
| 11> O 1.3783495878 1.1439149817 0.6641558647
| 12> C 1.5317122853 2.5716901232 0.4966254187
| 13> C 0.6889765205 3.2487884207 1.5554787448
| 14> S 1.2596636047 -1.7066026439 0.2924923614
| 15> C -0.016463926 -1.9786586191 -0.9894908544
| 16> S -1.674744931 -2.105439217 -0.2948962489
| 17> P -1.9456409771 -0.0598849441 0.2361465611
| 18> S -1.322527205 1.2264112466 -1.1042511811
| 19> O -1.2647779505 0.1881693676 1.6300614426
| 20> C -1.2160054532 -0.718329803 2.7615782119
| 21> C -2.576942527 -1.2274917457 3.1817781428
| 22> O -3.4923356138 0.0017925344 0.5868190654
| 23> C -4.5269211738 -0.1471070253 -0.405654099
| 24> C -4.9895226687 1.2046336023 -0.9137749186
| 25> H 5.8886983311 1.1335851049 -0.3712524433
| 26> H 6.3606462406 -0.1251864581 -1.5261819939
| 27> H 4.969519933 0.9139056649 -1.8677815218
| 28> H 5.1460510985 -1.1311011713 0.4083709554
| 29> H 4.2101368809 -1.3174267096 -1.1012651348
| 30> H 2.5912318364 2.819029372 0.6002391907
| 31> H 1.1955070626 2.834841834 -0.512303522
| 32> H -0.3508914696 2.952770207 1.4380986896
| 33> H 1.0294391166 2.9574597275 2.5446788311
| 34> H 0.7711790993 4.3247335436 1.4419360261
| 35> H 0.1880645184 -2.9321997168 -1.4690900699
| 36> H 0.0312921646 -1.1551343946 -1.7081741987
| 37> H -0.5492417459 -1.5462318368 2.5033646494
| 38> H -0.7548013766 -0.1090668553 3.540390266
| 39> H -2.4691762685 -1.7881569845 4.1053380439
| 40> H -3.2577238666 -0.3957520202 3.3425770353
| 41> H -2.9911841101 -1.8821700874 2.4180620744
| 42> H -4.156195818 -0.7686211255 -1.2250219624
| 43> H -5.3315760499 -0.671235128 0.1134595281
| 44> H -4.1737966715 1.7152949515 -1.4213387276
| 45> H -5.8084666521 1.0642622905 -1.611844515
| 46> H -5.3241234478 1.8211218838 -0.0841783788
| 47> *
| 48>
| 49>                          ****END OF INPUT****

CARTESIAN COORDINATES (ANGSTROEM)
---------------------------------
  C      5.520883    0.399965   -1.083017
  C      4.618843   -0.599093   -0.385277
  O      3.534296    0.083040    0.278123
  P      2.063758    0.126937   -0.332252
  S      1.995137    0.507860   -2.257876
  O      1.378350    1.143915    0.664156
  C      1.531712    2.571690    0.496625
  C      0.688977    3.248788    1.555479
  S      1.259664   -1.706603    0.292492
  C     -0.016464   -1.978659   -0.989491
  S     -1.674745   -2.105439   -0.294896
  P     -1.945641   -0.059885    0.236147
  S     -1.322527    1.226411   -1.104251
  O     -1.264778    0.188169    1.630061
  C     -1.216005   -0.718330    2.761578
  C     -2.576943   -1.227492    3.181778
  O     -3.492336    0.001793    0.586819
  C     -4.526921   -0.147107   -0.405654
  C     -4.989523    1.204634   -0.913775
  H      5.888698    1.133585   -0.371252
  H      6.360646   -0.125186   -1.526182
  H      4.969520    0.913906   -1.867782
  H      5.146051   -1.131101    0.408371
  H      4.210137   -1.317427   -1.101265
  H      2.591232    2.819029    0.600239
  H      1.195507    2.834842   -0.512304
  H     -0.350891    2.952770    1.438099
  H      1.029439    2.957460    2.544679
  H      0.771179    4.324734    1.441936
  H      0.188065   -2.932200   -1.469090
  H      0.031292   -1.155134   -1.708174
  H     -0.549242   -1.546232    2.503365
  H     -0.754801   -0.109067    3.540390
  H     -2.469176   -1.788157    4.105338
  H     -3.257724   -0.395752    3.342577
  H     -2.991184   -1.882170    2.418062
  H     -4.156196   -0.768621   -1.225022
  H     -5.331576   -0.671235    0.113460
  H     -4.173797    1.715295   -1.421339
  H     -5.808467    1.064262   -1.611845
  H     -5.324123    1.821122   -0.084178

 Total Charge           Charge          ....    0
 Multiplicity           Mult            ....    1
 Number of Electrons    NEL             ....  202
 Basis Dimension        Dim             ....  334

ORBITAL ENERGIES
----------------

  NO   OCC          E(Eh)            E(eV)
   0   2.0000     -88.046481     -2395.8666
   1   2.0000     -88.043165     -2395.7763
   2   2.0000     -87.979887     -2394.0544
   3   2.0000     -87.979649     -2394.0480
   4   2.0000     -76.425723     -2079.6496
   5   2.0000     -76.419895     -2079.4911
   6   2.0000     -18.794042      -511.4119
   7   2.0000     -18.790859      -511.3253
   8   2.0000     -18.786605      -511.2095
   9   2.0000     -18.779430      -511.0143
  10   2.0000      -9.955924      -270.9145
  11   2.0000      -9.955747      -270.9096
  12   2.0000      -9.953324      -270.8437
  13   2.0000      -9.949363      -270.7359
  14   2.0000      -9.940069      -270.4830
  15   2.0000      -9.886995      -269.0388
  16   2.0000      -9.880117      -268.8516
  17   2.0000      -9.878782      -268.8153
  18   2.0000      -9.872943      -268.6564
  19   2.0000      -7.691462      -209.2953
  20   2.0000      -7.688396      -209.2119
  21   2.0000      -7.624896      -207.4840
  22   2.0000      -7.624552      -207.4746
  23   2.0000      -6.422886      -174.7756
  24   2.0000      -6.417652      -174.6332
  25   2.0000      -5.719276      -155.6294
  26   2.0000      -5.716209      -155.5460
  27   2.0000      -5.715711      -155.5324
  28   2.0000      -5.712796      -155.4531
  29   2.0000      -5.708791      -155.3441
  30   2.0000      -5.705464      -155.2536
  31   2.0000      -5.653769      -153.8469
  32   2.0000      -5.653565      -153.8413
  33   2.0000      -5.645632      -153.6255
  34   2.0000      -5.645096      -153.6109
  35   2.0000      -5.644983      -153.6078
  36   2.0000      -5.644648      -153.5987
  37   2.0000      -4.645616      -126.4136
  38   2.0000      -4.644946      -126.3954
  39   2.0000      -4.642980      -126.3419
  40   2.0000      -4.640031      -126.2617
  41   2.0000      -4.639274      -126.2411
  42   2.0000      -4.638397      -126.2172
  43   2.0000      -0.987479       -26.8707
  44   2.0000      -0.979333       -26.6490
  45   2.0000      -0.945450       -25.7270
  46   2.0000      -0.935768       -25.4636
  47   2.0000      -0.763439       -20.7742
  48   2.0000      -0.719972       -19.5914
  49   2.0000      -0.707962       -19.2646
  50   2.0000      -0.690449       -18.7881
  51   2.0000      -0.680341       -18.5130
  52   2.0000      -0.672868       -18.3097
  53   2.0000      -0.647696       -17.6247
  54   2.0000      -0.630942       -17.1688
  55   2.0000      -0.592305       -16.1174
  56   2.0000      -0.586525       -15.9602
  57   2.0000      -0.572745       -15.5852
  58   2.0000      -0.568786       -15.4775
  59   2.0000      -0.555485       -15.1155
  60   2.0000      -0.502806       -13.6820
  61   2.0000      -0.496453       -13.5092
  62   2.0000      -0.475273       -12.9328
  63   2.0000      -0.473159       -12.8753
  64   2.0000      -0.447421       -12.1749
  65   2.0000      -0.443374       -12.0648
  66   2.0000      -0.439514       -11.9598
  67   2.0000      -0.434109       -11.8127
  68   2.0000      -0.424958       -11.5637
  69   2.0000      -0.416760       -11.3406
  70   2.0000      -0.403380       -10.9765
  71   2.0000      -0.399701       -10.8764
  72   2.0000      -0.391881       -10.6636
  73   2.0000      -0.389002       -10.5853
  74   2.0000      -0.376147       -10.2355
  75   2.0000      -0.366387        -9.9699
  76   2.0000      -0.356893        -9.7116
  77   2.0000      -0.356302        -9.6955
  78   2.0000      -0.351655        -9.5690
  79   2.0000      -0.349114        -9.4999
  80   2.0000      -0.346756        -9.4357
  81   2.0000      -0.343131        -9.3371
  82   2.0000      -0.331399        -9.0178
  83   2.0000      -0.329591        -8.9686
  84   2.0000      -0.323877        -8.8131
  85   2.0000      -0.316418        -8.6102
  86   2.0000      -0.311164        -8.4672
  87   2.0000      -0.296332        -8.0636
  88   2.0000      -0.294541        -8.0149
  89   2.0000      -0.291149        -7.9226
  90   2.0000      -0.280671        -7.6374
  91   2.0000      -0.273049        -7.4301
  92   2.0000      -0.263579        -7.1723
  93   2.0000      -0.261418        -7.1135
  94   2.0000      -0.257857        -7.0166
  95   2.0000      -0.240379        -6.5411
  96   2.0000      -0.223358        -6.0779
  97   2.0000      -0.211086        -5.7440
  98   2.0000      -0.201305        -5.4778
  99   2.0000      -0.192081        -5.2268
 100   2.0000      -0.181481        -4.9384
 101   0.0000      -0.041113        -1.1187
 102   0.0000      -0.029854        -0.8124
 103   0.0000      -0.010067        -0.2739
 104   0.0000       0.014535         0.3955
 105   0.0000       0.021308         0.5798

MULLIKEN ATOMIC CHARGES
-----------------------
   0 C :   -0.288384
   1 C :   -0.002497
   2 O :   -0.381080
   3 P :    0.610221
   4 S :   -0.319746
   5 O :   -0.355764
   6 C :   -0.002800
   7 C :   -0.279573
   8 S :   -0.099026
   9 C :   -0.352649
  10 S :   -0.113904
  11 P :    0.594618
  12 S :   -0.295818
  13 O :   -0.347302
  14 C :   -0.000269
  15 C :   -0.307575
  16 O :   -0.373352
  17 C :   -0.013662
  18 C :   -0.288337
  19 H :    0.110540
  20 H :    0.106651
  21 H :    0.124094
  22 H :    0.103303
  23 H :    0.097834
  24 H :    0.096221
  25 H :    0.113718
  26 H :    0.127279
  27 H :    0.104766
  28 H :    0.103698
  29 H :    0.183119
  30 H :    0.211734
  31 H :    0.115516
  32 H :    0.108335
  33 H :    0.112989
  34 H :    0.121474
  35 H :    0.116163
  36 H :    0.104905
  37 H :    0.104775
  38 H :    0.130622
  39 H :    0.106943
  40 H :    0.112221
Sum of atomic charges:   -0.0000000

LOEWDIN ATOMIC CHARGES
----------------------
   0 C :   -0.360445
   1 C :   -0.117661
   2 O :   -0.252762
   3 P :    0.565930
   4 S :   -0.312802
   5 O :   -0.234150
   6 C :   -0.116073
   7 C :   -0.352685
   8 S :    0.080904
   9 C :   -0.478319
  10 S :    0.064465
  11 P :    0.562577
  12 S :   -0.289313
  13 O :   -0.223854
  14 C :   -0.112825
  15 C :   -0.367243
  16 O :   -0.243907
  17 C :   -0.116488
  18 C :   -0.362439
  19 H :    0.123814
  20 H :    0.128284
  21 H :    0.125361
  22 H :    0.116278
  23 H :    0.106594
  24 H :    0.107030
  25 H :    0.110547
  26 H :    0.127374
  27 H :    0.121573
  28 H :    0.127356
  29 H :    0.137645
  30 H :    0.127367
  31 H :    0.104125
  32 H :    0.122338
  33 H :    0.131142
  34 H :    0.127823
  35 H :    0.117382
  36 H :    0.107627
  37 H :    0.117408
  38 H :    0.125830
  39 H :    0.128609
  40 H :    0.125583

  Mayer bond orders larger than 0.100000
B(  0-C ,  1-C ) :   1.1664 B(  0-C , 19-H ) :   0.9481 B(  0-C , 20-H ) :   0.9406
B(  0-C , 21-H ) :   0.9363 B(  1-C ,  2-O ) :   0.9033 B(  1-C , 22-H ) :   0.9352
B(  1-C , 23-H ) :   0.9114 B(  2-O ,  3-P ) :   1.0976 B(  3-P ,  4-S ) :   1.6064
B(  3-P ,  5-O ) :   1.1532 B(  3-P ,  8-S ) :   0.9666 B(  4-S ,  8-S ) :   0.1167
B(  5-O ,  6-C ) :   0.8913 B(  6-C ,  7-C ) :   1.1661 B(  6-C , 24-H ) :   0.9276
B(  6-C , 25-H ) :   0.9138 B(  7-C , 26-H ) :   0.9408 B(  7-C , 27-H ) :   0.9500
B(  7-C , 28-H ) :   0.9411 B(  8-S ,  9-C ) :   0.9903 B(  9-C , 10-S ) :   1.0067
B(  9-C , 29-H ) :   0.9108 B(  9-C , 30-H ) :   0.8446 B( 10-S , 11-P ) :   0.9326
B( 10-S , 12-S ) :   0.1055 B( 11-P , 12-S ) :   1.6404 B( 11-P , 13-O ) :   1.1505
B( 11-P , 16-O ) :   1.0891 B( 13-O , 14-C ) :   0.8967 B( 14-C , 15-C ) :   1.1691
B( 14-C , 31-H ) :   0.9112 B( 14-C , 32-H ) :   0.9350 B( 15-C , 33-H ) :   0.9358
B( 15-C , 34-H ) :   0.9425 B( 15-C , 35-H ) :   0.9396 B( 16-O , 17-C ) :   0.9038
B( 17-C , 18-C ) :   1.1687 B( 17-C , 36-H ) :   0.9148 B( 17-C , 37-H ) :   0.9355
B( 18-C , 38-H ) :   0.9305 B( 18-C , 39-H ) :   0.9391 B( 18-C , 40-H ) :   0.9475

Dispersion correction           -0.067336057
FINAL SINGLE POINT ENERGY     -2929.520970465582

DIPOLE MOMENT
-------------

Method             : SCF
Type of density    : Electron Density
Multiplicity       :   1
Irrep              :   0
Energy             : -2929.6389113083805569 Eh
Relativity type    :
Basis              : AO
                                X                 Y                 Z
Electronic contribution:      2.455651247      -8.853990062      -8.110544046
Nuclear contribution   :     -2.723883856       8.197125279       9.197175990
                        -----------------------------------------
Total Dipole Moment    :     -0.268232608      -0.656864784       1.086631944
                        -----------------------------------------
Magnitude (a.u.)       :      1.297763098
Magnitude (Debye)      :      3.298651647

Rotational constants in cm-1:             0.013125             0.005152             0.004981
Rotational constants in MHz :           393.486331           154.457745           149.312758

                             ****ORCA TERMINATED NORMALLY****
TOTAL RUN TIME: 0 days 0 hours 0 minutes 21 seconds 474 msec
