                         Program Version 6.0.0  -   RELEASE  -
|  1> ! pbe def2-sv(p) def2/J RI DEFGRID1 loosescf d4 GCP(DFT/SV(P)) printgap
|  2> %output
|  3>     printlevel normal
|  4> end
|  5> * xyz 0 1
|  6> C 3.2240552566 0.1991957867 3.3333044306
|  7> C 1.8863882092 -0.2513735026 2.7862808079
|  8> O 1.6321959183 0.3428132558 1.4969063595
|  9> P 2.3602398943 -0.1563162954 0.1806831785
| 10> S 2.9228526316 -2.0384587244 0.2508575263
| 11> O 3.4877573106 0.9505860101 0.0273737644
| 12> C 4.1636227791 1.2969322429 -1.1944918424
| 13> C 4.7460390575 0.0945905162 -1.9084067228
| 14> S 0.9539421078 0.3420907927 -1.3228770429
| 15> C -0.0587651032 -1.1462194379 -1.1182695283
| 16> S -1.1428197235 -1.0632023905 0.3222377635
| 17> P -2.5185191811 0.3411054519 -0.5188605746
| 18> S -2.8897948255 0.0496860514 -2.4195491586
| 19> O -1.9267504825 1.7823436559 -0.2657669259
| 20> C -2.0561343286 2.5600636471 0.9487087696
| 21> C -1.3640539301 1.9108972913 2.1280901442
| 22> O -3.7737955116 0.3066207229 0.4525636951
| 23> C -4.8636182156 -0.6173262124 0.2731707588
| 24> C -4.4454735041 -2.0549279306 0.5017813511
| 25> H 3.3694301935 -0.2171701826 4.324964672
| 26> H 4.0215393791 -0.1512155677 2.678676195
| 27> H 3.2648603184 1.2838148746 3.383362768
| 28> H 1.0545466101 0.0837391556 3.4066881371
| 29> H 1.8549383049 -1.3406691843 2.6818818694
| 30> H 3.4528123032 1.8221285075 -1.8390089099
| 31> H 4.9458197649 1.9850472923 -0.8685133857
| 32> H 5.3173034576 0.4280118121 -2.7688524562
| 33> H 5.39561182 -0.4665321465 -1.2406319293
| 34> H 3.9475703554 -0.5642706353 -2.247948254
| 35> H 0.5941561288 -2.0098547255 -0.9832075713
| 36> H -0.6660674265 -1.2409982322 -2.0193971291
| 37> H -1.5919061997 3.5112201371 0.6831099659
| 38> H -3.1193475997 2.7058045868 1.1490912345
| 39> H -1.4197383095 2.5780427204 2.982739687
| 40> H -1.849505195 0.9689905144 2.3775659623
| 41> H -0.3204323701 1.7183601814 1.8908655291
| 42> H -5.6015143664 -0.2904595507 1.0072581773
| 43> H -5.2603735219 -0.4892726662 -0.738496383
| 44> H -3.9452459541 -2.1586082502 1.461315188
| 45> H -5.3253986805 -2.6898790757 0.4831270999
| 46> H -3.7645116271 -2.375062901 -0.2852919119
| 47> *
| 48>
| 49>                          ****END OF INPUT****

CARTESIAN COORDINATES (ANGSTROEM)
---------------------------------
  C      3.224055    0.199196    3.333304
  C      1.886388   -0.251374    2.786281
  O      1.632196    0.342813    1.496906
  P      2.360240   -0.156316    0.180683
  S      2.922853   -2.038459    0.250858
  O      3.487757    0.950586    0.027374
  C      4.163623    1.296932   -1.194492
  C      4.746039    0.094591   -1.908407
  S      0.953942    0.342091   -1.322877
  C     -0.058765   -1.146219   -1.118270
  S     -1.142820   -1.063202    0.322238
  P     -2.518519    0.341105   -0.518861
  S     -2.889795    0.049686   -2.419549
  O     -1.926750    1.782344   -0.265767
  C     -2.056134    2.560064    0.948709
  C     -1.364054    1.910897    2.128090
  O     -3.773796    0.306621    0.452564
  C     -4.863618   -0.617326    0.273171
  C     -4.445474   -2.054928    0.501781
  H      3.369430   -0.217170    4.324965
  H      4.021539   -0.151216    2.678676
  H      3.264860    1.283815    3.383363
  H      1.054547    0.083739    3.406688
  H      1.854938   -1.340669    2.681882
  H      3.452812    1.822129   -1.839009
  H      4.945820    1.985047   -0.868513
  H      5.317303    0.428012   -2.768852
  H      5.395612   -0.466532   -1.240632
  H      3.947570   -0.564271   -2.247948
  H      0.594156   -2.009855   -0.983208
  H     -0.666067   -1.240998   -2.019397
  H     -1.591906    3.511220    0.683110
  H     -3.119348    2.705805    1.149091
  H     -1.419738    2.578043    2.982740
  H     -1.849505    0.968991    2.377566
  H     -0.320432    1.718360    1.890866
  H     -5.601514   -0.290460    1.007258
  H     -5.260374   -0.489273   -0.738496
  H     -3.945246   -2.158608    1.461315
  H     -5.325399   -2.689879    0.483127
  H     -3.764512   -2.375063   -0.285292

 Total Charge           Charge          ....    0
 Multiplicity           Mult            ....    1
 Number of Electrons    NEL             ....  202
 Basis Dimension        Dim             ....  334

ORBITAL ENERGIES
----------------

  NO   OCC          E(Eh)            E(eV)
   0   2.0000     -88.041997     -2395.7445
   1   2.0000     -88.039279     -2395.6706
   2   2.0000     -87.988651     -2394.2929
   3   2.0000     -87.984661     -2394.1843
   4   2.0000     -76.428562     -2079.7269
   5   2.0000     -76.427158     -2079.6887
   6   2.0000     -18.800276      -511.5815
   7   2.0000     -18.795974      -511.4644
   8   2.0000     -18.791394      -511.3398
   9   2.0000     -18.788276      -511.2550
  10   2.0000      -9.960212      -271.0311
  11   2.0000      -9.957223      -270.9498
  12   2.0000      -9.954596      -270.8783
  13   2.0000      -9.950458      -270.7657
  14   2.0000      -9.949354      -270.7357
  15   2.0000      -9.886045      -269.0130
  16   2.0000      -9.884424      -268.9689
  17   2.0000      -9.883849      -268.9532
  18   2.0000      -9.883041      -268.9312
  19   2.0000      -7.687174      -209.1786
  20   2.0000      -7.684148      -209.0963
  21   2.0000      -7.633546      -207.7193
  22   2.0000      -7.629924      -207.6208
  23   2.0000      -6.425998      -174.8603
  24   2.0000      -6.424490      -174.8193
  25   2.0000      -5.714916      -155.5108
  26   2.0000      -5.711846      -155.4272
  27   2.0000      -5.711779      -155.4254
  28   2.0000      -5.708894      -155.3469
  29   2.0000      -5.704174      -155.2185
  30   2.0000      -5.701095      -155.1347
  31   2.0000      -5.662369      -154.0809
  32   2.0000      -5.658870      -153.9857
  33   2.0000      -5.654275      -153.8607
  34   2.0000      -5.653710      -153.8453
  35   2.0000      -5.650641      -153.7617
  36   2.0000      -5.649921      -153.7422
  37   2.0000      -4.648515      -126.4925
  38   2.0000      -4.647899      -126.4758
  39   2.0000      -4.647692      -126.4701
  40   2.0000      -4.646380      -126.4344
  41   2.0000      -4.645890      -126.4211
  42   2.0000      -4.644739      -126.3898
  43   2.0000      -0.990370       -26.9493
  44   2.0000      -0.989132       -26.9157
  45   2.0000      -0.948066       -25.7982
  46   2.0000      -0.945339       -25.7240
  47   2.0000      -0.763675       -20.7807
  48   2.0000      -0.721648       -19.6370
  49   2.0000      -0.710023       -19.3207
  50   2.0000      -0.692104       -18.8331
  51   2.0000      -0.688738       -18.7415
  52   2.0000      -0.676861       -18.4183
  53   2.0000      -0.652151       -17.7459
  54   2.0000      -0.636713       -17.3258
  55   2.0000      -0.601085       -16.3564
  56   2.0000      -0.596157       -16.2223
  57   2.0000      -0.579650       -15.7731
  58   2.0000      -0.574856       -15.6426
  59   2.0000      -0.557836       -15.1795
  60   2.0000      -0.498675       -13.5696
  61   2.0000      -0.495330       -13.4786
  62   2.0000      -0.472409       -12.8549
  63   2.0000      -0.471725       -12.8363
  64   2.0000      -0.462338       -12.5808
  65   2.0000      -0.450094       -12.2477
  66   2.0000      -0.441339       -12.0094
  67   2.0000      -0.437709       -11.9107
  68   2.0000      -0.425912       -11.5897
  69   2.0000      -0.423179       -11.5153
  70   2.0000      -0.415227       -11.2989
  71   2.0000      -0.399752       -10.8778
  72   2.0000      -0.393434       -10.7059
  73   2.0000      -0.388712       -10.5774
  74   2.0000      -0.376632       -10.2487
  75   2.0000      -0.375757       -10.2249
  76   2.0000      -0.370365       -10.0781
  77   2.0000      -0.358653        -9.7594
  78   2.0000      -0.352956        -9.6044
  79   2.0000      -0.349407        -9.5078
  80   2.0000      -0.348277        -9.4771
  81   2.0000      -0.346162        -9.4196
  82   2.0000      -0.343728        -9.3533
  83   2.0000      -0.338416        -9.2088
  84   2.0000      -0.337276        -9.1777
  85   2.0000      -0.322138        -8.7658
  86   2.0000      -0.311793        -8.4843
  87   2.0000      -0.298918        -8.1340
  88   2.0000      -0.297825        -8.1042
  89   2.0000      -0.295439        -8.0393
  90   2.0000      -0.288259        -7.8439
  91   2.0000      -0.277312        -7.5460
  92   2.0000      -0.274007        -7.4561
  93   2.0000      -0.265395        -7.2218
  94   2.0000      -0.254342        -6.9210
  95   2.0000      -0.232930        -6.3383
  96   2.0000      -0.219152        -5.9634
  97   2.0000      -0.210779        -5.7356
  98   2.0000      -0.203519        -5.5380
  99   2.0000      -0.201777        -5.4906
 100   2.0000      -0.196424        -5.3450
 101   0.0000      -0.045321        -1.2333
 102   0.0000      -0.025310        -0.6887
 103   0.0000      -0.006516        -0.1773
 104   0.0000      -0.003205        -0.0872
 105   0.0000       0.017280         0.4702

MULLIKEN ATOMIC CHARGES
-----------------------
   0 C :   -0.300787
   1 C :   -0.008101
   2 O :   -0.355815
   3 P :    0.611285
   4 S :   -0.332883
   5 O :   -0.373666
   6 C :   -0.013070
   7 C :   -0.311458
   8 S :   -0.073008
   9 C :   -0.379672
  10 S :   -0.088710
  11 P :    0.618320
  12 S :   -0.319938
  13 O :   -0.357010
  14 C :    0.013866
  15 C :   -0.356122
  16 O :   -0.386716
  17 C :   -0.001308
  18 C :   -0.317814
  19 H :    0.111231
  20 H :    0.122635
  21 H :    0.113746
  22 H :    0.105675
  23 H :    0.114164
  24 H :    0.117592
  25 H :    0.110151
  26 H :    0.113039
  27 H :    0.125962
  28 H :    0.127923
  29 H :    0.192084
  30 H :    0.196753
  31 H :    0.108847
  32 H :    0.106229
  33 H :    0.107448
  34 H :    0.117649
  35 H :    0.157593
  36 H :    0.105032
  37 H :    0.115454
  38 H :    0.116883
  39 H :    0.115063
  40 H :    0.131457
Sum of atomic charges:    0.0000000

LOEWDIN ATOMIC CHARGES
----------------------
   0 C :   -0.362179
   1 C :   -0.120675
   2 O :   -0.234224
   3 P :    0.575551
   4 S :   -0.316751
   5 O :   -0.243849
   6 C :   -0.113354
   7 C :   -0.369740
   8 S :    0.087685
   9 C :   -0.491916
  10 S :    0.080752
  11 P :    0.576943
  12 S :   -0.313166
  13 O :   -0.237325
  14 C :   -0.105402
  15 C :   -0.377156
  16 O :   -0.246262
  17 C :   -0.115708
  18 C :   -0.370771
  19 H :    0.130008
  20 H :    0.123523
  21 H :    0.125189
  22 H :    0.116098
  23 H :    0.108809
  24 H :    0.111613
  25 H :    0.121918
  26 H :    0.130857
  27 H :    0.129460
  28 H :    0.122314
  29 H :    0.127358
  30 H :    0.127784
  31 H :    0.122475
  32 H :    0.112577
  33 H :    0.128336
  34 H :    0.116004
  35 H :    0.131514
  36 H :    0.118578
  37 H :    0.114270
  38 H :    0.123453
  39 H :    0.132344
  40 H :    0.123064

  Mayer bond orders larger than 0.100000
B(  0-C ,  1-C ) :   1.1640 B(  0-C , 19-H ) :   0.9401 B(  0-C , 20-H ) :   0.9368
B(  0-C , 21-H ) :   0.9474 B(  1-C ,  2-O ) :   0.8957 B(  1-C , 22-H ) :   0.9305
B(  1-C , 23-H ) :   0.9099 B(  2-O ,  3-P ) :   1.1152 B(  3-P ,  4-S ) :   1.5900
B(  3-P ,  5-O ) :   1.1148 B(  3-P ,  8-S ) :   0.9627 B(  4-S ,  8-S ) :   0.1099
B(  5-O ,  6-C ) :   0.9119 B(  6-C ,  7-C ) :   1.1647 B(  6-C , 24-H ) :   0.9281
B(  6-C , 25-H ) :   0.9341 B(  7-C , 26-H ) :   0.9348 B(  7-C , 27-H ) :   0.9427
B(  7-C , 28-H ) :   0.9326 B(  8-S ,  9-C ) :   1.0049 B(  9-C , 10-S ) :   1.0112
B(  9-C , 29-H ) :   0.8651 B(  9-C , 30-H ) :   0.8646 B( 10-S , 11-P ) :   0.9397
B( 10-S , 12-S ) :   0.1124 B( 11-P , 12-S ) :   1.6293 B( 11-P , 13-O ) :   1.1400
B( 11-P , 16-O ) :   1.0794 B( 13-O , 14-C ) :   0.8996 B( 14-C , 15-C ) :   1.1707
B( 14-C , 31-H ) :   0.9337 B( 14-C , 32-H ) :   0.9284 B( 15-C , 33-H ) :   0.9350
B( 15-C , 34-H ) :   0.9398 B( 15-C , 35-H ) :   0.9192 B( 16-O , 17-C ) :   0.9013
B( 17-C , 18-C ) :   1.1670 B( 17-C , 36-H ) :   0.9341 B( 17-C , 37-H ) :   0.9177
B( 18-C , 38-H ) :   0.9444 B( 18-C , 39-H ) :   0.9366 B( 18-C , 40-H ) :   0.9333

Dispersion correction           -0.065683316
FINAL SINGLE POINT ENERGY     -2929.518344125769

DIPOLE MOMENT
-------------

Method             : SCF
Type of density    : Electron Density
Multiplicity       :   1
Irrep              :   0
Energy             : -2929.6386312336499032 Eh
Relativity type    :
Basis              : AO
                                X                 Y                 Z
Electronic contribution:     -4.277835896      -2.111397496     -13.689154406
Nuclear contribution   :      4.222648754       2.863472490      14.979016307
                        -----------------------------------------
Total Dipole Moment    :     -0.055187142       0.752074994       1.289861901
                        -----------------------------------------
Magnitude (a.u.)       :      1.494123871
Magnitude (Debye)      :      3.797761067

Rotational constants in cm-1:             0.013090             0.004715             0.004418
Rotational constants in MHz :           392.440971           141.365661           132.444156

                             ****ORCA TERMINATED NORMALLY****
TOTAL RUN TIME: 0 days 0 hours 0 minutes 21 seconds 473 msec
