                         Program Version 6.0.0  -   RELEASE  -
|  1> ! pbe def2-sv(p) def2/J RI DEFGRID1 loosescf d4 GCP(DFT/SV(P)) printgap
|  2> %output
|  3>     printlevel normal
|  4> end
|  5> * xyz 0 1
|  6> C 3.222210546 2.3805359272 -1.1394135906
|  7> C 4.0031123877 1.0826942789 -1.1661948495
|  8> O 3.6909801349 0.2165424661 -0.0621128753
|  9> P 2.2323756328 -0.1256950358 0.4703777179
| 10> S 1.4679994078 1.2014970672 1.6994977826
| 11> O 2.4467648041 -1.5556353866 1.1163874123
| 12> C 2.6700260121 -1.7270667462 2.5312599951
| 13> C 4.0632015999 -1.2802157936 2.9190809525
| 14> S 1.1921195852 -0.6628339115 -1.3075101283
| 15> C 0.0078112788 -1.8404480358 -0.5987413986
| 16> S -1.1041174147 -1.1145810433 0.6241558777
| 17> P -2.2300407536 0.0781810371 -0.750647859
| 18> S -2.3857564842 -0.654126176 -2.5562578761
| 19> O -1.551180651 1.4986846197 -0.8180595471
| 20> C -1.4777392821 2.4196199912 0.2964375781
| 21> C -2.5843867513 3.4487031455 0.206501567
| 22> O -3.5575931555 0.3815235389 0.0656654871
| 23> C -4.3712375069 -0.6055881411 0.7276410954
| 24> C -4.7996046275 -1.7286085002 -0.1930538563
| 25> H 3.555431413 3.0202446419 -1.9504285965
| 26> H 2.158189576 2.1764206334 -1.2665092047
| 27> H 3.3681171772 2.8932598231 -0.1911851548
| 28> H 5.0752518488 1.2594809694 -1.0623774295
| 29> H 3.8050469073 0.5339806338 -2.091626089
| 30> H 1.9122334572 -1.1554867656 3.0771468125
| 31> H 2.5218716441 -2.7947463645 2.6970317518
| 32> H 4.8065522026 -1.8144436788 2.3336484778
| 33> H 4.1689896308 -0.2126543136 2.7287997593
| 34> H 4.2245741655 -1.4713340898 3.9752003009
| 35> H 0.543502367 -2.6481874807 -0.1075916086
| 36> H -0.5783990695 -2.2016615441 -1.4458069884
| 37> H -1.5239761314 1.8589508029 1.2338081397
| 38> H -0.4928106742 2.8833579733 0.2132852733
| 39> H -2.469301939 4.1615074581 1.0168703466
| 40> H -2.5273549766 3.9708744552 -0.7446036033
| 41> H -3.5549431776 2.9658102267 0.2840576149
| 42> H -3.8074454901 -0.9961726646 1.5795581557
| 43> H -5.2294676401 -0.0326789963 1.0834593156
| 44> H -5.2941997322 -1.328350393 -1.0749532364
| 45> H -3.9321410168 -2.3015539964 -0.5175767386
| 46> H -5.4816697953 -2.3867965864 0.3355083902
| 47> *
| 48>
| 49>                          ****END OF INPUT****

CARTESIAN COORDINATES (ANGSTROEM)
---------------------------------
  C      3.222211    2.380536   -1.139414
  C      4.003112    1.082694   -1.166195
  O      3.690980    0.216542   -0.062113
  P      2.232376   -0.125695    0.470378
  S      1.467999    1.201497    1.699498
  O      2.446765   -1.555635    1.116387
  C      2.670026   -1.727067    2.531260
  C      4.063202   -1.280216    2.919081
  S      1.192120   -0.662834   -1.307510
  C      0.007811   -1.840448   -0.598741
  S     -1.104117   -1.114581    0.624156
  P     -2.230041    0.078181   -0.750648
  S     -2.385756   -0.654126   -2.556258
  O     -1.551181    1.498685   -0.818060
  C     -1.477739    2.419620    0.296438
  C     -2.584387    3.448703    0.206502
  O     -3.557593    0.381524    0.065665
  C     -4.371238   -0.605588    0.727641
  C     -4.799605   -1.728609   -0.193054
  H      3.555431    3.020245   -1.950429
  H      2.158190    2.176421   -1.266509
  H      3.368117    2.893260   -0.191185
  H      5.075252    1.259481   -1.062377
  H      3.805047    0.533981   -2.091626
  H      1.912233   -1.155487    3.077147
  H      2.521872   -2.794746    2.697032
  H      4.806552   -1.814444    2.333648
  H      4.168990   -0.212654    2.728800
  H      4.224574   -1.471334    3.975200
  H      0.543502   -2.648187   -0.107592
  H     -0.578399   -2.201662   -1.445807
  H     -1.523976    1.858951    1.233808
  H     -0.492811    2.883358    0.213285
  H     -2.469302    4.161507    1.016870
  H     -2.527355    3.970874   -0.744604
  H     -3.554943    2.965810    0.284058
  H     -3.807445   -0.996173    1.579558
  H     -5.229468   -0.032679    1.083459
  H     -5.294200   -1.328350   -1.074953
  H     -3.932141   -2.301554   -0.517577
  H     -5.481670   -2.386797    0.335508

 Total Charge           Charge          ....    0
 Multiplicity           Mult            ....    1
 Number of Electrons    NEL             ....  202
 Basis Dimension        Dim             ....  334

ORBITAL ENERGIES
----------------

  NO   OCC          E(Eh)            E(eV)
   0   2.0000     -88.041273     -2395.7248
   1   2.0000     -88.040451     -2395.7025
   2   2.0000     -87.984072     -2394.1683
   3   2.0000     -87.980691     -2394.0763
   4   2.0000     -76.427686     -2079.7031
   5   2.0000     -76.424171     -2079.6074
   6   2.0000     -18.796070      -511.4671
   7   2.0000     -18.794449      -511.4230
   8   2.0000     -18.790430      -511.3136
   9   2.0000     -18.783765      -511.1322
  10   2.0000      -9.959386      -271.0087
  11   2.0000      -9.958865      -270.9945
  12   2.0000      -9.955490      -270.9027
  13   2.0000      -9.952821      -270.8300
  14   2.0000      -9.942734      -270.5555
  15   2.0000      -9.885400      -268.9954
  16   2.0000      -9.883933      -268.9555
  17   2.0000      -9.883484      -268.9433
  18   2.0000      -9.877943      -268.7925
  19   2.0000      -7.686077      -209.1488
  20   2.0000      -7.685522      -209.1337
  21   2.0000      -7.629053      -207.5971
  22   2.0000      -7.626061      -207.5157
  23   2.0000      -6.424945      -174.8316
  24   2.0000      -6.421320      -174.7330
  25   2.0000      -5.713767      -155.4795
  26   2.0000      -5.713545      -155.4735
  27   2.0000      -5.710598      -155.3933
  28   2.0000      -5.710092      -155.3795
  29   2.0000      -5.703269      -155.1938
  30   2.0000      -5.702293      -155.1673
  31   2.0000      -5.657870      -153.9585
  32   2.0000      -5.655127      -153.8838
  33   2.0000      -5.649695      -153.7360
  34   2.0000      -5.649274      -153.7246
  35   2.0000      -5.646602      -153.6519
  36   2.0000      -5.646092      -153.6380
  37   2.0000      -4.647643      -126.4688
  38   2.0000      -4.647049      -126.4526
  39   2.0000      -4.645033      -126.3978
  40   2.0000      -4.644245      -126.3763
  41   2.0000      -4.643239      -126.3490
  42   2.0000      -4.641376      -126.2983
  43   2.0000      -0.987866       -26.8812
  44   2.0000      -0.986614       -26.8471
  45   2.0000      -0.947797       -25.7909
  46   2.0000      -0.941217       -25.6118
  47   2.0000      -0.763009       -20.7625
  48   2.0000      -0.719453       -19.5773
  49   2.0000      -0.708548       -19.2806
  50   2.0000      -0.689909       -18.7734
  51   2.0000      -0.687992       -18.7212
  52   2.0000      -0.671981       -18.2855
  53   2.0000      -0.652167       -17.7464
  54   2.0000      -0.638491       -17.3742
  55   2.0000      -0.596157       -16.2223
  56   2.0000      -0.589318       -16.0362
  57   2.0000      -0.575850       -15.6697
  58   2.0000      -0.569353       -15.4929
  59   2.0000      -0.565568       -15.3899
  60   2.0000      -0.503528       -13.7017
  61   2.0000      -0.492745       -13.4083
  62   2.0000      -0.471466       -12.8292
  63   2.0000      -0.469906       -12.7868
  64   2.0000      -0.463028       -12.5996
  65   2.0000      -0.448755       -12.2113
  66   2.0000      -0.439196       -11.9511
  67   2.0000      -0.430986       -11.7277
  68   2.0000      -0.428932       -11.6718
  69   2.0000      -0.419324       -11.4104
  70   2.0000      -0.408918       -11.1272
  71   2.0000      -0.398219       -10.8361
  72   2.0000      -0.393277       -10.7016
  73   2.0000      -0.387898       -10.5552
  74   2.0000      -0.381460       -10.3801
  75   2.0000      -0.375946       -10.2300
  76   2.0000      -0.362687        -9.8692
  77   2.0000      -0.352296        -9.5865
  78   2.0000      -0.349106        -9.4996
  79   2.0000      -0.348530        -9.4840
  80   2.0000      -0.347053        -9.4438
  81   2.0000      -0.346323        -9.4239
  82   2.0000      -0.344198        -9.3661
  83   2.0000      -0.337058        -9.1718
  84   2.0000      -0.333760        -9.0821
  85   2.0000      -0.319901        -8.7049
  86   2.0000      -0.311490        -8.4761
  87   2.0000      -0.298803        -8.1308
  88   2.0000      -0.296272        -8.0620
  89   2.0000      -0.290327        -7.9002
  90   2.0000      -0.282941        -7.6992
  91   2.0000      -0.276983        -7.5371
  92   2.0000      -0.273715        -7.4482
  93   2.0000      -0.263398        -7.1674
  94   2.0000      -0.254719        -6.9313
  95   2.0000      -0.239360        -6.5133
  96   2.0000      -0.217288        -5.9127
  97   2.0000      -0.203268        -5.5312
  98   2.0000      -0.199459        -5.4276
  99   2.0000      -0.197974        -5.3871
 100   2.0000      -0.189073        -5.1449
 101   0.0000      -0.047293        -1.2869
 102   0.0000      -0.022589        -0.6147
 103   0.0000      -0.018904        -0.5144
 104   0.0000      -0.000789        -0.0215
 105   0.0000       0.014910         0.4057

MULLIKEN ATOMIC CHARGES
-----------------------
   0 C :   -0.331961
   1 C :   -0.005706
   2 O :   -0.374013
   3 P :    0.610129
   4 S :   -0.324950
   5 O :   -0.371648
   6 C :   -0.011347
   7 C :   -0.301236
   8 S :   -0.088312
   9 C :   -0.349317
  10 S :   -0.108189
  11 P :    0.610433
  12 S :   -0.315034
  13 O :   -0.347353
  14 C :   -0.021679
  15 C :   -0.281739
  16 O :   -0.381359
  17 C :   -0.010074
  18 C :   -0.307328
  19 H :    0.115031
  20 H :    0.140801
  21 H :    0.128339
  22 H :    0.110731
  23 H :    0.115691
  24 H :    0.114376
  25 H :    0.102671
  26 H :    0.116273
  27 H :    0.124990
  28 H :    0.111513
  29 H :    0.188694
  30 H :    0.194505
  31 H :    0.103533
  32 H :    0.120567
  33 H :    0.107485
  34 H :    0.115878
  35 H :    0.115790
  36 H :    0.113589
  37 H :    0.108757
  38 H :    0.127486
  39 H :    0.123171
  40 H :    0.110810
Sum of atomic charges:   -0.0000000

LOEWDIN ATOMIC CHARGES
----------------------
   0 C :   -0.373332
   1 C :   -0.113817
   2 O :   -0.246823
   3 P :    0.572705
   4 S :   -0.310866
   5 O :   -0.241047
   6 C :   -0.121028
   7 C :   -0.363164
   8 S :    0.083334
   9 C :   -0.480119
  10 S :    0.064928
  11 P :    0.572497
  12 S :   -0.307399
  13 O :   -0.229251
  14 C :   -0.118246
  15 C :   -0.359351
  16 O :   -0.243111
  17 C :   -0.115077
  18 C :   -0.368987
  19 H :    0.131738
  20 H :    0.122982
  21 H :    0.129115
  22 H :    0.122418
  23 H :    0.111597
  24 H :    0.109897
  25 H :    0.116815
  26 H :    0.126445
  27 H :    0.124417
  28 H :    0.130350
  29 H :    0.133402
  30 H :    0.128743
  31 H :    0.104272
  32 H :    0.116865
  33 H :    0.128413
  34 H :    0.127113
  35 H :    0.123454
  36 H :    0.108281
  37 H :    0.120813
  38 H :    0.130809
  39 H :    0.120355
  40 H :    0.129861

  Mayer bond orders larger than 0.100000
B(  0-C ,  1-C ) :   1.1649 B(  0-C , 19-H ) :   0.9335 B(  0-C , 20-H ) :   0.9315
B(  0-C , 21-H ) :   0.9397 B(  1-C ,  2-O ) :   0.9175 B(  1-C , 22-H ) :   0.9341
B(  1-C , 23-H ) :   0.9264 B(  2-O ,  3-P ) :   1.1038 B(  3-P ,  4-S ) :   1.6164
B(  3-P ,  5-O ) :   1.1096 B(  3-P ,  8-S ) :   0.9509 B(  4-S ,  8-S ) :   0.1104
B(  5-O ,  6-C ) :   0.8998 B(  6-C ,  7-C ) :   1.1664 B(  6-C , 24-H ) :   0.9100
B(  6-C , 25-H ) :   0.9328 B(  7-C , 26-H ) :   0.9465 B(  7-C , 27-H ) :   0.9350
B(  7-C , 28-H ) :   0.9393 B(  8-S ,  9-C ) :   1.0068 B(  9-C , 10-S ) :   1.0164
B(  9-C , 29-H ) :   0.8968 B(  9-C , 30-H ) :   0.8698 B( 10-S , 11-P ) :   0.9313
B( 10-S , 12-S ) :   0.1117 B( 11-P , 12-S ) :   1.6387 B( 11-P , 13-O ) :   1.1519
B( 11-P , 16-O ) :   1.0789 B( 13-O , 14-C ) :   0.8892 B( 14-C , 15-C ) :   1.1560
B( 14-C , 31-H ) :   0.9188 B( 14-C , 32-H ) :   0.9253 B( 15-C , 33-H ) :   0.9413
B( 15-C , 34-H ) :   0.9465 B( 15-C , 35-H ) :   0.9429 B( 16-O , 17-C ) :   0.9117
B( 17-C , 18-C ) :   1.1670 B( 17-C , 36-H ) :   0.9257 B( 17-C , 37-H ) :   0.9329
B( 18-C , 38-H ) :   0.9429 B( 18-C , 39-H ) :   0.9324 B( 18-C , 40-H ) :   0.9349

Dispersion correction           -0.066079015
FINAL SINGLE POINT ENERGY     -2929.513928776283

DIPOLE MOMENT
-------------

Method             : SCF
Type of density    : Electron Density
Multiplicity       :   1
Irrep              :   0
Energy             : -2929.6328325392009901 Eh
Relativity type    :
Basis              : AO
                                X                 Y                 Z
Electronic contribution:     -0.863656266      -6.302092386      -8.710036320
Nuclear contribution   :      1.208058124       6.071442362       9.780373341
                        -----------------------------------------
Total Dipole Moment    :      0.344401859      -0.230650024       1.070337021
                        -----------------------------------------
Magnitude (a.u.)       :      1.147795022
Magnitude (Debye)      :      2.917463090

Rotational constants in cm-1:             0.012378             0.004985             0.004726
Rotational constants in MHz :           371.085364           149.445427           141.689549

                             ****ORCA TERMINATED NORMALLY****
TOTAL RUN TIME: 0 days 0 hours 0 minutes 21 seconds 125 msec
