                         Program Version 6.0.1  -  RELEASE   -
|  1> ! pbe def2-sv(p) def2/J RI DEFGRID1 loosescf d4 GCP(DFT/SV(P)) printgap
|  2> %output
|  3>     printlevel normal
|  4> end
|  5> * xyz 0 1
|  6> C 2.5285339902 -2.7942641496 0.7019557859
|  7> C 3.2664132857 -1.8448697701 -0.2261294474
|  8> O 2.3193346176 -0.9295228106 -0.8118356108
|  9> C 2.2035456385 -0.8664227509 -2.1254715665
| 10> O 2.8998292946 -1.4776963601 -2.9052900373
| 11> C 1.0973423532 0.072209925 -2.5621345406
| 12> C 0.2153400413 0.5354608782 -1.4118046975
| 13> H -0.5517445877 1.2259357062 -1.7838108966
| 14> C 1.0253752286 1.2973519788 -0.376973009
| 15> O 1.9042837315 2.0699682776 -0.6813973661
| 16> O 0.6164588602 1.0626291116 0.8517247255
| 17> C 1.2532636355 1.7669208905 1.9361832732
| 18> C 2.4809183118 1.0170551488 2.4228200191
| 19> S -0.6638746943 -0.8757669111 -0.6607987311
| 20> P -2.0074817665 0.2192984156 0.5723861436
| 21> S -2.3500460569 2.0824009988 0.0712074874
| 22> O -3.3121477016 -0.7127743892 0.5369554224
| 23> C -4.1020645097 -0.8390097806 -0.6493271401
| 24> O -1.5921457167 0.0387379457 2.0851657142
| 25> C -1.3544713201 -1.2629074537 2.6571232692
| 26> H 2.0084147315 -2.2312917939 1.4716011435
| 27> H 1.8012613282 -3.3759698391 0.1417356209
| 28> H 3.2422788484 -3.464717111 1.1686906965
| 29> H 3.7733574624 -2.3796764917 -1.0340403928
| 30> H 3.9899011849 -1.23550693 0.3206683997
| 31> H 0.5091209477 -0.4331331247 -3.3287711602
| 32> H 1.5722165716 0.9457897365 -3.0168300551
| 33> H 1.5178087584 2.7678638337 1.5838506241
| 34> H 0.4822721585 1.8300134097 2.7053311432
| 35> H 2.2116585797 0.0110764888 2.7316722027
| 36> H 3.2191417147 0.9621263283 1.6262495196
| 37> H 2.9099569453 1.5481222055 3.2660045235
| 38> H -3.5606058635 -1.4203212535 -1.395524312
| 39> H -4.3423839155 0.1481718877 -1.0474388368
| 40> H -5.0086870758 -1.3555252842 -0.3448189538
| 41> H -0.6655486724 -1.8262731344 2.0273855534
| 42> H -2.2950861261 -1.8018107342 2.7515341375
| 43> H -0.9191632335 -1.0715548285 3.6345265669
| 44> *
| 45>
| 46>                          ****END OF INPUT****

CARTESIAN COORDINATES (ANGSTROEM)
---------------------------------
  C      2.528534   -2.794264    0.701956
  C      3.266413   -1.844870   -0.226129
  O      2.319335   -0.929523   -0.811836
  C      2.203546   -0.866423   -2.125472
  O      2.899829   -1.477696   -2.905290
  C      1.097342    0.072210   -2.562135
  C      0.215340    0.535461   -1.411805
  H     -0.551745    1.225936   -1.783811
  C      1.025375    1.297352   -0.376973
  O      1.904284    2.069968   -0.681397
  O      0.616459    1.062629    0.851725
  C      1.253264    1.766921    1.936183
  C      2.480918    1.017055    2.422820
  S     -0.663875   -0.875767   -0.660799
  P     -2.007482    0.219298    0.572386
  S     -2.350046    2.082401    0.071207
  O     -3.312148   -0.712774    0.536955
  C     -4.102065   -0.839010   -0.649327
  O     -1.592146    0.038738    2.085166
  C     -1.354471   -1.262907    2.657123
  H      2.008415   -2.231292    1.471601
  H      1.801261   -3.375970    0.141736
  H      3.242279   -3.464717    1.168691
  H      3.773357   -2.379676   -1.034040
  H      3.989901   -1.235507    0.320668
  H      0.509121   -0.433133   -3.328771
  H      1.572217    0.945790   -3.016830
  H      1.517809    2.767864    1.583851
  H      0.482272    1.830013    2.705331
  H      2.211659    0.011076    2.731672
  H      3.219142    0.962126    1.626250
  H      2.909957    1.548122    3.266005
  H     -3.560606   -1.420321   -1.395524
  H     -4.342384    0.148172   -1.047439
  H     -5.008687   -1.355525   -0.344819
  H     -0.665549   -1.826273    2.027386
  H     -2.295086   -1.801811    2.751534
  H     -0.919163   -1.071555    3.634527

 Total Charge           Charge          ....    0
 Multiplicity           Mult            ....    1
 Number of Electrons    NEL             ....  174
 Basis Dimension        Dim             ....  316

ORBITAL ENERGIES
----------------

  NO   OCC          E(Eh)            E(eV)
   0   2.0000     -88.043555     -2395.7869
   1   2.0000     -87.984764     -2394.1871
   2   2.0000     -76.428873     -2079.7354
   3   2.0000     -18.813000      -511.9278
   4   2.0000     -18.808980      -511.8184
   5   2.0000     -18.799344      -511.5562
   6   2.0000     -18.793981      -511.4102
   7   2.0000     -18.740557      -509.9565
   8   2.0000     -18.737124      -509.8631
   9   2.0000     -10.016703      -272.5684
  10   2.0000     -10.016386      -272.5597
  11   2.0000      -9.956993      -270.9436
  12   2.0000      -9.953755      -270.8554
  13   2.0000      -9.949310      -270.7345
  14   2.0000      -9.947569      -270.6871
  15   2.0000      -9.946327      -270.6533
  16   2.0000      -9.917663      -269.8733
  17   2.0000      -9.895838      -269.2794
  18   2.0000      -9.893186      -269.2073
  19   2.0000      -7.687951      -209.1998
  20   2.0000      -7.629993      -207.6227
  21   2.0000      -6.425725      -174.8529
  22   2.0000      -5.715688      -155.5318
  23   2.0000      -5.712612      -155.4481
  24   2.0000      -5.705037      -155.2419
  25   2.0000      -5.659171      -153.9939
  26   2.0000      -5.650454      -153.7567
  27   2.0000      -5.650012      -153.7447
  28   2.0000      -4.648485      -126.4917
  29   2.0000      -4.647633      -126.4685
  30   2.0000      -4.646013      -126.4244
  31   2.0000      -1.019817       -27.7506
  32   2.0000      -1.014381       -27.6027
  33   2.0000      -0.991157       -26.9708
  34   2.0000      -0.946206       -25.7476
  35   2.0000      -0.921181       -25.0666
  36   2.0000      -0.918268       -24.9873
  37   2.0000      -0.770924       -20.9779
  38   2.0000      -0.719449       -19.5772
  39   2.0000      -0.705139       -19.1878
  40   2.0000      -0.698874       -19.0173
  41   2.0000      -0.663696       -18.0601
  42   2.0000      -0.640402       -17.4262
  43   2.0000      -0.625096       -17.0097
  44   2.0000      -0.618646       -16.8342
  45   2.0000      -0.601990       -16.3810
  46   2.0000      -0.572445       -15.5770
  47   2.0000      -0.519620       -14.1396
  48   2.0000      -0.513565       -13.9748
  49   2.0000      -0.501108       -13.6358
  50   2.0000      -0.484690       -13.1891
  51   2.0000      -0.478542       -13.0218
  52   2.0000      -0.469317       -12.7708
  53   2.0000      -0.450549       -12.2601
  54   2.0000      -0.439645       -11.9634
  55   2.0000      -0.435508       -11.8508
  56   2.0000      -0.429290       -11.6816
  57   2.0000      -0.423472       -11.5233
  58   2.0000      -0.417874       -11.3709
  59   2.0000      -0.407048       -11.0763
  60   2.0000      -0.406294       -11.0558
  61   2.0000      -0.403983       -10.9929
  62   2.0000      -0.399072       -10.8593
  63   2.0000      -0.385511       -10.4903
  64   2.0000      -0.381384       -10.3780
  65   2.0000      -0.374408       -10.1882
  66   2.0000      -0.366640        -9.9768
  67   2.0000      -0.359049        -9.7702
  68   2.0000      -0.349510        -9.5107
  69   2.0000      -0.345263        -9.3951
  70   2.0000      -0.336588        -9.1590
  71   2.0000      -0.335158        -9.1201
  72   2.0000      -0.330401        -8.9907
  73   2.0000      -0.319975        -8.7069
  74   2.0000      -0.309577        -8.4240
  75   2.0000      -0.304034        -8.2732
  76   2.0000      -0.299928        -8.1615
  77   2.0000      -0.295894        -8.0517
  78   2.0000      -0.274711        -7.4753
  79   2.0000      -0.269818        -7.3421
  80   2.0000      -0.265275        -7.2185
  81   2.0000      -0.259126        -7.0512
  82   2.0000      -0.243996        -6.6395
  83   2.0000      -0.226897        -6.1742
  84   2.0000      -0.212800        -5.7906
  85   2.0000      -0.203828        -5.5464
  86   2.0000      -0.200846        -5.4653
  87   0.0000      -0.044462        -1.2099
  88   0.0000      -0.023727        -0.6457
  89   0.0000      -0.023416        -0.6372
  90   0.0000       0.000904         0.0246
  91   0.0000       0.013192         0.3590

MULLIKEN ATOMIC CHARGES
-----------------------
   0 C :   -0.310659
   1 C :   -0.027292
   2 O :   -0.238724
   3 C :    0.111240
   4 O :   -0.195176
   5 C :   -0.105920
   6 C :   -0.311518
   7 H :    0.157364
   8 C :    0.240911
   9 O :   -0.202039
  10 O :   -0.232213
  11 C :   -0.006867
  12 C :   -0.325723
  13 S :   -0.103338
  14 P :    0.623448
  15 S :   -0.319767
  16 O :   -0.391429
  17 C :   -0.099633
  18 O :   -0.363135
  19 C :   -0.118711
  20 H :    0.133161
  21 H :    0.117522
  22 H :    0.113241
  23 H :    0.121769
  24 H :    0.112629
  25 H :    0.132519
  26 H :    0.150821
  27 H :    0.114095
  28 H :    0.111230
  29 H :    0.119825
  30 H :    0.133345
  31 H :    0.115402
  32 H :    0.113071
  33 H :    0.118717
  34 H :    0.125180
  35 H :    0.128601
  36 H :    0.128858
  37 H :    0.129197
Sum of atomic charges:    0.0000000

LOEWDIN ATOMIC CHARGES
----------------------
   0 C :   -0.353558
   1 C :   -0.109082
   2 O :   -0.052108
   3 C :    0.033467
   4 O :   -0.161356
   5 C :   -0.245160
   6 C :   -0.275570
   7 H :    0.144835
   8 C :    0.018059
   9 O :   -0.163571
  10 O :   -0.054195
  11 C :   -0.106600
  12 C :   -0.356618
  13 S :    0.089666
  14 P :    0.578774
  15 S :   -0.314705
  16 O :   -0.262945
  17 C :   -0.217304
  18 O :   -0.236106
  19 C :   -0.211771
  20 H :    0.121849
  21 H :    0.127588
  22 H :    0.130686
  23 H :    0.124247
  24 H :    0.118514
  25 H :    0.148159
  26 H :    0.163506
  27 H :    0.123256
  28 H :    0.120315
  29 H :    0.120726
  30 H :    0.130037
  31 H :    0.132417
  32 H :    0.107552
  33 H :    0.112160
  34 H :    0.122383
  35 H :    0.109320
  36 H :    0.119045
  37 H :    0.124089

  Mayer bond orders larger than 0.100000
B(  0-C ,  1-C ) :   1.1728 B(  0-C , 20-H ) :   0.9356 B(  0-C , 21-H ) :   0.9474
B(  0-C , 22-H ) :   0.9414 B(  1-C ,  2-O ) :   0.9043 B(  1-C , 23-H ) :   0.9053
B(  1-C , 24-H ) :   0.9283 B(  2-O ,  3-C ) :   1.2101 B(  3-C ,  4-O ) :   2.0758
B(  3-C ,  5-C ) :   1.0072 B(  5-C ,  6-C ) :   1.0660 B(  5-C , 25-H ) :   0.9022
B(  5-C , 26-H ) :   0.8733 B(  6-C ,  7-H ) :   0.8356 B(  6-C ,  8-C ) :   0.8669
B(  6-C , 13-S ) :   1.0185 B(  8-C ,  9-O ) :   2.0568 B(  8-C , 10-O ) :   1.2381
B( 10-O , 11-C ) :   0.9042 B( 11-C , 12-C ) :   1.1764 B( 11-C , 27-H ) :   0.9164
B( 11-C , 28-H ) :   0.9299 B( 12-C , 29-H ) :   0.9404 B( 12-C , 30-H ) :   0.9397
B( 12-C , 31-H ) :   0.9414 B( 13-S , 14-P ) :   0.9576 B( 13-S , 15-S ) :   0.1137
B( 14-P , 15-S ) :   1.6373 B( 14-P , 16-O ) :   1.0649 B( 14-P , 18-O ) :   1.1131
B( 16-O , 17-C ) :   0.9334 B( 17-C , 32-H ) :   0.9456 B( 17-C , 33-H ) :   0.9359
B( 17-C , 34-H ) :   0.9585 B( 18-O , 19-C ) :   0.9182 B( 19-C , 35-H ) :   0.9314
B( 19-C , 36-H ) :   0.9476 B( 19-C , 37-H ) :   0.9586

Dispersion correction           -0.054735830
FINAL SINGLE POINT ENERGY     -1979.021953817463

DIPOLE MOMENT
-------------

Method             : SCF
Type of density    : Electron Density
Multiplicity       :   1
Irrep              :   0
Energy             : -1979.1507200280448160 Eh
Relativity type    :
Basis              : AO
                                X                 Y                 Z
Electronic contribution:    -11.352872399       9.302161752      -9.002228449
Nuclear contribution   :     11.205369041     -10.696992940      10.260287892
                        -----------------------------------------
Total Dipole Moment    :     -0.147503358      -1.394831189       1.258059443
                        -----------------------------------------
Magnitude (a.u.)       :      1.884150962
Magnitude (Debye)      :      4.789131147

Rotational constants in cm-1:             0.013785             0.007574             0.007136
Rotational constants in MHz :           413.266297           227.048725           213.927340

                             ****ORCA TERMINATED NORMALLY****
TOTAL RUN TIME: 0 days 0 hours 0 minutes 32 seconds 356 msec
