                         Program Version 6.0.0  -   RELEASE  -
|  1> ! pbe def2-sv(p) def2/J RI DEFGRID1 loosescf d4 GCP(DFT/SV(P)) printgap
|  2> %output
|  3>     printlevel normal
|  4> end
|  5> * xyz 0 1
|  6> C 3.3822132091 -1.115617186 -2.976732149
|  7> C 2.1531857184 -0.6078037372 -2.2532161661
|  8> O 2.5327219773 0.2546977272 -1.1535224067
|  9> P 2.5653404116 -0.2311858892 0.346319257
| 10> S 3.2814006087 1.1470960865 1.5318534595
| 11> O 3.3862721187 -1.5892553956 0.261067984
| 12> C 3.9851319294 -2.206381107 1.4172071517
| 13> C 2.9527185483 -2.682577633 2.4178587128
| 14> S 0.5790442646 -0.8531658741 0.76321194
| 15> C -0.0106978383 0.8136336463 1.2248916361
| 16> S -1.7938426599 0.8555403706 1.4089192937
| 17> P -2.3423883222 0.8987047001 -0.6636076763
| 18> S -0.8659830527 1.3194280858 -1.8821435734
| 19> O -3.4976592148 1.9593809502 -0.7733247271
| 20> C -4.8736568911 1.7453734949 -0.3666524876
| 21> C -5.0013093753 1.4479007973 1.1114080874
| 22> O -3.1162433384 -0.4536281343 -0.9779966126
| 23> C -2.468158914 -1.7242015113 -1.1751440652
| 24> C -2.5040512327 -2.5537795779 0.093300966
| 25> H 3.9866791179 -0.2774955131 -3.312358079
| 26> H 3.9784159102 -1.73706596 -2.3137170409
| 27> H 3.0701771299 -1.7001305736 -3.8363659002
| 28> H 1.5521502336 -1.434241905 -1.8631586212
| 29> H 1.5327509061 0.0213862833 -2.8955543479
| 30> H 4.5546611627 -3.0376427995 0.9992197324
| 31> H 4.6642164177 -1.4829633621 1.8782403058
| 32> H 2.207706064 -3.3047438572 1.928311716
| 33> H 3.4478135036 -3.2553527295 3.1954194541
| 34> H 2.4543185001 -1.8288450047 2.874418445
| 35> H 0.292147412 1.5130292849 0.442261291
| 36> H 0.4221738635 1.0893447991 2.1846462342
| 37> H -5.3581410179 2.6858194862 -0.6331364863
| 38> H -5.2816610243 0.9314131021 -0.9681692496
| 39> H -6.0535131528 1.3740939804 1.3681802645
| 40> H -4.5105201264 0.5064773398 1.3518794096
| 41> H -4.5432664123 2.2381243197 1.7006315291
| 42> H -3.0380283174 -2.2002963788 -1.9754163243
| 43> H -1.4415255475 -1.5535456255 -1.513670381
| 44> H -2.0947905405 -3.5362974935 -0.1165962008
| 45> H -1.9074038575 -2.0877002662 0.8743729659
| 46> H -3.5278391462 -2.6577918323 0.44079306
| 47> *
| 48>
| 49>                          ****END OF INPUT****

CARTESIAN COORDINATES (ANGSTROEM)
---------------------------------
  C      3.382213   -1.115617   -2.976732
  C      2.153186   -0.607804   -2.253216
  O      2.532722    0.254698   -1.153522
  P      2.565340   -0.231186    0.346319
  S      3.281401    1.147096    1.531853
  O      3.386272   -1.589255    0.261068
  C      3.985132   -2.206381    1.417207
  C      2.952719   -2.682578    2.417859
  S      0.579044   -0.853166    0.763212
  C     -0.010698    0.813634    1.224892
  S     -1.793843    0.855540    1.408919
  P     -2.342388    0.898705   -0.663608
  S     -0.865983    1.319428   -1.882144
  O     -3.497659    1.959381   -0.773325
  C     -4.873657    1.745373   -0.366652
  C     -5.001309    1.447901    1.111408
  O     -3.116243   -0.453628   -0.977997
  C     -2.468159   -1.724202   -1.175144
  C     -2.504051   -2.553780    0.093301
  H      3.986679   -0.277496   -3.312358
  H      3.978416   -1.737066   -2.313717
  H      3.070177   -1.700131   -3.836366
  H      1.552150   -1.434242   -1.863159
  H      1.532751    0.021386   -2.895554
  H      4.554661   -3.037643    0.999220
  H      4.664216   -1.482963    1.878240
  H      2.207706   -3.304744    1.928312
  H      3.447814   -3.255353    3.195419
  H      2.454319   -1.828845    2.874418
  H      0.292147    1.513029    0.442261
  H      0.422174    1.089345    2.184646
  H     -5.358141    2.685819   -0.633136
  H     -5.281661    0.931413   -0.968169
  H     -6.053513    1.374094    1.368180
  H     -4.510520    0.506477    1.351879
  H     -4.543266    2.238124    1.700632
  H     -3.038028   -2.200296   -1.975416
  H     -1.441526   -1.553546   -1.513670
  H     -2.094791   -3.536297   -0.116596
  H     -1.907404   -2.087700    0.874373
  H     -3.527839   -2.657792    0.440793

 Total Charge           Charge          ....    0
 Multiplicity           Mult            ....    1
 Number of Electrons    NEL             ....  202
 Basis Dimension        Dim             ....  334

ORBITAL ENERGIES
----------------

  NO   OCC          E(Eh)            E(eV)
   0   2.0000     -88.049153     -2395.9393
   1   2.0000     -88.039452     -2395.6753
   2   2.0000     -87.986781     -2394.2420
   3   2.0000     -87.982734     -2394.1319
   4   2.0000     -76.429717     -2079.7583
   5   2.0000     -76.423822     -2079.5979
   6   2.0000     -18.796504      -511.4789
   7   2.0000     -18.795262      -511.4451
   8   2.0000     -18.794992      -511.4377
   9   2.0000     -18.785782      -511.1871
  10   2.0000      -9.962332      -271.0888
  11   2.0000      -9.957050      -270.9451
  12   2.0000      -9.955564      -270.9047
  13   2.0000      -9.950219      -270.7592
  14   2.0000      -9.947874      -270.6954
  15   2.0000      -9.896109      -269.2868
  16   2.0000      -9.887617      -269.0557
  17   2.0000      -9.886062      -269.0134
  18   2.0000      -9.881418      -268.8871
  19   2.0000      -7.693654      -209.3550
  20   2.0000      -7.684064      -209.0940
  21   2.0000      -7.631696      -207.6690
  22   2.0000      -7.628076      -207.5705
  23   2.0000      -6.427248      -174.8943
  24   2.0000      -6.421337      -174.7335
  25   2.0000      -5.721543      -155.6911
  26   2.0000      -5.718108      -155.5976
  27   2.0000      -5.711802      -155.4260
  28   2.0000      -5.710797      -155.3987
  29   2.0000      -5.708816      -155.3448
  30   2.0000      -5.701021      -155.1327
  31   2.0000      -5.660747      -154.0368
  32   2.0000      -5.657108      -153.9377
  33   2.0000      -5.652108      -153.8017
  34   2.0000      -5.651902      -153.7961
  35   2.0000      -5.648573      -153.7055
  36   2.0000      -5.648215      -153.6958
  37   2.0000      -4.650151      -126.5370
  38   2.0000      -4.648849      -126.5016
  39   2.0000      -4.647547      -126.4662
  40   2.0000      -4.644257      -126.3767
  41   2.0000      -4.643055      -126.3439
  42   2.0000      -4.641538      -126.3027
  43   2.0000      -0.992952       -27.0196
  44   2.0000      -0.986777       -26.8516
  45   2.0000      -0.948197       -25.8018
  46   2.0000      -0.943184       -25.6653
  47   2.0000      -0.763007       -20.7625
  48   2.0000      -0.723772       -19.6948
  49   2.0000      -0.712302       -19.3827
  50   2.0000      -0.696661       -18.9571
  51   2.0000      -0.690004       -18.7760
  52   2.0000      -0.677953       -18.4480
  53   2.0000      -0.650488       -17.7007
  54   2.0000      -0.635448       -17.2914
  55   2.0000      -0.601569       -16.3695
  56   2.0000      -0.592880       -16.1331
  57   2.0000      -0.582883       -15.8611
  58   2.0000      -0.570290       -15.5184
  59   2.0000      -0.557175       -15.1615
  60   2.0000      -0.503724       -13.7070
  61   2.0000      -0.498742       -13.5715
  62   2.0000      -0.479166       -13.0388
  63   2.0000      -0.473651       -12.8887
  64   2.0000      -0.455503       -12.3949
  65   2.0000      -0.450818       -12.2674
  66   2.0000      -0.446232       -12.1426
  67   2.0000      -0.438585       -11.9345
  68   2.0000      -0.430027       -11.7016
  69   2.0000      -0.424289       -11.5455
  70   2.0000      -0.415059       -11.2943
  71   2.0000      -0.397799       -10.8247
  72   2.0000      -0.394572       -10.7368
  73   2.0000      -0.390356       -10.6221
  74   2.0000      -0.382385       -10.4052
  75   2.0000      -0.370160       -10.0726
  76   2.0000      -0.364474        -9.9178
  77   2.0000      -0.364027        -9.9057
  78   2.0000      -0.356302        -9.6955
  79   2.0000      -0.354013        -9.6332
  80   2.0000      -0.352045        -9.5796
  81   2.0000      -0.348762        -9.4903
  82   2.0000      -0.342974        -9.3328
  83   2.0000      -0.339689        -9.2434
  84   2.0000      -0.337969        -9.1966
  85   2.0000      -0.320618        -8.7245
  86   2.0000      -0.311678        -8.4812
  87   2.0000      -0.302333        -8.2269
  88   2.0000      -0.298488        -8.1223
  89   2.0000      -0.295357        -8.0371
  90   2.0000      -0.290969        -7.9177
  91   2.0000      -0.280198        -7.6246
  92   2.0000      -0.268845        -7.3157
  93   2.0000      -0.261679        -7.1207
  94   2.0000      -0.261041        -7.1033
  95   2.0000      -0.233311        -6.3487
  96   2.0000      -0.220750        -6.0069
  97   2.0000      -0.205720        -5.5979
  98   2.0000      -0.204122        -5.5544
  99   2.0000      -0.202986        -5.5235
 100   2.0000      -0.194927        -5.3042
 101   0.0000      -0.046391        -1.2624
 102   0.0000      -0.033146        -0.9019
 103   0.0000      -0.009528        -0.2593
 104   0.0000       0.000911         0.0248
 105   0.0000       0.010166         0.2766

MULLIKEN ATOMIC CHARGES
-----------------------
   0 C :   -0.279796
   1 C :   -0.023752
   2 O :   -0.349835
   3 P :    0.603189
   4 S :   -0.318278
   5 O :   -0.382379
   6 C :   -0.001079
   7 C :   -0.317699
   8 S :   -0.127151
   9 C :   -0.326067
  10 S :   -0.123429
  11 P :    0.614059
  12 S :   -0.305285
  13 O :   -0.360262
  14 C :    0.006751
  15 C :   -0.340799
  16 O :   -0.383692
  17 C :   -0.012859
  18 C :   -0.303979
  19 H :    0.120305
  20 H :    0.115030
  21 H :    0.106817
  22 H :    0.100532
  23 H :    0.124828
  24 H :    0.104930
  25 H :    0.114604
  26 H :    0.115410
  27 H :    0.114401
  28 H :    0.130207
  29 H :    0.206604
  30 H :    0.187652
  31 H :    0.114666
  32 H :    0.112689
  33 H :    0.120822
  34 H :    0.133253
  35 H :    0.133534
  36 H :    0.106274
  37 H :    0.114432
  38 H :    0.108828
  39 H :    0.134629
  40 H :    0.111894
Sum of atomic charges:   -0.0000000

LOEWDIN ATOMIC CHARGES
----------------------
   0 C :   -0.358201
   1 C :   -0.117417
   2 O :   -0.231388
   3 P :    0.573161
   4 S :   -0.312652
   5 O :   -0.248027
   6 C :   -0.115502
   7 C :   -0.371592
   8 S :    0.063317
   9 C :   -0.483173
  10 S :    0.083986
  11 P :    0.570677
  12 S :   -0.291774
  13 O :   -0.235064
  14 C :   -0.107494
  15 C :   -0.373119
  16 O :   -0.248217
  17 C :   -0.117742
  18 C :   -0.364802
  19 H :    0.129127
  20 H :    0.123950
  21 H :    0.128330
  22 H :    0.100627
  23 H :    0.118291
  24 H :    0.118440
  25 H :    0.114443
  26 H :    0.122378
  27 H :    0.131736
  28 H :    0.122376
  29 H :    0.125684
  30 H :    0.133300
  31 H :    0.124772
  32 H :    0.115989
  33 H :    0.135476
  34 H :    0.118127
  35 H :    0.130374
  36 H :    0.119079
  37 H :    0.106188
  38 H :    0.130245
  39 H :    0.112059
  40 H :    0.124033

  Mayer bond orders larger than 0.100000
B(  0-C ,  1-C ) :   1.1599 B(  0-C , 19-H ) :   0.9470 B(  0-C , 20-H ) :   0.9433
B(  0-C , 21-H ) :   0.9408 B(  1-C ,  2-O ) :   0.8902 B(  1-C , 22-H ) :   0.9126
B(  1-C , 23-H ) :   0.9267 B(  2-O ,  3-P ) :   1.1466 B(  3-P ,  4-S ) :   1.6298
B(  3-P ,  5-O ) :   1.0807 B(  3-P ,  8-S ) :   0.9589 B(  4-S ,  8-S ) :   0.1092
B(  5-O ,  6-C ) :   0.9051 B(  6-C ,  7-C ) :   1.1667 B(  6-C , 24-H ) :   0.9343
B(  6-C , 25-H ) :   0.9191 B(  7-C , 26-H ) :   0.9437 B(  7-C , 27-H ) :   0.9367
B(  7-C , 28-H ) :   0.9336 B(  8-S ,  9-C ) :   0.9677 B(  9-C , 10-S ) :   1.0215
B(  9-C , 29-H ) :   0.8602 B(  9-C , 30-H ) :   0.8905 B( 10-S , 11-P ) :   0.9232
B( 10-S , 12-S ) :   0.1148 B( 11-P , 12-S ) :   1.6565 B( 11-P , 13-O ) :   1.1485
B( 11-P , 16-O ) :   1.0738 B( 13-O , 14-C ) :   0.8969 B( 14-C , 15-C ) :   1.1695
B( 14-C , 31-H ) :   0.9333 B( 14-C , 32-H ) :   0.9271 B( 15-C , 33-H ) :   0.9349
B( 15-C , 34-H ) :   0.9303 B( 15-C , 35-H ) :   0.9411 B( 16-O , 17-C ) :   0.9038
B( 17-C , 18-C ) :   1.1698 B( 17-C , 36-H ) :   0.9345 B( 17-C , 37-H ) :   0.9032
B( 18-C , 38-H ) :   0.9399 B( 18-C , 39-H ) :   0.9270 B( 18-C , 40-H ) :   0.9452

Dispersion correction           -0.064710455
FINAL SINGLE POINT ENERGY     -2929.515208706782

DIPOLE MOMENT
-------------

Method             : SCF
Type of density    : Electron Density
Multiplicity       :   1
Irrep              :   0
Energy             : -2929.6362510434646538 Eh
Relativity type    :
Basis              : AO
                                X                 Y                 Z
Electronic contribution:      4.214934059      17.349404931       0.058314985
Nuclear contribution   :     -5.491899440     -19.179644751       0.013571584
                        -----------------------------------------
Total Dipole Moment    :     -1.276965381      -1.830239820       0.071886569
                        -----------------------------------------
Magnitude (a.u.)       :      2.232842597
Magnitude (Debye)      :      5.675434846

Rotational constants in cm-1:             0.013188             0.004508             0.004329
Rotational constants in MHz :           395.355952           135.137264           129.766880

                             ****ORCA TERMINATED NORMALLY****
TOTAL RUN TIME: 0 days 0 hours 0 minutes 21 seconds 303 msec
