                         Program Version 6.0.0  -   RELEASE  -
|  1> ! pbe def2-sv(p) def2/J RI DEFGRID1 loosescf d4 GCP(DFT/SV(P)) printgap
|  2> %output
|  3>     printlevel normal
|  4> end
|  5> * xyz 0 1
|  6> C 2.018896696 -1.2970681637 3.2533026766
|  7> C 1.175253345 -1.1602643519 2.0010498646
|  8> O 1.5956472166 0.0057383026 1.2727470607
|  9> P 2.1950472363 -0.0023994684 -0.2022439205
| 10> S 2.8283560888 -1.7585800185 -0.8096635845
| 11> O 3.2049125356 1.2168251142 -0.1562182414
| 12> C 4.214484016 1.3804285736 0.8634462342
| 13> C 5.3629310512 0.4068027629 0.6890070551
| 14> S 0.8182054316 0.9679981427 -1.4806674788
| 15> C -0.0362847641 -0.5223753637 -2.0641820952
| 16> S -0.8769689178 -1.4227385618 -0.7334263424
| 17> P -2.1713264344 0.1479060043 -0.1538141952
| 18> S -2.9107186947 1.2776536183 -1.5780535709
| 19> O -1.2551341642 0.8610906304 0.9258418104
| 20> C -1.3985117634 2.2557769211 1.2575423063
| 21> C -2.6804534234 2.5174772347 2.0195228416
| 22> O -3.2428649677 -0.5589901815 0.7804211453
| 23> C -4.4751168046 -1.1019535242 0.2737376934
| 24> C -4.2465566455 -2.3242859585 -0.5916402028
| 25> H 1.9486530791 -0.3955562411 3.8556186144
| 26> H 1.6591678683 -2.1425978452 3.8303437912
| 27> H 3.0594573906 -1.4675695441 2.9861860971
| 28> H 0.1194390314 -1.0105416749 2.2379125269
| 29> H 1.2816829767 -2.0414275636 1.3590850058
| 30> H 4.5444377948 2.4124793669 0.7326410305
| 31> H 3.7442942656 1.2636519367 1.8429992132
| 32> H 5.791098726 0.5052124906 -0.3053055667
| 33> H 6.12682574 0.6149122083 1.4315783465
| 34> H 5.0150364236 -0.6175601364 0.8117240392
| 35> H 0.683855497 -1.216101404 -2.4974355362
| 36> H -0.7654545527 -0.1911381837 -2.8024517951
| 37> H -0.5130738521 2.475504472 1.8561050328
| 38> H -1.3687038431 2.8377129639 0.3303167149
| 39> H -2.7117482039 3.5582459312 2.3261844163
| 40> H -3.5369807431 2.3111709442 1.3785480133
| 41> H -2.7351122165 1.8776044065 2.8962548551
| 42> H -5.0430708303 -1.3444564383 1.1728591977
| 43> H -4.9891468243 -0.3199218325 -0.2941507438
| 44> H -3.7319047228 -2.0411629114 -1.5088820068
| 45> H -3.6391076455 -3.0543464956 -0.0627062033
| 46> H -5.2035503546 -2.7674340566 -0.8478013991
| 47> *
| 48>
| 49>                          ****END OF INPUT****

CARTESIAN COORDINATES (ANGSTROEM)
---------------------------------
  C      2.018897   -1.297068    3.253303
  C      1.175253   -1.160264    2.001050
  O      1.595647    0.005738    1.272747
  P      2.195047   -0.002399   -0.202244
  S      2.828356   -1.758580   -0.809664
  O      3.204913    1.216825   -0.156218
  C      4.214484    1.380429    0.863446
  C      5.362931    0.406803    0.689007
  S      0.818205    0.967998   -1.480667
  C     -0.036285   -0.522375   -2.064182
  S     -0.876969   -1.422739   -0.733426
  P     -2.171326    0.147906   -0.153814
  S     -2.910719    1.277654   -1.578054
  O     -1.255134    0.861091    0.925842
  C     -1.398512    2.255777    1.257542
  C     -2.680453    2.517477    2.019523
  O     -3.242865   -0.558990    0.780421
  C     -4.475117   -1.101954    0.273738
  C     -4.246557   -2.324286   -0.591640
  H      1.948653   -0.395556    3.855619
  H      1.659168   -2.142598    3.830344
  H      3.059457   -1.467570    2.986186
  H      0.119439   -1.010542    2.237913
  H      1.281683   -2.041428    1.359085
  H      4.544438    2.412479    0.732641
  H      3.744294    1.263652    1.842999
  H      5.791099    0.505212   -0.305306
  H      6.126826    0.614912    1.431578
  H      5.015036   -0.617560    0.811724
  H      0.683855   -1.216101   -2.497436
  H     -0.765455   -0.191138   -2.802452
  H     -0.513074    2.475504    1.856105
  H     -1.368704    2.837713    0.330317
  H     -2.711748    3.558246    2.326184
  H     -3.536981    2.311171    1.378548
  H     -2.735112    1.877604    2.896255
  H     -5.043071   -1.344456    1.172859
  H     -4.989147   -0.319922   -0.294151
  H     -3.731905   -2.041163   -1.508882
  H     -3.639108   -3.054346   -0.062706
  H     -5.203550   -2.767434   -0.847801

 Total Charge           Charge          ....    0
 Multiplicity           Mult            ....    1
 Number of Electrons    NEL             ....  202
 Basis Dimension        Dim             ....  334

ORBITAL ENERGIES
----------------

  NO   OCC          E(Eh)            E(eV)
   0   2.0000     -88.043943     -2395.7975
   1   2.0000     -88.037685     -2395.6272
   2   2.0000     -87.991673     -2394.3751
   3   2.0000     -87.986596     -2394.2370
   4   2.0000     -76.428673     -2079.7299
   5   2.0000     -76.425390     -2079.6406
   6   2.0000     -18.797475      -511.5053
   7   2.0000     -18.792957      -511.3824
   8   2.0000     -18.790966      -511.3282
   9   2.0000     -18.789893      -511.2990
  10   2.0000      -9.957127      -270.9472
  11   2.0000      -9.955551      -270.9043
  12   2.0000      -9.952389      -270.8183
  13   2.0000      -9.949674      -270.7444
  14   2.0000      -9.944505      -270.6038
  15   2.0000      -9.886276      -269.0192
  16   2.0000      -9.885993      -269.0115
  17   2.0000      -9.884086      -268.9596
  18   2.0000      -9.883978      -268.9567
  19   2.0000      -7.688577      -209.2168
  20   2.0000      -7.682740      -209.0580
  21   2.0000      -7.636585      -207.8020
  22   2.0000      -7.631534      -207.6646
  23   2.0000      -6.426097      -174.8630
  24   2.0000      -6.422792      -174.7730
  25   2.0000      -5.716395      -155.5510
  26   2.0000      -5.713224      -155.4647
  27   2.0000      -5.710724      -155.3967
  28   2.0000      -5.707362      -155.3052
  29   2.0000      -5.705498      -155.2545
  30   2.0000      -5.699475      -155.0906
  31   2.0000      -5.665355      -154.1621
  32   2.0000      -5.660354      -154.0261
  33   2.0000      -5.657212      -153.9406
  34   2.0000      -5.656923      -153.9327
  35   2.0000      -5.652341      -153.8080
  36   2.0000      -5.651613      -153.7882
  37   2.0000      -4.648478      -126.4915
  38   2.0000      -4.647856      -126.4746
  39   2.0000      -4.646736      -126.4441
  40   2.0000      -4.645604      -126.4133
  41   2.0000      -4.644293      -126.3776
  42   2.0000      -4.643314      -126.3510
  43   2.0000      -0.989425       -26.9236
  44   2.0000      -0.986211       -26.8362
  45   2.0000      -0.947811       -25.7912
  46   2.0000      -0.942528       -25.6475
  47   2.0000      -0.764600       -20.8058
  48   2.0000      -0.723084       -19.6761
  49   2.0000      -0.708488       -19.2789
  50   2.0000      -0.688012       -18.7218
  51   2.0000      -0.687861       -18.7177
  52   2.0000      -0.672617       -18.3028
  53   2.0000      -0.652634       -17.7591
  54   2.0000      -0.639269       -17.3954
  55   2.0000      -0.603682       -16.4270
  56   2.0000      -0.592221       -16.1152
  57   2.0000      -0.574950       -15.6452
  58   2.0000      -0.572967       -15.5912
  59   2.0000      -0.559659       -15.2291
  60   2.0000      -0.501183       -13.6379
  61   2.0000      -0.492747       -13.4083
  62   2.0000      -0.476407       -12.9637
  63   2.0000      -0.473900       -12.8955
  64   2.0000      -0.457517       -12.4497
  65   2.0000      -0.445107       -12.1120
  66   2.0000      -0.442318       -12.0361
  67   2.0000      -0.433494       -11.7960
  68   2.0000      -0.428017       -11.6469
  69   2.0000      -0.413122       -11.2416
  70   2.0000      -0.410029       -11.1575
  71   2.0000      -0.394070       -10.7232
  72   2.0000      -0.390115       -10.6156
  73   2.0000      -0.388379       -10.5683
  74   2.0000      -0.377611       -10.2753
  75   2.0000      -0.376758       -10.2521
  76   2.0000      -0.372987       -10.1495
  77   2.0000      -0.359401        -9.7798
  78   2.0000      -0.353531        -9.6201
  79   2.0000      -0.352208        -9.5841
  80   2.0000      -0.349298        -9.5049
  81   2.0000      -0.348692        -9.4884
  82   2.0000      -0.342177        -9.3111
  83   2.0000      -0.339315        -9.2332
  84   2.0000      -0.334314        -9.0971
  85   2.0000      -0.324797        -8.8382
  86   2.0000      -0.309487        -8.4216
  87   2.0000      -0.298118        -8.1122
  88   2.0000      -0.293394        -7.9837
  89   2.0000      -0.290602        -7.9077
  90   2.0000      -0.284002        -7.7281
  91   2.0000      -0.278649        -7.5824
  92   2.0000      -0.273978        -7.4553
  93   2.0000      -0.267177        -7.2703
  94   2.0000      -0.257190        -6.9985
  95   2.0000      -0.233401        -6.3512
  96   2.0000      -0.216081        -5.8799
  97   2.0000      -0.215198        -5.8558
  98   2.0000      -0.209651        -5.7049
  99   2.0000      -0.200163        -5.4467
 100   2.0000      -0.197618        -5.3775
 101   0.0000      -0.045113        -1.2276
 102   0.0000      -0.024729        -0.6729
 103   0.0000       0.000641         0.0174
 104   0.0000       0.004133         0.1125
 105   0.0000       0.011096         0.3020

MULLIKEN ATOMIC CHARGES
-----------------------
   0 C :   -0.285632
   1 C :   -0.018649
   2 O :   -0.376951
   3 P :    0.646502
   4 S :   -0.336562
   5 O :   -0.377148
   6 C :   -0.011469
   7 C :   -0.313434
   8 S :   -0.076555
   9 C :   -0.357084
  10 S :   -0.087909
  11 P :    0.616938
  12 S :   -0.331007
  13 O :   -0.359538
  14 C :   -0.001300
  15 C :   -0.304661
  16 O :   -0.372327
  17 C :   -0.005995
  18 C :   -0.314971
  19 H :    0.111906
  20 H :    0.111211
  21 H :    0.113242
  22 H :    0.106053
  23 H :    0.114912
  24 H :    0.109022
  25 H :    0.108175
  26 H :    0.123035
  27 H :    0.108805
  28 H :    0.133458
  29 H :    0.194517
  30 H :    0.189610
  31 H :    0.103118
  32 H :    0.114768
  33 H :    0.111927
  34 H :    0.121283
  35 H :    0.113543
  36 H :    0.106216
  37 H :    0.111888
  38 H :    0.127832
  39 H :    0.118719
  40 H :    0.114514
Sum of atomic charges:   -0.0000000

LOEWDIN ATOMIC CHARGES
----------------------
   0 C :   -0.355928
   1 C :   -0.129468
   2 O :   -0.238566
   3 P :    0.569664
   4 S :   -0.317934
   5 O :   -0.246327
   6 C :   -0.111776
   7 C :   -0.366148
   8 S :    0.097274
   9 C :   -0.481493
  10 S :    0.099625
  11 P :    0.572397
  12 S :   -0.321355
  13 O :   -0.233076
  14 C :   -0.118003
  15 C :   -0.364738
  16 O :   -0.244028
  17 C :   -0.118865
  18 C :   -0.369104
  19 H :    0.122365
  20 H :    0.130735
  21 H :    0.122638
  22 H :    0.109647
  23 H :    0.103114
  24 H :    0.121093
  25 H :    0.110272
  26 H :    0.130722
  27 H :    0.128800
  28 H :    0.121714
  29 H :    0.131477
  30 H :    0.131277
  31 H :    0.117594
  32 H :    0.111033
  33 H :    0.130210
  34 H :    0.121755
  35 H :    0.124846
  36 H :    0.119187
  37 H :    0.111054
  38 H :    0.121742
  39 H :    0.124802
  40 H :    0.131771

  Mayer bond orders larger than 0.100000
B(  0-C ,  1-C ) :   1.1596 B(  0-C , 19-H ) :   0.9486 B(  0-C , 20-H ) :   0.9415
B(  0-C , 21-H ) :   0.9449 B(  1-C ,  2-O ) :   0.9020 B(  1-C , 22-H ) :   0.9233
B(  1-C , 23-H ) :   0.8995 B(  2-O ,  3-P ) :   1.0931 B(  3-P ,  4-S ) :   1.6102
B(  3-P ,  5-O ) :   1.1237 B(  3-P ,  8-S ) :   0.9502 B(  4-S ,  8-S ) :   0.1089
B(  5-O ,  6-C ) :   0.9115 B(  6-C ,  7-C ) :   1.1645 B(  6-C , 24-H ) :   0.9355
B(  6-C , 25-H ) :   0.9237 B(  7-C , 26-H ) :   0.9457 B(  7-C , 27-H ) :   0.9376
B(  7-C , 28-H ) :   0.9333 B(  8-S ,  9-C ) :   1.0109 B(  9-C , 10-S ) :   0.9932
B(  9-C , 29-H ) :   0.8820 B(  9-C , 30-H ) :   0.8884 B( 10-S , 11-P ) :   0.9530
B( 10-S , 12-S ) :   0.1074 B( 11-P , 12-S ) :   1.5898 B( 11-P , 13-O ) :   1.1147
B( 11-P , 16-O ) :   1.1113 B( 13-O , 14-C ) :   0.9013 B( 14-C , 15-C ) :   1.1635
B( 14-C , 31-H ) :   0.9333 B( 14-C , 32-H ) :   0.9160 B( 15-C , 33-H ) :   0.9399
B( 15-C , 34-H ) :   0.9360 B( 15-C , 35-H ) :   0.9465 B( 16-O , 17-C ) :   0.9073
B( 17-C , 18-C ) :   1.1665 B( 17-C , 36-H ) :   0.9339 B( 17-C , 37-H ) :   0.9164
B( 18-C , 38-H ) :   0.9356 B( 18-C , 39-H ) :   0.9446 B( 18-C , 40-H ) :   0.9377

Dispersion correction           -0.067217159
FINAL SINGLE POINT ENERGY     -2929.527354321640

DIPOLE MOMENT
-------------

Method             : SCF
Type of density    : Electron Density
Multiplicity       :   1
Irrep              :   0
Energy             : -2929.6456120007264872 Eh
Relativity type    :
Basis              : AO
                                X                 Y                 Z
Electronic contribution:      0.005709804       0.928511556     -18.425598466
Nuclear contribution   :     -0.260216750      -0.787088519      19.941103943
                        -----------------------------------------
Total Dipole Moment    :     -0.254506946       0.141423036       1.515505477
                        -----------------------------------------
Magnitude (a.u.)       :      1.543221018
Magnitude (Debye)      :      3.922556098

Rotational constants in cm-1:             0.013165             0.005030             0.004888
Rotational constants in MHz :           394.667464           150.803683           146.534257

                             ****ORCA TERMINATED NORMALLY****
TOTAL RUN TIME: 0 days 0 hours 0 minutes 21 seconds 647 msec
