                         Program Version 6.0.0  -   RELEASE  -
|  1> ! pbe def2-sv(p) def2/J RI DEFGRID1 loosescf d4 GCP(DFT/SV(P)) printgap
|  2> %output
|  3>     printlevel normal
|  4> end
|  5> * xyz 0 1
|  6> C 5.3831824442 -0.0657732822 -1.0673080771
|  7> C 4.4902483933 -0.842872515 -0.1189890565
|  8> O 3.5022752572 0.0133388924 0.4848735062
|  9> P 2.0505730004 0.2220801478 -0.1325763162
| 10> S 1.9711836892 0.8464986139 -1.9923924416
| 11> O 1.422048546 1.1590074338 0.9781704711
| 12> C 1.4281594306 2.5963768493 0.845944603
| 13> C 2.8329158313 3.1566892244 0.8798931089
| 14> S 1.1540978578 -1.6532768656 0.2588425637
| 15> C 0.1072238798 -1.8448893751 -1.225898897
| 16> S -1.608715505 -2.2553651325 -0.826851831
| 17> P -2.1326576084 -0.4839409591 0.183891978
| 18> S -1.4111470017 1.1846285822 -0.5686482978
| 19> O -1.7065604312 -0.8309579105 1.6652644284
| 20> C -1.4638736528 0.1689303162 2.6747420195
| 21> C -2.7128093014 0.9659524375 2.9839972325
| 22> O -3.7130032346 -0.593205065 0.2828821314
| 23> C -4.5825889626 -0.4301512784 -0.8559407591
| 24> C -5.055431073 1.005726519 -0.978175222
| 25> H 4.7993440618 0.3332979479 -1.8938024746
| 26> H 5.8582129472 0.7584306952 -0.5425942822
| 27> H 6.1470014184 -0.7281489494 -1.461505231
| 28> H 5.0576280915 -1.2403743604 0.7246960707
| 29> H 3.9870242217 -1.6643864761 -0.6375461989
| 30> H 0.9189781735 2.8585345729 -0.087649175
| 31> H 0.8313041836 2.9407626695 1.6918501088
| 32> H 3.3860258401 2.8141523035 0.0060221872
| 33> H 2.787323609 4.2410871711 0.867002162
| 34> H 3.3478120561 2.8219445641 1.7766333378
| 35> H 0.4836120917 -2.6833778735 -1.8062450673
| 36> H 0.1511795253 -0.9166825643 -1.8035252644
| 37> H -1.1233166479 -0.4108837239 3.5337812598
| 38> H -0.6561537803 0.820975832 2.3280192824
| 39> H -3.5239951715 0.2969129275 3.2590045714
| 40> H -2.5130627316 1.6516256658 3.8014993948
| 41> H -3.0104123139 1.5365409836 2.1044142639
| 42> H -4.0577693218 -0.7502967166 -1.7605167154
| 43> H -5.4153913696 -1.1081234524 -0.6607243642
| 44> H -4.2109323077 1.6667648865 -1.161147597
| 45> H -5.7502526268 1.0835265148 -1.808099408
| 46> H -5.5522470528 1.3153571738 -0.0629769217
| 47> *
| 48>
| 49>                          ****END OF INPUT****

CARTESIAN COORDINATES (ANGSTROEM)
---------------------------------
  C      5.383182   -0.065773   -1.067308
  C      4.490248   -0.842873   -0.118989
  O      3.502275    0.013339    0.484874
  P      2.050573    0.222080   -0.132576
  S      1.971184    0.846499   -1.992392
  O      1.422049    1.159007    0.978170
  C      1.428159    2.596377    0.845945
  C      2.832916    3.156689    0.879893
  S      1.154098   -1.653277    0.258843
  C      0.107224   -1.844889   -1.225899
  S     -1.608716   -2.255365   -0.826852
  P     -2.132658   -0.483941    0.183892
  S     -1.411147    1.184629   -0.568648
  O     -1.706560   -0.830958    1.665264
  C     -1.463874    0.168930    2.674742
  C     -2.712809    0.965952    2.983997
  O     -3.713003   -0.593205    0.282882
  C     -4.582589   -0.430151   -0.855941
  C     -5.055431    1.005727   -0.978175
  H      4.799344    0.333298   -1.893802
  H      5.858213    0.758431   -0.542594
  H      6.147001   -0.728149   -1.461505
  H      5.057628   -1.240374    0.724696
  H      3.987024   -1.664386   -0.637546
  H      0.918978    2.858535   -0.087649
  H      0.831304    2.940763    1.691850
  H      3.386026    2.814152    0.006022
  H      2.787324    4.241087    0.867002
  H      3.347812    2.821945    1.776633
  H      0.483612   -2.683378   -1.806245
  H      0.151180   -0.916683   -1.803525
  H     -1.123317   -0.410884    3.533781
  H     -0.656154    0.820976    2.328019
  H     -3.523995    0.296913    3.259005
  H     -2.513063    1.651626    3.801499
  H     -3.010412    1.536541    2.104414
  H     -4.057769   -0.750297   -1.760517
  H     -5.415391   -1.108123   -0.660724
  H     -4.210932    1.666765   -1.161148
  H     -5.750253    1.083527   -1.808099
  H     -5.552247    1.315357   -0.062977

 Total Charge           Charge          ....    0
 Multiplicity           Mult            ....    1
 Number of Electrons    NEL             ....  202
 Basis Dimension        Dim             ....  334

ORBITAL ENERGIES
----------------

  NO   OCC          E(Eh)            E(eV)
   0   2.0000     -88.042225     -2395.7507
   1   2.0000     -88.041309     -2395.7258
   2   2.0000     -87.985593     -2394.2097
   3   2.0000     -87.984045     -2394.1676
   4   2.0000     -76.424844     -2079.6257
   5   2.0000     -76.424786     -2079.6241
   6   2.0000     -18.792683      -511.3749
   7   2.0000     -18.790272      -511.3093
   8   2.0000     -18.787362      -511.2301
   9   2.0000     -18.785644      -511.1834
  10   2.0000      -9.955011      -270.8896
  11   2.0000      -9.952927      -270.8329
  12   2.0000      -9.952350      -270.8172
  13   2.0000      -9.947031      -270.6725
  14   2.0000      -9.946593      -270.6606
  15   2.0000      -9.880918      -268.8735
  16   2.0000      -9.880744      -268.8687
  17   2.0000      -9.880041      -268.8496
  18   2.0000      -9.879608      -268.8378
  19   2.0000      -7.687913      -209.1987
  20   2.0000      -7.686176      -209.1515
  21   2.0000      -7.630529      -207.6372
  22   2.0000      -7.628620      -207.5853
  23   2.0000      -6.422234      -174.7579
  24   2.0000      -6.422180      -174.7564
  25   2.0000      -5.715841      -155.5359
  26   2.0000      -5.714025      -155.4865
  27   2.0000      -5.712256      -155.4384
  28   2.0000      -5.710716      -155.3965
  29   2.0000      -5.704903      -155.2383
  30   2.0000      -5.703154      -155.1907
  31   2.0000      -5.659385      -153.9997
  32   2.0000      -5.657417      -153.9461
  33   2.0000      -5.651295      -153.7796
  34   2.0000      -5.650584      -153.7602
  35   2.0000      -5.649307      -153.7255
  36   2.0000      -5.648858      -153.7132
  37   2.0000      -4.644651      -126.3874
  38   2.0000      -4.644476      -126.3826
  39   2.0000      -4.644075      -126.3717
  40   2.0000      -4.643903      -126.3670
  41   2.0000      -4.642967      -126.3416
  42   2.0000      -4.642806      -126.3372
  43   2.0000      -0.985284       -26.8109
  44   2.0000      -0.984646       -26.7936
  45   2.0000      -0.943460       -25.6729
  46   2.0000      -0.942059       -25.6347
  47   2.0000      -0.761154       -20.7120
  48   2.0000      -0.719547       -19.5799
  49   2.0000      -0.706002       -19.2113
  50   2.0000      -0.684904       -18.6372
  51   2.0000      -0.683593       -18.6015
  52   2.0000      -0.672889       -18.3102
  53   2.0000      -0.651325       -17.7234
  54   2.0000      -0.635214       -17.2851
  55   2.0000      -0.598768       -16.2933
  56   2.0000      -0.591841       -16.1048
  57   2.0000      -0.570549       -15.5254
  58   2.0000      -0.566007       -15.4018
  59   2.0000      -0.560669       -15.2566
  60   2.0000      -0.501548       -13.6478
  61   2.0000      -0.493684       -13.4338
  62   2.0000      -0.471811       -12.8386
  63   2.0000      -0.470872       -12.8131
  64   2.0000      -0.445935       -12.1345
  65   2.0000      -0.443318       -12.0633
  66   2.0000      -0.438028       -11.9193
  67   2.0000      -0.436428       -11.8758
  68   2.0000      -0.426561       -11.6073
  69   2.0000      -0.410655       -11.1745
  70   2.0000      -0.404275       -11.0009
  71   2.0000      -0.399074       -10.8593
  72   2.0000      -0.394869       -10.7449
  73   2.0000      -0.387792       -10.5524
  74   2.0000      -0.386035       -10.5046
  75   2.0000      -0.370653       -10.0860
  76   2.0000      -0.367399        -9.9974
  77   2.0000      -0.353385        -9.6161
  78   2.0000      -0.351505        -9.5649
  79   2.0000      -0.347074        -9.4444
  80   2.0000      -0.344899        -9.3852
  81   2.0000      -0.338191        -9.2026
  82   2.0000      -0.336524        -9.1573
  83   2.0000      -0.332045        -9.0354
  84   2.0000      -0.331814        -9.0291
  85   2.0000      -0.316105        -8.6016
  86   2.0000      -0.311423        -8.4742
  87   2.0000      -0.296759        -8.0752
  88   2.0000      -0.294251        -8.0070
  89   2.0000      -0.285400        -7.7661
  90   2.0000      -0.282834        -7.6963
  91   2.0000      -0.272689        -7.4202
  92   2.0000      -0.270358        -7.3568
  93   2.0000      -0.262866        -7.1530
  94   2.0000      -0.259937        -7.0732
  95   2.0000      -0.232754        -6.3336
  96   2.0000      -0.223063        -6.0699
  97   2.0000      -0.213266        -5.8033
  98   2.0000      -0.202967        -5.5230
  99   2.0000      -0.196376        -5.3437
 100   2.0000      -0.188174        -5.1205
 101   0.0000      -0.038387        -1.0446
 102   0.0000      -0.031542        -0.8583
 103   0.0000      -0.007392        -0.2012
 104   0.0000       0.017496         0.4761
 105   0.0000       0.019855         0.5403

MULLIKEN ATOMIC CHARGES
-----------------------
   0 C :   -0.295000
   1 C :   -0.005620
   2 O :   -0.372271
   3 P :    0.613498
   4 S :   -0.317880
   5 O :   -0.360838
   6 C :   -0.009740
   7 C :   -0.299743
   8 S :   -0.088944
   9 C :   -0.361017
  10 S :   -0.086296
  11 P :    0.608469
  12 S :   -0.327204
  13 O :   -0.358056
  14 C :   -0.020944
  15 C :   -0.312436
  16 O :   -0.371449
  17 C :   -0.011727
  18 C :   -0.294291
  19 H :    0.128980
  20 H :    0.113210
  21 H :    0.106428
  22 H :    0.106161
  23 H :    0.095561
  24 H :    0.124229
  25 H :    0.101153
  26 H :    0.125702
  27 H :    0.110145
  28 H :    0.114242
  29 H :    0.179719
  30 H :    0.212956
  31 H :    0.104282
  32 H :    0.137042
  33 H :    0.115944
  34 H :    0.108559
  35 H :    0.123517
  36 H :    0.104194
  37 H :    0.108037
  38 H :    0.130239
  39 H :    0.107814
  40 H :    0.113374
Sum of atomic charges:   -0.0000000

LOEWDIN ATOMIC CHARGES
----------------------
   0 C :   -0.364850
   1 C :   -0.117247
   2 O :   -0.246012
   3 P :    0.572699
   4 S :   -0.303592
   5 O :   -0.235493
   6 C :   -0.118324
   7 C :   -0.366389
   8 S :    0.082279
   9 C :   -0.480155
  10 S :    0.083912
  11 P :    0.564444
  12 S :   -0.306195
  13 O :   -0.235023
  14 C :   -0.116449
  15 C :   -0.367775
  16 O :   -0.244996
  17 C :   -0.115302
  18 C :   -0.363779
  19 H :    0.123492
  20 H :    0.124740
  21 H :    0.128108
  22 H :    0.118367
  23 H :    0.103841
  24 H :    0.110685
  25 H :    0.114583
  26 H :    0.122022
  27 H :    0.130133
  28 H :    0.125211
  29 H :    0.135281
  30 H :    0.124940
  31 H :    0.119879
  32 H :    0.115774
  33 H :    0.125717
  34 H :    0.128634
  35 H :    0.120965
  36 H :    0.108006
  37 H :    0.119144
  38 H :    0.124743
  39 H :    0.128907
  40 H :    0.125074

  Mayer bond orders larger than 0.100000
B(  0-C ,  1-C ) :   1.1659 B(  0-C , 19-H ) :   0.9302 B(  0-C , 20-H ) :   0.9463
B(  0-C , 21-H ) :   0.9397 B(  1-C ,  2-O ) :   0.9102 B(  1-C , 22-H ) :   0.9366
B(  1-C , 23-H ) :   0.9128 B(  2-O ,  3-P ) :   1.1000 B(  3-P ,  4-S ) :   1.5965
B(  3-P ,  5-O ) :   1.1282 B(  3-P ,  8-S ) :   0.9672 B(  4-S ,  8-S ) :   0.1210
B(  5-O ,  6-C ) :   0.8967 B(  6-C ,  7-C ) :   1.1645 B(  6-C , 24-H ) :   0.9144
B(  6-C , 25-H ) :   0.9312 B(  7-C , 26-H ) :   0.9323 B(  7-C , 27-H ) :   0.9379
B(  7-C , 28-H ) :   0.9446 B(  8-S ,  9-C ) :   0.9921 B(  9-C , 10-S ) :   1.0050
B(  9-C , 29-H ) :   0.9118 B(  9-C , 30-H ) :   0.8467 B( 10-S , 11-P ) :   0.9607
B( 10-S , 12-S ) :   0.1106 B( 11-P , 12-S ) :   1.6074 B( 11-P , 13-O ) :   1.1395
B( 11-P , 16-O ) :   1.1069 B( 13-O , 14-C ) :   0.8993 B( 14-C , 15-C ) :   1.1616
B( 14-C , 31-H ) :   0.9343 B( 14-C , 32-H ) :   0.9095 B( 15-C , 33-H ) :   0.9446
B( 15-C , 34-H ) :   0.9387 B( 15-C , 35-H ) :   0.9320 B( 16-O , 17-C ) :   0.9049
B( 17-C , 18-C ) :   1.1678 B( 17-C , 36-H ) :   0.9161 B( 17-C , 37-H ) :   0.9360
B( 18-C , 38-H ) :   0.9309 B( 18-C , 39-H ) :   0.9394 B( 18-C , 40-H ) :   0.9467

Dispersion correction           -0.067104229
FINAL SINGLE POINT ENERGY     -2929.523556263453

DIPOLE MOMENT
-------------

Method             : SCF
Type of density    : Electron Density
Multiplicity       :   1
Irrep              :   0
Energy             : -2929.6417074191526808 Eh
Relativity type    :
Basis              : AO
                                X                 Y                 Z
Electronic contribution:     -1.910825994     -14.997695079      -5.474029756
Nuclear contribution   :      1.884804705      14.955386061       6.105728954
                        -----------------------------------------
Total Dipole Moment    :     -0.026021289      -0.042309017       0.631699198
                        -----------------------------------------
Magnitude (a.u.)       :      0.633648986
Magnitude (Debye)      :      1.610607725

Rotational constants in cm-1:             0.013441             0.005095             0.004682
Rotational constants in MHz :           402.962345           152.757945           140.376755

                             ****ORCA TERMINATED NORMALLY****
TOTAL RUN TIME: 0 days 0 hours 0 minutes 21 seconds 277 msec
