                         Program Version 6.0.0  -   RELEASE  -
|  1> ! pbe def2-sv(p) def2/J RI DEFGRID1 loosescf d4 GCP(DFT/SV(P)) printgap
|  2> %output
|  3>     printlevel normal
|  4> end
|  5> * xyz 0 1
|  6> C 3.3589764492 -0.8735874457 -2.8991637566
|  7> C 4.1331112745 -1.0628141248 -1.6114501693
|  8> O 3.6398535351 -0.2473562843 -0.5315338619
|  9> P 2.1180303275 -0.1104825623 -0.0965358551
| 10> S 1.0512665642 1.1521892258 -1.1656833493
| 11> O 2.2506668346 0.2927959631 1.4317723892
| 12> C 2.3183502866 1.6602264582 1.8685008594
| 13> C 3.6547740749 2.281406609 1.5249045716
| 14> S 1.5159183033 -2.1176956697 0.0852643081
| 15> C -0.1759167727 -1.9177963933 0.7065064256
| 16> S -1.3634428183 -1.368679663 -0.5552207806
| 17> P -2.0508704834 0.4572409334 0.3105779376
| 18> S -1.1432398479 1.0008061212 1.9593771454
| 19> O -3.6260136247 0.2520703639 0.4739377295
| 20> C -4.2337382168 -0.334915178 1.6357845298
| 21> C -3.8713288762 -1.7958743073 1.8103995113
| 22> O -2.0122808653 1.5734733811 -0.7954329223
| 23> C -2.9116549049 1.6834571324 -1.9248372897
| 24> C -2.798727191 0.5059106733 -2.8685726379
| 25> H 2.3296968011 -1.2073091091 -2.7697884371
| 26> H 3.346694299 0.1757624819 -3.1850704925
| 27> H 3.8232006089 -1.457008671 -3.6877036198
| 28> H 5.1716034264 -0.7443234723 -1.7189894766
| 29> H 4.096105847 -2.1065743535 -1.287604223
| 30> H 1.4963001286 2.218454621 1.4066419823
| 31> H 2.1501977364 1.6035984999 2.9449798312
| 32> H 3.6994102368 3.28775597 1.9291159347
| 33> H 4.4618446622 1.6838620807 1.9398819944
| 34> H 3.7690875717 2.3244134584 0.4422203135
| 35> H -0.1780140845 -1.1978777004 1.5301736209
| 36> H -0.4725904553 -2.9095136269 1.0382224855
| 37> H -3.9291799442 0.2439680218 2.5133727574
| 38> H -5.3025658218 -0.205057609 1.4591963258
| 39> H -4.4756079981 -2.2188721887 2.6064868586
| 40> H -4.0512735597 -2.3446474052 0.8895961948
| 41> H -2.8207614128 -1.8882762767 2.0809982367
| 42> H -3.9288881452 1.7883064894 -1.5419098247
| 43> H -2.5907592408 2.6110144837 -2.40151434
| 44> H -3.1489008702 -0.4043702392 -2.3838909571
| 45> H -3.4051594809 0.6956256446 -3.7486256274
| 46> H -1.7625575731 0.367937988 -3.1691739147
| 47> *
| 48>
| 49>                          ****END OF INPUT****

CARTESIAN COORDINATES (ANGSTROEM)
---------------------------------
  C      3.358976   -0.873587   -2.899164
  C      4.133111   -1.062814   -1.611450
  O      3.639854   -0.247356   -0.531534
  P      2.118030   -0.110483   -0.096536
  S      1.051267    1.152189   -1.165683
  O      2.250667    0.292796    1.431772
  C      2.318350    1.660226    1.868501
  C      3.654774    2.281407    1.524905
  S      1.515918   -2.117696    0.085264
  C     -0.175917   -1.917796    0.706506
  S     -1.363443   -1.368680   -0.555221
  P     -2.050870    0.457241    0.310578
  S     -1.143240    1.000806    1.959377
  O     -3.626014    0.252070    0.473938
  C     -4.233738   -0.334915    1.635785
  C     -3.871329   -1.795874    1.810400
  O     -2.012281    1.573473   -0.795433
  C     -2.911655    1.683457   -1.924837
  C     -2.798727    0.505911   -2.868573
  H      2.329697   -1.207309   -2.769788
  H      3.346694    0.175762   -3.185070
  H      3.823201   -1.457009   -3.687704
  H      5.171603   -0.744323   -1.718989
  H      4.096106   -2.106574   -1.287604
  H      1.496300    2.218455    1.406642
  H      2.150198    1.603598    2.944980
  H      3.699410    3.287756    1.929116
  H      4.461845    1.683862    1.939882
  H      3.769088    2.324413    0.442220
  H     -0.178014   -1.197878    1.530174
  H     -0.472590   -2.909514    1.038222
  H     -3.929180    0.243968    2.513373
  H     -5.302566   -0.205058    1.459196
  H     -4.475608   -2.218872    2.606487
  H     -4.051274   -2.344647    0.889596
  H     -2.820761   -1.888276    2.080998
  H     -3.928888    1.788306   -1.541910
  H     -2.590759    2.611014   -2.401514
  H     -3.148901   -0.404370   -2.383891
  H     -3.405159    0.695626   -3.748626
  H     -1.762558    0.367938   -3.169174

 Total Charge           Charge          ....    0
 Multiplicity           Mult            ....    1
 Number of Electrons    NEL             ....  202
 Basis Dimension        Dim             ....  334

ORBITAL ENERGIES
----------------

  NO   OCC          E(Eh)            E(eV)
   0   2.0000     -88.040497     -2395.7037
   1   2.0000     -88.038443     -2395.6478
   2   2.0000     -87.983862     -2394.1626
   3   2.0000     -87.974387     -2393.9048
   4   2.0000     -76.424679     -2079.6212
   5   2.0000     -76.417789     -2079.4338
   6   2.0000     -18.787845      -511.2433
   7   2.0000     -18.787257      -511.2272
   8   2.0000     -18.783944      -511.1371
   9   2.0000     -18.776379      -510.9313
  10   2.0000      -9.954715      -270.8816
  11   2.0000      -9.954227      -270.8683
  12   2.0000      -9.954136      -270.8658
  13   2.0000      -9.952753      -270.8282
  14   2.0000      -9.934247      -270.3246
  15   2.0000      -9.886412      -269.0229
  16   2.0000      -9.886216      -269.0176
  17   2.0000      -9.879744      -268.8415
  18   2.0000      -9.871619      -268.6204
  19   2.0000      -7.686079      -209.1488
  20   2.0000      -7.683003      -209.0651
  21   2.0000      -7.628792      -207.5900
  22   2.0000      -7.618986      -207.3232
  23   2.0000      -6.421726      -174.7441
  24   2.0000      -6.415164      -174.5655
  25   2.0000      -5.713856      -155.4819
  26   2.0000      -5.710986      -155.4038
  27   2.0000      -5.710495      -155.3905
  28   2.0000      -5.707618      -155.3122
  29   2.0000      -5.703143      -155.1904
  30   2.0000      -5.699855      -155.1009
  31   2.0000      -5.657682      -153.9533
  32   2.0000      -5.649437      -153.7290
  33   2.0000      -5.648879      -153.7138
  34   2.0000      -5.647893      -153.6870
  35   2.0000      -5.639672      -153.4633
  36   2.0000      -5.639165      -153.4495
  37   2.0000      -4.644646      -126.3872
  38   2.0000      -4.643160      -126.3468
  39   2.0000      -4.642269      -126.3226
  40   2.0000      -4.637728      -126.1990
  41   2.0000      -4.637193      -126.1844
  42   2.0000      -4.635412      -126.1360
  43   2.0000      -0.984878       -26.7999
  44   2.0000      -0.976785       -26.5797
  45   2.0000      -0.939846       -25.5745
  46   2.0000      -0.935628       -25.4597
  47   2.0000      -0.758839       -20.6491
  48   2.0000      -0.717152       -19.5147
  49   2.0000      -0.705018       -19.1845
  50   2.0000      -0.689851       -18.7718
  51   2.0000      -0.682507       -18.5720
  52   2.0000      -0.671011       -18.2591
  53   2.0000      -0.647860       -17.6292
  54   2.0000      -0.631940       -17.1960
  55   2.0000      -0.597220       -16.2512
  56   2.0000      -0.585561       -15.9339
  57   2.0000      -0.578894       -15.7525
  58   2.0000      -0.567509       -15.4427
  59   2.0000      -0.557840       -15.1796
  60   2.0000      -0.494645       -13.4600
  61   2.0000      -0.485795       -13.2192
  62   2.0000      -0.467316       -12.7163
  63   2.0000      -0.461512       -12.5584
  64   2.0000      -0.450713       -12.2645
  65   2.0000      -0.447792       -12.1851
  66   2.0000      -0.444420       -12.0933
  67   2.0000      -0.427308       -11.6276
  68   2.0000      -0.425494       -11.5783
  69   2.0000      -0.419638       -11.4189
  70   2.0000      -0.410190       -11.1618
  71   2.0000      -0.399223       -10.8634
  72   2.0000      -0.386733       -10.5235
  73   2.0000      -0.385085       -10.4787
  74   2.0000      -0.380295       -10.3483
  75   2.0000      -0.368393       -10.0245
  76   2.0000      -0.362415        -9.8618
  77   2.0000      -0.354797        -9.6545
  78   2.0000      -0.352109        -9.5814
  79   2.0000      -0.343813        -9.3556
  80   2.0000      -0.342894        -9.3306
  81   2.0000      -0.338028        -9.1982
  82   2.0000      -0.337268        -9.1775
  83   2.0000      -0.334904        -9.1132
  84   2.0000      -0.330829        -9.0023
  85   2.0000      -0.311665        -8.4808
  86   2.0000      -0.306472        -8.3395
  87   2.0000      -0.295052        -8.0288
  88   2.0000      -0.292302        -7.9539
  89   2.0000      -0.291182        -7.9235
  90   2.0000      -0.277526        -7.5519
  91   2.0000      -0.270903        -7.3716
  92   2.0000      -0.261103        -7.1050
  93   2.0000      -0.256454        -6.9785
  94   2.0000      -0.253161        -6.8888
  95   2.0000      -0.236031        -6.4227
  96   2.0000      -0.217604        -5.9213
  97   2.0000      -0.203969        -5.5503
  98   2.0000      -0.200181        -5.4472
  99   2.0000      -0.187181        -5.0934
 100   2.0000      -0.181059        -4.9269
 101   0.0000      -0.037287        -1.0146
 102   0.0000      -0.031627        -0.8606
 103   0.0000      -0.012445        -0.3386
 104   0.0000       0.003489         0.0949
 105   0.0000       0.014402         0.3919

MULLIKEN ATOMIC CHARGES
-----------------------
   0 C :   -0.313617
   1 C :   -0.011198
   2 O :   -0.376445
   3 P :    0.610591
   4 S :   -0.318752
   5 O :   -0.364995
   6 C :   -0.015584
   7 C :   -0.295871
   8 S :   -0.102612
   9 C :   -0.348773
  10 S :   -0.103084
  11 P :    0.626453
  12 S :   -0.311088
  13 O :   -0.389018
  14 C :    0.005802
  15 C :   -0.321259
  16 O :   -0.349983
  17 C :    0.006926
  18 C :   -0.334702
  19 H :    0.127378
  20 H :    0.127078
  21 H :    0.109195
  22 H :    0.109277
  23 H :    0.113646
  24 H :    0.127596
  25 H :    0.099980
  26 H :    0.107406
  27 H :    0.110110
  28 H :    0.120073
  29 H :    0.202150
  30 H :    0.182452
  31 H :    0.111056
  32 H :    0.102341
  33 H :    0.112470
  34 H :    0.119223
  35 H :    0.123389
  36 H :    0.108770
  37 H :    0.112433
  38 H :    0.125927
  39 H :    0.115122
  40 H :    0.140139
Sum of atomic charges:    0.0000000

LOEWDIN ATOMIC CHARGES
----------------------
   0 C :   -0.372675
   1 C :   -0.113396
   2 O :   -0.247060
   3 P :    0.566499
   4 S :   -0.313453
   5 O :   -0.239109
   6 C :   -0.124649
   7 C :   -0.363904
   8 S :    0.078554
   9 C :   -0.482860
  10 S :    0.078303
  11 P :    0.579493
  12 S :   -0.292737
  13 O :   -0.255133
  14 C :   -0.116002
  15 C :   -0.370512
  16 O :   -0.224871
  17 C :   -0.106809
  18 C :   -0.371263
  19 H :    0.121028
  20 H :    0.129491
  21 H :    0.128808
  22 H :    0.121567
  23 H :    0.109290
  24 H :    0.109040
  25 H :    0.116266
  26 H :    0.128246
  27 H :    0.123263
  28 H :    0.122328
  29 H :    0.123601
  30 H :    0.135794
  31 H :    0.111397
  32 H :    0.117612
  33 H :    0.130508
  34 H :    0.124098
  35 H :    0.119843
  36 H :    0.113473
  37 H :    0.124290
  38 H :    0.115903
  39 H :    0.132446
  40 H :    0.133292

  Mayer bond orders larger than 0.100000
B(  0-C ,  1-C ) :   1.1649 B(  0-C , 19-H ) :   0.9316 B(  0-C , 20-H ) :   0.9406
B(  0-C , 21-H ) :   0.9340 B(  1-C ,  2-O ) :   0.9186 B(  1-C , 22-H ) :   0.9344
B(  1-C , 23-H ) :   0.9285 B(  2-O ,  3-P ) :   1.0941 B(  3-P ,  4-S ) :   1.6307
B(  3-P ,  5-O ) :   1.1258 B(  3-P ,  8-S ) :   0.9537 B(  4-S ,  8-S ) :   0.1175
B(  5-O ,  6-C ) :   0.9012 B(  6-C ,  7-C ) :   1.1593 B(  6-C , 24-H ) :   0.9052
B(  6-C , 25-H ) :   0.9356 B(  7-C , 26-H ) :   0.9405 B(  7-C , 27-H ) :   0.9462
B(  7-C , 28-H ) :   0.9370 B(  8-S ,  9-C ) :   1.0003 B(  9-C , 10-S ) :   1.0054
B(  9-C , 29-H ) :   0.8417 B(  9-C , 30-H ) :   0.9078 B( 10-S , 11-P ) :   0.9427
B( 10-S , 12-S ) :   0.1164 B( 11-P , 12-S ) :   1.6073 B( 11-P , 13-O ) :   1.0572
B( 11-P , 16-O ) :   1.1477 B( 12-S , 29-H ) :   0.1174 B( 13-O , 14-C ) :   0.9189
B( 14-C , 15-C ) :   1.1647 B( 14-C , 31-H ) :   0.9175 B( 14-C , 32-H ) :   0.9347
B( 15-C , 33-H ) :   0.9365 B( 15-C , 34-H ) :   0.9416 B( 15-C , 35-H ) :   0.9373
B( 16-O , 17-C ) :   0.9000 B( 17-C , 18-C ) :   1.1708 B( 17-C , 36-H ) :   0.9262
B( 17-C , 37-H ) :   0.9325 B( 18-C , 38-H ) :   0.9322 B( 18-C , 39-H ) :   0.9355
B( 18-C , 40-H ) :   0.9393

Dispersion correction           -0.068250720
FINAL SINGLE POINT ENERGY     -2929.511389048577

DIPOLE MOMENT
-------------

Method             : SCF
Type of density    : Electron Density
Multiplicity       :   1
Irrep              :   0
Energy             : -2929.6287459194581970 Eh
Relativity type    :
Basis              : AO
                                X                 Y                 Z
Electronic contribution:      1.116826686      -0.758287941       4.595510075
Nuclear contribution   :     -1.673665402       0.053754502      -4.989280860
                        -----------------------------------------
Total Dipole Moment    :     -0.556838717      -0.704533439      -0.393770785
                        -----------------------------------------
Magnitude (a.u.)       :      0.980557063
Magnitude (Debye)      :      2.492377981

Rotational constants in cm-1:             0.012156             0.005408             0.005173
Rotational constants in MHz :           364.423724           162.141751           155.081757

                             ****ORCA TERMINATED NORMALLY****
TOTAL RUN TIME: 0 days 0 hours 0 minutes 21 seconds 529 msec
