                         Program Version 6.0.1  -  RELEASE   -
|  1> ! pbe def2-sv(p) def2/J RI DEFGRID1 loosescf d4 GCP(DFT/SV(P)) printgap
|  2> %output
|  3>     printlevel normal
|  4> end
|  5> * xyz 0 1
|  6> C 4.9854098728 -2.3720978728 -1.9976511912
|  7> C 4.9342609451 -1.9451165564 -0.5395620374
|  8> O 3.6234721147 -2.172776369 0.0164840212
|  9> C 2.7116017956 -1.2338598233 -0.1070793946
| 10> O 2.8892138103 -0.1616097214 -0.6488213194
| 11> C 1.4036815624 -1.6323828205 0.5425201248
| 12> C 0.2883759246 -0.7720990052 -0.0278027443
| 13> H 0.0609177329 -1.0217535864 -1.068528477
| 14> C 0.6034011589 0.7106339511 0.0416156139
| 15> O 0.3544947455 1.4747870441 -0.8657029118
| 16> O 1.0383126177 1.0644855909 1.2332115664
| 17> C 1.3589439959 2.45092594 1.4580665495
| 18> C 2.8386417153 2.6989786991 1.2170394483
| 19> S -1.2404411735 -0.9910679981 0.9464657467
| 20> P -2.469321747 0.3155160078 -0.1939425639
| 21> S -2.3423455829 0.1431073966 -2.1357018743
| 22> O -3.9130440561 0.004603505 0.4112435292
| 23> C -4.5854289419 -1.2277842601 0.119346773
| 24> O -2.2315805884 1.7802351182 0.3579121829
| 25> C -2.473403392 2.1197303725 1.7411577002
| 26> H 4.3149318651 -1.755192152 -2.5925191196
| 27> H 5.9967290318 -2.2521379592 -2.371736727
| 28> H 4.6879684462 -3.4124781187 -2.0944289135
| 29> H 5.1779118657 -0.8839281443 -0.4385460329
| 30> H 5.598676678 -2.5511483436 0.0762061457
| 31> H 1.4940421354 -1.4553787581 1.6171626823
| 32> H 1.2114451684 -2.6920828253 0.3819444912
| 33> H 0.7470164814 3.0593171309 0.7854468801
| 34> H 1.0871698176 2.6328687272 2.4986156441
| 35> H 3.0545191314 3.7538032252 1.3497629243
| 36> H 3.4360292105 2.1167219433 1.9128570918
| 37> H 3.0986421649 2.4048160799 0.201923935
| 38> H -4.5137785215 -1.4492695214 -0.9464642582
| 39> H -5.6215144045 -1.0705255252 0.4076805053
| 40> H -4.1399182102 -2.0345274237 0.6999978836
| 41> H -2.09183414 3.1310398328 1.8558865684
| 42> H -1.9435728517 1.4260815819 2.3951126575
| 43> H -3.5415361656 2.0821310406 1.9437504498
| 44> *
| 45>
| 46>                          ****END OF INPUT****

CARTESIAN COORDINATES (ANGSTROEM)
---------------------------------
  C      4.985410   -2.372098   -1.997651
  C      4.934261   -1.945117   -0.539562
  O      3.623472   -2.172776    0.016484
  C      2.711602   -1.233860   -0.107079
  O      2.889214   -0.161610   -0.648821
  C      1.403682   -1.632383    0.542520
  C      0.288376   -0.772099   -0.027803
  H      0.060918   -1.021754   -1.068528
  C      0.603401    0.710634    0.041616
  O      0.354495    1.474787   -0.865703
  O      1.038313    1.064486    1.233212
  C      1.358944    2.450926    1.458067
  C      2.838642    2.698979    1.217039
  S     -1.240441   -0.991068    0.946466
  P     -2.469322    0.315516   -0.193943
  S     -2.342346    0.143107   -2.135702
  O     -3.913044    0.004604    0.411244
  C     -4.585429   -1.227784    0.119347
  O     -2.231581    1.780235    0.357912
  C     -2.473403    2.119730    1.741158
  H      4.314932   -1.755192   -2.592519
  H      5.996729   -2.252138   -2.371737
  H      4.687968   -3.412478   -2.094429
  H      5.177912   -0.883928   -0.438546
  H      5.598677   -2.551148    0.076206
  H      1.494042   -1.455379    1.617163
  H      1.211445   -2.692083    0.381944
  H      0.747016    3.059317    0.785447
  H      1.087170    2.632869    2.498616
  H      3.054519    3.753803    1.349763
  H      3.436029    2.116722    1.912857
  H      3.098642    2.404816    0.201924
  H     -4.513779   -1.449270   -0.946464
  H     -5.621514   -1.070526    0.407681
  H     -4.139918   -2.034527    0.699998
  H     -2.091834    3.131040    1.855887
  H     -1.943573    1.426082    2.395113
  H     -3.541536    2.082131    1.943750

 Total Charge           Charge          ....    0
 Multiplicity           Mult            ....    1
 Number of Electrons    NEL             ....  174
 Basis Dimension        Dim             ....  316

ORBITAL ENERGIES
----------------

  NO   OCC          E(Eh)            E(eV)
   0   2.0000     -88.039605     -2395.6795
   1   2.0000     -87.973840     -2393.8899
   2   2.0000     -76.420237     -2079.5004
   3   2.0000     -18.815191      -511.9874
   4   2.0000     -18.795472      -511.4508
   5   2.0000     -18.792603      -511.3727
   6   2.0000     -18.789829      -511.2972
   7   2.0000     -18.752380      -510.2782
   8   2.0000     -18.717846      -509.3385
   9   2.0000     -10.023611      -272.7563
  10   2.0000     -10.001692      -272.1599
  11   2.0000      -9.957243      -270.9504
  12   2.0000      -9.946704      -270.6636
  13   2.0000      -9.944862      -270.6135
  14   2.0000      -9.941632      -270.5255
  15   2.0000      -9.939719      -270.4735
  16   2.0000      -9.918585      -269.8984
  17   2.0000      -9.893573      -269.2178
  18   2.0000      -9.878905      -268.8187
  19   2.0000      -7.684336      -209.1014
  20   2.0000      -7.619254      -207.3304
  21   2.0000      -6.417504      -174.6292
  22   2.0000      -5.711835      -155.4269
  23   2.0000      -5.709032      -155.3507
  24   2.0000      -5.701572      -155.1477
  25   2.0000      -5.648419      -153.7013
  26   2.0000      -5.639554      -153.4601
  27   2.0000      -5.639433      -153.4568
  28   2.0000      -4.640424      -126.2723
  29   2.0000      -4.639388      -126.2442
  30   2.0000      -4.637561      -126.1945
  31   2.0000      -1.023693       -27.8561
  32   2.0000      -1.001933       -27.2640
  33   2.0000      -0.985053       -26.8047
  34   2.0000      -0.940781       -25.5999
  35   2.0000      -0.929548       -25.2943
  36   2.0000      -0.900806       -24.5122
  37   2.0000      -0.765908       -20.8414
  38   2.0000      -0.720238       -19.5987
  39   2.0000      -0.699564       -19.0361
  40   2.0000      -0.689770       -18.7696
  41   2.0000      -0.662414       -18.0252
  42   2.0000      -0.637018       -17.3341
  43   2.0000      -0.619687       -16.8626
  44   2.0000      -0.610178       -16.6038
  45   2.0000      -0.596539       -16.2327
  46   2.0000      -0.562624       -15.3098
  47   2.0000      -0.513094       -13.9620
  48   2.0000      -0.508983       -13.8501
  49   2.0000      -0.494098       -13.4451
  50   2.0000      -0.478535       -13.0216
  51   2.0000      -0.474009       -12.8984
  52   2.0000      -0.461509       -12.5583
  53   2.0000      -0.445492       -12.1225
  54   2.0000      -0.435001       -11.8370
  55   2.0000      -0.433670       -11.8008
  56   2.0000      -0.428982       -11.6732
  57   2.0000      -0.418169       -11.3790
  58   2.0000      -0.414054       -11.2670
  59   2.0000      -0.408484       -11.1154
  60   2.0000      -0.403341       -10.9755
  61   2.0000      -0.399577       -10.8731
  62   2.0000      -0.390815       -10.6346
  63   2.0000      -0.382113       -10.3978
  64   2.0000      -0.371818       -10.1177
  65   2.0000      -0.367658       -10.0045
  66   2.0000      -0.361890        -9.8475
  67   2.0000      -0.356827        -9.7098
  68   2.0000      -0.345708        -9.4072
  69   2.0000      -0.335412        -9.1270
  70   2.0000      -0.332378        -9.0445
  71   2.0000      -0.329957        -8.9786
  72   2.0000      -0.318716        -8.6727
  73   2.0000      -0.315063        -8.5733
  74   2.0000      -0.304666        -8.2904
  75   2.0000      -0.300967        -8.1897
  76   2.0000      -0.295894        -8.0517
  77   2.0000      -0.285902        -7.7798
  78   2.0000      -0.272698        -7.4205
  79   2.0000      -0.269928        -7.3451
  80   2.0000      -0.259627        -7.0648
  81   2.0000      -0.247358        -6.7310
  82   2.0000      -0.236977        -6.4485
  83   2.0000      -0.230193        -6.2639
  84   2.0000      -0.211189        -5.7467
  85   2.0000      -0.190764        -5.1910
  86   2.0000      -0.184300        -5.0150
  87   0.0000      -0.041653        -1.1334
  88   0.0000      -0.033586        -0.9139
  89   0.0000      -0.011915        -0.3242
  90   0.0000       0.011909         0.3241
  91   0.0000       0.027463         0.7473

MULLIKEN ATOMIC CHARGES
-----------------------
   0 C :   -0.306802
   1 C :   -0.015084
   2 O :   -0.224396
   3 C :    0.126109
   4 O :   -0.194726
   5 C :   -0.056587
   6 C :   -0.293292
   7 H :    0.145142
   8 C :    0.174371
   9 O :   -0.170737
  10 O :   -0.245873
  11 C :   -0.025611
  12 C :   -0.295783
  13 S :   -0.114227
  14 P :    0.602774
  15 S :   -0.282293
  16 O :   -0.391991
  17 C :   -0.100866
  18 O :   -0.357774
  19 C :   -0.107848
  20 H :    0.133201
  21 H :    0.117227
  22 H :    0.117028
  23 H :    0.112144
  24 H :    0.106993
  25 H :    0.128218
  26 H :    0.121659
  27 H :    0.117941
  28 H :    0.093479
  29 H :    0.106677
  30 H :    0.102794
  31 H :    0.141657
  32 H :    0.120266
  33 H :    0.125695
  34 H :    0.115811
  35 H :    0.130404
  36 H :    0.117987
  37 H :    0.126311
Sum of atomic charges:   -0.0000000

LOEWDIN ATOMIC CHARGES
----------------------
   0 C :   -0.355147
   1 C :   -0.109378
   2 O :   -0.053310
   3 C :    0.045099
   4 O :   -0.145787
   5 C :   -0.253882
   6 C :   -0.258557
   7 H :    0.138660
   8 C :   -0.010672
   9 O :   -0.146840
  10 O :   -0.065355
  11 C :   -0.111909
  12 C :   -0.355626
  13 S :    0.086140
  14 P :    0.570687
  15 S :   -0.290318
  16 O :   -0.259691
  17 C :   -0.214978
  18 O :   -0.234388
  19 C :   -0.211727
  20 H :    0.133418
  21 H :    0.132940
  22 H :    0.126356
  23 H :    0.121313
  24 H :    0.119915
  25 H :    0.149262
  26 H :    0.142312
  27 H :    0.122247
  28 H :    0.111580
  29 H :    0.127343
  30 H :    0.119894
  31 H :    0.136380
  32 H :    0.112784
  33 H :    0.122642
  34 H :    0.110166
  35 H :    0.123899
  36 H :    0.107665
  37 H :    0.116866

  Mayer bond orders larger than 0.100000
B(  0-C ,  1-C ) :   1.1751 B(  0-C , 20-H ) :   0.9459 B(  0-C , 21-H ) :   0.9435
B(  0-C , 22-H ) :   0.9485 B(  1-C ,  2-O ) :   0.9072 B(  1-C , 23-H ) :   0.9144
B(  1-C , 24-H ) :   0.9365 B(  2-O ,  3-C ) :   1.2566 B(  3-C ,  4-O ) :   1.9810
B(  3-C ,  5-C ) :   1.0172 B(  5-C ,  6-C ) :   1.0353 B(  5-C , 25-H ) :   0.8666
B(  5-C , 26-H ) :   0.8989 B(  6-C ,  7-H ) :   0.8695 B(  6-C ,  8-C ) :   0.9028
B(  6-C , 13-S ) :   1.0159 B(  8-C ,  9-O ) :   2.0539 B(  8-C , 10-O ) :   1.2025
B( 10-O , 11-C ) :   0.9197 B( 11-C , 12-C ) :   1.1791 B( 11-C , 27-H ) :   0.9064
B( 11-C , 28-H ) :   0.9361 B( 12-C , 29-H ) :   0.9437 B( 12-C , 30-H ) :   0.9502
B( 12-C , 31-H ) :   0.9398 B( 13-S , 14-P ) :   0.9512 B( 13-S , 15-S ) :   0.1138
B( 14-P , 15-S ) :   1.6961 B( 14-P , 16-O ) :   1.0660 B( 14-P , 18-O ) :   1.1090
B( 16-O , 17-C ) :   0.9295 B( 17-C , 32-H ) :   0.9317 B( 17-C , 33-H ) :   0.9587
B( 17-C , 34-H ) :   0.9506 B( 18-O , 19-C ) :   0.9183 B( 19-C , 35-H ) :   0.9565
B( 19-C , 36-H ) :   0.9335 B( 19-C , 37-H ) :   0.9489

Dispersion correction           -0.051612053
FINAL SINGLE POINT ENERGY     -1979.014736635302

DIPOLE MOMENT
-------------

Method             : SCF
Type of density    : Electron Density
Multiplicity       :   1
Irrep              :   0
Energy             : -1979.1465316889634778 Eh
Relativity type    :
Basis              : AO
                                X                 Y                 Z
Electronic contribution:    -18.510332927      -0.663325080      -4.635543499
Nuclear contribution   :     19.330041045      -0.201296248       6.420366892
                        -----------------------------------------
Total Dipole Moment    :      0.819708119      -0.864621328       1.784823393
                        -----------------------------------------
Magnitude (a.u.)       :      2.145946407
Magnitude (Debye)      :      5.454562287

Rotational constants in cm-1:             0.016078             0.005800             0.005039
Rotational constants in MHz :           482.018627           173.872794           151.054386

                             ****ORCA TERMINATED NORMALLY****
TOTAL RUN TIME: 0 days 0 hours 0 minutes 43 seconds 110 msec
