                         Program Version 6.0.0  -   RELEASE  -
|  1> ! pbe def2-sv(p) def2/J RI DEFGRID1 loosescf d4 GCP(DFT/SV(P)) printgap
|  2> %output
|  3>     printlevel normal
|  4> end
|  5> * xyz 0 1
|  6> C 3.5085843013 -0.5333553357 -3.0054176804
|  7> C 4.0792250681 0.2677205431 -1.852776737
|  8> O 3.5976878798 -0.2075918058 -0.5879551551
|  9> P 2.0808294592 -0.0277473387 -0.1330383121
| 10> S 1.3705911963 1.7275053454 -0.6498552453
| 11> O 2.1600975857 -0.363188524 1.4108734411
| 12> C 2.3804276378 0.65400762 2.4093378924
| 13> C 3.7647780735 1.2557206855 2.3060284895
| 14> S 1.2321127013 -1.8423531216 -0.8306403954
| 15> C 0.0238456404 -2.317101094 0.4455647602
| 16> S -1.6937877944 -2.1992192609 -0.1137007038
| 17> P -1.9742310509 -0.123632822 0.1517923187
| 18> S -1.0727226842 0.5805855578 1.7521020214
| 19> O -3.5496275766 0.0522154496 0.1522183845
| 20> C -4.3446696086 -0.2465634711 1.3183338558
| 21> C -5.6523062484 0.5096731727 1.1996207902
| 22> O -1.5685533177 0.4420749911 -1.264639056
| 23> C -2.1775909931 1.5877231788 -1.9056769643
| 24> C -2.1237936651 2.8294505508 -1.0424918904
| 25> H 3.9457259411 -0.1914759379 -3.9379542539
| 26> H 3.7165655896 -1.5916577562 -2.8709729821
| 27> H 2.4274618315 -0.3953027823 -3.0478850272
| 28> H 3.8122414232 1.3257483511 -1.9506844456
| 29> H 5.1623764691 0.1615759349 -1.7818323208
| 30> H 1.6068861985 1.4213948819 2.2995735512
| 31> H 2.2322533618 0.1257553607 3.3522670817
| 32> H 3.9222898586 1.9334417731 3.1390897971
| 33> H 4.5165805275 0.4710920671 2.3259188727
| 34> H 3.8583784012 1.8120864322 1.3741687352
| 35> H 0.1598757308 -1.6893575286 1.3269628235
| 36> H 0.2016887862 -3.3650349994 0.6706854493
| 37> H -4.5075210621 -1.3266229425 1.3456747287
| 38> H -3.784137331 0.0553617617 2.2096454979
| 39> H -6.2773488173 0.2719520016 2.0539859873
| 40> H -5.4686635474 1.5804003467 1.1787708399
| 41> H -6.1657159395 0.2217178054 0.2868895568
| 42> H -1.5860834814 1.7096391187 -2.8142480741
| 43> H -3.2071723661 1.3229748643 -2.1543458754
| 44> H -2.5622766577 3.6634416792 -1.5809526338
| 45> H -2.6772860822 2.6680886228 -0.117864162
| 46> H -1.0916212388 3.0667217047 -0.7913078389
| 47> *
| 48>
| 49>                          ****END OF INPUT****

CARTESIAN COORDINATES (ANGSTROEM)
---------------------------------
  C      3.508584   -0.533355   -3.005418
  C      4.079225    0.267721   -1.852777
  O      3.597688   -0.207592   -0.587955
  P      2.080829   -0.027747   -0.133038
  S      1.370591    1.727505   -0.649855
  O      2.160098   -0.363189    1.410873
  C      2.380428    0.654008    2.409338
  C      3.764778    1.255721    2.306028
  S      1.232113   -1.842353   -0.830640
  C      0.023846   -2.317101    0.445565
  S     -1.693788   -2.199219   -0.113701
  P     -1.974231   -0.123633    0.151792
  S     -1.072723    0.580586    1.752102
  O     -3.549628    0.052215    0.152218
  C     -4.344670   -0.246563    1.318334
  C     -5.652306    0.509673    1.199621
  O     -1.568553    0.442075   -1.264639
  C     -2.177591    1.587723   -1.905677
  C     -2.123794    2.829451   -1.042492
  H      3.945726   -0.191476   -3.937954
  H      3.716566   -1.591658   -2.870973
  H      2.427462   -0.395303   -3.047885
  H      3.812241    1.325748   -1.950684
  H      5.162376    0.161576   -1.781832
  H      1.606886    1.421395    2.299574
  H      2.232253    0.125755    3.352267
  H      3.922290    1.933442    3.139090
  H      4.516581    0.471092    2.325919
  H      3.858378    1.812086    1.374169
  H      0.159876   -1.689358    1.326963
  H      0.201689   -3.365035    0.670685
  H     -4.507521   -1.326623    1.345675
  H     -3.784137    0.055362    2.209645
  H     -6.277349    0.271952    2.053986
  H     -5.468664    1.580400    1.178771
  H     -6.165716    0.221718    0.286890
  H     -1.586083    1.709639   -2.814248
  H     -3.207172    1.322975   -2.154346
  H     -2.562277    3.663442   -1.580953
  H     -2.677286    2.668089   -0.117864
  H     -1.091621    3.066722   -0.791308

 Total Charge           Charge          ....    0
 Multiplicity           Mult            ....    1
 Number of Electrons    NEL             ....  202
 Basis Dimension        Dim             ....  334

ORBITAL ENERGIES
----------------

  NO   OCC          E(Eh)            E(eV)
   0   2.0000     -88.037103     -2395.6114
   1   2.0000     -88.033254     -2395.5066
   2   2.0000     -87.982839     -2394.1348
   3   2.0000     -87.976686     -2393.9673
   4   2.0000     -76.424221     -2079.6088
   5   2.0000     -76.419234     -2079.4731
   6   2.0000     -18.797142      -511.4962
   7   2.0000     -18.786022      -511.1936
   8   2.0000     -18.783355      -511.1211
   9   2.0000     -18.783028      -511.1122
  10   2.0000      -9.954585      -270.8780
  11   2.0000      -9.952278      -270.8153
  12   2.0000      -9.948983      -270.7256
  13   2.0000      -9.945310      -270.6256
  14   2.0000      -9.943333      -270.5718
  15   2.0000      -9.890992      -269.1476
  16   2.0000      -9.880910      -268.8732
  17   2.0000      -9.877064      -268.7686
  18   2.0000      -9.875311      -268.7209
  19   2.0000      -7.682949      -209.0637
  20   2.0000      -7.678786      -208.9504
  21   2.0000      -7.627657      -207.5591
  22   2.0000      -7.621612      -207.3946
  23   2.0000      -6.421703      -174.7434
  24   2.0000      -6.416707      -174.6075
  25   2.0000      -5.710825      -155.3995
  26   2.0000      -5.707416      -155.3067
  27   2.0000      -5.707044      -155.2966
  28   2.0000      -5.703126      -155.1899
  29   2.0000      -5.699848      -155.1008
  30   2.0000      -5.695459      -154.9813
  31   2.0000      -5.656318      -153.9162
  32   2.0000      -5.650438      -153.7562
  33   2.0000      -5.648578      -153.7056
  34   2.0000      -5.647758      -153.6833
  35   2.0000      -5.642424      -153.5382
  36   2.0000      -5.641649      -153.5171
  37   2.0000      -4.644754      -126.3902
  38   2.0000      -4.643217      -126.3484
  39   2.0000      -4.641949      -126.3138
  40   2.0000      -4.639285      -126.2414
  41   2.0000      -4.638570      -126.2219
  42   2.0000      -4.637096      -126.1818
  43   2.0000      -0.987506       -26.8714
  44   2.0000      -0.980043       -26.6683
  45   2.0000      -0.941834       -25.6286
  46   2.0000      -0.939771       -25.5725
  47   2.0000      -0.757307       -20.6074
  48   2.0000      -0.717971       -19.5370
  49   2.0000      -0.704816       -19.1790
  50   2.0000      -0.688420       -18.7329
  51   2.0000      -0.681545       -18.5458
  52   2.0000      -0.667427       -18.1616
  53   2.0000      -0.649354       -17.6698
  54   2.0000      -0.629848       -17.1390
  55   2.0000      -0.595863       -16.2143
  56   2.0000      -0.588145       -16.0042
  57   2.0000      -0.571097       -15.5403
  58   2.0000      -0.567098       -15.4315
  59   2.0000      -0.557628       -15.1738
  60   2.0000      -0.505167       -13.7463
  61   2.0000      -0.486223       -13.2308
  62   2.0000      -0.470210       -12.7951
  63   2.0000      -0.466767       -12.7014
  64   2.0000      -0.449837       -12.2407
  65   2.0000      -0.444761       -12.1026
  66   2.0000      -0.439241       -11.9524
  67   2.0000      -0.432353       -11.7649
  68   2.0000      -0.421879       -11.4799
  69   2.0000      -0.413395       -11.2491
  70   2.0000      -0.405641       -11.0381
  71   2.0000      -0.400937       -10.9101
  72   2.0000      -0.388247       -10.5647
  73   2.0000      -0.384445       -10.4613
  74   2.0000      -0.379738       -10.3332
  75   2.0000      -0.371713       -10.1148
  76   2.0000      -0.366624        -9.9764
  77   2.0000      -0.355870        -9.6837
  78   2.0000      -0.350308        -9.5324
  79   2.0000      -0.343687        -9.3522
  80   2.0000      -0.342353        -9.3159
  81   2.0000      -0.339868        -9.2483
  82   2.0000      -0.336154        -9.1472
  83   2.0000      -0.332849        -9.0573
  84   2.0000      -0.325403        -8.8547
  85   2.0000      -0.316490        -8.6121
  86   2.0000      -0.305157        -8.3037
  87   2.0000      -0.301957        -8.2167
  88   2.0000      -0.290061        -7.8930
  89   2.0000      -0.284650        -7.7457
  90   2.0000      -0.277267        -7.5448
  91   2.0000      -0.273384        -7.4391
  92   2.0000      -0.267353        -7.2750
  93   2.0000      -0.257072        -6.9953
  94   2.0000      -0.254131        -6.9152
  95   2.0000      -0.234834        -6.3902
  96   2.0000      -0.218016        -5.9325
  97   2.0000      -0.208341        -5.6692
  98   2.0000      -0.200097        -5.4449
  99   2.0000      -0.189950        -5.1688
 100   2.0000      -0.178753        -4.8641
 101   0.0000      -0.039752        -1.0817
 102   0.0000      -0.026713        -0.7269
 103   0.0000      -0.016785        -0.4567
 104   0.0000       0.008039         0.2187
 105   0.0000       0.020222         0.5503

MULLIKEN ATOMIC CHARGES
-----------------------
   0 C :   -0.324252
   1 C :   -0.003830
   2 O :   -0.371957
   3 P :    0.620768
   4 S :   -0.327584
   5 O :   -0.371348
   6 C :   -0.008385
   7 C :   -0.301437
   8 S :   -0.093203
   9 C :   -0.362403
  10 S :   -0.092576
  11 P :    0.636088
  12 S :   -0.331450
  13 O :   -0.389107
  14 C :   -0.009487
  15 C :   -0.286140
  16 O :   -0.357481
  17 C :    0.015127
  18 C :   -0.328690
  19 H :    0.113299
  20 H :    0.121804
  21 H :    0.129240
  22 H :    0.107214
  23 H :    0.102556
  24 H :    0.126574
  25 H :    0.101740
  26 H :    0.109646
  27 H :    0.114428
  28 H :    0.122198
  29 H :    0.209905
  30 H :    0.182296
  31 H :    0.104008
  32 H :    0.107449
  33 H :    0.113688
  34 H :    0.121591
  35 H :    0.116948
  36 H :    0.108204
  37 H :    0.104306
  38 H :    0.105750
  39 H :    0.119932
  40 H :    0.144572
Sum of atomic charges:    0.0000000

LOEWDIN ATOMIC CHARGES
----------------------
   0 C :   -0.370881
   1 C :   -0.124259
   2 O :   -0.245004
   3 P :    0.570590
   4 S :   -0.309397
   5 O :   -0.236531
   6 C :   -0.118533
   7 C :   -0.365197
   8 S :    0.078112
   9 C :   -0.479152
  10 S :    0.071296
  11 P :    0.572823
  12 S :   -0.305249
  13 O :   -0.247532
  14 C :   -0.120692
  15 C :   -0.351139
  16 O :   -0.234193
  17 C :   -0.104889
  18 C :   -0.370229
  19 H :    0.131235
  20 H :    0.125426
  21 H :    0.121032
  22 H :    0.106453
  23 H :    0.117606
  24 H :    0.110662
  25 H :    0.117695
  26 H :    0.129552
  27 H :    0.125433
  28 H :    0.122317
  29 H :    0.129294
  30 H :    0.138576
  31 H :    0.111789
  32 H :    0.108042
  33 H :    0.131899
  34 H :    0.127919
  35 H :    0.126799
  36 H :    0.122874
  37 H :    0.111138
  38 H :    0.127661
  39 H :    0.118664
  40 H :    0.127990

  Mayer bond orders larger than 0.100000
B(  0-C ,  1-C ) :   1.1641 B(  0-C , 19-H ) :   0.9389 B(  0-C , 20-H ) :   0.9434
B(  0-C , 21-H ) :   0.9317 B(  1-C ,  2-O ) :   0.9176 B(  1-C , 22-H ) :   0.9095
B(  1-C , 23-H ) :   0.9319 B(  2-O ,  3-P ) :   1.0844 B(  3-P ,  4-S ) :   1.6088
B(  3-P ,  5-O ) :   1.1245 B(  3-P ,  8-S ) :   0.9603 B(  4-S ,  8-S ) :   0.1074
B(  5-O ,  6-C ) :   0.8950 B(  6-C ,  7-C ) :   1.1640 B(  6-C , 24-H ) :   0.9108
B(  6-C , 25-H ) :   0.9360 B(  7-C , 26-H ) :   0.9390 B(  7-C , 27-H ) :   0.9450
B(  7-C , 28-H ) :   0.9355 B(  8-S ,  9-C ) :   0.9967 B(  9-C , 10-S ) :   1.0096
B(  9-C , 29-H ) :   0.8562 B(  9-C , 30-H ) :   0.9105 B( 10-S , 11-P ) :   0.9562
B( 10-S , 12-S ) :   0.1190 B( 11-P , 12-S ) :   1.6128 B( 11-P , 13-O ) :   1.0810
B( 11-P , 16-O ) :   1.1572 B( 13-O , 14-C ) :   0.8996 B( 14-C , 15-C ) :   1.1595
B( 14-C , 31-H ) :   0.9306 B( 14-C , 32-H ) :   0.9051 B( 15-C , 33-H ) :   0.9417
B( 15-C , 34-H ) :   0.9515 B( 15-C , 35-H ) :   0.9501 B( 16-O , 17-C ) :   0.8946
B( 17-C , 18-C ) :   1.1699 B( 17-C , 36-H ) :   0.9316 B( 17-C , 37-H ) :   0.9327
B( 18-C , 38-H ) :   0.9354 B( 18-C , 39-H ) :   0.9341 B( 18-C , 40-H ) :   0.9343

Dispersion correction           -0.067083379
FINAL SINGLE POINT ENERGY     -2929.513477685675

DIPOLE MOMENT
-------------

Method             : SCF
Type of density    : Electron Density
Multiplicity       :   1
Irrep              :   0
Energy             : -2929.6320901070175751 Eh
Relativity type    :
Basis              : AO
                                X                 Y                 Z
Electronic contribution:      1.281647304     -12.677915554      -0.432257554
Nuclear contribution   :     -1.737376471      12.616902807       0.458092194
                        -----------------------------------------
Total Dipole Moment    :     -0.455729166      -0.061012747       0.025834639
                        -----------------------------------------
Magnitude (a.u.)       :      0.460520420
Magnitude (Debye)      :      1.170549882

Rotational constants in cm-1:             0.012753             0.005108             0.005045
Rotational constants in MHz :           382.332463           153.127272           151.258458

                             ****ORCA TERMINATED NORMALLY****
TOTAL RUN TIME: 0 days 0 hours 0 minutes 21 seconds 526 msec
