                         Program Version 6.0.1  -  RELEASE   -
|  1> ! pbe def2-sv(p) def2/J RI DEFGRID1 loosescf d4 GCP(DFT/SV(P)) printgap
|  2> %output
|  3>     printlevel normal
|  4> end
|  5> * xyz 0 1
|  6> C 3.4279304352 -4.2712556419 -0.8272914055
|  7> C 2.020778105 -3.7604232345 -1.0924612533
|  8> O 1.7895653889 -2.5077286929 -0.4184927413
|  9> C 2.1833594644 -1.3982646991 -1.0100626386
| 10> O 2.7003614464 -1.3428653332 -2.1030687926
| 11> C 1.8629412072 -0.1772843703 -0.1671116201
| 12> C 0.8157605403 0.6589888853 -0.8977987487
| 13> H 1.1932596359 0.9261685505 -1.8910693263
| 14> C 0.4400335009 1.937850801 -0.1695231694
| 15> O -0.7079645859 2.3271546596 -0.0931386982
| 16> O 1.4835601277 2.5463802227 0.3213284222
| 17> C 1.2767993405 3.7797238066 1.0433324222
| 18> C 1.1735341307 4.9604765259 0.0926810576
| 19> S -0.7134977548 -0.2757542983 -1.2260179779
| 20> P -1.7132993331 -0.0604646962 0.6446582816
| 21> S -0.6693983617 0.3011025026 2.2612154602
| 22> O -2.9652360172 0.8851647168 0.486614667
| 23> C -3.8847550315 0.7884127305 -0.6179186755
| 24> O -2.4629773102 -1.4803376864 0.7078346878
| 25> C -1.7311387876 -2.6880162321 0.9349950658
| 26> H 3.600962216 -4.3520950107 0.2423468127
| 27> H 3.5464679648 -5.2480337927 -1.2843695395
| 28> H 4.1600039903 -3.5902655932 -1.2550774131
| 29> H 1.2706897632 -4.4352109837 -0.6797933021
| 30> H 1.8564937739 -3.6129737605 -2.1636271243
| 31> H 2.7643977289 0.4254264182 -0.0489121878
| 32> H 1.4984678162 -0.4911444097 0.8118740871
| 33> H 0.3694923338 3.6773309353 1.6455366348
| 34> H 2.1519334738 3.8571837416 1.687915277
| 35> H 0.2899357225 4.8625174476 -0.5339820986
| 36> H 1.0944206165 5.8755221963 0.6700508796
| 37> H 2.0556339207 5.0103561535 -0.5396752412
| 38> H -3.3583539517 0.976984613 -1.5534648944
| 39> H -4.6264517197 1.5611756527 -0.4338807174
| 40> H -4.3438167163 -0.1984937096 -0.6347719259
| 41> H -1.0890344855 -2.9007109115 0.0799293061
| 42> H -2.4803225655 -3.4655947336 1.0575507744
| 43> H -1.1243581981 -2.5933021586 1.8369214207
| 44> *
| 45>
| 46>                          ****END OF INPUT****

CARTESIAN COORDINATES (ANGSTROEM)
---------------------------------
  C      3.427930   -4.271256   -0.827291
  C      2.020778   -3.760423   -1.092461
  O      1.789565   -2.507729   -0.418493
  C      2.183359   -1.398265   -1.010063
  O      2.700361   -1.342865   -2.103069
  C      1.862941   -0.177284   -0.167112
  C      0.815761    0.658989   -0.897799
  H      1.193260    0.926169   -1.891069
  C      0.440034    1.937851   -0.169523
  O     -0.707965    2.327155   -0.093139
  O      1.483560    2.546380    0.321328
  C      1.276799    3.779724    1.043332
  C      1.173534    4.960477    0.092681
  S     -0.713498   -0.275754   -1.226018
  P     -1.713299   -0.060465    0.644658
  S     -0.669398    0.301103    2.261215
  O     -2.965236    0.885165    0.486615
  C     -3.884755    0.788413   -0.617919
  O     -2.462977   -1.480338    0.707835
  C     -1.731139   -2.688016    0.934995
  H      3.600962   -4.352095    0.242347
  H      3.546468   -5.248034   -1.284370
  H      4.160004   -3.590266   -1.255077
  H      1.270690   -4.435211   -0.679793
  H      1.856494   -3.612974   -2.163627
  H      2.764398    0.425426   -0.048912
  H      1.498468   -0.491144    0.811874
  H      0.369492    3.677331    1.645537
  H      2.151933    3.857184    1.687915
  H      0.289936    4.862517   -0.533982
  H      1.094421    5.875522    0.670051
  H      2.055634    5.010356   -0.539675
  H     -3.358354    0.976985   -1.553465
  H     -4.626452    1.561176   -0.433881
  H     -4.343817   -0.198494   -0.634772
  H     -1.089034   -2.900711    0.079929
  H     -2.480323   -3.465595    1.057551
  H     -1.124358   -2.593302    1.836921

 Total Charge           Charge          ....    0
 Multiplicity           Mult            ....    1
 Number of Electrons    NEL             ....  174
 Basis Dimension        Dim             ....  316

ORBITAL ENERGIES
----------------

  NO   OCC          E(Eh)            E(eV)
   0   2.0000     -88.039123     -2395.6663
   1   2.0000     -87.979022     -2394.0309
   2   2.0000     -76.422890     -2079.5725
   3   2.0000     -18.815795      -512.0038
   4   2.0000     -18.804604      -511.6993
   5   2.0000     -18.785684      -511.1844
   6   2.0000     -18.784905      -511.1633
   7   2.0000     -18.743439      -510.0349
   8   2.0000     -18.739814      -509.9363
   9   2.0000     -10.021756      -272.7059
  10   2.0000     -10.009519      -272.3729
  11   2.0000      -9.952223      -270.8138
  12   2.0000      -9.951507      -270.7943
  13   2.0000      -9.950096      -270.7559
  14   2.0000      -9.943799      -270.5845
  15   2.0000      -9.938303      -270.4350
  16   2.0000      -9.902701      -269.4662
  17   2.0000      -9.889987      -269.1202
  18   2.0000      -9.888856      -269.0895
  19   2.0000      -7.683675      -209.0834
  20   2.0000      -7.624228      -207.4658
  21   2.0000      -6.419314      -174.6784
  22   2.0000      -5.711626      -155.4212
  23   2.0000      -5.708213      -155.3284
  24   2.0000      -5.700588      -155.1209
  25   2.0000      -5.653428      -153.8376
  26   2.0000      -5.644822      -153.6034
  27   2.0000      -5.644038      -153.5821
  28   2.0000      -4.642032      -126.3161
  29   2.0000      -4.641310      -126.2965
  30   2.0000      -4.639699      -126.2526
  31   2.0000      -1.024042       -27.8656
  32   2.0000      -1.011950       -27.5366
  33   2.0000      -0.980218       -26.6731
  34   2.0000      -0.935716       -25.4621
  35   2.0000      -0.925842       -25.1935
  36   2.0000      -0.917117       -24.9560
  37   2.0000      -0.765784       -20.8380
  38   2.0000      -0.711904       -19.3719
  39   2.0000      -0.708743       -19.2859
  40   2.0000      -0.689867       -18.7722
  41   2.0000      -0.656164       -17.8551
  42   2.0000      -0.630331       -17.1522
  43   2.0000      -0.626424       -17.0459
  44   2.0000      -0.616990       -16.7891
  45   2.0000      -0.597296       -16.2533
  46   2.0000      -0.566896       -15.4260
  47   2.0000      -0.513341       -13.9687
  48   2.0000      -0.502082       -13.6624
  49   2.0000      -0.499197       -13.5838
  50   2.0000      -0.484249       -13.1771
  51   2.0000      -0.469142       -12.7660
  52   2.0000      -0.453596       -12.3430
  53   2.0000      -0.445728       -12.1289
  54   2.0000      -0.437784       -11.9127
  55   2.0000      -0.430075       -11.7029
  56   2.0000      -0.426008       -11.5923
  57   2.0000      -0.419983       -11.4283
  58   2.0000      -0.413040       -11.2394
  59   2.0000      -0.408718       -11.1218
  60   2.0000      -0.400660       -10.9025
  61   2.0000      -0.397350       -10.8125
  62   2.0000      -0.395118       -10.7517
  63   2.0000      -0.386429       -10.5153
  64   2.0000      -0.385284       -10.4841
  65   2.0000      -0.367489        -9.9999
  66   2.0000      -0.358744        -9.7619
  67   2.0000      -0.353815        -9.6278
  68   2.0000      -0.349816        -9.5190
  69   2.0000      -0.338745        -9.2177
  70   2.0000      -0.336217        -9.1489
  71   2.0000      -0.328813        -8.9475
  72   2.0000      -0.325690        -8.8625
  73   2.0000      -0.309979        -8.4350
  74   2.0000      -0.303136        -8.2488
  75   2.0000      -0.296800        -8.0763
  76   2.0000      -0.296212        -8.0603
  77   2.0000      -0.290391        -7.9019
  78   2.0000      -0.271211        -7.3800
  79   2.0000      -0.264731        -7.2037
  80   2.0000      -0.262452        -7.1417
  81   2.0000      -0.254885        -6.9358
  82   2.0000      -0.238137        -6.4801
  83   2.0000      -0.225345        -6.1320
  84   2.0000      -0.218786        -5.9535
  85   2.0000      -0.196626        -5.3505
  86   2.0000      -0.194294        -5.2870
  87   0.0000      -0.044779        -1.2185
  88   0.0000      -0.031136        -0.8473
  89   0.0000      -0.017805        -0.4845
  90   0.0000       0.004806         0.1308
  91   0.0000       0.024660         0.6710

MULLIKEN ATOMIC CHARGES
-----------------------
   0 C :   -0.304327
   1 C :   -0.015228
   2 O :   -0.220624
   3 C :    0.118151
   4 O :   -0.208471
   5 C :   -0.054373
   6 C :   -0.324617
   7 H :    0.161289
   8 C :    0.205939
   9 O :   -0.188282
  10 O :   -0.219357
  11 C :   -0.006758
  12 C :   -0.310519
  13 S :   -0.098293
  14 P :    0.615853
  15 S :   -0.319917
  16 O :   -0.350757
  17 C :   -0.103589
  18 O :   -0.391121
  19 C :   -0.108808
  20 H :    0.115705
  21 H :    0.113329
  22 H :    0.128764
  23 H :    0.102041
  24 H :    0.109296
  25 H :    0.118733
  26 H :    0.113298
  27 H :    0.122911
  28 H :    0.106589
  29 H :    0.130483
  30 H :    0.117138
  31 H :    0.114424
  32 H :    0.123402
  33 H :    0.131142
  34 H :    0.120462
  35 H :    0.118931
  36 H :    0.120262
  37 H :    0.116898
Sum of atomic charges:   -0.0000000

LOEWDIN ATOMIC CHARGES
----------------------
   0 C :   -0.356091
   1 C :   -0.111546
   2 O :   -0.052329
   3 C :    0.023896
   4 O :   -0.172288
   5 C :   -0.257501
   6 C :   -0.256838
   7 H :    0.155168
   8 C :    0.005623
   9 O :   -0.165399
  10 O :   -0.036420
  11 C :   -0.105153
  12 C :   -0.357147
  13 S :    0.103440
  14 P :    0.588988
  15 S :   -0.307566
  16 O :   -0.228580
  17 C :   -0.207949
  18 O :   -0.264880
  19 C :   -0.221146
  20 H :    0.125668
  21 H :    0.130981
  22 H :    0.131155
  23 H :    0.115550
  24 H :    0.120672
  25 H :    0.146061
  26 H :    0.127518
  27 H :    0.127200
  28 H :    0.120432
  29 H :    0.131654
  30 H :    0.133136
  31 H :    0.125071
  32 H :    0.112618
  33 H :    0.126665
  34 H :    0.113835
  35 H :    0.104925
  36 H :    0.119939
  37 H :    0.110640

  Mayer bond orders larger than 0.100000
B(  0-C ,  1-C ) :   1.1743 B(  0-C , 20-H ) :   0.9483 B(  0-C , 21-H ) :   0.9442
B(  0-C , 22-H ) :   0.9456 B(  1-C ,  2-O ) :   0.9170 B(  1-C , 23-H ) :   0.9340
B(  1-C , 24-H ) :   0.9150 B(  2-O ,  3-C ) :   1.2309 B(  3-C ,  4-O ) :   2.0390
B(  3-C ,  5-C ) :   1.0021 B(  5-C ,  6-C ) :   1.0649 B(  5-C , 25-H ) :   0.8687
B(  5-C , 26-H ) :   0.8794 B(  6-C ,  7-H ) :   0.8528 B(  6-C ,  8-C ) :   0.9073
B(  6-C , 13-S ) :   1.0182 B(  8-C ,  9-O ) :   2.0055 B(  8-C , 10-O ) :   1.2732
B( 10-O , 11-C ) :   0.9020 B( 11-C , 12-C ) :   1.1734 B( 11-C , 27-H ) :   0.9140
B( 11-C , 28-H ) :   0.9371 B( 12-C , 29-H ) :   0.9445 B( 12-C , 30-H ) :   0.9437
B( 12-C , 31-H ) :   0.9475 B( 13-S , 14-P ) :   0.9405 B( 13-S , 15-S ) :   0.1135
B( 14-P , 15-S ) :   1.6006 B( 14-P , 16-O ) :   1.1446 B( 14-P , 18-O ) :   1.0603
B( 16-O , 17-C ) :   0.9198 B( 17-C , 32-H ) :   0.9404 B( 17-C , 33-H ) :   0.9598
B( 17-C , 34-H ) :   0.9465 B( 18-O , 19-C ) :   0.9365 B( 19-C , 35-H ) :   0.9385
B( 19-C , 36-H ) :   0.9571 B( 19-C , 37-H ) :   0.9366

Dispersion correction           -0.052254710
FINAL SINGLE POINT ENERGY     -1979.018258862367

DIPOLE MOMENT
-------------

Method             : SCF
Type of density    : Electron Density
Multiplicity       :   1
Irrep              :   0
Energy             : -1979.1478173531231732 Eh
Relativity type    :
Basis              : AO
                                X                 Y                 Z
Electronic contribution:     -9.710845355       3.118458001       3.003387375
Nuclear contribution   :      9.852352724      -3.425828873      -3.424096425
                        -----------------------------------------
Total Dipole Moment    :      0.141507369      -0.307370873      -0.420709049
                        -----------------------------------------
Magnitude (a.u.)       :      0.539904893
Magnitude (Debye)      :      1.372329176

Rotational constants in cm-1:             0.011490             0.007859             0.005637
Rotational constants in MHz :           344.466468           235.598636           168.981402

                             ****ORCA TERMINATED NORMALLY****
TOTAL RUN TIME: 0 days 0 hours 0 minutes 39 seconds 268 msec
