                         Program Version 6.0.0  -   RELEASE  -
|  1> ! pbe def2-sv(p) def2/J RI DEFGRID1 loosescf d4 GCP(DFT/SV(P)) printgap
|  2> %output
|  3>     printlevel normal
|  4> end
|  5> * xyz 0 1
|  6> C 3.1738675084 2.2456741343 -1.9355728019
|  7> C 3.8708103355 1.9661310355 -0.6189835653
|  8> O 3.6713050036 0.6096951199 -0.1913379877
|  9> P 2.2939979464 0.1061148154 0.4270660768
| 10> S 1.5051308755 1.3944086031 1.6798176638
| 11> O 2.7226921585 -1.2885917623 1.0350416372
| 12> C 2.8452071662 -1.5427056766 2.4536563073
| 13> C 1.7618282445 -2.5024162234 2.9041222538
| 14> S 1.2103729902 -0.5396285261 -1.2807285729
| 15> C 0.1426972206 -1.773449911 -0.485803411
| 16> S -1.0001186673 -1.0714127684 0.7247463226
| 17> P -2.2600561637 -0.0781631476 -0.6826328545
| 18> S -2.4230330318 -0.9539768348 -2.4236482013
| 19> O -1.7090810181 1.3849156186 -0.8784492602
| 20> C -1.6505273529 2.3740979722 0.1811775694
| 21> C -0.840879867 3.545446585 -0.3310326848
| 22> O -3.5804349102 0.1974593919 0.1575468814
| 23> C -4.3040101195 -0.7841216066 0.9248930417
| 24> C -4.6657989404 -2.0127816048 0.1175735827
| 25> H 3.3916458157 3.260317682 -2.2532614471
| 26> H 3.5107245369 1.5471551964 -2.6971032437
| 27> H 2.0953875459 2.1330826262 -1.8211119934
| 28> H 3.5038854295 2.6357309025 0.1668577258
| 29> H 4.953544934 2.0616425805 -0.7101451972
| 30> H 3.8408485569 -1.9681799915 2.5870411427
| 31> H 2.7738870262 -0.5939585972 2.9945614668
| 32> H 1.8885694671 -2.7065071085 3.9622906355
| 33> H 0.778437489 -2.0624515009 2.7435690518
| 34> H 1.828409597 -3.4354213568 2.3512366031
| 35> H 0.7527608756 -2.5085854583 0.032138543
| 36> H -0.4315106833 -2.225823316 -1.296360532
| 37> H -2.6731180728 2.6658966996 0.4254198609
| 38> H -1.1797257489 1.9254085104 1.0612115462
| 39> H -1.2689273841 3.920410197 -1.2561073772
| 40> H -0.8413569449 4.3297051618 0.4187338676
| 41> H 0.1852072287 3.2376631121 -0.5148822609
| 42> H -3.6936677807 -1.054337575 1.7911479562
| 43> H -5.194500996 -0.2448959633 1.252746634
| 44> H -5.2815421777 -2.6714484305 0.7214412338
| 45> H -5.2113290841 -1.7302431624 -0.7796986267
| 46> H -3.7644860886 -2.5448354954 -0.1833553887
| 47> *
| 48>
| 49>                          ****END OF INPUT****

CARTESIAN COORDINATES (ANGSTROEM)
---------------------------------
  C      3.173868    2.245674   -1.935573
  C      3.870810    1.966131   -0.618984
  O      3.671305    0.609695   -0.191338
  P      2.293998    0.106115    0.427066
  S      1.505131    1.394409    1.679818
  O      2.722692   -1.288592    1.035042
  C      2.845207   -1.542706    2.453656
  C      1.761828   -2.502416    2.904122
  S      1.210373   -0.539629   -1.280729
  C      0.142697   -1.773450   -0.485803
  S     -1.000119   -1.071413    0.724746
  P     -2.260056   -0.078163   -0.682633
  S     -2.423033   -0.953977   -2.423648
  O     -1.709081    1.384916   -0.878449
  C     -1.650527    2.374098    0.181178
  C     -0.840880    3.545447   -0.331033
  O     -3.580435    0.197459    0.157547
  C     -4.304010   -0.784122    0.924893
  C     -4.665799   -2.012782    0.117574
  H      3.391646    3.260318   -2.253261
  H      3.510725    1.547155   -2.697103
  H      2.095388    2.133083   -1.821112
  H      3.503885    2.635731    0.166858
  H      4.953545    2.061643   -0.710145
  H      3.840849   -1.968180    2.587041
  H      2.773887   -0.593959    2.994561
  H      1.888569   -2.706507    3.962291
  H      0.778437   -2.062452    2.743569
  H      1.828410   -3.435421    2.351237
  H      0.752761   -2.508585    0.032139
  H     -0.431511   -2.225823   -1.296361
  H     -2.673118    2.665897    0.425420
  H     -1.179726    1.925409    1.061212
  H     -1.268927    3.920410   -1.256107
  H     -0.841357    4.329705    0.418734
  H      0.185207    3.237663   -0.514882
  H     -3.693668   -1.054338    1.791148
  H     -5.194501   -0.244896    1.252747
  H     -5.281542   -2.671448    0.721441
  H     -5.211329   -1.730243   -0.779699
  H     -3.764486   -2.544835   -0.183355

 Total Charge           Charge          ....    0
 Multiplicity           Mult            ....    1
 Number of Electrons    NEL             ....  202
 Basis Dimension        Dim             ....  334

ORBITAL ENERGIES
----------------

  NO   OCC          E(Eh)            E(eV)
   0   2.0000     -88.043599     -2395.7881
   1   2.0000     -88.041362     -2395.7273
   2   2.0000     -87.990469     -2394.3424
   3   2.0000     -87.981221     -2394.0907
   4   2.0000     -76.429211     -2079.7446
   5   2.0000     -76.423969     -2079.6019
   6   2.0000     -18.797632      -511.5096
   7   2.0000     -18.794565      -511.4261
   8   2.0000     -18.791337      -511.3383
   9   2.0000     -18.783678      -511.1299
  10   2.0000      -9.959060      -270.9998
  11   2.0000      -9.957212      -270.9495
  12   2.0000      -9.955918      -270.9143
  13   2.0000      -9.952365      -270.8176
  14   2.0000      -9.942204      -270.5411
  15   2.0000      -9.891938      -269.1733
  16   2.0000      -9.886452      -269.0240
  17   2.0000      -9.883449      -268.9423
  18   2.0000      -9.877061      -268.7685
  19   2.0000      -7.688118      -209.2043
  20   2.0000      -7.686403      -209.1577
  21   2.0000      -7.635297      -207.7670
  22   2.0000      -7.626558      -207.5292
  23   2.0000      -6.426875      -174.8842
  24   2.0000      -6.421165      -174.7288
  25   2.0000      -5.715773      -155.5341
  26   2.0000      -5.714454      -155.4982
  27   2.0000      -5.712642      -155.4489
  28   2.0000      -5.711002      -155.4043
  29   2.0000      -5.705389      -155.2515
  30   2.0000      -5.703135      -155.1902
  31   2.0000      -5.663969      -154.1244
  32   2.0000      -5.655999      -153.9076
  33   2.0000      -5.655614      -153.8971
  34   2.0000      -5.655602      -153.8968
  35   2.0000      -5.647083      -153.6649
  36   2.0000      -5.646626      -153.6525
  37   2.0000      -4.649507      -126.5195
  38   2.0000      -4.648744      -126.4988
  39   2.0000      -4.647155      -126.4555
  40   2.0000      -4.644035      -126.3706
  41   2.0000      -4.643119      -126.3457
  42   2.0000      -4.641240      -126.2945
  43   2.0000      -0.989600       -26.9284
  44   2.0000      -0.985449       -26.8154
  45   2.0000      -0.949309       -25.8320
  46   2.0000      -0.939743       -25.5717
  47   2.0000      -0.764287       -20.7973
  48   2.0000      -0.723002       -19.6739
  49   2.0000      -0.710632       -19.3373
  50   2.0000      -0.689264       -18.7558
  51   2.0000      -0.687456       -18.7066
  52   2.0000      -0.673791       -18.3348
  53   2.0000      -0.653017       -17.7695
  54   2.0000      -0.638128       -17.3644
  55   2.0000      -0.601203       -16.3596
  56   2.0000      -0.588394       -16.0110
  57   2.0000      -0.576189       -15.6789
  58   2.0000      -0.566696       -15.4206
  59   2.0000      -0.560672       -15.2567
  60   2.0000      -0.505796       -13.7634
  61   2.0000      -0.501064       -13.6347
  62   2.0000      -0.475683       -12.9440
  63   2.0000      -0.471521       -12.8307
  64   2.0000      -0.463332       -12.6079
  65   2.0000      -0.444467       -12.0946
  66   2.0000      -0.442828       -12.0500
  67   2.0000      -0.432522       -11.7695
  68   2.0000      -0.426063       -11.5938
  69   2.0000      -0.417652       -11.3649
  70   2.0000      -0.414020       -11.2661
  71   2.0000      -0.399655       -10.8752
  72   2.0000      -0.395031       -10.7493
  73   2.0000      -0.388885       -10.5821
  74   2.0000      -0.379623       -10.3301
  75   2.0000      -0.376186       -10.2365
  76   2.0000      -0.364795        -9.9266
  77   2.0000      -0.359114        -9.7720
  78   2.0000      -0.353585        -9.6215
  79   2.0000      -0.349152        -9.5009
  80   2.0000      -0.346796        -9.4368
  81   2.0000      -0.344668        -9.3789
  82   2.0000      -0.343200        -9.3389
  83   2.0000      -0.334790        -9.1101
  84   2.0000      -0.332997        -9.0613
  85   2.0000      -0.320784        -8.7290
  86   2.0000      -0.310763        -8.4563
  87   2.0000      -0.299437        -8.1481
  88   2.0000      -0.296383        -8.0650
  89   2.0000      -0.290608        -7.9078
  90   2.0000      -0.288349        -7.8464
  91   2.0000      -0.277489        -7.5509
  92   2.0000      -0.270637        -7.3644
  93   2.0000      -0.264999        -7.2110
  94   2.0000      -0.256896        -6.9905
  95   2.0000      -0.242575        -6.6008
  96   2.0000      -0.221109        -6.0167
  97   2.0000      -0.207770        -5.6537
  98   2.0000      -0.202022        -5.4973
  99   2.0000      -0.199638        -5.4324
 100   2.0000      -0.193295        -5.2598
 101   0.0000      -0.048004        -1.3063
 102   0.0000      -0.026044        -0.7087
 103   0.0000      -0.015754        -0.4287
 104   0.0000      -0.002381        -0.0648
 105   0.0000       0.012934         0.3519

MULLIKEN ATOMIC CHARGES
-----------------------
   0 C :   -0.344482
   1 C :   -0.006390
   2 O :   -0.363767
   3 P :    0.607781
   4 S :   -0.328873
   5 O :   -0.372767
   6 C :   -0.005871
   7 C :   -0.314221
   8 S :   -0.069706
   9 C :   -0.367338
  10 S :   -0.119386
  11 P :    0.621126
  12 S :   -0.312959
  13 O :   -0.353459
  14 C :   -0.021055
  15 C :   -0.290738
  16 O :   -0.384986
  17 C :   -0.008912
  18 C :   -0.308331
  19 H :    0.116136
  20 H :    0.123317
  21 H :    0.157233
  22 H :    0.109808
  23 H :    0.106783
  24 H :    0.109609
  25 H :    0.113759
  26 H :    0.115528
  27 H :    0.131507
  28 H :    0.120857
  29 H :    0.192599
  30 H :    0.195788
  31 H :    0.100781
  32 H :    0.119427
  33 H :    0.115082
  34 H :    0.104432
  35 H :    0.129105
  36 H :    0.111943
  37 H :    0.109067
  38 H :    0.110661
  39 H :    0.128181
  40 H :    0.122731
Sum of atomic charges:   -0.0000000

LOEWDIN ATOMIC CHARGES
----------------------
   0 C :   -0.369738
   1 C :   -0.121894
   2 O :   -0.243191
   3 P :    0.568777
   4 S :   -0.308183
   5 O :   -0.241615
   6 C :   -0.116154
   7 C :   -0.360956
   8 S :    0.096913
   9 C :   -0.483585
  10 S :    0.067174
  11 P :    0.571381
  12 S :   -0.306664
  13 O :   -0.232937
  14 C :   -0.118884
  15 C :   -0.352726
  16 O :   -0.245103
  17 C :   -0.114099
  18 C :   -0.369248
  19 H :    0.132756
  20 H :    0.128502
  21 H :    0.122872
  22 H :    0.107078
  23 H :    0.119654
  24 H :    0.119688
  25 H :    0.108952
  26 H :    0.133347
  27 H :    0.120692
  28 H :    0.124805
  29 H :    0.131615
  30 H :    0.129579
  31 H :    0.110011
  32 H :    0.103567
  33 H :    0.126438
  34 H :    0.129276
  35 H :    0.121683
  36 H :    0.108030
  37 H :    0.121249
  38 H :    0.129749
  39 H :    0.131032
  40 H :    0.120159

  Mayer bond orders larger than 0.100000
B(  0-C ,  1-C ) :   1.1626 B(  0-C , 19-H ) :   0.9394 B(  0-C , 20-H ) :   0.9431
B(  0-C , 21-H ) :   0.9223 B(  1-C ,  2-O ) :   0.9136 B(  1-C , 22-H ) :   0.9110
B(  1-C , 23-H ) :   0.9322 B(  2-O ,  3-P ) :   1.1168 B(  3-P ,  4-S ) :   1.6026
B(  3-P ,  5-O ) :   1.1170 B(  3-P ,  8-S ) :   0.9709 B(  4-S ,  8-S ) :   0.1067
B(  5-O ,  6-C ) :   0.8956 B(  6-C ,  7-C ) :   1.1693 B(  6-C , 24-H ) :   0.9319
B(  6-C , 25-H ) :   0.9029 B(  7-C , 26-H ) :   0.9381 B(  7-C , 27-H ) :   0.9355
B(  7-C , 28-H ) :   0.9435 B(  8-S ,  9-C ) :   1.0018 B(  9-C , 10-S ) :   1.0151
B(  9-C , 29-H ) :   0.8912 B(  9-C , 30-H ) :   0.8684 B( 10-S , 11-P ) :   0.9292
B( 10-S , 12-S ) :   0.1079 B( 11-P , 12-S ) :   1.6399 B( 11-P , 13-O ) :   1.1502
B( 11-P , 16-O ) :   1.0852 B( 13-O , 14-C ) :   0.8849 B( 14-C , 15-C ) :   1.1705
B( 14-C , 31-H ) :   0.9291 B( 14-C , 32-H ) :   0.9051 B( 15-C , 33-H ) :   0.9490
B( 15-C , 34-H ) :   0.9391 B( 15-C , 35-H ) :   0.9331 B( 16-O , 17-C ) :   0.9135
B( 17-C , 18-C ) :   1.1663 B( 17-C , 36-H ) :   0.9268 B( 17-C , 37-H ) :   0.9334
B( 18-C , 38-H ) :   0.9348 B( 18-C , 39-H ) :   0.9428 B( 18-C , 40-H ) :   0.9325

Dispersion correction           -0.066211352
FINAL SINGLE POINT ENERGY     -2929.520614568587

DIPOLE MOMENT
-------------

Method             : SCF
Type of density    : Electron Density
Multiplicity       :   1
Irrep              :   0
Energy             : -2929.6390083861474523 Eh
Relativity type    :
Basis              : AO
                                X                 Y                 Z
Electronic contribution:      0.364454787      -3.877223237      -7.377046487
Nuclear contribution   :     -0.028062868       3.747138392       8.707935886
                        -----------------------------------------
Total Dipole Moment    :      0.336391920      -0.130084845       1.330889399
                        -----------------------------------------
Magnitude (a.u.)       :      1.378893826
Magnitude (Debye)      :      3.504869568

Rotational constants in cm-1:             0.011341             0.005533             0.004855
Rotational constants in MHz :           339.980932           165.888613           145.545318

                             ****ORCA TERMINATED NORMALLY****
TOTAL RUN TIME: 0 days 0 hours 0 minutes 21 seconds 227 msec
