                         Program Version 6.0.0  -   RELEASE  -
|  1> ! pbe def2-sv(p) def2/J RI DEFGRID1 loosescf d4 GCP(DFT/SV(P)) printgap
|  2> %output
|  3>     printlevel normal
|  4> end
|  5> * xyz 0 1
|  6> C 1.4311078997 3.0182504303 0.0902896492
|  7> C 2.2003706516 1.921294714 0.796565801
|  8> O 1.8388589403 0.6529945738 0.2011052022
|  9> P 1.7530170964 -0.6891655055 1.0204613683
| 10> S 1.3997215698 -0.5620457711 2.9416220643
| 11> O 3.1736496641 -1.3245951954 0.6601553016
| 12> C 3.621405016 -2.5485725244 1.2707024328
| 13> C 5.0962785217 -2.7088519115 0.962294801
| 14> S 0.3743720552 -1.8603565162 -0.0817194202
| 15> C 0.6612620342 -1.2489326506 -1.7645629926
| 16> S 0.0229791829 0.4298765703 -2.0807235499
| 17> P -1.7140330241 0.4103079988 -0.895456387
| 18> S -2.9317120871 -1.1224232466 -1.0697981952
| 19> O -2.3590303781 1.8117537274 -1.2705754201
| 20> C -3.1232462456 1.9999931497 -2.4791926929
| 21> C -3.9969493022 3.224254525 -2.2942763518
| 22> O -1.1484224104 0.7185065548 0.5584936954
| 23> C -1.9199858726 0.3961027149 1.7336331823
| 24> C -3.1440588444 1.2761903945 1.8579033606
| 25> H 1.7072600734 3.9764394256 0.5182441715
| 26> H 1.6638989249 3.0121733536 -0.9709577286
| 27> H 0.361477208 2.8651177517 0.2119489088
| 28> H 1.9661478999 1.8863810262 1.8660993717
| 29> H 3.2780581966 2.0418068125 0.6670422048
| 30> H 3.439502574 -2.4853265033 2.3487902743
| 31> H 3.0323441418 -3.3751984599 0.8617961017
| 32> H 5.4538827604 -3.6321254503 1.4058871883
| 33> H 5.2504075107 -2.7416279246 -0.1122122441
| 34> H 5.6548254967 -1.8729263292 1.3734096951
| 35> H 0.1463675884 -1.9548769573 -2.4138153027
| 36> H 1.7278273853 -1.2174927748 -1.974975581
| 37> H -2.4211031733 2.1314981176 -3.3064797531
| 38> H -3.7222582093 1.100229301 -2.6561783993
| 39> H -3.3790699125 4.0887440953 -2.0699854069
| 40> H -4.5521755865 3.4054016129 -3.2086626908
| 41> H -4.6952534932 3.0683981158 -1.4767509435
| 42> H -2.2018546399 -0.661580201 1.682937634
| 43> H -1.2226799023 0.542556913 2.5610750101
| 44> H -3.6428964292 1.0625161786 2.7979248485
| 45> H -2.8586696797 2.3243223633 1.8271185544
| 46> H -3.8294084657 1.0696768503 1.0365008326
| 47> *
| 48>
| 49>                          ****END OF INPUT****

CARTESIAN COORDINATES (ANGSTROEM)
---------------------------------
  C      1.431108    3.018250    0.090290
  C      2.200371    1.921295    0.796566
  O      1.838859    0.652995    0.201105
  P      1.753017   -0.689166    1.020461
  S      1.399722   -0.562046    2.941622
  O      3.173650   -1.324595    0.660155
  C      3.621405   -2.548573    1.270702
  C      5.096279   -2.708852    0.962295
  S      0.374372   -1.860357   -0.081719
  C      0.661262   -1.248933   -1.764563
  S      0.022979    0.429877   -2.080724
  P     -1.714033    0.410308   -0.895456
  S     -2.931712   -1.122423   -1.069798
  O     -2.359030    1.811754   -1.270575
  C     -3.123246    1.999993   -2.479193
  C     -3.996949    3.224255   -2.294276
  O     -1.148422    0.718507    0.558494
  C     -1.919986    0.396103    1.733633
  C     -3.144059    1.276190    1.857903
  H      1.707260    3.976439    0.518244
  H      1.663899    3.012173   -0.970958
  H      0.361477    2.865118    0.211949
  H      1.966148    1.886381    1.866099
  H      3.278058    2.041807    0.667042
  H      3.439503   -2.485327    2.348790
  H      3.032344   -3.375198    0.861796
  H      5.453883   -3.632125    1.405887
  H      5.250408   -2.741628   -0.112212
  H      5.654825   -1.872926    1.373410
  H      0.146368   -1.954877   -2.413815
  H      1.727827   -1.217493   -1.974976
  H     -2.421103    2.131498   -3.306480
  H     -3.722258    1.100229   -2.656178
  H     -3.379070    4.088744   -2.069985
  H     -4.552176    3.405402   -3.208663
  H     -4.695253    3.068398   -1.476751
  H     -2.201855   -0.661580    1.682938
  H     -1.222680    0.542557    2.561075
  H     -3.642896    1.062516    2.797925
  H     -2.858670    2.324322    1.827119
  H     -3.829408    1.069677    1.036501

 Total Charge           Charge          ....    0
 Multiplicity           Mult            ....    1
 Number of Electrons    NEL             ....  202
 Basis Dimension        Dim             ....  334

ORBITAL ENERGIES
----------------

  NO   OCC          E(Eh)            E(eV)
   0   2.0000     -88.045760     -2395.8469
   1   2.0000     -88.039717     -2395.6825
   2   2.0000     -87.989159     -2394.3067
   3   2.0000     -87.982549     -2394.1269
   4   2.0000     -76.426319     -2079.6659
   5   2.0000     -76.425161     -2079.6344
   6   2.0000     -18.793589      -511.3995
   7   2.0000     -18.791320      -511.3378
   8   2.0000     -18.789614      -511.2914
   9   2.0000     -18.786957      -511.2191
  10   2.0000      -9.962914      -271.1047
  11   2.0000      -9.952455      -270.8201
  12   2.0000      -9.951610      -270.7971
  13   2.0000      -9.950716      -270.7727
  14   2.0000      -9.937656      -270.4174
  15   2.0000      -9.888522      -269.0804
  16   2.0000      -9.888438      -269.0781
  17   2.0000      -9.879717      -268.8408
  18   2.0000      -9.875804      -268.7343
  19   2.0000      -7.690427      -209.2672
  20   2.0000      -7.685118      -209.1227
  21   2.0000      -7.634239      -207.7382
  22   2.0000      -7.627544      -207.5560
  23   2.0000      -6.424089      -174.8083
  24   2.0000      -6.422222      -174.7576
  25   2.0000      -5.718680      -155.6132
  26   2.0000      -5.714745      -155.5061
  27   2.0000      -5.713240      -155.4652
  28   2.0000      -5.709682      -155.3683
  29   2.0000      -5.707197      -155.3007
  30   2.0000      -5.701678      -155.1506
  31   2.0000      -5.663028      -154.0988
  32   2.0000      -5.656454      -153.9199
  33   2.0000      -5.655015      -153.8808
  34   2.0000      -5.654341      -153.8624
  35   2.0000      -5.648163      -153.6943
  36   2.0000      -5.647761      -153.6834
  37   2.0000      -4.646552      -126.4391
  38   2.0000      -4.645992      -126.4239
  39   2.0000      -4.644676      -126.3881
  40   2.0000      -4.644500      -126.3833
  41   2.0000      -4.644109      -126.3726
  42   2.0000      -4.642735      -126.3352
  43   2.0000      -0.986838       -26.8532
  44   2.0000      -0.984491       -26.7894
  45   2.0000      -0.944311       -25.6960
  46   2.0000      -0.942521       -25.6473
  47   2.0000      -0.765144       -20.8206
  48   2.0000      -0.722618       -19.6634
  49   2.0000      -0.708932       -19.2910
  50   2.0000      -0.686818       -18.6893
  51   2.0000      -0.683214       -18.5912
  52   2.0000      -0.671588       -18.2748
  53   2.0000      -0.650856       -17.7107
  54   2.0000      -0.637825       -17.3561
  55   2.0000      -0.596723       -16.2377
  56   2.0000      -0.588667       -16.0184
  57   2.0000      -0.571768       -15.5586
  58   2.0000      -0.562569       -15.3083
  59   2.0000      -0.558920       -15.2090
  60   2.0000      -0.509640       -13.8680
  61   2.0000      -0.501502       -13.6466
  62   2.0000      -0.480321       -13.0702
  63   2.0000      -0.471015       -12.8170
  64   2.0000      -0.456761       -12.4291
  65   2.0000      -0.442668       -12.0456
  66   2.0000      -0.436603       -11.8806
  67   2.0000      -0.434694       -11.8286
  68   2.0000      -0.428417       -11.6578
  69   2.0000      -0.413873       -11.2620
  70   2.0000      -0.409867       -11.1531
  71   2.0000      -0.393191       -10.6993
  72   2.0000      -0.391638       -10.6570
  73   2.0000      -0.381405       -10.3786
  74   2.0000      -0.379880       -10.3371
  75   2.0000      -0.372779       -10.1438
  76   2.0000      -0.368110       -10.0168
  77   2.0000      -0.357641        -9.7319
  78   2.0000      -0.356795        -9.7089
  79   2.0000      -0.349164        -9.5012
  80   2.0000      -0.347811        -9.4644
  81   2.0000      -0.344131        -9.3643
  82   2.0000      -0.339401        -9.2356
  83   2.0000      -0.336473        -9.1559
  84   2.0000      -0.326905        -8.8955
  85   2.0000      -0.318231        -8.6595
  86   2.0000      -0.312184        -8.4950
  87   2.0000      -0.300201        -8.1689
  88   2.0000      -0.297746        -8.1021
  89   2.0000      -0.295904        -8.0519
  90   2.0000      -0.281981        -7.6731
  91   2.0000      -0.273249        -7.4355
  92   2.0000      -0.264676        -7.2022
  93   2.0000      -0.262235        -7.1358
  94   2.0000      -0.259383        -7.0582
  95   2.0000      -0.229339        -6.2406
  96   2.0000      -0.222637        -6.0583
  97   2.0000      -0.211700        -5.7607
  98   2.0000      -0.204967        -5.5774
  99   2.0000      -0.195700        -5.3253
 100   2.0000      -0.194376        -5.2892
 101   0.0000      -0.047937        -1.3044
 102   0.0000      -0.024434        -0.6649
 103   0.0000      -0.010360        -0.2819
 104   0.0000       0.000720         0.0196
 105   0.0000       0.018600         0.5061

MULLIKEN ATOMIC CHARGES
-----------------------
   0 C :   -0.294510
   1 C :   -0.005691
   2 O :   -0.368489
   3 P :    0.629229
   4 S :   -0.327926
   5 O :   -0.380567
   6 C :   -0.013460
   7 C :   -0.277067
   8 S :   -0.082205
   9 C :   -0.319670
  10 S :   -0.094133
  11 P :    0.620034
  12 S :   -0.328679
  13 O :   -0.379998
  14 C :   -0.012647
  15 C :   -0.282748
  16 O :   -0.370691
  17 C :   -0.017446
  18 C :   -0.302444
  19 H :    0.105570
  20 H :    0.114179
  21 H :    0.131375
  22 H :    0.108876
  23 H :    0.101807
  24 H :    0.106563
  25 H :    0.096571
  26 H :    0.112091
  27 H :    0.113023
  28 H :    0.117391
  29 H :    0.191962
  30 H :    0.181308
  31 H :    0.101816
  32 H :    0.106496
  33 H :    0.116301
  34 H :    0.112152
  35 H :    0.121703
  36 H :    0.112635
  37 H :    0.116766
  38 H :    0.111029
  39 H :    0.111147
  40 H :    0.118348
Sum of atomic charges:    0.0000000

LOEWDIN ATOMIC CHARGES
----------------------
   0 C :   -0.358549
   1 C :   -0.109726
   2 O :   -0.237498
   3 P :    0.570560
   4 S :   -0.308653
   5 O :   -0.258306
   6 C :   -0.124137
   7 C :   -0.349977
   8 S :    0.105796
   9 C :   -0.465868
  10 S :    0.085147
  11 P :    0.565117
  12 S :   -0.331260
  13 O :   -0.247028
  14 C :   -0.121521
  15 C :   -0.350454
  16 O :   -0.236510
  17 C :   -0.128431
  18 C :   -0.365632
  19 H :    0.127273
  20 H :    0.122731
  21 H :    0.125504
  22 H :    0.107585
  23 H :    0.113317
  24 H :    0.107867
  25 H :    0.106089
  26 H :    0.130715
  27 H :    0.125143
  28 H :    0.127546
  29 H :    0.139531
  30 H :    0.134793
  31 H :    0.109793
  32 H :    0.108235
  33 H :    0.126758
  34 H :    0.130967
  35 H :    0.128692
  36 H :    0.110444
  37 H :    0.111895
  38 H :    0.130357
  39 H :    0.123253
  40 H :    0.118438

  Mayer bond orders larger than 0.100000
B(  0-C ,  1-C ) :   1.1645 B(  0-C , 19-H ) :   0.9388 B(  0-C , 20-H ) :   0.9468
B(  0-C , 21-H ) :   0.9390 B(  1-C ,  2-O ) :   0.8925 B(  1-C , 22-H ) :   0.9071
B(  1-C , 23-H ) :   0.9344 B(  2-O ,  3-P ) :   1.1392 B(  3-P ,  4-S ) :   1.6408
B(  3-P ,  5-O ) :   1.0819 B(  3-P ,  8-S ) :   0.9570 B(  5-O ,  6-C ) :   0.9128
B(  6-C ,  7-C ) :   1.1601 B(  6-C , 24-H ) :   0.9122 B(  6-C , 25-H ) :   0.9239
B(  7-C , 26-H ) :   0.9424 B(  7-C , 27-H ) :   0.9513 B(  7-C , 28-H ) :   0.9514
B(  8-S ,  9-C ) :   1.0026 B(  9-C , 10-S ) :   0.9781 B(  9-C , 29-H ) :   0.9043
B(  9-C , 30-H ) :   0.9064 B( 10-S , 11-P ) :   0.9889 B( 10-S , 12-S ) :   0.1116
B( 11-P , 12-S ) :   1.6036 B( 11-P , 13-O ) :   1.0934 B( 11-P , 16-O ) :   1.0958
B( 13-O , 14-C ) :   0.9045 B( 14-C , 15-C ) :   1.1607 B( 14-C , 31-H ) :   0.9300
B( 14-C , 32-H ) :   0.9070 B( 15-C , 33-H ) :   0.9503 B( 15-C , 34-H ) :   0.9419
B( 15-C , 35-H ) :   0.9512 B( 16-O , 17-C ) :   0.8873 B( 17-C , 18-C ) :   1.1625
B( 17-C , 36-H ) :   0.9162 B( 17-C , 37-H ) :   0.9160 B( 18-C , 38-H ) :   0.9395
B( 18-C , 39-H ) :   0.9472 B( 18-C , 40-H ) :   0.9327

Dispersion correction           -0.066600316
FINAL SINGLE POINT ENERGY     -2929.519967178352

DIPOLE MOMENT
-------------

Method             : SCF
Type of density    : Electron Density
Multiplicity       :   1
Irrep              :   0
Energy             : -2929.6386872373982442 Eh
Relativity type    :
Basis              : AO
                                X                 Y                 Z
Electronic contribution:     -0.319682669     -13.406445132      -1.477765304
Nuclear contribution   :      1.105420223      14.096163653       0.807789722
                        -----------------------------------------
Total Dipole Moment    :      0.785737553       0.689718520      -0.669975582
                        -----------------------------------------
Magnitude (a.u.)       :      1.241757795
Magnitude (Debye)      :      3.156297479

Rotational constants in cm-1:             0.013433             0.005028             0.004929
Rotational constants in MHz :           402.699421           150.727507           147.772774

                             ****ORCA TERMINATED NORMALLY****
TOTAL RUN TIME: 0 days 0 hours 0 minutes 21 seconds 753 msec
