                         Program Version 6.0.0  -   RELEASE  -
|  1> ! pbe def2-sv(p) def2/J RI DEFGRID1 loosescf d4 GCP(DFT/SV(P)) printgap
|  2> %output
|  3>     printlevel normal
|  4> end
|  5> * xyz 0 1
|  6> C 5.6894157201 -0.3453741213 -0.7243548084
|  7> C 4.5682080802 -1.1297175977 -1.3724651442
|  8> O 3.407019239 -1.213179624 -0.5193530527
|  9> P 2.5089900594 0.0488027521 -0.1851341809
| 10> S 2.2785126805 1.3165667304 -1.670438737
| 11> O 3.2003675412 0.6373952145 1.1174588294
| 12> C 2.9428125246 1.9690718462 1.5954776298
| 13> C 1.5294514732 2.1183125855 2.1191245797
| 14> S 0.8146546319 -0.9798869038 0.5275990643
| 15> C 0.0820680796 -1.2658340175 -1.122746052
| 16> S -1.6542102935 -1.7283572373 -1.0236185776
| 17> P -2.3611376127 0.0157662506 -0.0586893516
| 18> S -1.4887982388 1.7137387188 -0.4756107078
| 19> O -2.2465481789 -0.4805306018 1.4564505083
| 20> C -2.1227252512 0.4359445753 2.5592064052
| 21> C -3.4303094138 1.150031089 2.8369292887
| 22> O -3.9069770479 0.0758771711 -0.4033767376
| 23> C -4.836507815 -0.9903024406 -0.0842050917
| 24> C -5.1100153438 -1.850504677 -1.3014363521
| 25> H 5.9075618564 -0.7475262699 0.261395841
| 26> H 6.5772290528 -0.4058286738 -1.3460250246
| 27> H 5.3991736015 0.6994664468 -0.6226276981
| 28> H 4.8443808695 -2.1718691664 -1.5376171208
| 29> H 4.2688026173 -0.6658046467 -2.3178347264
| 30> H 3.6830523734 2.1116351798 2.3839092031
| 31> H 3.1237947275 2.6741564531 0.7777248737
| 32> H 1.3158523128 1.3413787644 2.8495606514
| 33> H 1.415005549 3.0934106519 2.5816485144
| 34> H 0.8185953317 2.0395100429 1.2953715372
| 35> H 0.5931934245 -2.0937217691 -1.6094675557
| 36> H 0.1789970023 -0.3430957315 -1.7014536541
| 37> H -1.8138583878 -0.1953393636 3.3932238408
| 38> H -1.3337076965 1.1567220601 2.3258287875
| 39> H -3.7107740802 1.7496863687 1.9710038086
| 40> H -4.220172996 0.4322574243 3.0421388369
| 41> H -3.3075683731 1.8047707533 3.6938441513
| 42> H -4.4293921065 -1.5838906138 0.7376326205
| 43> H -5.7393462629 -0.4707940259 0.242001982
| 44> H -5.4445366224 -1.2290718923 -2.1274463966
| 45> H -4.2103938164 -2.3822871076 -1.6035614957
| 46> H -5.8846970341 -2.5708320081 -1.0580831665
| 47> *
| 48>
| 49>                          ****END OF INPUT****

CARTESIAN COORDINATES (ANGSTROEM)
---------------------------------
  C      5.689416   -0.345374   -0.724355
  C      4.568208   -1.129718   -1.372465
  O      3.407019   -1.213180   -0.519353
  P      2.508990    0.048803   -0.185134
  S      2.278513    1.316567   -1.670439
  O      3.200368    0.637395    1.117459
  C      2.942813    1.969072    1.595478
  C      1.529451    2.118313    2.119125
  S      0.814655   -0.979887    0.527599
  C      0.082068   -1.265834   -1.122746
  S     -1.654210   -1.728357   -1.023619
  P     -2.361138    0.015766   -0.058689
  S     -1.488798    1.713739   -0.475611
  O     -2.246548   -0.480531    1.456451
  C     -2.122725    0.435945    2.559206
  C     -3.430309    1.150031    2.836929
  O     -3.906977    0.075877   -0.403377
  C     -4.836508   -0.990302   -0.084205
  C     -5.110015   -1.850505   -1.301436
  H      5.907562   -0.747526    0.261396
  H      6.577229   -0.405829   -1.346025
  H      5.399174    0.699466   -0.622628
  H      4.844381   -2.171869   -1.537617
  H      4.268803   -0.665805   -2.317835
  H      3.683052    2.111635    2.383909
  H      3.123795    2.674156    0.777725
  H      1.315852    1.341379    2.849561
  H      1.415006    3.093411    2.581649
  H      0.818595    2.039510    1.295372
  H      0.593193   -2.093722   -1.609468
  H      0.178997   -0.343096   -1.701454
  H     -1.813858   -0.195339    3.393224
  H     -1.333708    1.156722    2.325829
  H     -3.710774    1.749686    1.971004
  H     -4.220173    0.432257    3.042139
  H     -3.307568    1.804771    3.693844
  H     -4.429392   -1.583891    0.737633
  H     -5.739346   -0.470794    0.242002
  H     -5.444537   -1.229072   -2.127446
  H     -4.210394   -2.382287   -1.603561
  H     -5.884697   -2.570832   -1.058083

 Total Charge           Charge          ....    0
 Multiplicity           Mult            ....    1
 Number of Electrons    NEL             ....  202
 Basis Dimension        Dim             ....  334

ORBITAL ENERGIES
----------------

  NO   OCC          E(Eh)            E(eV)
   0   2.0000     -88.044857     -2395.8224
   1   2.0000     -88.036953     -2395.6073
   2   2.0000     -87.984235     -2394.1728
   3   2.0000     -87.982747     -2394.1323
   4   2.0000     -76.424471     -2079.6156
   5   2.0000     -76.422652     -2079.5661
   6   2.0000     -18.795199      -511.4434
   7   2.0000     -18.792508      -511.3701
   8   2.0000     -18.789750      -511.2951
   9   2.0000     -18.786583      -511.2089
  10   2.0000      -9.960306      -271.0337
  11   2.0000      -9.951599      -270.7968
  12   2.0000      -9.950695      -270.7722
  13   2.0000      -9.950436      -270.7651
  14   2.0000      -9.948893      -270.7231
  15   2.0000      -9.891045      -269.1490
  16   2.0000      -9.886481      -269.0248
  17   2.0000      -9.882548      -268.9178
  18   2.0000      -9.878924      -268.8192
  19   2.0000      -7.690259      -209.2626
  20   2.0000      -7.682063      -209.0396
  21   2.0000      -7.629067      -207.5975
  22   2.0000      -7.627625      -207.5582
  23   2.0000      -6.422298      -174.7596
  24   2.0000      -6.420308      -174.7055
  25   2.0000      -5.718183      -155.5997
  26   2.0000      -5.714847      -155.5089
  27   2.0000      -5.709957      -155.3758
  28   2.0000      -5.707052      -155.2968
  29   2.0000      -5.706916      -155.2931
  30   2.0000      -5.698667      -155.0686
  31   2.0000      -5.657795      -153.9564
  32   2.0000      -5.656729      -153.9274
  33   2.0000      -5.649797      -153.7388
  34   2.0000      -5.649349      -153.7266
  35   2.0000      -5.648187      -153.6950
  36   2.0000      -5.647627      -153.6797
  37   2.0000      -4.645240      -126.4034
  38   2.0000      -4.643677      -126.3609
  39   2.0000      -4.642866      -126.3388
  40   2.0000      -4.642776      -126.3364
  41   2.0000      -4.641965      -126.3143
  42   2.0000      -4.640846      -126.2838
  43   2.0000      -0.985760       -26.8239
  44   2.0000      -0.984593       -26.7921
  45   2.0000      -0.944536       -25.7021
  46   2.0000      -0.944320       -25.6963
  47   2.0000      -0.763136       -20.7660
  48   2.0000      -0.721862       -19.6429
  49   2.0000      -0.708803       -19.2875
  50   2.0000      -0.692993       -18.8573
  51   2.0000      -0.685016       -18.6402
  52   2.0000      -0.673240       -18.3198
  53   2.0000      -0.650438       -17.6993
  54   2.0000      -0.634309       -17.2604
  55   2.0000      -0.599481       -16.3127
  56   2.0000      -0.589698       -16.0465
  57   2.0000      -0.580216       -15.7885
  58   2.0000      -0.570647       -15.5281
  59   2.0000      -0.556347       -15.1390
  60   2.0000      -0.500668       -13.6239
  61   2.0000      -0.491624       -13.3778
  62   2.0000      -0.477953       -13.0058
  63   2.0000      -0.471089       -12.8190
  64   2.0000      -0.451795       -12.2940
  65   2.0000      -0.447556       -12.1786
  66   2.0000      -0.439331       -11.9548
  67   2.0000      -0.436770       -11.8851
  68   2.0000      -0.428372       -11.6566
  69   2.0000      -0.416656       -11.3378
  70   2.0000      -0.406931       -11.0732
  71   2.0000      -0.399110       -10.8603
  72   2.0000      -0.391757       -10.6602
  73   2.0000      -0.390062       -10.6141
  74   2.0000      -0.379483       -10.3262
  75   2.0000      -0.375445       -10.2164
  76   2.0000      -0.369217       -10.0469
  77   2.0000      -0.359293        -9.7769
  78   2.0000      -0.355353        -9.6696
  79   2.0000      -0.351728        -9.5710
  80   2.0000      -0.348003        -9.4696
  81   2.0000      -0.345486        -9.4011
  82   2.0000      -0.341268        -9.2864
  83   2.0000      -0.338252        -9.2043
  84   2.0000      -0.331457        -9.0194
  85   2.0000      -0.318003        -8.6533
  86   2.0000      -0.311694        -8.4816
  87   2.0000      -0.306297        -8.3348
  88   2.0000      -0.291920        -7.9435
  89   2.0000      -0.280674        -7.6375
  90   2.0000      -0.279251        -7.5988
  91   2.0000      -0.273633        -7.4459
  92   2.0000      -0.270765        -7.3679
  93   2.0000      -0.270151        -7.3512
  94   2.0000      -0.260818        -7.0972
  95   2.0000      -0.229069        -6.2333
  96   2.0000      -0.220875        -6.0103
  97   2.0000      -0.207699        -5.6518
  98   2.0000      -0.200332        -5.4513
  99   2.0000      -0.195104        -5.3091
 100   2.0000      -0.194495        -5.2925
 101   0.0000      -0.042426        -1.1545
 102   0.0000      -0.029394        -0.7999
 103   0.0000      -0.004516        -0.1229
 104   0.0000       0.010644         0.2896
 105   0.0000       0.016411         0.4466

MULLIKEN ATOMIC CHARGES
-----------------------
   0 C :   -0.306809
   1 C :   -0.004159
   2 O :   -0.370224
   3 P :    0.608800
   4 S :   -0.322472
   5 O :   -0.371839
   6 C :    0.011906
   7 C :   -0.369126
   8 S :   -0.084522
   9 C :   -0.342875
  10 S :   -0.107726
  11 P :    0.610470
  12 S :   -0.288064
  13 O :   -0.381561
  14 C :   -0.023744
  15 C :   -0.313723
  16 O :   -0.365596
  17 C :   -0.034176
  18 C :   -0.294443
  19 H :    0.117674
  20 H :    0.111319
  21 H :    0.122080
  22 H :    0.103821
  23 H :    0.109167
  24 H :    0.102506
  25 H :    0.111037
  26 H :    0.114929
  27 H :    0.111484
  28 H :    0.171045
  29 H :    0.180077
  30 H :    0.208824
  31 H :    0.104654
  32 H :    0.132009
  33 H :    0.130289
  34 H :    0.111470
  35 H :    0.112926
  36 H :    0.111490
  37 H :    0.112145
  38 H :    0.125353
  39 H :    0.133249
  40 H :    0.112341
Sum of atomic charges:    0.0000000

LOEWDIN ATOMIC CHARGES
----------------------
   0 C :   -0.364225
   1 C :   -0.118817
   2 O :   -0.246658
   3 P :    0.572789
   4 S :   -0.310277
   5 O :   -0.241890
   6 C :   -0.117426
   7 C :   -0.378407
   8 S :    0.082735
   9 C :   -0.477470
  10 S :    0.086660
  11 P :    0.564695
  12 S :   -0.286837
  13 O :   -0.252756
  14 C :   -0.121063
  15 C :   -0.364863
  16 O :   -0.243061
  17 C :   -0.119223
  18 C :   -0.359999
  19 H :    0.126827
  20 H :    0.129905
  21 H :    0.122830
  22 H :    0.118106
  23 H :    0.109618
  24 H :    0.117507
  25 H :    0.111495
  26 H :    0.121055
  27 H :    0.130668
  28 H :    0.123100
  29 H :    0.133740
  30 H :    0.124245
  31 H :    0.118347
  32 H :    0.114702
  33 H :    0.126380
  34 H :    0.121902
  35 H :    0.131124
  36 H :    0.110261
  37 H :    0.121442
  38 H :    0.131808
  39 H :    0.119623
  40 H :    0.131411

  Mayer bond orders larger than 0.100000
B(  0-C ,  1-C ) :   1.1650 B(  0-C , 19-H ) :   0.9462 B(  0-C , 20-H ) :   0.9389
B(  0-C , 21-H ) :   0.9380 B(  1-C ,  2-O ) :   0.9108 B(  1-C , 22-H ) :   0.9350
B(  1-C , 23-H ) :   0.9149 B(  2-O ,  3-P ) :   1.1169 B(  3-P ,  4-S ) :   1.6005
B(  3-P ,  5-O ) :   1.1111 B(  3-P ,  8-S ) :   0.9681 B(  4-S ,  8-S ) :   0.1163
B(  5-O ,  6-C ) :   0.9058 B(  6-C ,  7-C ) :   1.1634 B(  6-C , 24-H ) :   0.9323
B(  6-C , 25-H ) :   0.9154 B(  7-C , 26-H ) :   0.9421 B(  7-C , 27-H ) :   0.9369
B(  7-C , 28-H ) :   0.9119 B(  8-S ,  9-C ) :   0.9794 B(  9-C , 10-S ) :   1.0190
B(  9-C , 29-H ) :   0.9073 B(  9-C , 30-H ) :   0.8569 B( 10-S , 11-P ) :   0.9484
B( 10-S , 12-S ) :   0.1075 B( 11-P , 12-S ) :   1.6515 B( 11-P , 13-O ) :   1.0686
B( 11-P , 16-O ) :   1.1176 B( 13-O , 14-C ) :   0.9049 B( 14-C , 15-C ) :   1.1603
B( 14-C , 31-H ) :   0.9345 B( 14-C , 32-H ) :   0.9072 B( 15-C , 33-H ) :   0.9356
B( 15-C , 34-H ) :   0.9468 B( 15-C , 35-H ) :   0.9402 B( 16-O , 17-C ) :   0.9004
B( 17-C , 18-C ) :   1.1681 B( 17-C , 36-H ) :   0.9143 B( 17-C , 37-H ) :   0.9337
B( 18-C , 38-H ) :   0.9457 B( 18-C , 39-H ) :   0.9350 B( 18-C , 40-H ) :   0.9385

Dispersion correction           -0.065246669
FINAL SINGLE POINT ENERGY     -2929.517817045342

DIPOLE MOMENT
-------------

Method             : SCF
Type of density    : Electron Density
Multiplicity       :   1
Irrep              :   0
Energy             : -2929.6374416105118144 Eh
Relativity type    :
Basis              : AO
                                X                 Y                 Z
Electronic contribution:      1.717337531      -2.802819979     -10.134510934
Nuclear contribution   :     -1.971023177       2.022720399      11.230826186
                        -----------------------------------------
Total Dipole Moment    :     -0.253685645      -0.780099580       1.096315252
                        -----------------------------------------
Magnitude (a.u.)       :      1.369240261
Magnitude (Debye)      :      3.480332158

Rotational constants in cm-1:             0.014449             0.004565             0.004051
Rotational constants in MHz :           433.171103           136.856953           121.453974

                             ****ORCA TERMINATED NORMALLY****
TOTAL RUN TIME: 0 days 0 hours 0 minutes 20 seconds 946 msec
