                         Program Version 6.0.0  -   RELEASE  -
|  1> ! pbe def2-sv(p) def2/J RI DEFGRID1 loosescf d4 GCP(DFT/SV(P)) printgap
|  2> %output
|  3>     printlevel normal
|  4> end
|  5> * xyz 0 1
|  6> C 3.4770083683 0.3829530794 -2.4571572198
|  7> C 2.0552407821 0.7422314533 -2.0847279894
|  8> O 1.4368207108 -0.2829375234 -1.2833728137
|  9> P 1.9317112044 -0.6202152588 0.1800094686
| 10> S 2.6102390272 0.8637305359 1.2743744974
| 11> O 2.9650961868 -1.7895681902 -0.1339784019
| 12> C 3.6985421426 -2.4717196758 0.9022957447
| 13> C 5.0690831813 -1.8517579422 1.0951025471
| 14> S 0.3252131203 -1.706723729 0.9921657118
| 15> C -0.4441937481 -0.4463935979 2.0670292639
| 16> S -2.1641011679 -0.1251433506 1.6338148554
| 17> P -1.8177755561 0.7919373659 -0.2557291218
| 18> S -0.4550470949 2.1995159516 -0.1881030544
| 19> O -3.2672366131 1.263926821 -0.6911822737
| 20> C -3.9347716342 2.3453052713 -0.0064407166
| 21> C -5.1068893861 2.7813448655 -0.8613958489
| 22> O -1.4757927789 -0.3048719407 -1.3295390825
| 23> C -2.4112991222 -1.2272585301 -1.9473850036
| 24> C -3.0425421435 -2.1782830086 -0.9529255101
| 25> H 4.0948971266 0.3560874974 -1.5601932935
| 26> H 3.5040227692 -0.5933393341 -2.9340450937
| 27> H 3.8705915361 1.1332600258 -3.1357167637
| 28> H 1.4049733096 0.8152974038 -2.9578529352
| 29> H 2.0200483125 1.685574662 -1.5287988424
| 30> H 3.1222937259 -2.4436476608 1.8316989529
| 31> H 3.77346053 -3.5027710978 0.5518811719
| 32> H 5.6154738815 -2.4185778882 1.8418593515
| 33> H 5.6205402137 -1.8640610658 0.1591263054
| 34> H 4.9714776589 -0.822361613 1.4333444247
| 35> H 0.1413131868 0.4752379649 1.9985526012
| 36> H -0.4540261878 -0.830386711 3.0837363201
| 37> H -4.263503691 1.9777775966 0.9690282762
| 38> H -3.2170415161 3.1588430763 0.1408053166
| 39> H -5.6296234157 3.589203123 -0.3601778805
| 40> H -4.7554048637 3.1285514653 -1.828979464
| 41> H -5.7888813122 1.9494339786 -1.0100981894
| 42> H -3.168972864 -0.6400645815 -2.4686601843
| 43> H -1.7862527207 -1.7582782252 -2.667220526
| 44> H -3.6217035294 -2.9182102394 -1.4967329961
| 45> H -2.2744939863 -2.6840622062 -0.3714390168
| 46> H -3.7022816971 -1.6413695557 -0.2749179423
| 47> *
| 48>
| 49>                          ****END OF INPUT****

CARTESIAN COORDINATES (ANGSTROEM)
---------------------------------
  C      3.477008    0.382953   -2.457157
  C      2.055241    0.742231   -2.084728
  O      1.436821   -0.282938   -1.283373
  P      1.931711   -0.620215    0.180009
  S      2.610239    0.863731    1.274374
  O      2.965096   -1.789568   -0.133978
  C      3.698542   -2.471720    0.902296
  C      5.069083   -1.851758    1.095103
  S      0.325213   -1.706724    0.992166
  C     -0.444194   -0.446394    2.067029
  S     -2.164101   -0.125143    1.633815
  P     -1.817776    0.791937   -0.255729
  S     -0.455047    2.199516   -0.188103
  O     -3.267237    1.263927   -0.691182
  C     -3.934772    2.345305   -0.006441
  C     -5.106889    2.781345   -0.861396
  O     -1.475793   -0.304872   -1.329539
  C     -2.411299   -1.227259   -1.947385
  C     -3.042542   -2.178283   -0.952926
  H      4.094897    0.356087   -1.560193
  H      3.504023   -0.593339   -2.934045
  H      3.870592    1.133260   -3.135717
  H      1.404973    0.815297   -2.957853
  H      2.020048    1.685575   -1.528799
  H      3.122294   -2.443648    1.831699
  H      3.773461   -3.502771    0.551881
  H      5.615474   -2.418578    1.841859
  H      5.620540   -1.864061    0.159126
  H      4.971478   -0.822362    1.433344
  H      0.141313    0.475238    1.998553
  H     -0.454026   -0.830387    3.083736
  H     -4.263504    1.977778    0.969028
  H     -3.217042    3.158843    0.140805
  H     -5.629623    3.589203   -0.360178
  H     -4.755405    3.128551   -1.828979
  H     -5.788881    1.949434   -1.010098
  H     -3.168973   -0.640065   -2.468660
  H     -1.786253   -1.758278   -2.667221
  H     -3.621704   -2.918210   -1.496733
  H     -2.274494   -2.684062   -0.371439
  H     -3.702282   -1.641370   -0.274918

 Total Charge           Charge          ....    0
 Multiplicity           Mult            ....    1
 Number of Electrons    NEL             ....  202
 Basis Dimension        Dim             ....  334

ORBITAL ENERGIES
----------------

  NO   OCC          E(Eh)            E(eV)
   0   2.0000     -88.040425     -2395.7018
   1   2.0000     -88.039591     -2395.6791
   2   2.0000     -87.979594     -2394.0465
   3   2.0000     -87.976909     -2393.9734
   4   2.0000     -76.423561     -2079.5908
   5   2.0000     -76.419560     -2079.4819
   6   2.0000     -18.797889      -511.5166
   7   2.0000     -18.788848      -511.2705
   8   2.0000     -18.786835      -511.2158
   9   2.0000     -18.778023      -510.9760
  10   2.0000      -9.956392      -270.9272
  11   2.0000      -9.955477      -270.9023
  12   2.0000      -9.952069      -270.8096
  13   2.0000      -9.949683      -270.7446
  14   2.0000      -9.937147      -270.4035
  15   2.0000      -9.891747      -269.1681
  16   2.0000      -9.885117      -268.9877
  17   2.0000      -9.877300      -268.7750
  18   2.0000      -9.874110      -268.6882
  19   2.0000      -7.685670      -209.1377
  20   2.0000      -7.684723      -209.1119
  21   2.0000      -7.624530      -207.4740
  22   2.0000      -7.621890      -207.4022
  23   2.0000      -6.420951      -174.7229
  24   2.0000      -6.417048      -174.6168
  25   2.0000      -5.713466      -155.4713
  26   2.0000      -5.712545      -155.4462
  27   2.0000      -5.710137      -155.3807
  28   2.0000      -5.709176      -155.3546
  29   2.0000      -5.702752      -155.1798
  30   2.0000      -5.701733      -155.1520
  31   2.0000      -5.653369      -153.8360
  32   2.0000      -5.650906      -153.7690
  33   2.0000      -5.645315      -153.6168
  34   2.0000      -5.644601      -153.5974
  35   2.0000      -5.642601      -153.5430
  36   2.0000      -5.641832      -153.5220
  37   2.0000      -4.644038      -126.3707
  38   2.0000      -4.642664      -126.3333
  39   2.0000      -4.640961      -126.2870
  40   2.0000      -4.639351      -126.2432
  41   2.0000      -4.638735      -126.2264
  42   2.0000      -4.637856      -126.2025
  43   2.0000      -0.989574       -26.9277
  44   2.0000      -0.978959       -26.6388
  45   2.0000      -0.945085       -25.7171
  46   2.0000      -0.936015       -25.4703
  47   2.0000      -0.760344       -20.6900
  48   2.0000      -0.719704       -19.5841
  49   2.0000      -0.706499       -19.2248
  50   2.0000      -0.693889       -18.8817
  51   2.0000      -0.679561       -18.4918
  52   2.0000      -0.671015       -18.2592
  53   2.0000      -0.646333       -17.5876
  54   2.0000      -0.629628       -17.1331
  55   2.0000      -0.593826       -16.1588
  56   2.0000      -0.587404       -15.9841
  57   2.0000      -0.574848       -15.6424
  58   2.0000      -0.564937       -15.3727
  59   2.0000      -0.557489       -15.1701
  60   2.0000      -0.508190       -13.8286
  61   2.0000      -0.493213       -13.4210
  62   2.0000      -0.473889       -12.8952
  63   2.0000      -0.464942       -12.6517
  64   2.0000      -0.448840       -12.2136
  65   2.0000      -0.445410       -12.1202
  66   2.0000      -0.438064       -11.9203
  67   2.0000      -0.432633       -11.7725
  68   2.0000      -0.430837       -11.7237
  69   2.0000      -0.412849       -11.2342
  70   2.0000      -0.403239       -10.9727
  71   2.0000      -0.399261       -10.8644
  72   2.0000      -0.393259       -10.7011
  73   2.0000      -0.380840       -10.3632
  74   2.0000      -0.377631       -10.2759
  75   2.0000      -0.368088       -10.0162
  76   2.0000      -0.365300        -9.9403
  77   2.0000      -0.355905        -9.6847
  78   2.0000      -0.351083        -9.5535
  79   2.0000      -0.348780        -9.4908
  80   2.0000      -0.343002        -9.3336
  81   2.0000      -0.340488        -9.2652
  82   2.0000      -0.338076        -9.1995
  83   2.0000      -0.330904        -9.0044
  84   2.0000      -0.327835        -8.9209
  85   2.0000      -0.321412        -8.7461
  86   2.0000      -0.308877        -8.4050
  87   2.0000      -0.304043        -8.2734
  88   2.0000      -0.294421        -8.0116
  89   2.0000      -0.291063        -7.9202
  90   2.0000      -0.275372        -7.4933
  91   2.0000      -0.272753        -7.4220
  92   2.0000      -0.263446        -7.1687
  93   2.0000      -0.259267        -7.0550
  94   2.0000      -0.255617        -6.9557
  95   2.0000      -0.232647        -6.3307
  96   2.0000      -0.219377        -5.9695
  97   2.0000      -0.210637        -5.7317
  98   2.0000      -0.199121        -5.4184
  99   2.0000      -0.188003        -5.1158
 100   2.0000      -0.181868        -4.9489
 101   0.0000      -0.040405        -1.0995
 102   0.0000      -0.028657        -0.7798
 103   0.0000      -0.003625        -0.0986
 104   0.0000       0.014664         0.3990
 105   0.0000       0.021408         0.5825

MULLIKEN ATOMIC CHARGES
-----------------------
   0 C :   -0.304815
   1 C :   -0.001903
   2 O :   -0.351263
   3 P :    0.607132
   4 S :   -0.318678
   5 O :   -0.374677
   6 C :   -0.006715
   7 C :   -0.292878
   8 S :   -0.098316
   9 C :   -0.356513
  10 S :   -0.116375
  11 P :    0.604254
  12 S :   -0.303751
  13 O :   -0.388445
  14 C :   -0.013032
  15 C :   -0.280441
  16 O :   -0.345726
  17 C :    0.008290
  18 C :   -0.320884
  19 H :    0.123725
  20 H :    0.111281
  21 H :    0.108223
  22 H :    0.099495
  23 H :    0.123947
  24 H :    0.096743
  25 H :    0.104197
  26 H :    0.105460
  27 H :    0.113287
  28 H :    0.128758
  29 H :    0.213460
  30 H :    0.180764
  31 H :    0.106434
  32 H :    0.109202
  33 H :    0.114477
  34 H :    0.121852
  35 H :    0.113931
  36 H :    0.108217
  37 H :    0.110092
  38 H :    0.110658
  39 H :    0.130341
  40 H :    0.120195
Sum of atomic charges:    0.0000000

LOEWDIN ATOMIC CHARGES
----------------------
   0 C :   -0.366892
   1 C :   -0.118365
   2 O :   -0.229080
   3 P :    0.568683
   4 S :   -0.310034
   5 O :   -0.247566
   6 C :   -0.117563
   7 C :   -0.364032
   8 S :    0.079208
   9 C :   -0.479314
  10 S :    0.065910
  11 P :    0.562666
  12 S :   -0.296132
  13 O :   -0.251715
  14 C :   -0.119418
  15 C :   -0.350283
  16 O :   -0.226957
  17 C :   -0.105544
  18 C :   -0.371033
  19 H :    0.121324
  20 H :    0.123515
  21 H :    0.128771
  22 H :    0.117379
  23 H :    0.109482
  24 H :    0.104785
  25 H :    0.117172
  26 H :    0.127686
  27 H :    0.124529
  28 H :    0.124248
  29 H :    0.126311
  30 H :    0.136599
  31 H :    0.109452
  32 H :    0.111717
  33 H :    0.132293
  34 H :    0.129600
  35 H :    0.125467
  36 H :    0.113625
  37 H :    0.123017
  38 H :    0.129801
  39 H :    0.124217
  40 H :    0.116471

  Mayer bond orders larger than 0.100000
B(  0-C ,  1-C ) :   1.1577 B(  0-C , 19-H ) :   0.9343 B(  0-C , 20-H ) :   0.9448
B(  0-C , 21-H ) :   0.9388 B(  1-C ,  2-O ) :   0.9013 B(  1-C , 22-H ) :   0.9359
B(  1-C , 23-H ) :   0.9121 B(  2-O ,  3-P ) :   1.1529 B(  3-P ,  4-S ) :   1.5991
B(  3-P ,  5-O ) :   1.0947 B(  3-P ,  8-S ) :   0.9649 B(  4-S ,  8-S ) :   0.1166
B(  5-O ,  6-C ) :   0.9091 B(  6-C ,  7-C ) :   1.1675 B(  6-C , 24-H ) :   0.9128
B(  6-C , 25-H ) :   0.9364 B(  7-C , 26-H ) :   0.9399 B(  7-C , 27-H ) :   0.9459
B(  7-C , 28-H ) :   0.9304 B(  8-S ,  9-C ) :   0.9937 B(  9-C , 10-S ) :   1.0081
B(  9-C , 29-H ) :   0.8444 B(  9-C , 30-H ) :   0.9117 B( 10-S , 11-P ) :   0.9364
B( 10-S , 12-S ) :   0.1064 B( 11-P , 12-S ) :   1.6582 B( 11-P , 13-O ) :   1.0734
B( 11-P , 16-O ) :   1.1496 B( 13-O , 14-C ) :   0.9011 B( 14-C , 15-C ) :   1.1597
B( 14-C , 31-H ) :   0.9290 B( 14-C , 32-H ) :   0.9099 B( 15-C , 33-H ) :   0.9416
B( 15-C , 34-H ) :   0.9507 B( 15-C , 35-H ) :   0.9512 B( 16-O , 17-C ) :   0.8951
B( 17-C , 18-C ) :   1.1702 B( 17-C , 36-H ) :   0.9290 B( 17-C , 37-H ) :   0.9339
B( 18-C , 38-H ) :   0.9351 B( 18-C , 39-H ) :   0.9379 B( 18-C , 40-H ) :   0.9396

Dispersion correction           -0.067129398
FINAL SINGLE POINT ENERGY     -2929.517526750409

DIPOLE MOMENT
-------------

Method             : SCF
Type of density    : Electron Density
Multiplicity       :   1
Irrep              :   0
Energy             : -2929.6357016785050291 Eh
Relativity type    :
Basis              : AO
                                X                 Y                 Z
Electronic contribution:     -0.408882201       2.873643103       9.520705485
Nuclear contribution   :     -0.606761847      -3.815526990     -10.021083309
                        -----------------------------------------
Total Dipole Moment    :     -1.015644049      -0.941883887      -0.500377824
                        -----------------------------------------
Magnitude (a.u.)       :      1.472771556
Magnitude (Debye)      :      3.743487795

Rotational constants in cm-1:             0.014015             0.004977             0.004743
Rotational constants in MHz :           420.144259           149.202048           142.190224

                             ****ORCA TERMINATED NORMALLY****
TOTAL RUN TIME: 0 days 0 hours 0 minutes 21 seconds 283 msec
