                         Program Version 6.0.0  -   RELEASE  -
|  1> ! r2scan-3c def2/J RI DEFGRID2 scfconv6 printgap
|  2> %output
|  3>     printlevel normal
|  4> end
|  5> * xyz 0 1
|  6> C 3.3110724669 2.6603721254 -0.4123580204
|  7> C 2.0711549697 1.8255603339 -0.652925531
|  8> O 1.617235595 1.2260565199 0.5870399031
|  9> P 1.9217351159 -0.2795221896 0.946685103
| 10> S 1.4386429903 -0.7524186793 2.778270235
| 11> O 3.4677467651 -0.4003333256 0.5985559496
| 12> C 4.1885595307 -1.6234061016 0.8542137429
| 13> C 5.6699179264 -1.3123229871 0.7876501433
| 14> S 1.025724871 -1.4396303001 -0.6099893212
| 15> C -0.4943556206 -1.8977071621 0.2666872682
| 16> S -1.4601894279 -0.4844918317 0.8430091761
| 17> P -2.0974859143 0.287753869 -1.0499152487
| 18> S -1.9124865319 -0.9284673529 -2.5707650256
| 19> O -1.2906701182 1.6345593438 -1.2554355887
| 20> C -1.6424284114 2.9067188643 -0.6572384952
| 21> C -1.5184938187 2.8941889267 0.8521970532
| 22> O -3.5687683484 0.831875292 -0.7868978392
| 23> C -4.7329346563 0.003934849 -0.9562449365
| 24> C -4.788741522 -1.127506407 0.0493201733
| 25> H 3.1113019544 3.4125998379 0.3456507338
| 26> H 4.1277063549 2.0286056032 -0.0735505637
| 27> H 3.5948633279 3.1487265433 -1.3393674719
| 28> H 2.2566867525 1.0336154813 -1.3843862898
| 29> H 1.2341264304 2.4368033464 -0.9934785383
| 30> H 3.8998121246 -1.9960171207 1.8424725162
| 31> H 3.8979869783 -2.3555822343 0.0957526162
| 32> H 6.2320515684 -2.2227686924 0.9671129608
| 33> H 5.9247317097 -0.9204991991 -0.1928474951
| 34> H 5.9309187609 -0.5760046519 1.5425781997
| 35> H -0.2412400975 -2.4687861629 1.1585323639
| 36> H -1.0748773104 -2.4878890108 -0.4412639408
| 37> H -0.939568595 3.6052709914 -1.1146490375
| 38> H -2.660308481 3.1575074259 -0.9607574166
| 39> H -2.2565376795 2.2219587526 1.2867380137
| 40> H -0.5283454019 2.5609694726 1.1567468123
| 41> H -1.6883706642 3.8972454489 1.2309926284
| 42> H -5.5648428068 0.6978133702 -0.8275594544
| 43> H -4.7289174279 -0.390155738 -1.9771146855
| 44> H -3.9891906096 -1.840080498 -0.1480695143
| 45> H -4.6763156417 -0.7452522969 1.0607894041
| 46> H -5.7422724142 -1.6380764675 -0.0393438995
| 47> *
| 48>
| 49>                          ****END OF INPUT****

CARTESIAN COORDINATES (ANGSTROEM)
---------------------------------
  C      3.311072    2.660372   -0.412358
  C      2.071155    1.825560   -0.652926
  O      1.617236    1.226057    0.587040
  P      1.921735   -0.279522    0.946685
  S      1.438643   -0.752419    2.778270
  O      3.467747   -0.400333    0.598556
  C      4.188560   -1.623406    0.854214
  C      5.669918   -1.312323    0.787650
  S      1.025725   -1.439630   -0.609989
  C     -0.494356   -1.897707    0.266687
  S     -1.460189   -0.484492    0.843009
  P     -2.097486    0.287754   -1.049915
  S     -1.912487   -0.928467   -2.570765
  O     -1.290670    1.634559   -1.255436
  C     -1.642428    2.906719   -0.657238
  C     -1.518494    2.894189    0.852197
  O     -3.568768    0.831875   -0.786898
  C     -4.732935    0.003935   -0.956245
  C     -4.788742   -1.127506    0.049320
  H      3.111302    3.412600    0.345651
  H      4.127706    2.028606   -0.073551
  H      3.594863    3.148727   -1.339367
  H      2.256687    1.033615   -1.384386
  H      1.234126    2.436803   -0.993479
  H      3.899812   -1.996017    1.842473
  H      3.897987   -2.355582    0.095753
  H      6.232052   -2.222769    0.967113
  H      5.924732   -0.920499   -0.192847
  H      5.930919   -0.576005    1.542578
  H     -0.241240   -2.468786    1.158532
  H     -1.074877   -2.487889   -0.441264
  H     -0.939569    3.605271   -1.114649
  H     -2.660308    3.157507   -0.960757
  H     -2.256538    2.221959    1.286738
  H     -0.528345    2.560969    1.156747
  H     -1.688371    3.897245    1.230993
  H     -5.564843    0.697813   -0.827559
  H     -4.728917   -0.390156   -1.977115
  H     -3.989191   -1.840080   -0.148070
  H     -4.676316   -0.745252    1.060789
  H     -5.742272   -1.638076   -0.039344

 Total Charge           Charge          ....    0
 Multiplicity           Mult            ....    1
 Number of Electrons    NEL             ....  202
 Basis Dimension        Dim             ....  539

ORBITAL ENERGIES
----------------

  NO   OCC          E(Eh)            E(eV)
   0   2.0000     -88.570263     -2410.1194
   1   2.0000     -88.569883     -2410.1090
   2   2.0000     -88.518226     -2408.7034
   3   2.0000     -88.517457     -2408.6825
   4   2.0000     -76.913255     -2092.9161
   5   2.0000     -76.911483     -2092.8679
   6   2.0000     -18.994634      -516.8703
   7   2.0000     -18.993094      -516.8284
   8   2.0000     -18.991144      -516.7753
   9   2.0000     -18.989492      -516.7304
  10   2.0000     -10.103712      -274.9360
  11   2.0000     -10.102425      -274.9010
  12   2.0000     -10.100837      -274.8577
  13   2.0000     -10.100778      -274.8562
  14   2.0000     -10.099004      -274.8079
  15   2.0000     -10.034539      -273.0537
  16   2.0000     -10.031083      -272.9597
  17   2.0000     -10.029599      -272.9193
  18   2.0000     -10.029315      -272.9115
  19   2.0000      -7.864429      -214.0020
  20   2.0000      -7.863917      -213.9881
  21   2.0000      -7.813108      -212.6055
  22   2.0000      -7.812336      -212.5845
  23   2.0000      -6.591565      -179.3656
  24   2.0000      -6.590047      -179.3243
  25   2.0000      -5.811456      -158.1378
  26   2.0000      -5.810824      -158.1206
  27   2.0000      -5.808231      -158.0500
  28   2.0000      -5.807714      -158.0359
  29   2.0000      -5.801459      -157.8657
  30   2.0000      -5.801127      -157.8567
  31   2.0000      -5.760828      -156.7601
  32   2.0000      -5.760106      -156.7404
  33   2.0000      -5.753286      -156.5549
  34   2.0000      -5.753119      -156.5503
  35   2.0000      -5.752439      -156.5318
  36   2.0000      -5.752369      -156.5299
  37   2.0000      -4.737568      -128.9158
  38   2.0000      -4.736151      -128.8772
  39   2.0000      -4.735866      -128.8695
  40   2.0000      -4.735183      -128.8509
  41   2.0000      -4.735014      -128.8463
  42   2.0000      -4.733443      -128.8035
  43   2.0000      -1.052096       -28.6290
  44   2.0000      -1.051574       -28.6148
  45   2.0000      -1.010482       -27.4966
  46   2.0000      -1.009340       -27.4655
  47   2.0000      -0.796874       -21.6841
  48   2.0000      -0.757430       -20.6107
  49   2.0000      -0.751012       -20.4361
  50   2.0000      -0.737020       -20.0553
  51   2.0000      -0.735539       -20.0150
  52   2.0000      -0.707732       -19.2584
  53   2.0000      -0.683282       -18.5930
  54   2.0000      -0.667803       -18.1718
  55   2.0000      -0.627993       -17.0886
  56   2.0000      -0.618722       -16.8363
  57   2.0000      -0.612708       -16.6726
  58   2.0000      -0.603861       -16.4319
  59   2.0000      -0.592098       -16.1118
  60   2.0000      -0.533469       -14.5164
  61   2.0000      -0.521481       -14.1902
  62   2.0000      -0.500509       -13.6195
  63   2.0000      -0.490517       -13.3476
  64   2.0000      -0.475380       -12.9358
  65   2.0000      -0.469264       -12.7693
  66   2.0000      -0.463405       -12.6099
  67   2.0000      -0.454231       -12.3603
  68   2.0000      -0.442423       -12.0389
  69   2.0000      -0.436805       -11.8861
  70   2.0000      -0.422674       -11.5015
  71   2.0000      -0.417994       -11.3742
  72   2.0000      -0.407589       -11.0911
  73   2.0000      -0.398134       -10.8338
  74   2.0000      -0.390611       -10.6291
  75   2.0000      -0.389230       -10.5915
  76   2.0000      -0.382152       -10.3989
  77   2.0000      -0.374804       -10.1989
  78   2.0000      -0.371462       -10.1080
  79   2.0000      -0.367171        -9.9912
  80   2.0000      -0.365311        -9.9406
  81   2.0000      -0.362263        -9.8577
  82   2.0000      -0.357647        -9.7321
  83   2.0000      -0.354246        -9.6395
  84   2.0000      -0.351630        -9.5683
  85   2.0000      -0.334985        -9.1154
  86   2.0000      -0.322769        -8.7830
  87   2.0000      -0.316115        -8.6019
  88   2.0000      -0.313079        -8.5193
  89   2.0000      -0.310886        -8.4596
  90   2.0000      -0.307946        -8.3796
  91   2.0000      -0.291052        -7.9199
  92   2.0000      -0.286620        -7.7993
  93   2.0000      -0.275987        -7.5100
  94   2.0000      -0.269245        -7.3265
  95   2.0000      -0.246222        -6.7001
  96   2.0000      -0.225139        -6.1263
  97   2.0000      -0.222275        -6.0484
  98   2.0000      -0.221232        -6.0200
  99   2.0000      -0.209130        -5.6907
 100   2.0000      -0.204778        -5.5723
 101   0.0000      -0.044421        -1.2088
 102   0.0000      -0.027198        -0.7401
 103   0.0000      -0.002289        -0.0623
 104   0.0000       0.004171         0.1135
 105   0.0000       0.013024         0.3544

MULLIKEN ATOMIC CHARGES
-----------------------
   0 C :   -0.480389
   1 C :   -0.082894
   2 O :   -0.279215
   3 P :    0.671669
   4 S :   -0.445241
   5 O :   -0.278027
   6 C :   -0.153403
   7 C :   -0.444087
   8 S :   -0.169119
   9 C :   -0.241517
  10 S :   -0.126822
  11 P :    0.655181
  12 S :   -0.451152
  13 O :   -0.270897
  14 C :   -0.103408
  15 C :   -0.494228
  16 O :   -0.300104
  17 C :   -0.170067
  18 C :   -0.426927
  19 H :    0.155240
  20 H :    0.168320
  21 H :    0.148324
  22 H :    0.157698
  23 H :    0.161135
  24 H :    0.169685
  25 H :    0.155060
  26 H :    0.147581
  27 H :    0.151590
  28 H :    0.159026
  29 H :    0.210542
  30 H :    0.203584
  31 H :    0.147846
  32 H :    0.160863
  33 H :    0.158182
  34 H :    0.191175
  35 H :    0.150724
  36 H :    0.147143
  37 H :    0.175005
  38 H :    0.168517
  39 H :    0.156308
  40 H :    0.147098
Sum of atomic charges:    0.0000000

LOEWDIN ATOMIC CHARGES
----------------------
   0 C :   -0.391794
   1 C :    0.023073
   2 O :   -0.657126
   3 P :    0.377904
   4 S :   -0.098444
   5 O :   -0.681889
   6 C :    0.017735
   7 C :   -0.386847
   8 S :    0.128029
   9 C :   -0.429851
  10 S :    0.146927
  11 P :    0.395100
  12 S :   -0.102219
  13 O :   -0.657238
  14 C :    0.024796
  15 C :   -0.403434
  16 O :   -0.682818
  17 C :    0.021644
  18 C :   -0.406677
  19 H :    0.160499
  20 H :    0.166774
  21 H :    0.159184
  22 H :    0.179204
  23 H :    0.184950
  24 H :    0.181036
  25 H :    0.173231
  26 H :    0.160647
  27 H :    0.158567
  28 H :    0.161378
  29 H :    0.189015
  30 H :    0.188912
  31 H :    0.178404
  32 H :    0.179796
  33 H :    0.161843
  34 H :    0.176380
  35 H :    0.159249
  36 H :    0.179174
  37 H :    0.180769
  38 H :    0.163516
  39 H :    0.161611
  40 H :    0.158992

  Mayer bond orders larger than 0.100000
B(  0-C ,  1-C ) :   0.9284 B(  0-C , 19-H ) :   0.9726 B(  0-C , 20-H ) :   0.9695
B(  0-C , 21-H ) :   0.9668 B(  1-C ,  2-O ) :   0.7260 B(  1-C , 22-H ) :   0.9655
B(  1-C , 23-H ) :   0.9550 B(  2-O ,  3-P ) :   1.1452 B(  3-P ,  4-S ) :   1.8279
B(  3-P ,  5-O ) :   1.0543 B(  3-P ,  8-S ) :   0.9853 B(  5-O ,  6-C ) :   0.7866
B(  6-C ,  7-C ) :   0.9537 B(  6-C , 24-H ) :   0.9500 B(  6-C , 25-H ) :   0.9408
B(  7-C , 26-H ) :   0.9635 B(  7-C , 27-H ) :   0.9718 B(  7-C , 28-H ) :   0.9720
B(  8-S ,  9-C ) :   0.9151 B(  9-C , 10-S ) :   0.8977 B(  9-C , 29-H ) :   0.9143
B(  9-C , 30-H ) :   0.9128 B( 10-S , 11-P ) :   1.0136 B( 11-P , 12-S ) :   1.8071
B( 11-P , 13-O ) :   1.1258 B( 11-P , 16-O ) :   1.0475 B( 13-O , 14-C ) :   0.7721
B( 14-C , 15-C ) :   0.9016 B( 14-C , 31-H ) :   0.9612 B( 14-C , 32-H ) :   0.9639
B( 15-C , 33-H ) :   0.9640 B( 15-C , 34-H ) :   0.9564 B( 15-C , 35-H ) :   0.9651
B( 16-O , 17-C ) :   0.8180 B( 17-C , 18-C ) :   0.9204 B( 17-C , 36-H ) :   0.9606
B( 17-C , 37-H ) :   0.9670 B( 18-C , 38-H ) :   0.9663 B( 18-C , 39-H ) :   0.9660
B( 18-C , 40-H ) :   0.9572

Dispersion correction           -0.021874418
FINAL SINGLE POINT ENERGY     -2932.460835572963

DIPOLE MOMENT
-------------

Method             : SCF
Type of density    : Electron Density
Multiplicity       :   1
Irrep              :   0
Energy             : -2932.4852809313965736 Eh
Relativity type    :
Basis              : AO
                                X                 Y                 Z
Electronic contribution:     -5.879749141      -9.341632937      -1.385620352
Nuclear contribution   :      5.927714967      10.052855635       1.187890815
                        -----------------------------------------
Total Dipole Moment    :      0.047965826       0.711222698      -0.197729537
                        -----------------------------------------
Magnitude (a.u.)       :      0.739753619
Magnitude (Debye)      :      1.880304269

Rotational constants in cm-1:             0.013409             0.004954             0.004613
Rotational constants in MHz :           402.002940           148.519511           138.281341

                             ****ORCA TERMINATED NORMALLY****
TOTAL RUN TIME: 0 days 0 hours 1 minutes 20 seconds 719 msec
