                         Program Version 6.0.0  -   RELEASE  -
|  1> ! r2scan-3c def2/J RI DEFGRID2 scfconv6 printgap
|  2> %output
|  3>     printlevel normal
|  4> end
|  5> %cpcm
|  6>     smd true
|  7>     smdsolvent "water"
|  8> end
|  9> * xyz 0 1
| 10> C 3.3110724669 2.6603721254 -0.4123580204
| 11> C 2.0711549697 1.8255603339 -0.652925531
| 12> O 1.617235595 1.2260565199 0.5870399031
| 13> P 1.9217351159 -0.2795221896 0.946685103
| 14> S 1.4386429903 -0.7524186793 2.778270235
| 15> O 3.4677467651 -0.4003333256 0.5985559496
| 16> C 4.1885595307 -1.6234061016 0.8542137429
| 17> C 5.6699179264 -1.3123229871 0.7876501433
| 18> S 1.025724871 -1.4396303001 -0.6099893212
| 19> C -0.4943556206 -1.8977071621 0.2666872682
| 20> S -1.4601894279 -0.4844918317 0.8430091761
| 21> P -2.0974859143 0.287753869 -1.0499152487
| 22> S -1.9124865319 -0.9284673529 -2.5707650256
| 23> O -1.2906701182 1.6345593438 -1.2554355887
| 24> C -1.6424284114 2.9067188643 -0.6572384952
| 25> C -1.5184938187 2.8941889267 0.8521970532
| 26> O -3.5687683484 0.831875292 -0.7868978392
| 27> C -4.7329346563 0.003934849 -0.9562449365
| 28> C -4.788741522 -1.127506407 0.0493201733
| 29> H 3.1113019544 3.4125998379 0.3456507338
| 30> H 4.1277063549 2.0286056032 -0.0735505637
| 31> H 3.5948633279 3.1487265433 -1.3393674719
| 32> H 2.2566867525 1.0336154813 -1.3843862898
| 33> H 1.2341264304 2.4368033464 -0.9934785383
| 34> H 3.8998121246 -1.9960171207 1.8424725162
| 35> H 3.8979869783 -2.3555822343 0.0957526162
| 36> H 6.2320515684 -2.2227686924 0.9671129608
| 37> H 5.9247317097 -0.9204991991 -0.1928474951
| 38> H 5.9309187609 -0.5760046519 1.5425781997
| 39> H -0.2412400975 -2.4687861629 1.1585323639
| 40> H -1.0748773104 -2.4878890108 -0.4412639408
| 41> H -0.939568595 3.6052709914 -1.1146490375
| 42> H -2.660308481 3.1575074259 -0.9607574166
| 43> H -2.2565376795 2.2219587526 1.2867380137
| 44> H -0.5283454019 2.5609694726 1.1567468123
| 45> H -1.6883706642 3.8972454489 1.2309926284
| 46> H -5.5648428068 0.6978133702 -0.8275594544
| 47> H -4.7289174279 -0.390155738 -1.9771146855
| 48> H -3.9891906096 -1.840080498 -0.1480695143
| 49> H -4.6763156417 -0.7452522969 1.0607894041
| 50> H -5.7422724142 -1.6380764675 -0.0393438995
| 51> *
| 52>
| 53>                          ****END OF INPUT****

CARTESIAN COORDINATES (ANGSTROEM)
---------------------------------
  C      3.311072    2.660372   -0.412358
  C      2.071155    1.825560   -0.652926
  O      1.617236    1.226057    0.587040
  P      1.921735   -0.279522    0.946685
  S      1.438643   -0.752419    2.778270
  O      3.467747   -0.400333    0.598556
  C      4.188560   -1.623406    0.854214
  C      5.669918   -1.312323    0.787650
  S      1.025725   -1.439630   -0.609989
  C     -0.494356   -1.897707    0.266687
  S     -1.460189   -0.484492    0.843009
  P     -2.097486    0.287754   -1.049915
  S     -1.912487   -0.928467   -2.570765
  O     -1.290670    1.634559   -1.255436
  C     -1.642428    2.906719   -0.657238
  C     -1.518494    2.894189    0.852197
  O     -3.568768    0.831875   -0.786898
  C     -4.732935    0.003935   -0.956245
  C     -4.788742   -1.127506    0.049320
  H      3.111302    3.412600    0.345651
  H      4.127706    2.028606   -0.073551
  H      3.594863    3.148727   -1.339367
  H      2.256687    1.033615   -1.384386
  H      1.234126    2.436803   -0.993479
  H      3.899812   -1.996017    1.842473
  H      3.897987   -2.355582    0.095753
  H      6.232052   -2.222769    0.967113
  H      5.924732   -0.920499   -0.192847
  H      5.930919   -0.576005    1.542578
  H     -0.241240   -2.468786    1.158532
  H     -1.074877   -2.487889   -0.441264
  H     -0.939569    3.605271   -1.114649
  H     -2.660308    3.157507   -0.960757
  H     -2.256538    2.221959    1.286738
  H     -0.528345    2.560969    1.156747
  H     -1.688371    3.897245    1.230993
  H     -5.564843    0.697813   -0.827559
  H     -4.728917   -0.390156   -1.977115
  H     -3.989191   -1.840080   -0.148070
  H     -4.676316   -0.745252    1.060789
  H     -5.742272   -1.638076   -0.039344

 Total Charge           Charge          ....    0
 Multiplicity           Mult            ....    1
 Number of Electrons    NEL             ....  202
 Basis Dimension        Dim             ....  539

ORBITAL ENERGIES
----------------

  NO   OCC          E(Eh)            E(eV)
   0   2.0000     -88.575708     -2410.2675
   1   2.0000     -88.574968     -2410.2474
   2   2.0000     -88.529122     -2408.9999
   3   2.0000     -88.528035     -2408.9703
   4   2.0000     -76.919069     -2093.0743
   5   2.0000     -76.918962     -2093.0714
   6   2.0000     -18.995596      -516.8965
   7   2.0000     -18.994941      -516.8786
   8   2.0000     -18.994827      -516.8755
   9   2.0000     -18.992470      -516.8114
  10   2.0000     -10.102714      -274.9088
  11   2.0000     -10.092349      -274.6268
  12   2.0000     -10.091681      -274.6086
  13   2.0000     -10.090176      -274.5677
  14   2.0000     -10.090164      -274.5673
  15   2.0000     -10.019738      -272.6509
  16   2.0000     -10.019637      -272.6482
  17   2.0000     -10.018731      -272.6235
  18   2.0000     -10.018064      -272.6054
  19   2.0000      -7.869766      -214.1472
  20   2.0000      -7.869162      -214.1308
  21   2.0000      -7.824353      -212.9115
  22   2.0000      -7.823268      -212.8819
  23   2.0000      -6.597560      -179.5287
  24   2.0000      -6.597432      -179.5252
  25   2.0000      -5.816646      -158.2790
  26   2.0000      -5.816184      -158.2664
  27   2.0000      -5.813566      -158.1952
  28   2.0000      -5.812976      -158.1791
  29   2.0000      -5.807011      -158.0168
  30   2.0000      -5.806198      -157.9947
  31   2.0000      -5.772015      -157.0645
  32   2.0000      -5.770891      -157.0339
  33   2.0000      -5.764502      -156.8601
  34   2.0000      -5.764381      -156.8568
  35   2.0000      -5.763437      -156.8311
  36   2.0000      -5.763317      -156.8278
  37   2.0000      -4.743357      -129.0733
  38   2.0000      -4.743306      -129.0719
  39   2.0000      -4.742512      -129.0503
  40   2.0000      -4.742006      -129.0366
  41   2.0000      -4.741176      -129.0140
  42   2.0000      -4.741085      -129.0115
  43   2.0000      -1.054865       -28.7043
  44   2.0000      -1.052766       -28.6472
  45   2.0000      -1.012665       -27.5560
  46   2.0000      -1.010026       -27.4842
  47   2.0000      -0.800220       -21.7751
  48   2.0000      -0.754037       -20.5184
  49   2.0000      -0.745130       -20.2760
  50   2.0000      -0.727413       -19.7939
  51   2.0000      -0.726174       -19.7602
  52   2.0000      -0.708096       -19.2683
  53   2.0000      -0.687560       -18.7095
  54   2.0000      -0.675025       -18.3684
  55   2.0000      -0.627170       -17.0662
  56   2.0000      -0.614658       -16.7257
  57   2.0000      -0.605693       -16.4817
  58   2.0000      -0.597143       -16.2491
  59   2.0000      -0.590750       -16.0751
  60   2.0000      -0.531018       -14.4497
  61   2.0000      -0.516212       -14.0469
  62   2.0000      -0.497848       -13.5471
  63   2.0000      -0.485304       -13.2058
  64   2.0000      -0.475971       -12.9518
  65   2.0000      -0.464588       -12.6421
  66   2.0000      -0.458834       -12.4855
  67   2.0000      -0.448243       -12.1973
  68   2.0000      -0.435267       -11.8442
  69   2.0000      -0.432025       -11.7560
  70   2.0000      -0.421046       -11.4572
  71   2.0000      -0.412594       -11.2273
  72   2.0000      -0.404614       -11.0101
  73   2.0000      -0.393964       -10.7203
  74   2.0000      -0.390338       -10.6216
  75   2.0000      -0.387989       -10.5577
  76   2.0000      -0.380062       -10.3420
  77   2.0000      -0.369584       -10.0569
  78   2.0000      -0.363581        -9.8935
  79   2.0000      -0.359328        -9.7778
  80   2.0000      -0.357020        -9.7150
  81   2.0000      -0.356299        -9.6954
  82   2.0000      -0.349020        -9.4973
  83   2.0000      -0.348268        -9.4769
  84   2.0000      -0.345430        -9.3996
  85   2.0000      -0.331967        -9.0333
  86   2.0000      -0.321163        -8.7393
  87   2.0000      -0.313765        -8.5380
  88   2.0000      -0.306942        -8.3523
  89   2.0000      -0.305800        -8.3212
  90   2.0000      -0.302813        -8.2400
  91   2.0000      -0.290263        -7.8984
  92   2.0000      -0.284516        -7.7421
  93   2.0000      -0.277210        -7.5433
  94   2.0000      -0.272417        -7.4129
  95   2.0000      -0.252243        -6.8639
  96   2.0000      -0.236905        -6.4465
  97   2.0000      -0.233951        -6.3661
  98   2.0000      -0.228920        -6.2292
  99   2.0000      -0.219749        -5.9797
 100   2.0000      -0.214134        -5.8269
 101   0.0000      -0.050565        -1.3759
 102   0.0000      -0.035352        -0.9620
 103   0.0000      -0.007049        -0.1918
 104   0.0000      -0.001452        -0.0395
 105   0.0000       0.011579         0.3151

MULLIKEN ATOMIC CHARGES
-----------------------
   0 C :   -0.524263
   1 C :   -0.082480
   2 O :   -0.308713
   3 P :    0.690311
   4 S :   -0.496205
   5 O :   -0.295762
   6 C :   -0.141221
   7 C :   -0.482138
   8 S :   -0.186313
   9 C :   -0.243266
  10 S :   -0.140662
  11 P :    0.680286
  12 S :   -0.503790
  13 O :   -0.308780
  14 C :   -0.086722
  15 C :   -0.540944
  16 O :   -0.316231
  17 C :   -0.162949
  18 C :   -0.466045
  19 H :    0.168663
  20 H :    0.170733
  21 H :    0.172319
  22 H :    0.171032
  23 H :    0.186629
  24 H :    0.171412
  25 H :    0.170131
  26 H :    0.169344
  27 H :    0.165979
  28 H :    0.166779
  29 H :    0.233818
  30 H :    0.226305
  31 H :    0.178916
  32 H :    0.176601
  33 H :    0.167412
  34 H :    0.181312
  35 H :    0.177051
  36 H :    0.174957
  37 H :    0.178429
  38 H :    0.169490
  39 H :    0.167150
  40 H :    0.171425
Sum of atomic charges:    0.0000000

LOEWDIN ATOMIC CHARGES
----------------------
   0 C :   -0.393352
   1 C :    0.026314
   2 O :   -0.675058
   3 P :    0.380196
   4 S :   -0.138192
   5 O :   -0.687389
   6 C :    0.022826
   7 C :   -0.389567
   8 S :    0.121565
   9 C :   -0.422475
  10 S :    0.141304
  11 P :    0.398436
  12 S :   -0.140859
  13 O :   -0.675535
  14 C :    0.033386
  15 C :   -0.405547
  16 O :   -0.685259
  17 C :    0.027349
  18 C :   -0.409759
  19 H :    0.164000
  20 H :    0.165714
  21 H :    0.169291
  22 H :    0.183300
  23 H :    0.194550
  24 H :    0.181481
  25 H :    0.179633
  26 H :    0.168997
  27 H :    0.163185
  28 H :    0.163105
  29 H :    0.196396
  30 H :    0.196886
  31 H :    0.192140
  32 H :    0.186521
  33 H :    0.161726
  34 H :    0.169890
  35 H :    0.169584
  36 H :    0.191033
  37 H :    0.181539
  38 H :    0.161034
  39 H :    0.163825
  40 H :    0.167787

  Mayer bond orders larger than 0.100000
B(  0-C ,  1-C ) :   0.9258 B(  0-C , 19-H ) :   0.9715 B(  0-C , 20-H ) :   0.9690
B(  0-C , 21-H ) :   0.9593 B(  1-C ,  2-O ) :   0.7101 B(  1-C , 22-H ) :   0.9549
B(  1-C , 23-H ) :   0.9439 B(  2-O ,  3-P ) :   1.1510 B(  3-P ,  4-S ) :   1.8052
B(  3-P ,  5-O ) :   1.0673 B(  3-P ,  8-S ) :   0.9909 B(  5-O ,  6-C ) :   0.7780
B(  6-C ,  7-C ) :   0.9534 B(  6-C , 24-H ) :   0.9476 B(  6-C , 25-H ) :   0.9324
B(  7-C , 26-H ) :   0.9580 B(  7-C , 27-H ) :   0.9681 B(  7-C , 28-H ) :   0.9695
B(  8-S ,  9-C ) :   0.9005 B(  9-C , 10-S ) :   0.8868 B(  9-C , 29-H ) :   0.9080
B(  9-C , 30-H ) :   0.9068 B( 10-S , 11-P ) :   1.0158 B( 11-P , 12-S ) :   1.7838
B( 11-P , 13-O ) :   1.1316 B( 11-P , 16-O ) :   1.0630 B( 13-O , 14-C ) :   0.7642
B( 14-C , 15-C ) :   0.8838 B( 14-C , 31-H ) :   0.9485 B( 14-C , 32-H ) :   0.9587
B( 15-C , 33-H ) :   0.9635 B( 15-C , 34-H ) :   0.9626 B( 15-C , 35-H ) :   0.9569
B( 16-O , 17-C ) :   0.8060 B( 17-C , 18-C ) :   0.9088 B( 17-C , 36-H ) :   0.9501
B( 17-C , 37-H ) :   0.9658 B( 18-C , 38-H ) :   0.9663 B( 18-C , 39-H ) :   0.9644
B( 18-C , 40-H ) :   0.9521

Dispersion correction           -0.021874418
FINAL SINGLE POINT ENERGY     -2932.472052633473

DIPOLE MOMENT
-------------

Method             : SCF
Type of density    : Electron Density
Multiplicity       :   1
Irrep              :   0
Energy             : -2932.4964979919063808 Eh
Relativity type    :
Basis              : AO
                                X                 Y                 Z
Electronic contribution:     -6.009791181      -9.185005486      -1.522572200
Nuclear contribution   :      5.927714967      10.052855635       1.187890815
                        -----------------------------------------
Total Dipole Moment    :     -0.082076214       0.867850149      -0.334681385
                        -----------------------------------------
Magnitude (a.u.)       :      0.933762291
Magnitude (Debye)      :      2.373435123

Rotational constants in cm-1:             0.013409             0.004954             0.004613
Rotational constants in MHz :           402.002940           148.519511           138.281341

                             ****ORCA TERMINATED NORMALLY****
TOTAL RUN TIME: 0 days 0 hours 1 minutes 50 seconds 792 msec
