                         Program Version 6.0.0  -   RELEASE  -
|  1> ! pbe def2-sv(p) def2/J RI DEFGRID1 loosescf d4 GCP(DFT/SV(P)) printgap
|  2> %output
|  3>     printlevel normal
|  4> end
|  5> * xyz 0 1
|  6> C 1.6182905471 -1.8676334596 2.4154295921
|  7> C 2.1153744984 -0.4370152065 2.3700461275
|  8> O 3.080432548 -0.210111233 1.32990102
|  9> P 2.8206901257 -0.4027463941 -0.2276736398
| 10> S 2.8419207993 -2.239781868 -0.9044909556
| 11> O 4.0228009592 0.3909525726 -0.8597600784
| 12> C 4.1734462 1.8280628846 -0.9564388258
| 13> C 3.961538955 2.545045926 0.3591583623
| 14> S 1.0548239803 0.7421745927 -0.6513871388
| 15> C 0.0140088345 -0.5703184253 -1.3320284912
| 16> S -1.1815290331 -1.2136687112 -0.1395202182
| 17> P -2.5025890865 0.4643473801 -0.2204552145
| 18> S -2.6917514366 1.3244396961 -1.9660075287
| 19> O -1.9531615461 1.4688206682 0.8630007987
| 20> C -1.6974018841 1.1264201364 2.2473463063
| 21> C -2.9124787977 1.3863358915 3.113866575
| 22> O -3.8473008226 -0.0742940871 0.4347391096
| 23> C -4.879669236 -0.7136183126 -0.3369733487
| 24> C -4.4397206134 -2.0524145412 -0.8929622984
| 25> H 1.0342854349 -2.1011638347 1.5257995425
| 26> H 2.4580544809 -2.5565388475 2.4621309439
| 27> H 0.9933619414 -2.0041591246 3.2922160557
| 28> H 2.6557557392 -0.1761192708 3.2816822117
| 29> H 1.2828836079 0.2577328687 2.2223755061
| 30> H 5.1960596936 1.945277592 -1.3184809273
| 31> H 3.4706586239 2.1882008885 -1.7123646043
| 32> H 4.2061271959 3.5950758746 0.2304087044
| 33> H 2.921309605 2.4629374074 0.6696711616
| 34> H 4.5993373476 2.1180040577 1.1284575791
| 35> H 0.6495058981 -1.4068187481 -1.6336847986
| 36> H -0.5279089057 -0.1484556646 -2.1790251498
| 37> H -1.3933675241 0.0768069965 2.3011306294
| 38> H -0.8656536371 1.7749847025 2.5296384168
| 39> H -3.2383805486 2.4164328308 2.9987700212
| 40> H -3.7278813134 0.7266547984 2.8310436322
| 41> H -2.6501916639 1.2072609856 4.1519586425
| 42> H -5.7030920954 -0.8234601995 0.3700999044
| 43> H -5.172536549 -0.0381925576 -1.1467048283
| 44> H -5.2922772237 -2.5498726664 -1.3440976108
| 45> H -3.6751934937 -1.9087209337 -1.6550463126
| 46> H -4.0337913216 -2.6777110195 -0.1016388945
| 47> *
| 48>
| 49>                          ****END OF INPUT****

CARTESIAN COORDINATES (ANGSTROEM)
---------------------------------
  C      1.618291   -1.867633    2.415430
  C      2.115374   -0.437015    2.370046
  O      3.080433   -0.210111    1.329901
  P      2.820690   -0.402746   -0.227674
  S      2.841921   -2.239782   -0.904491
  O      4.022801    0.390953   -0.859760
  C      4.173446    1.828063   -0.956439
  C      3.961539    2.545046    0.359158
  S      1.054824    0.742175   -0.651387
  C      0.014009   -0.570318   -1.332028
  S     -1.181529   -1.213669   -0.139520
  P     -2.502589    0.464347   -0.220455
  S     -2.691751    1.324440   -1.966008
  O     -1.953162    1.468821    0.863001
  C     -1.697402    1.126420    2.247346
  C     -2.912479    1.386336    3.113867
  O     -3.847301   -0.074294    0.434739
  C     -4.879669   -0.713618   -0.336973
  C     -4.439721   -2.052415   -0.892962
  H      1.034285   -2.101164    1.525800
  H      2.458054   -2.556539    2.462131
  H      0.993362   -2.004159    3.292216
  H      2.655756   -0.176119    3.281682
  H      1.282884    0.257733    2.222376
  H      5.196060    1.945278   -1.318481
  H      3.470659    2.188201   -1.712365
  H      4.206127    3.595076    0.230409
  H      2.921310    2.462937    0.669671
  H      4.599337    2.118004    1.128458
  H      0.649506   -1.406819   -1.633685
  H     -0.527909   -0.148456   -2.179025
  H     -1.393368    0.076807    2.301131
  H     -0.865654    1.774985    2.529638
  H     -3.238381    2.416433    2.998770
  H     -3.727881    0.726655    2.831044
  H     -2.650192    1.207261    4.151959
  H     -5.703092   -0.823460    0.370100
  H     -5.172537   -0.038193   -1.146705
  H     -5.292277   -2.549873   -1.344098
  H     -3.675193   -1.908721   -1.655046
  H     -4.033791   -2.677711   -0.101639

 Total Charge           Charge          ....    0
 Multiplicity           Mult            ....    1
 Number of Electrons    NEL             ....  202
 Basis Dimension        Dim             ....  334

ORBITAL ENERGIES
----------------

  NO   OCC          E(Eh)            E(eV)
   0   2.0000     -88.047197     -2395.8860
   1   2.0000     -88.046253     -2395.8603
   2   2.0000     -87.990948     -2394.3554
   3   2.0000     -87.984439     -2394.1783
   4   2.0000     -76.430825     -2079.7885
   5   2.0000     -76.427538     -2079.6990
   6   2.0000     -18.800502      -511.5877
   7   2.0000     -18.796582      -511.4810
   8   2.0000     -18.792912      -511.3811
   9   2.0000     -18.791283      -511.3368
  10   2.0000      -9.962168      -271.0844
  11   2.0000      -9.959327      -271.0071
  12   2.0000      -9.958488      -270.9842
  13   2.0000      -9.958370      -270.9810
  14   2.0000      -9.950937      -270.7788
  15   2.0000      -9.892939      -269.2006
  16   2.0000      -9.891502      -269.1614
  17   2.0000      -9.887839      -269.0618
  18   2.0000      -9.882964      -268.9291
  19   2.0000      -7.691637      -209.3001
  20   2.0000      -7.690598      -209.2718
  21   2.0000      -7.636176      -207.7909
  22   2.0000      -7.629673      -207.6140
  23   2.0000      -6.428509      -174.9286
  24   2.0000      -6.424748      -174.8263
  25   2.0000      -5.719259      -155.6290
  26   2.0000      -5.718336      -155.6038
  27   2.0000      -5.716247      -155.5470
  28   2.0000      -5.715036      -155.5140
  29   2.0000      -5.708863      -155.3460
  30   2.0000      -5.707933      -155.3207
  31   2.0000      -5.665158      -154.1568
  32   2.0000      -5.658767      -153.9829
  33   2.0000      -5.656671      -153.9258
  34   2.0000      -5.656364      -153.9175
  35   2.0000      -5.650440      -153.7563
  36   2.0000      -5.649456      -153.7295
  37   2.0000      -4.651393      -126.5708
  38   2.0000      -4.650182      -126.5379
  39   2.0000      -4.648743      -126.4987
  40   2.0000      -4.647362      -126.4611
  41   2.0000      -4.646822      -126.4465
  42   2.0000      -4.644922      -126.3948
  43   2.0000      -0.993883       -27.0449
  44   2.0000      -0.987638       -26.8750
  45   2.0000      -0.951867       -25.9016
  46   2.0000      -0.945948       -25.7406
  47   2.0000      -0.764740       -20.8096
  48   2.0000      -0.724997       -19.7282
  49   2.0000      -0.716338       -19.4926
  50   2.0000      -0.695602       -18.9283
  51   2.0000      -0.693171       -18.8621
  52   2.0000      -0.680769       -18.5247
  53   2.0000      -0.653485       -17.7822
  54   2.0000      -0.641167       -17.4470
  55   2.0000      -0.600741       -16.3470
  56   2.0000      -0.595016       -16.1912
  57   2.0000      -0.581739       -15.8299
  58   2.0000      -0.579862       -15.7788
  59   2.0000      -0.564452       -15.3595
  60   2.0000      -0.505834       -13.7644
  61   2.0000      -0.495878       -13.4935
  62   2.0000      -0.480807       -13.0834
  63   2.0000      -0.474650       -12.9159
  64   2.0000      -0.461452       -12.5568
  65   2.0000      -0.453848       -12.3498
  66   2.0000      -0.445084       -12.1114
  67   2.0000      -0.439843       -11.9687
  68   2.0000      -0.435327       -11.8458
  69   2.0000      -0.425209       -11.5705
  70   2.0000      -0.410893       -11.1810
  71   2.0000      -0.404838       -11.0162
  72   2.0000      -0.399489       -10.8707
  73   2.0000      -0.398273       -10.8376
  74   2.0000      -0.381807       -10.3895
  75   2.0000      -0.372887       -10.1468
  76   2.0000      -0.367125        -9.9900
  77   2.0000      -0.359772        -9.7899
  78   2.0000      -0.357075        -9.7165
  79   2.0000      -0.355517        -9.6741
  80   2.0000      -0.353892        -9.6299
  81   2.0000      -0.351479        -9.5642
  82   2.0000      -0.348254        -9.4765
  83   2.0000      -0.344584        -9.3766
  84   2.0000      -0.338541        -9.2122
  85   2.0000      -0.322954        -8.7880
  86   2.0000      -0.315633        -8.5888
  87   2.0000      -0.302147        -8.2218
  88   2.0000      -0.297586        -8.0977
  89   2.0000      -0.296689        -8.0733
  90   2.0000      -0.287958        -7.8357
  91   2.0000      -0.278953        -7.5907
  92   2.0000      -0.276041        -7.5115
  93   2.0000      -0.267949        -7.2913
  94   2.0000      -0.259976        -7.0743
  95   2.0000      -0.239545        -6.5184
  96   2.0000      -0.222148        -6.0450
  97   2.0000      -0.213796        -5.8177
  98   2.0000      -0.206145        -5.6095
  99   2.0000      -0.204113        -5.5542
 100   2.0000      -0.197169        -5.3652
 101   0.0000      -0.046561        -1.2670
 102   0.0000      -0.033344        -0.9073
 103   0.0000      -0.011884        -0.3234
 104   0.0000       0.000357         0.0097
 105   0.0000       0.010360         0.2819

MULLIKEN ATOMIC CHARGES
-----------------------
   0 C :   -0.310754
   1 C :   -0.024462
   2 O :   -0.371054
   3 P :    0.595833
   4 S :   -0.302817
   5 O :   -0.357275
   6 C :   -0.000661
   7 C :   -0.320798
   8 S :   -0.117267
   9 C :   -0.358502
  10 S :   -0.098861
  11 P :    0.604578
  12 S :   -0.308612
  13 O :   -0.349788
  14 C :   -0.042869
  15 C :   -0.279326
  16 O :   -0.381767
  17 C :   -0.002770
  18 C :   -0.318320
  19 H :    0.130407
  20 H :    0.125280
  21 H :    0.105491
  22 H :    0.105585
  23 H :    0.115097
  24 H :    0.113926
  25 H :    0.116424
  26 H :    0.117938
  27 H :    0.123507
  28 H :    0.127328
  29 H :    0.195245
  30 H :    0.197464
  31 H :    0.111738
  32 H :    0.120912
  33 H :    0.120336
  34 H :    0.123637
  35 H :    0.108794
  36 H :    0.105961
  37 H :    0.115646
  38 H :    0.116124
  39 H :    0.130643
  40 H :    0.118009
Sum of atomic charges:   -0.0000000

LOEWDIN ATOMIC CHARGES
----------------------
   0 C :   -0.370041
   1 C :   -0.118963
   2 O :   -0.241870
   3 P :    0.568280
   4 S :   -0.297196
   5 O :   -0.234371
   6 C :   -0.111432
   7 C :   -0.367744
   8 S :    0.069488
   9 C :   -0.492358
  10 S :    0.086547
  11 P :    0.570549
  12 S :   -0.303263
  13 O :   -0.233607
  14 C :   -0.119001
  15 C :   -0.360104
  16 O :   -0.246308
  17 C :   -0.116790
  18 C :   -0.370654
  19 H :    0.113400
  20 H :    0.130628
  21 H :    0.126982
  22 H :    0.119692
  23 H :    0.103637
  24 H :    0.124590
  25 H :    0.113780
  26 H :    0.133506
  27 H :    0.116986
  28 H :    0.130487
  29 H :    0.126392
  30 H :    0.128236
  31 H :    0.102553
  32 H :    0.120113
  33 H :    0.129686
  34 H :    0.126606
  35 H :    0.129405
  36 H :    0.118854
  37 H :    0.113995
  38 H :    0.132690
  39 H :    0.122702
  40 H :    0.123918

  Mayer bond orders larger than 0.100000
B(  0-C ,  1-C ) :   1.1671 B(  0-C , 19-H ) :   0.9253 B(  0-C , 20-H ) :   0.9417
B(  0-C , 21-H ) :   0.9351 B(  1-C ,  2-O ) :   0.9170 B(  1-C , 22-H ) :   0.9330
B(  1-C , 23-H ) :   0.9122 B(  2-O ,  3-P ) :   1.0866 B(  3-P ,  4-S ) :   1.6387
B(  3-P ,  5-O ) :   1.1480 B(  3-P ,  8-S ) :   0.9313 B(  4-S ,  8-S ) :   0.1154
B(  4-S , 29-H ) :   0.1219 B(  5-O ,  6-C ) :   0.9038 B(  6-C ,  7-C ) :   1.1672
B(  6-C , 24-H ) :   0.9344 B(  6-C , 25-H ) :   0.9250 B(  7-C , 26-H ) :   0.9345
B(  7-C , 27-H ) :   0.9392 B(  7-C , 28-H ) :   0.9418 B(  8-S ,  9-C ) :   1.0068
B(  9-C , 10-S ) :   1.0065 B(  9-C , 29-H ) :   0.8465 B(  9-C , 30-H ) :   0.8656
B( 10-S , 11-P ) :   0.9448 B( 10-S , 12-S ) :   0.1084 B( 11-P , 12-S ) :   1.6377
B( 11-P , 13-O ) :   1.1423 B( 11-P , 16-O ) :   1.0870 B( 13-O , 14-C ) :   0.8985
B( 14-C , 15-C ) :   1.1563 B( 14-C , 31-H ) :   0.9062 B( 14-C , 32-H ) :   0.9289
B( 15-C , 33-H ) :   0.9457 B( 15-C , 34-H ) :   0.9389 B( 15-C , 35-H ) :   0.9395
B( 16-O , 17-C ) :   0.9029 B( 17-C , 18-C ) :   1.1661 B( 17-C , 36-H ) :   0.9337
B( 17-C , 37-H ) :   0.9181 B( 18-C , 38-H ) :   0.9370 B( 18-C , 39-H ) :   0.9351
B( 18-C , 40-H ) :   0.9439

Dispersion correction           -0.064623842
FINAL SINGLE POINT ENERGY     -2929.516776915739

DIPOLE MOMENT
-------------

Method             : SCF
Type of density    : Electron Density
Multiplicity       :   1
Irrep              :   0
Energy             : -2929.6375556090233658 Eh
Relativity type    :
Basis              : AO
                                X                 Y                 Z
Electronic contribution:      6.068743636      -1.676002358     -16.582484176
Nuclear contribution   :     -6.657313144       2.239554832      18.268094297
                        -----------------------------------------
Total Dipole Moment    :     -0.588569508       0.563552474       1.685610121
                        -----------------------------------------
Magnitude (a.u.)       :      1.872241154
Magnitude (Debye)      :      4.758858820

Rotational constants in cm-1:             0.012450             0.004477             0.004402
Rotational constants in MHz :           373.238142           134.214855           131.957718

                             ****ORCA TERMINATED NORMALLY****
TOTAL RUN TIME: 0 days 0 hours 0 minutes 21 seconds 281 msec
