                         Program Version 6.0.0  -   RELEASE  -
|  1> ! pbe def2-sv(p) def2/J RI DEFGRID1 loosescf d4 GCP(DFT/SV(P)) printgap
|  2> %output
|  3>     printlevel normal
|  4> end
|  5> * xyz 0 1
|  6> C 2.7357045046 0.4988169888 -3.3839126284
|  7> C 2.8553218587 0.8984990493 -1.9287816037
|  8> O 2.5217031228 -0.2531099627 -1.1262547593
|  9> P 2.1947744297 -0.1620459755 0.4196043367
| 10> S 1.1135561511 1.4065045635 0.9219294053
| 11> O 3.6544164054 -0.1821561691 1.0474095475
| 12> C 3.9954628654 -0.5851439976 2.3890550632
| 13> C 3.0718867576 -0.0067858698 3.4399944597
| 14> S 1.4778061516 -2.1002430813 0.7800827102
| 15> C -0.1286462721 -2.0182181865 -0.0583103274
| 16> S -1.3960829828 -1.093759128 0.8593113706
| 17> P -1.8618989632 0.4397668038 -0.5504290464
| 18> S -0.7571589699 0.4760383544 -2.1661355779
| 19> O -1.9421286046 1.8229314973 0.1799352661
| 20> C -2.2914080794 2.0591130235 1.5656266725
| 21> C -3.6031423525 1.4173911507 1.9586380961
| 22> O -3.4017079333 0.1762703867 -0.8735211076
| 23> C -3.8229558793 -0.9592698174 -1.6495351164
| 24> C -5.269860616 -0.7434979742 -2.0450486648
| 25> H 3.3687333973 -0.3603554271 -3.5843816735
| 26> H 1.7034038124 0.2435916206 -3.612151122
| 27> H 3.0428784574 1.3319819789 -4.0071944005
| 28> H 2.1639203555 1.7112849454 -1.6801779441
| 29> H 3.8733680082 1.2028362685 -1.6739302975
| 30> H 3.980437284 -1.6779254692 2.4196037825
| 31> H 5.018095645 -0.2242585723 2.5134143715
| 32> H 3.4250067715 -0.2939193789 4.4251904676
| 33> H 3.0444882151 1.0782043932 3.3681263638
| 34> H 2.0603968419 -0.3876288978 3.3007376434
| 35> H -0.4617306828 -3.0496600426 -0.1374204571
| 36> H -0.0034266494 -1.5587957189 -1.043351567
| 37> H -1.4639720878 1.6983008617 2.1826654928
| 38> H -2.3361999741 3.14763848 1.6229016334
| 39> H -3.5208725615 0.3322003242 1.917116302
| 40> H -3.8486774869 1.7128537231 2.9739679283
| 41> H -4.3938036494 1.7394625949 1.2858889281
| 42> H -3.1752169093 -1.0418338906 -2.529416451
| 43> H -3.7081835128 -1.8562825902 -1.0336741333
| 44> H -5.3624272523 0.1641866322 -2.6347170475
| 45> H -5.6083124168 -1.5898394817 -2.6335241198
| 46> H -5.887885898 -0.6509732239 -1.1569414666
| 47> *
| 48>
| 49>                          ****END OF INPUT****

CARTESIAN COORDINATES (ANGSTROEM)
---------------------------------
  C      2.735705    0.498817   -3.383913
  C      2.855322    0.898499   -1.928782
  O      2.521703   -0.253110   -1.126255
  P      2.194774   -0.162046    0.419604
  S      1.113556    1.406505    0.921929
  O      3.654416   -0.182156    1.047410
  C      3.995463   -0.585144    2.389055
  C      3.071887   -0.006786    3.439994
  S      1.477806   -2.100243    0.780083
  C     -0.128646   -2.018218   -0.058310
  S     -1.396083   -1.093759    0.859311
  P     -1.861899    0.439767   -0.550429
  S     -0.757159    0.476038   -2.166136
  O     -1.942129    1.822931    0.179935
  C     -2.291408    2.059113    1.565627
  C     -3.603142    1.417391    1.958638
  O     -3.401708    0.176270   -0.873521
  C     -3.822956   -0.959270   -1.649535
  C     -5.269861   -0.743498   -2.045049
  H      3.368733   -0.360355   -3.584382
  H      1.703404    0.243592   -3.612151
  H      3.042878    1.331982   -4.007194
  H      2.163920    1.711285   -1.680178
  H      3.873368    1.202836   -1.673930
  H      3.980437   -1.677925    2.419604
  H      5.018096   -0.224259    2.513414
  H      3.425007   -0.293919    4.425190
  H      3.044488    1.078204    3.368126
  H      2.060397   -0.387629    3.300738
  H     -0.461731   -3.049660   -0.137420
  H     -0.003427   -1.558796   -1.043352
  H     -1.463972    1.698301    2.182665
  H     -2.336200    3.147638    1.622902
  H     -3.520873    0.332200    1.917116
  H     -3.848677    1.712854    2.973968
  H     -4.393804    1.739463    1.285889
  H     -3.175217   -1.041834   -2.529416
  H     -3.708184   -1.856283   -1.033674
  H     -5.362427    0.164187   -2.634717
  H     -5.608312   -1.589839   -2.633524
  H     -5.887886   -0.650973   -1.156941

 Total Charge           Charge          ....    0
 Multiplicity           Mult            ....    1
 Number of Electrons    NEL             ....  202
 Basis Dimension        Dim             ....  334

ORBITAL ENERGIES
----------------

  NO   OCC          E(Eh)            E(eV)
   0   2.0000     -88.043835     -2395.7946
   1   2.0000     -88.042009     -2395.7449
   2   2.0000     -87.980726     -2394.0773
   3   2.0000     -87.975841     -2393.9443
   4   2.0000     -76.423305     -2079.5839
   5   2.0000     -76.420557     -2079.5091
   6   2.0000     -18.789346      -511.2841
   7   2.0000     -18.785086      -511.1682
   8   2.0000     -18.783098      -511.1141
   9   2.0000     -18.778616      -510.9921
  10   2.0000      -9.957232      -270.9501
  11   2.0000      -9.956119      -270.9198
  12   2.0000      -9.953013      -270.8352
  13   2.0000      -9.947839      -270.6945
  14   2.0000      -9.938244      -270.4334
  15   2.0000      -9.887872      -269.0627
  16   2.0000      -9.885760      -269.0052
  17   2.0000      -9.881153      -268.8798
  18   2.0000      -9.873376      -268.6682
  19   2.0000      -7.689553      -209.2434
  20   2.0000      -7.686678      -209.1651
  21   2.0000      -7.625717      -207.5063
  22   2.0000      -7.620522      -207.3649
  23   2.0000      -6.420372      -174.7072
  24   2.0000      -6.417924      -174.6406
  25   2.0000      -5.717345      -155.5769
  26   2.0000      -5.714564      -155.5012
  27   2.0000      -5.713946      -155.4844
  28   2.0000      -5.711177      -155.4090
  29   2.0000      -5.706596      -155.2844
  30   2.0000      -5.703745      -155.2068
  31   2.0000      -5.654573      -153.8688
  32   2.0000      -5.649406      -153.7282
  33   2.0000      -5.646674      -153.6538
  34   2.0000      -5.645505      -153.6220
  35   2.0000      -5.641184      -153.5044
  36   2.0000      -5.640709      -153.4915
  37   2.0000      -4.642999      -126.3424
  38   2.0000      -4.642242      -126.3218
  39   2.0000      -4.640740      -126.2809
  40   2.0000      -4.640568      -126.2763
  41   2.0000      -4.639949      -126.2594
  42   2.0000      -4.638103      -126.2092
  43   2.0000      -0.983125       -26.7522
  44   2.0000      -0.978152       -26.6169
  45   2.0000      -0.939975       -25.5780
  46   2.0000      -0.936104       -25.4727
  47   2.0000      -0.761790       -20.7294
  48   2.0000      -0.719052       -19.5664
  49   2.0000      -0.708098       -19.2683
  50   2.0000      -0.689776       -18.7698
  51   2.0000      -0.683629       -18.6025
  52   2.0000      -0.672129       -18.2896
  53   2.0000      -0.646828       -17.6011
  54   2.0000      -0.632283       -17.2053
  55   2.0000      -0.595930       -16.2161
  56   2.0000      -0.585079       -15.9208
  57   2.0000      -0.572576       -15.5806
  58   2.0000      -0.563409       -15.3311
  59   2.0000      -0.556872       -15.1533
  60   2.0000      -0.501520       -13.6470
  61   2.0000      -0.495855       -13.4929
  62   2.0000      -0.473278       -12.8785
  63   2.0000      -0.464939       -12.6516
  64   2.0000      -0.453258       -12.3338
  65   2.0000      -0.449614       -12.2346
  66   2.0000      -0.433775       -11.8036
  67   2.0000      -0.432506       -11.7691
  68   2.0000      -0.424314       -11.5462
  69   2.0000      -0.416449       -11.3322
  70   2.0000      -0.409959       -11.1555
  71   2.0000      -0.404734       -11.0134
  72   2.0000      -0.394985       -10.7481
  73   2.0000      -0.380952       -10.3662
  74   2.0000      -0.373634       -10.1671
  75   2.0000      -0.363079        -9.8799
  76   2.0000      -0.360244        -9.8027
  77   2.0000      -0.356689        -9.7060
  78   2.0000      -0.351163        -9.5556
  79   2.0000      -0.347759        -9.4630
  80   2.0000      -0.345314        -9.3965
  81   2.0000      -0.341030        -9.2799
  82   2.0000      -0.338366        -9.2074
  83   2.0000      -0.335457        -9.1283
  84   2.0000      -0.325886        -8.8678
  85   2.0000      -0.311380        -8.4731
  86   2.0000      -0.307435        -8.3657
  87   2.0000      -0.296085        -8.0569
  88   2.0000      -0.294732        -8.0201
  89   2.0000      -0.286579        -7.7982
  90   2.0000      -0.284946        -7.7538
  91   2.0000      -0.272733        -7.4215
  92   2.0000      -0.259426        -7.0593
  93   2.0000      -0.258149        -7.0246
  94   2.0000      -0.254360        -6.9215
  95   2.0000      -0.242539        -6.5998
  96   2.0000      -0.219716        -5.9788
  97   2.0000      -0.202716        -5.5162
  98   2.0000      -0.201272        -5.4769
  99   2.0000      -0.189246        -5.1497
 100   2.0000      -0.179650        -4.8885
 101   0.0000      -0.039905        -1.0859
 102   0.0000      -0.031807        -0.8655
 103   0.0000      -0.012720        -0.3461
 104   0.0000      -0.000195        -0.0053
 105   0.0000       0.021281         0.5791

MULLIKEN ATOMIC CHARGES
-----------------------
   0 C :   -0.288910
   1 C :   -0.002586
   2 O :   -0.368538
   3 P :    0.613468
   4 S :   -0.328107
   5 O :   -0.379630
   6 C :   -0.006288
   7 C :   -0.317057
   8 S :   -0.101795
   9 C :   -0.335996
  10 S :   -0.111545
  11 P :    0.609189
  12 S :   -0.314015
  13 O :   -0.350214
  14 C :   -0.004788
  15 C :   -0.318900
  16 O :   -0.374816
  17 C :   -0.005379
  18 C :   -0.279873
  19 H :    0.109324
  20 H :    0.131193
  21 H :    0.105968
  22 H :    0.118396
  23 H :    0.097017
  24 H :    0.111433
  25 H :    0.109244
  26 H :    0.109597
  27 H :    0.129226
  28 H :    0.126118
  29 H :    0.181052
  30 H :    0.199023
  31 H :    0.125928
  32 H :    0.111570
  33 H :    0.126007
  34 H :    0.115833
  35 H :    0.125140
  36 H :    0.099596
  37 H :    0.089704
  38 H :    0.121293
  39 H :    0.109507
  40 H :    0.113612
Sum of atomic charges:    0.0000000

LOEWDIN ATOMIC CHARGES
----------------------
   0 C :   -0.353214
   1 C :   -0.117347
   2 O :   -0.242776
   3 P :    0.566772
   4 S :   -0.311195
   5 O :   -0.250592
   6 C :   -0.111197
   7 C :   -0.373678
   8 S :    0.079703
   9 C :   -0.479111
  10 S :    0.065882
  11 P :    0.576884
  12 S :   -0.296254
  13 O :   -0.220959
  14 C :   -0.112436
  15 C :   -0.367807
  16 O :   -0.251152
  17 C :   -0.125671
  18 C :   -0.350237
  19 H :    0.123685
  20 H :    0.123863
  21 H :    0.128665
  22 H :    0.110961
  23 H :    0.109410
  24 H :    0.110019
  25 H :    0.121566
  26 H :    0.129050
  27 H :    0.129514
  28 H :    0.120246
  29 H :    0.137094
  30 H :    0.124079
  31 H :    0.111879
  32 H :    0.124425
  33 H :    0.116108
  34 H :    0.132930
  35 H :    0.129652
  36 H :    0.105287
  37 H :    0.102064
  38 H :    0.129242
  39 H :    0.129489
  40 H :    0.125157

  Mayer bond orders larger than 0.100000
B(  0-C ,  1-C ) :   1.1643 B(  0-C , 19-H ) :   0.9494 B(  0-C , 20-H ) :   0.9439
B(  0-C , 21-H ) :   0.9414 B(  1-C ,  2-O ) :   0.8933 B(  1-C , 22-H ) :   0.9069
B(  1-C , 23-H ) :   0.9312 B(  2-O ,  3-P ) :   1.1314 B(  3-P ,  4-S ) :   1.6279
B(  3-P ,  5-O ) :   1.1053 B(  3-P ,  8-S ) :   0.9624 B(  4-S ,  8-S ) :   0.1185
B(  5-O ,  6-C ) :   0.9170 B(  6-C ,  7-C ) :   1.1653 B(  6-C , 24-H ) :   0.9313
B(  6-C , 25-H ) :   0.9347 B(  7-C , 26-H ) :   0.9332 B(  7-C , 27-H ) :   0.9393
B(  7-C , 28-H ) :   0.9321 B(  8-S ,  9-C ) :   0.9972 B(  9-C , 10-S ) :   1.0042
B(  9-C , 29-H ) :   0.9118 B(  9-C , 30-H ) :   0.8428 B( 10-S , 11-P ) :   0.9348
B( 10-S , 12-S ) :   0.1149 B( 11-P , 12-S ) :   1.6077 B( 11-P , 13-O ) :   1.1666
B( 11-P , 16-O ) :   1.0731 B( 12-S , 30-H ) :   0.1198 B( 13-O , 14-C ) :   0.8923
B( 14-C , 15-C ) :   1.1674 B( 14-C , 31-H ) :   0.9150 B( 14-C , 32-H ) :   0.9345
B( 15-C , 33-H ) :   0.9366 B( 15-C , 34-H ) :   0.9347 B( 15-C , 35-H ) :   0.9411
B( 16-O , 17-C ) :   0.9158 B( 17-C , 18-C ) :   1.1609 B( 17-C , 36-H ) :   0.9085
B( 17-C , 37-H ) :   0.9222 B( 18-C , 38-H ) :   0.9512 B( 18-C , 39-H ) :   0.9424
B( 18-C , 40-H ) :   0.9517

Dispersion correction           -0.066580085
FINAL SINGLE POINT ENERGY     -2929.512174879810

DIPOLE MOMENT
-------------

Method             : SCF
Type of density    : Electron Density
Multiplicity       :   1
Irrep              :   0
Energy             : -2929.6300183397488581 Eh
Relativity type    :
Basis              : AO
                                X                 Y                 Z
Electronic contribution:      7.564785716      -2.071255559       0.346645581
Nuclear contribution   :     -7.887573362       1.380730242       0.359264723
                        -----------------------------------------
Total Dipole Moment    :     -0.322787646      -0.690525317       0.705910304
                        -----------------------------------------
Magnitude (a.u.)       :      1.038906365
Magnitude (Debye)      :      2.640690122

Rotational constants in cm-1:             0.011955             0.005403             0.004803
Rotational constants in MHz :           358.409333           161.976547           143.999810

                             ****ORCA TERMINATED NORMALLY****
TOTAL RUN TIME: 0 days 0 hours 0 minutes 21 seconds 36 msec
