                         Program Version 6.0.0  -   RELEASE  -
|  1> ! pbe def2-sv(p) def2/J RI DEFGRID1 loosescf d4 GCP(DFT/SV(P)) printgap
|  2> %output
|  3>     printlevel normal
|  4> end
|  5> * xyz 0 1
|  6> C 5.3605302653 1.1067953673 0.3687677995
|  7> C 4.3858552956 1.693060819 -0.6326500459
|  8> O 3.3957323288 0.7294589699 -1.0396190104
|  9> P 2.2630631221 0.2123511186 -0.0520982039
| 10> S 1.6724306455 1.5407187755 1.2649292511
| 11> O 2.814162104 -1.1435248721 0.5733486519
| 12> C 2.8906065783 -1.4385580007 1.9841981209
| 13> C 1.9514076581 -2.5696859487 2.3511317688
| 14> S 0.9966457928 -0.4500083212 -1.6034697968
| 15> C 0.0575191045 -1.7121490434 -0.689105283
| 16> S -0.9145493477 -1.038558555 0.6754218394
| 17> P -2.3583243036 -0.0189543134 -0.5197576143
| 18> S -2.7526095959 -0.8440587737 -2.2477966632
| 19> O -1.831697161 1.4496090772 -0.7504027851
| 20> C -1.6023595894 2.4048550273 0.3116022987
| 21> C -2.7812096477 3.3454609431 0.4446208141
| 22> O -3.5500937949 0.2130646778 0.5035311021
| 23> C -4.1445054317 -0.8063147262 1.3313395606
| 24> C -4.6095629792 -2.010093413 0.5398800327
| 25> H 6.1537749851 1.8224736153 0.5606273673
| 26> H 4.8445804552 0.8920178748 1.3040544604
| 27> H 5.7894303765 0.1871989283 -0.0210234686
| 28> H 4.8795544687 1.9723842144 -1.564368734
| 29> H 3.8728080568 2.5623988736 -0.2081144704
| 30> H 3.930872885 -1.7170539608 2.1636647794
| 31> H 2.6475572183 -0.5315114984 2.5480538765
| 32> H 0.9149449697 -2.2652842383 2.2146682324
| 33> H 2.1549754367 -3.4434438829 1.7380065269
| 34> H 2.105725352 -2.8258671487 3.3943197775
| 35> H 0.7391133484 -2.4485936936 -0.2716725781
| 36> H -0.617775679 -2.1588584648 -1.4208480278
| 37> H -1.4091409568 1.8698391552 1.2457804722
| 38> H -0.6965655379 2.9388693895 0.0163604221
| 39> H -2.9653190475 3.843817859 -0.503246829
| 40> H -3.6727597966 2.7932461978 0.7296683967
| 41> H -2.556414814 4.087206157 1.2044888983
| 42> H -3.4116642853 -1.0992156606 2.0882895395
| 43> H -4.9827321853 -0.2930685288 1.8058060153
| 44> H -3.7574093055 -2.5191076756 0.09204807
| 45> H -5.1261085794 -2.697789455 1.2016081155
| 46> H -5.2815418312 -1.7031313108 -0.2580577733
| 47> *
| 48>
| 49>                          ****END OF INPUT****

CARTESIAN COORDINATES (ANGSTROEM)
---------------------------------
  C      5.360530    1.106795    0.368768
  C      4.385855    1.693061   -0.632650
  O      3.395732    0.729459   -1.039619
  P      2.263063    0.212351   -0.052098
  S      1.672431    1.540719    1.264929
  O      2.814162   -1.143525    0.573349
  C      2.890607   -1.438558    1.984198
  C      1.951408   -2.569686    2.351132
  S      0.996646   -0.450008   -1.603470
  C      0.057519   -1.712149   -0.689105
  S     -0.914549   -1.038559    0.675422
  P     -2.358324   -0.018954   -0.519758
  S     -2.752610   -0.844059   -2.247797
  O     -1.831697    1.449609   -0.750403
  C     -1.602360    2.404855    0.311602
  C     -2.781210    3.345461    0.444621
  O     -3.550094    0.213065    0.503531
  C     -4.144505   -0.806315    1.331340
  C     -4.609563   -2.010093    0.539880
  H      6.153775    1.822474    0.560627
  H      4.844580    0.892018    1.304054
  H      5.789430    0.187199   -0.021023
  H      4.879554    1.972384   -1.564369
  H      3.872808    2.562399   -0.208114
  H      3.930873   -1.717054    2.163665
  H      2.647557   -0.531511    2.548054
  H      0.914945   -2.265284    2.214668
  H      2.154975   -3.443444    1.738007
  H      2.105725   -2.825867    3.394320
  H      0.739113   -2.448594   -0.271673
  H     -0.617776   -2.158858   -1.420848
  H     -1.409141    1.869839    1.245780
  H     -0.696566    2.938869    0.016360
  H     -2.965319    3.843818   -0.503247
  H     -3.672760    2.793246    0.729668
  H     -2.556415    4.087206    1.204489
  H     -3.411664   -1.099216    2.088290
  H     -4.982732   -0.293069    1.805806
  H     -3.757409   -2.519108    0.092048
  H     -5.126109   -2.697789    1.201608
  H     -5.281542   -1.703131   -0.258058

 Total Charge           Charge          ....    0
 Multiplicity           Mult            ....    1
 Number of Electrons    NEL             ....  202
 Basis Dimension        Dim             ....  334

ORBITAL ENERGIES
----------------

  NO   OCC          E(Eh)            E(eV)
   0   2.0000     -88.044488     -2395.8123
   1   2.0000     -88.038570     -2395.6513
   2   2.0000     -87.989083     -2394.3047
   3   2.0000     -87.980992     -2394.0845
   4   2.0000     -76.427048     -2079.6857
   5   2.0000     -76.424598     -2079.6190
   6   2.0000     -18.797833      -511.5150
   7   2.0000     -18.796472      -511.4780
   8   2.0000     -18.790589      -511.3179
   9   2.0000     -18.782955      -511.1102
  10   2.0000      -9.960091      -271.0278
  11   2.0000      -9.957239      -270.9502
  12   2.0000      -9.955608      -270.9059
  13   2.0000      -9.952834      -270.8304
  14   2.0000      -9.941741      -270.5285
  15   2.0000      -9.893609      -269.2188
  16   2.0000      -9.889110      -269.0964
  17   2.0000      -9.884156      -268.9616
  18   2.0000      -9.877203      -268.7724
  19   2.0000      -7.688863      -209.2246
  20   2.0000      -7.683960      -209.0912
  21   2.0000      -7.633981      -207.7312
  22   2.0000      -7.626337      -207.5232
  23   2.0000      -6.424739      -174.8260
  24   2.0000      -6.421790      -174.7458
  25   2.0000      -5.716529      -155.5547
  26   2.0000      -5.713400      -155.4695
  27   2.0000      -5.712082      -155.4337
  28   2.0000      -5.708558      -155.3378
  29   2.0000      -5.706148      -155.2722
  30   2.0000      -5.700536      -155.1195
  31   2.0000      -5.662723      -154.0905
  32   2.0000      -5.655420      -153.8918
  33   2.0000      -5.654560      -153.8684
  34   2.0000      -5.654323      -153.8620
  35   2.0000      -5.646896      -153.6599
  36   2.0000      -5.646340      -153.6447
  37   2.0000      -4.647434      -126.4631
  38   2.0000      -4.646389      -126.4347
  39   2.0000      -4.645193      -126.4021
  40   2.0000      -4.644670      -126.3879
  41   2.0000      -4.643771      -126.3634
  42   2.0000      -4.641819      -126.3103
  43   2.0000      -0.986553       -26.8455
  44   2.0000      -0.986129       -26.8339
  45   2.0000      -0.948604       -25.8128
  46   2.0000      -0.940964       -25.6049
  47   2.0000      -0.763864       -20.7858
  48   2.0000      -0.723810       -19.6959
  49   2.0000      -0.709617       -19.3097
  50   2.0000      -0.693061       -18.8592
  51   2.0000      -0.688322       -18.7302
  52   2.0000      -0.671076       -18.2609
  53   2.0000      -0.652478       -17.7548
  54   2.0000      -0.639064       -17.3898
  55   2.0000      -0.601392       -16.3647
  56   2.0000      -0.589374       -16.0377
  57   2.0000      -0.578850       -15.7513
  58   2.0000      -0.568134       -15.4597
  59   2.0000      -0.563761       -15.3407
  60   2.0000      -0.503788       -13.7088
  61   2.0000      -0.496664       -13.5149
  62   2.0000      -0.480162       -13.0659
  63   2.0000      -0.469745       -12.7824
  64   2.0000      -0.461525       -12.5587
  65   2.0000      -0.445765       -12.1299
  66   2.0000      -0.443219       -12.0606
  67   2.0000      -0.433809       -11.8045
  68   2.0000      -0.429506       -11.6875
  69   2.0000      -0.410937       -11.1822
  70   2.0000      -0.404810       -11.0155
  71   2.0000      -0.399885       -10.8814
  72   2.0000      -0.398906       -10.8548
  73   2.0000      -0.390904       -10.6370
  74   2.0000      -0.380987       -10.3672
  75   2.0000      -0.375989       -10.2312
  76   2.0000      -0.365197        -9.9375
  77   2.0000      -0.361405        -9.8343
  78   2.0000      -0.354618        -9.6496
  79   2.0000      -0.351610        -9.5678
  80   2.0000      -0.346806        -9.4371
  81   2.0000      -0.346730        -9.4350
  82   2.0000      -0.344491        -9.3741
  83   2.0000      -0.336111        -9.1460
  84   2.0000      -0.334236        -9.0950
  85   2.0000      -0.323497        -8.8028
  86   2.0000      -0.314705        -8.5635
  87   2.0000      -0.298640        -8.1264
  88   2.0000      -0.296970        -8.0810
  89   2.0000      -0.284822        -7.7504
  90   2.0000      -0.281695        -7.6653
  91   2.0000      -0.279429        -7.6037
  92   2.0000      -0.273548        -7.4436
  93   2.0000      -0.266907        -7.2629
  94   2.0000      -0.259017        -7.0482
  95   2.0000      -0.239777        -6.5247
  96   2.0000      -0.217968        -5.9312
  97   2.0000      -0.207285        -5.6405
  98   2.0000      -0.201031        -5.4703
  99   2.0000      -0.199013        -5.4154
 100   2.0000      -0.194225        -5.2851
 101   0.0000      -0.048341        -1.3154
 102   0.0000      -0.025398        -0.6911
 103   0.0000      -0.005465        -0.1487
 104   0.0000       0.001615         0.0440
 105   0.0000       0.013808         0.3757

MULLIKEN ATOMIC CHARGES
-----------------------
   0 C :   -0.317908
   1 C :   -0.003668
   2 O :   -0.374564
   3 P :    0.623679
   4 S :   -0.329850
   5 O :   -0.382731
   6 C :   -0.022206
   7 C :   -0.307541
   8 S :   -0.043466
   9 C :   -0.378551
  10 S :   -0.127035
  11 P :    0.619546
  12 S :   -0.310397
  13 O :   -0.345569
  14 C :   -0.016043
  15 C :   -0.283253
  16 O :   -0.381261
  17 C :   -0.008843
  18 C :   -0.308309
  19 H :    0.114949
  20 H :    0.122220
  21 H :    0.119404
  22 H :    0.108328
  23 H :    0.112621
  24 H :    0.105874
  25 H :    0.116399
  26 H :    0.132584
  27 H :    0.122124
  28 H :    0.114840
  29 H :    0.190774
  30 H :    0.195676
  31 H :    0.102884
  32 H :    0.116652
  33 H :    0.116976
  34 H :    0.114690
  35 H :    0.107392
  36 H :    0.111929
  37 H :    0.109289
  38 H :    0.123128
  39 H :    0.110867
  40 H :    0.128371
Sum of atomic charges:   -0.0000000

LOEWDIN ATOMIC CHARGES
----------------------
   0 C :   -0.365583
   1 C :   -0.118851
   2 O :   -0.246809
   3 P :    0.565355
   4 S :   -0.310164
   5 O :   -0.249698
   6 C :   -0.121963
   7 C :   -0.361299
   8 S :    0.111481
   9 C :   -0.483939
  10 S :    0.065605
  11 P :    0.572255
  12 S :   -0.304290
  13 O :   -0.227661
  14 C :   -0.118080
  15 C :   -0.359416
  16 O :   -0.243250
  17 C :   -0.114773
  18 C :   -0.369250
  19 H :    0.132053
  20 H :    0.120611
  21 H :    0.126979
  22 H :    0.120525
  23 H :    0.110278
  24 H :    0.116422
  25 H :    0.106905
  26 H :    0.116589
  27 H :    0.125865
  28 H :    0.133874
  29 H :    0.130672
  30 H :    0.129875
  31 H :    0.102678
  32 H :    0.118147
  33 H :    0.127553
  34 H :    0.122945
  35 H :    0.128271
  36 H :    0.107573
  37 H :    0.121134
  38 H :    0.120234
  39 H :    0.129917
  40 H :    0.131232

  Mayer bond orders larger than 0.100000
B(  0-C ,  1-C ) :   1.1602 B(  0-C , 19-H ) :   0.9389 B(  0-C , 20-H ) :   0.9341
B(  0-C , 21-H ) :   0.9463 B(  1-C ,  2-O ) :   0.9136 B(  1-C , 22-H ) :   0.9341
B(  1-C , 23-H ) :   0.9146 B(  2-O ,  3-P ) :   1.1196 B(  3-P ,  4-S ) :   1.6016
B(  3-P ,  5-O ) :   1.0910 B(  3-P ,  8-S ) :   0.9832 B(  4-S ,  8-S ) :   0.1027
B(  5-O ,  6-C ) :   0.9080 B(  6-C ,  7-C ) :   1.1699 B(  6-C , 24-H ) :   0.9307
B(  6-C , 25-H ) :   0.8957 B(  7-C , 26-H ) :   0.9289 B(  7-C , 27-H ) :   0.9414
B(  7-C , 28-H ) :   0.9363 B(  8-S ,  9-C ) :   1.0032 B(  9-C , 10-S ) :   1.0121
B(  9-C , 29-H ) :   0.8920 B(  9-C , 30-H ) :   0.8713 B( 10-S , 11-P ) :   0.9256
B( 10-S , 12-S ) :   0.1071 B( 11-P , 12-S ) :   1.6422 B( 11-P , 13-O ) :   1.1537
B( 11-P , 16-O ) :   1.0804 B( 13-O , 14-C ) :   0.8877 B( 14-C , 15-C ) :   1.1561
B( 14-C , 31-H ) :   0.9173 B( 14-C , 32-H ) :   0.9277 B( 15-C , 33-H ) :   0.9466
B( 15-C , 34-H ) :   0.9430 B( 15-C , 35-H ) :   0.9414 B( 16-O , 17-C ) :   0.9111
B( 17-C , 18-C ) :   1.1671 B( 17-C , 36-H ) :   0.9259 B( 17-C , 37-H ) :   0.9328
B( 18-C , 38-H ) :   0.9322 B( 18-C , 39-H ) :   0.9347 B( 18-C , 40-H ) :   0.9428

Dispersion correction           -0.065928786
FINAL SINGLE POINT ENERGY     -2929.519089300506

DIPOLE MOMENT
-------------

Method             : SCF
Type of density    : Electron Density
Multiplicity       :   1
Irrep              :   0
Energy             : -2929.6383510887717421 Eh
Relativity type    :
Basis              : AO
                                X                 Y                 Z
Electronic contribution:     -2.738893164       0.425782680     -15.778810309
Nuclear contribution   :      3.462322741      -0.819509277      17.499199009
                        -----------------------------------------
Total Dipole Moment    :      0.723429578      -0.393726596       1.720388699
                        -----------------------------------------
Magnitude (a.u.)       :      1.907382569
Magnitude (Debye)      :      4.848181198

Rotational constants in cm-1:             0.012899             0.004866             0.004549
Rotational constants in MHz :           386.689592           145.893070           136.372030

                             ****ORCA TERMINATED NORMALLY****
TOTAL RUN TIME: 0 days 0 hours 0 minutes 21 seconds 111 msec
