                         Program Version 6.0.0  -   RELEASE  -
|  1> ! pbe def2-sv(p) def2/J RI DEFGRID1 loosescf d4 GCP(DFT/SV(P)) printgap
|  2> %output
|  3>     printlevel normal
|  4> end
|  5> * xyz 0 1
|  6> C 3.2506631807 -0.2234178277 3.4225658188
|  7> C 2.006941842 -0.1158184206 2.5651689645
|  8> O 2.0804635383 -1.0402025897 1.4487901804
|  9> P 2.5166691711 -0.6138117357 0.0013164758
| 10> S 2.7301605547 -2.1544132441 -1.1843011577
| 11> O 3.8128211576 0.2650899478 0.2540919316
| 12> C 4.5704910709 0.8067587195 -0.8479933304
| 13> C 5.9068504812 1.271337152 -0.3059151801
| 14> S 1.0958510314 0.8410534303 -0.6741134296
| 15> C -0.1122240811 -0.3484171349 -1.2969046184
| 16> S -1.2588283121 -0.9206378609 -0.0238497451
| 17> P -2.7840063487 0.5206813803 -0.4501120789
| 18> S -3.2214712189 0.6519594679 -2.3555242124
| 19> O -2.2768905792 1.907147589 0.101522636
| 20> C -2.3550946613 2.3650348816 1.4745571599
| 21> C -1.5063279134 1.5292497576 2.4079623885
| 22> O -3.9761619498 0.1573121923 0.5306406759
| 23> C -5.0015676235 -0.7917907857 0.1834551834
| 24> C -4.4591506114 -2.1990674211 0.0456854131
| 25> H 3.3828441969 -1.2480803609 3.7583825264
| 26> H 4.1269122846 0.0742129408 2.8528376379
| 27> H 3.1444792009 0.4266214935 4.2853568733
| 28> H 1.8837627476 0.8987328153 2.1769501912
| 29> H 1.1142064691 -0.4207611986 3.1140212134
| 30> H 4.6919866561 0.0249275725 -1.6047189042
| 31> H 4.0018524811 1.6353868837 -1.2786539039
| 32> H 6.4918555049 1.6925715744 -1.1167713023
| 33> H 5.7557756663 2.027849498 0.4585101445
| 34> H 6.4463093749 0.4331633493 0.1260527119
| 35> H 0.426011392 -1.2186713108 -1.6784050898
| 36> H -0.6812106117 0.1360568214 -2.0923131281
| 37> H -1.9922130179 3.3920296463 1.4116819309
| 38> H -3.4030195638 2.3549873467 1.779119453
| 39> H -1.8994411012 0.516557912 2.471409228
| 40> H -0.4834967441 1.4900426226 2.0421891633
| 41> H -1.5161595317 1.9786734286 3.3958610091
| 42> H -5.7148847722 -0.7130611686 1.0051615374
| 43> H -5.4696997999 -0.4677846263 -0.7509460946
| 44> H -3.8973546966 -2.4798452284 0.933024375
| 45> H -5.2848569278 -2.8897498826 -0.0920585546
| 46> H -3.8008177059 -2.262074282 -0.8197227643
| 47> *
| 48>
| 49>                          ****END OF INPUT****

CARTESIAN COORDINATES (ANGSTROEM)
---------------------------------
  C      3.250663   -0.223418    3.422566
  C      2.006942   -0.115818    2.565169
  O      2.080464   -1.040203    1.448790
  P      2.516669   -0.613812    0.001316
  S      2.730161   -2.154413   -1.184301
  O      3.812821    0.265090    0.254092
  C      4.570491    0.806759   -0.847993
  C      5.906850    1.271337   -0.305915
  S      1.095851    0.841053   -0.674113
  C     -0.112224   -0.348417   -1.296905
  S     -1.258828   -0.920638   -0.023850
  P     -2.784006    0.520681   -0.450112
  S     -3.221471    0.651959   -2.355524
  O     -2.276891    1.907148    0.101523
  C     -2.355095    2.365035    1.474557
  C     -1.506328    1.529250    2.407962
  O     -3.976162    0.157312    0.530641
  C     -5.001568   -0.791791    0.183455
  C     -4.459151   -2.199067    0.045685
  H      3.382844   -1.248080    3.758383
  H      4.126912    0.074213    2.852838
  H      3.144479    0.426621    4.285357
  H      1.883763    0.898733    2.176950
  H      1.114206   -0.420761    3.114021
  H      4.691987    0.024928   -1.604719
  H      4.001852    1.635387   -1.278654
  H      6.491856    1.692572   -1.116771
  H      5.755776    2.027849    0.458510
  H      6.446309    0.433163    0.126053
  H      0.426011   -1.218671   -1.678405
  H     -0.681211    0.136057   -2.092313
  H     -1.992213    3.392030    1.411682
  H     -3.403020    2.354987    1.779119
  H     -1.899441    0.516558    2.471409
  H     -0.483497    1.490043    2.042189
  H     -1.516160    1.978673    3.395861
  H     -5.714885   -0.713061    1.005162
  H     -5.469700   -0.467785   -0.750946
  H     -3.897355   -2.479845    0.933024
  H     -5.284857   -2.889750   -0.092059
  H     -3.800818   -2.262074   -0.819723

 Total Charge           Charge          ....    0
 Multiplicity           Mult            ....    1
 Number of Electrons    NEL             ....  202
 Basis Dimension        Dim             ....  334

ORBITAL ENERGIES
----------------

  NO   OCC          E(Eh)            E(eV)
   0   2.0000     -88.040636     -2395.7075
   1   2.0000     -88.038358     -2395.6455
   2   2.0000     -87.985865     -2394.2171
   3   2.0000     -87.983093     -2394.1417
   4   2.0000     -76.427903     -2079.7090
   5   2.0000     -76.427285     -2079.6922
   6   2.0000     -18.801730      -511.6211
   7   2.0000     -18.800689      -511.5928
   8   2.0000     -18.796513      -511.4791
   9   2.0000     -18.792053      -511.3577
  10   2.0000      -9.961321      -271.0613
  11   2.0000      -9.959387      -271.0087
  12   2.0000      -9.958526      -270.9853
  13   2.0000      -9.958483      -270.9841
  14   2.0000      -9.945888      -270.6414
  15   2.0000      -9.893686      -269.2209
  16   2.0000      -9.890919      -269.1456
  17   2.0000      -9.890349      -269.1301
  18   2.0000      -9.886562      -269.0270
  19   2.0000      -7.685592      -209.1356
  20   2.0000      -7.683220      -209.0711
  21   2.0000      -7.631166      -207.6546
  22   2.0000      -7.628404      -207.5794
  23   2.0000      -6.425345      -174.8425
  24   2.0000      -6.425267      -174.8404
  25   2.0000      -5.713138      -155.4624
  26   2.0000      -5.710875      -155.4008
  27   2.0000      -5.710224      -155.3831
  28   2.0000      -5.708004      -155.3227
  29   2.0000      -5.702842      -155.1822
  30   2.0000      -5.700195      -155.1102
  31   2.0000      -5.660175      -154.0212
  32   2.0000      -5.657429      -153.9465
  33   2.0000      -5.651774      -153.7926
  34   2.0000      -5.651195      -153.7768
  35   2.0000      -5.649300      -153.7253
  36   2.0000      -5.648144      -153.6938
  37   2.0000      -4.648626      -126.4955
  38   2.0000      -4.648249      -126.4853
  39   2.0000      -4.646958      -126.4502
  40   2.0000      -4.646772      -126.4451
  41   2.0000      -4.645456      -126.4093
  42   2.0000      -4.645307      -126.4052
  43   2.0000      -0.994922       -27.0732
  44   2.0000      -0.992921       -27.0188
  45   2.0000      -0.951835       -25.9008
  46   2.0000      -0.948899       -25.8209
  47   2.0000      -0.761005       -20.7080
  48   2.0000      -0.725409       -19.7394
  49   2.0000      -0.714844       -19.4519
  50   2.0000      -0.698236       -19.0000
  51   2.0000      -0.694890       -18.9089
  52   2.0000      -0.677710       -18.4414
  53   2.0000      -0.650145       -17.6914
  54   2.0000      -0.635071       -17.2812
  55   2.0000      -0.599148       -16.3036
  56   2.0000      -0.592238       -16.1156
  57   2.0000      -0.583557       -15.8794
  58   2.0000      -0.574956       -15.6453
  59   2.0000      -0.559041       -15.2123
  60   2.0000      -0.512452       -13.9445
  61   2.0000      -0.499394       -13.5892
  62   2.0000      -0.488034       -13.2801
  63   2.0000      -0.474435       -12.9100
  64   2.0000      -0.459630       -12.5072
  65   2.0000      -0.451208       -12.2780
  66   2.0000      -0.449789       -12.2394
  67   2.0000      -0.441649       -12.0179
  68   2.0000      -0.430304       -11.7092
  69   2.0000      -0.427420       -11.6307
  70   2.0000      -0.409370       -11.1395
  71   2.0000      -0.403238       -10.9727
  72   2.0000      -0.396486       -10.7889
  73   2.0000      -0.388682       -10.5766
  74   2.0000      -0.377565       -10.2741
  75   2.0000      -0.371260       -10.1025
  76   2.0000      -0.368027       -10.0145
  77   2.0000      -0.361720        -9.8429
  78   2.0000      -0.359795        -9.7905
  79   2.0000      -0.356300        -9.6954
  80   2.0000      -0.354099        -9.6355
  81   2.0000      -0.348802        -9.4914
  82   2.0000      -0.345121        -9.3912
  83   2.0000      -0.344304        -9.3690
  84   2.0000      -0.337202        -9.1757
  85   2.0000      -0.325080        -8.8459
  86   2.0000      -0.317197        -8.6314
  87   2.0000      -0.306051        -8.3281
  88   2.0000      -0.300676        -8.1818
  89   2.0000      -0.299047        -8.1375
  90   2.0000      -0.297910        -8.1065
  91   2.0000      -0.278352        -7.5743
  92   2.0000      -0.275626        -7.5002
  93   2.0000      -0.265744        -7.2313
  94   2.0000      -0.256459        -6.9786
  95   2.0000      -0.235320        -6.4034
  96   2.0000      -0.221651        -6.0314
  97   2.0000      -0.209762        -5.7079
  98   2.0000      -0.204764        -5.5719
  99   2.0000      -0.199895        -5.4394
 100   2.0000      -0.190968        -5.1965
 101   0.0000      -0.040547        -1.1033
 102   0.0000      -0.029257        -0.7961
 103   0.0000      -0.008412        -0.2289
 104   0.0000       0.002890         0.0786
 105   0.0000       0.017924         0.4877

MULLIKEN ATOMIC CHARGES
-----------------------
   0 C :   -0.281303
   1 C :   -0.031196
   2 O :   -0.349478
   3 P :    0.593282
   4 S :   -0.305466
   5 O :   -0.387406
   6 C :   -0.013679
   7 C :   -0.283533
   8 S :   -0.101941
   9 C :   -0.368240
  10 S :   -0.090165
  11 P :    0.604476
  12 S :   -0.311711
  13 O :   -0.362528
  14 C :    0.014703
  15 C :   -0.349899
  16 O :   -0.386383
  17 C :   -0.000644
  18 C :   -0.324094
  19 H :    0.121752
  20 H :    0.121995
  21 H :    0.109171
  22 H :    0.113632
  23 H :    0.118740
  24 H :    0.110774
  25 H :    0.107855
  26 H :    0.116106
  27 H :    0.115596
  28 H :    0.123351
  29 H :    0.197238
  30 H :    0.189272
  31 H :    0.109469
  32 H :    0.109554
  33 H :    0.124837
  34 H :    0.142462
  35 H :    0.109776
  36 H :    0.105183
  37 H :    0.116185
  38 H :    0.118466
  39 H :    0.116811
  40 H :    0.136977
Sum of atomic charges:    0.0000000

LOEWDIN ATOMIC CHARGES
----------------------
   0 C :   -0.357673
   1 C :   -0.112940
   2 O :   -0.232359
   3 P :    0.567464
   4 S :   -0.303980
   5 O :   -0.249229
   6 C :   -0.118935
   7 C :   -0.350673
   8 S :    0.060515
   9 C :   -0.494333
  10 S :    0.077065
  11 P :    0.577249
  12 S :   -0.315292
  13 O :   -0.240443
  14 C :   -0.105005
  15 C :   -0.374379
  16 O :   -0.245469
  17 C :   -0.115193
  18 C :   -0.371499
  19 H :    0.130188
  20 H :    0.126569
  21 H :    0.129440
  22 H :    0.105156
  23 H :    0.122585
  24 H :    0.112622
  25 H :    0.110469
  26 H :    0.132993
  27 H :    0.125725
  28 H :    0.129741
  29 H :    0.127181
  30 H :    0.127514
  31 H :    0.122641
  32 H :    0.114448
  33 H :    0.118916
  34 H :    0.123318
  35 H :    0.129072
  36 H :    0.118681
  37 H :    0.115069
  38 H :    0.124026
  39 H :    0.133381
  40 H :    0.125374

  Mayer bond orders larger than 0.100000
B(  0-C ,  1-C ) :   1.1582 B(  0-C , 19-H ) :   0.9457 B(  0-C , 20-H ) :   0.9418
B(  0-C , 21-H ) :   0.9402 B(  1-C ,  2-O ) :   0.8914 B(  1-C , 22-H ) :   0.9052
B(  1-C , 23-H ) :   0.9329 B(  2-O ,  3-P ) :   1.1496 B(  3-P ,  4-S ) :   1.6531
B(  3-P ,  5-O ) :   1.0760 B(  3-P ,  8-S ) :   0.9525 B(  4-S ,  8-S ) :   0.1131
B(  4-S , 29-H ) :   0.1096 B(  5-O ,  6-C ) :   0.9014 B(  6-C ,  7-C ) :   1.1594
B(  6-C , 24-H ) :   0.9120 B(  6-C , 25-H ) :   0.9275 B(  7-C , 26-H ) :   0.9414
B(  7-C , 27-H ) :   0.9508 B(  7-C , 28-H ) :   0.9506 B(  8-S ,  9-C ) :   1.0004
B(  9-C , 10-S ) :   0.9974 B(  9-C , 29-H ) :   0.8558 B(  9-C , 30-H ) :   0.8579
B( 10-S , 11-P ) :   0.9483 B( 10-S , 12-S ) :   0.1120 B( 11-P , 12-S ) :   1.6299
B( 11-P , 13-O ) :   1.1346 B( 11-P , 16-O ) :   1.0834 B( 12-S , 30-H ) :   0.1039
B( 13-O , 14-C ) :   0.8998 B( 14-C , 15-C ) :   1.1699 B( 14-C , 31-H ) :   0.9342
B( 14-C , 32-H ) :   0.9281 B( 15-C , 33-H ) :   0.9387 B( 15-C , 34-H ) :   0.9260
B( 15-C , 35-H ) :   0.9346 B( 16-O , 17-C ) :   0.8995 B( 17-C , 18-C ) :   1.1665
B( 17-C , 36-H ) :   0.9338 B( 17-C , 37-H ) :   0.9182 B( 18-C , 38-H ) :   0.9442
B( 18-C , 39-H ) :   0.9365 B( 18-C , 40-H ) :   0.9321

Dispersion correction           -0.062431618
FINAL SINGLE POINT ENERGY     -2929.516087921489

DIPOLE MOMENT
-------------

Method             : SCF
Type of density    : Electron Density
Multiplicity       :   1
Irrep              :   0
Energy             : -2929.6386007795281330 Eh
Relativity type    :
Basis              : AO
                                X                 Y                 Z
Electronic contribution:     -6.962036709      -4.228819444     -17.665773977
Nuclear contribution   :      7.122562064       5.197143336      19.675353014
                        -----------------------------------------
Total Dipole Moment    :      0.160525355       0.968323892       2.009579037
                        -----------------------------------------
Magnitude (a.u.)       :      2.236476572
Magnitude (Debye)      :      5.684671677

Rotational constants in cm-1:             0.013346             0.004112             0.003900
Rotational constants in MHz :           400.100939           123.278247           116.921925

                             ****ORCA TERMINATED NORMALLY****
TOTAL RUN TIME: 0 days 0 hours 0 minutes 20 seconds 738 msec
