                         Program Version 6.0.0  -   RELEASE  -
|  1> ! wb97x-v def2-tzvp def2/J RIJCOSX DEFGRID2 scfconv7 GCP(DFT/TZ) printgap
|  2> %output
|  3>     printlevel normal
|  4> end
|  5> * xyz 0 1
|  6> C -0.683485998223378 -0.5370581816045643 0.34982533854565306
|  7> C 0.6451562614201194 -0.4979029884367376 -0.3523582653223416
|  8> O 1.3592762692765201 0.6826764125696583 0.06001852610141156
|  9> O -1.501020984216578 0.5459650810771914 -0.13253037544343302
| 10> H -0.534983486990772 -0.45099231009397883 1.4351927389694834
| 11> H -1.159011824504237 -1.504921774538977 0.1391155035296022
| 12> H 0.49324988359875493 -0.4928549250051444 -1.440656741515624
| 13> H 1.2063403471357912 -1.4036300994540933 -0.08342192687321667
| 14> H 2.1622057082068395 0.7330201875314036 -0.4733168807701075
| 15> H -2.3147709779851366 0.5438946134778286 0.38624702387834386
| 16> *
| 17>
| 18>                          ****END OF INPUT****

CARTESIAN COORDINATES (ANGSTROEM)
---------------------------------
  C     -0.683486   -0.537058    0.349825
  C      0.645156   -0.497903   -0.352358
  O      1.359276    0.682676    0.060019
  O     -1.501021    0.545965   -0.132530
  H     -0.534983   -0.450992    1.435193
  H     -1.159012   -1.504922    0.139116
  H      0.493250   -0.492855   -1.440657
  H      1.206340   -1.403630   -0.083422
  H      2.162206    0.733020   -0.473317
  H     -2.314771    0.543895    0.386247

 Total Charge           Charge          ....    0
 Multiplicity           Mult            ....    1
 Number of Electrons    NEL             ....   34
 Basis Dimension        Dim             ....  160

ORBITAL ENERGIES
----------------

  NO   OCC          E(Eh)            E(eV)
   0   2.0000     -21.667471      -589.6019
   1   2.0000     -21.667412      -589.6002
   2   2.0000     -12.094810      -329.1165
   3   2.0000     -12.093480      -329.0803
   4   2.0000      -1.669581       -45.4316
   5   2.0000      -1.662725       -45.2450
   6   2.0000      -1.278591       -34.7922
   7   2.0000      -1.138313       -30.9751
   8   2.0000      -1.043936       -28.4069
   9   2.0000      -1.027674       -27.9644
  10   2.0000      -0.962180       -26.1822
  11   2.0000      -0.936792       -25.4914
  12   2.0000      -0.925364       -25.1804
  13   2.0000      -0.905401       -24.6372
  14   2.0000      -0.824921       -22.4472
  15   2.0000      -0.810307       -22.0496
  16   2.0000      -0.782321       -21.2880
  17   0.0000      -0.159462        -4.3392
  18   0.0000      -0.119775        -3.2593
  19   0.0000      -0.040379        -1.0988
  20   0.0000      -0.036251        -0.9865
  21   0.0000       0.009523         0.2591

MULLIKEN ATOMIC CHARGES
-----------------------
   0 C :   -0.029007
   1 C :   -0.029481
   2 O :   -0.440883
   3 O :   -0.440748
   4 H :    0.091374
   5 H :    0.080670
   6 H :    0.091410
   7 H :    0.080529
   8 H :    0.298153
   9 H :    0.297984
Sum of atomic charges:    0.0000000

LOEWDIN ATOMIC CHARGES
----------------------
   0 C :   -0.342794
   1 C :   -0.342876
   2 O :   -0.056846
   3 O :   -0.056819
   4 H :    0.117858
   5 H :    0.115404
   6 H :    0.117813
   7 H :    0.115413
   8 H :    0.166509
   9 H :    0.166339

  Mayer bond orders larger than 0.100000
B(  0-C ,  1-C ) :   1.0089 B(  0-C ,  3-O ) :   1.0657 B(  0-C ,  4-H ) :   0.9673
B(  0-C ,  5-H ) :   0.9598 B(  1-C ,  2-O ) :   1.0660 B(  1-C ,  6-H ) :   0.9673
B(  1-C ,  7-H ) :   0.9599 B(  2-O ,  8-H ) :   0.9080 B(  3-O ,  9-H ) :   0.9081

FINAL SINGLE POINT ENERGY      -230.264291015766

DIPOLE MOMENT
-------------

Method             : SCF
Type of density    : Electron Density
Multiplicity       :   1
Irrep              :   0
Energy             :  -230.2711593374655195 Eh
Relativity type    :
Basis              : AO
                                X                 Y                 Z
Electronic contribution:     -0.090332104       2.001591330      -0.059311718
Nuclear contribution   :      0.122246944      -2.820199945       0.076290025
                        -----------------------------------------
Total Dipole Moment    :      0.031914839      -0.818608615       0.016978307
                        -----------------------------------------
Magnitude (a.u.)       :      0.819406422
Magnitude (Debye)      :      2.082765604

Rotational constants in cm-1:             0.538405             0.172884             0.148213
Rotational constants in MHz :         16140.972035          5182.928470          4443.305911

                             ****ORCA TERMINATED NORMALLY****
TOTAL RUN TIME: 0 days 0 hours 0 minutes 36 seconds 373 msec
