                         Program Version 6.0.0  -   RELEASE  -
|  1> ! wb97x-v def2-tzvp def2/J RIJCOSX DEFGRID2 scfconv7 GCP(DFT/TZ) printgap
|  2> %output
|  3>     printlevel normal
|  4> end
|  5> %cpcm
|  6>     smd true
|  7>     smdsolvent "water"
|  8> end
|  9> * xyz 0 1
| 10> C -0.683485998223378 -0.5370581816045643 0.34982533854565306
| 11> C 0.6451562614201194 -0.4979029884367376 -0.3523582653223416
| 12> O 1.3592762692765201 0.6826764125696583 0.06001852610141156
| 13> O -1.501020984216578 0.5459650810771914 -0.13253037544343302
| 14> H -0.534983486990772 -0.45099231009397883 1.4351927389694834
| 15> H -1.159011824504237 -1.504921774538977 0.1391155035296022
| 16> H 0.49324988359875493 -0.4928549250051444 -1.440656741515624
| 17> H 1.2063403471357912 -1.4036300994540933 -0.08342192687321667
| 18> H 2.1622057082068395 0.7330201875314036 -0.4733168807701075
| 19> H -2.3147709779851366 0.5438946134778286 0.38624702387834386
| 20> *
| 21>
| 22>                          ****END OF INPUT****

CARTESIAN COORDINATES (ANGSTROEM)
---------------------------------
  C     -0.683486   -0.537058    0.349825
  C      0.645156   -0.497903   -0.352358
  O      1.359276    0.682676    0.060019
  O     -1.501021    0.545965   -0.132530
  H     -0.534983   -0.450992    1.435193
  H     -1.159012   -1.504922    0.139116
  H      0.493250   -0.492855   -1.440657
  H      1.206340   -1.403630   -0.083422
  H      2.162206    0.733020   -0.473317
  H     -2.314771    0.543895    0.386247

 Total Charge           Charge          ....    0
 Multiplicity           Mult            ....    1
 Number of Electrons    NEL             ....   34
 Basis Dimension        Dim             ....  160

ORBITAL ENERGIES
----------------

  NO   OCC          E(Eh)            E(eV)
   0   2.0000     -21.673559      -589.7675
   1   2.0000     -21.673467      -589.7650
   2   2.0000     -12.088258      -328.9382
   3   2.0000     -12.086948      -328.9026
   4   2.0000      -1.675813       -45.6012
   5   2.0000      -1.669017       -45.4162
   6   2.0000      -1.275819       -34.7168
   7   2.0000      -1.139023       -30.9944
   8   2.0000      -1.047267       -28.4976
   9   2.0000      -1.031643       -28.0724
  10   2.0000      -0.970225       -26.4012
  11   2.0000      -0.942348       -25.6426
  12   2.0000      -0.931751       -25.3542
  13   2.0000      -0.909909       -24.7599
  14   2.0000      -0.821729       -22.3604
  15   2.0000      -0.808698       -22.0058
  16   2.0000      -0.778701       -21.1895
  17   0.0000      -0.155923        -4.2429
  18   0.0000      -0.115546        -3.1442
  19   0.0000      -0.021700        -0.5905
  20   0.0000      -0.014136        -0.3847
  21   0.0000       0.024644         0.6706

MULLIKEN ATOMIC CHARGES
-----------------------
   0 C :   -0.035859
   1 C :   -0.036000
   2 O :   -0.557549
   3 O :   -0.557374
   4 H :    0.113961
   5 H :    0.115762
   6 H :    0.114422
   7 H :    0.115319
   8 H :    0.363700
   9 H :    0.363618
Sum of atomic charges:   -0.0000000

LOEWDIN ATOMIC CHARGES
----------------------
   0 C :   -0.338293
   1 C :   -0.338422
   2 O :   -0.102356
   3 O :   -0.102301
   4 H :    0.123731
   5 H :    0.127453
   6 H :    0.123832
   7 H :    0.127352
   8 H :    0.189576
   9 H :    0.189428

  Mayer bond orders larger than 0.100000
B(  0-C ,  1-C ) :   0.9965 B(  0-C ,  3-O ) :   1.0059 B(  0-C ,  4-H ) :   0.9701
B(  0-C ,  5-H ) :   0.9678 B(  1-C ,  2-O ) :   1.0056 B(  1-C ,  6-H ) :   0.9703
B(  1-C ,  7-H ) :   0.9678 B(  2-O ,  8-H ) :   0.8686 B(  3-O ,  9-H ) :   0.8687

FINAL SINGLE POINT ENERGY      -230.283547196938

DIPOLE MOMENT
-------------

Method             : SCF
Type of density    : Electron Density
Multiplicity       :   1
Irrep              :   0
Energy             :  -230.2904155186382695 Eh
Relativity type    :
Basis              : AO
                                X                 Y                 Z
Electronic contribution:     -0.075207326       1.633672935      -0.050583217
Nuclear contribution   :      0.122246944      -2.820199945       0.076290025
                        -----------------------------------------
Total Dipole Moment    :      0.047039617      -1.186527010       0.025706808
                        -----------------------------------------
Magnitude (a.u.)       :      1.187737307
Magnitude (Debye)      :      3.018988311

Rotational constants in cm-1:             0.538405             0.172884             0.148213
Rotational constants in MHz :         16140.972035          5182.928470          4443.305911

                             ****ORCA TERMINATED NORMALLY****
TOTAL RUN TIME: 0 days 0 hours 0 minutes 41 seconds 664 msec
