                         Program Version 6.0.0  -   RELEASE  -
|  1> ! pbe def2-sv(p) def2/J RI DEFGRID1 loosescf d4 GCP(DFT/SV(P)) printgap
|  2> %output
|  3>     printlevel normal
|  4> end
|  5> * xyz 0 1
|  6> C 3.2422619525 -2.3829106976 -1.7040627759
|  7> C 3.6870284354 -0.9372541389 -1.603804618
|  8> O 2.5841480711 -0.0524472104 -1.281223185
|  9> P 2.0481793384 0.3035393678 0.1560205295
| 10> S 0.9801577735 1.9512463952 0.040713122
| 11> O 3.4010704455 0.4451999162 0.9789661031
| 12> C 3.5299752376 0.3829995745 2.4118469305
| 13> C 2.5774490382 1.3148542218 3.1301864351
| 14> S 1.2221137888 -1.4362690854 1.0769681152
| 15> C -0.0052465275 -2.0357618275 -0.1406157665
| 16> S -0.4512390097 -0.840778778 -1.4257171898
| 17> P -1.9674761407 0.2003438107 -0.3810709632
| 18> S -2.5718640465 1.9033122359 -1.1325906304
| 19> O -1.378405944 0.1676198374 1.0902776457
| 20> C -1.7654305489 1.1310236632 2.0891923539
| 21> C -3.2282542297 1.007792919 2.4557195259
| 22> O -3.1299198066 -0.8859287555 -0.2200897624
| 23> C -4.1949553594 -1.0194685046 -1.1719580965
| 24> C -3.7152281521 -1.6059494761 -2.4848458999
| 25> H 2.3763856778 -2.4566412113 -2.3579278241
| 26> H 4.0543628849 -2.9692100435 -2.1227908693
| 27> H 2.9937387571 -2.7793971705 -0.7228405785
| 28> H 4.0308592011 -0.5618184868 -2.5689747019
| 29> H 4.4710382005 -0.8076609196 -0.8560964147
| 30> H 3.3646435317 -0.6524627154 2.722093507
| 31> H 4.5700810143 0.6636038613 2.5875939954
| 32> H 2.758656264 1.264963363 4.1988677174
| 33> H 2.7126458765 2.3375497596 2.7856513852
| 34> H 1.5480828764 1.0212891658 2.9272857179
| 35> H -0.894539633 -2.3177614634 0.4196388198
| 36> H 0.4243738036 -2.8906895501 -0.657408067
| 37> H -1.1149315055 0.9002842426 2.9348373953
| 38> H -1.5316882556 2.131445832 1.7104057198
| 39> H -3.8459435296 1.2667259681 1.5963510655
| 40> H -3.4544145686 -0.0102055458 2.7619363806
| 41> H -3.4511598455 1.6913282904 3.2687706293
| 42> H -4.9132084617 -1.6733905238 -0.6755296224
| 43> H -4.6374919232 -0.031339575 -1.334638576
| 44> H -3.2112508403 -2.5542346492 -2.3182274791
| 45> H -4.5657839629 -1.7592052844 -3.1411171377
| 46> H -3.0197305402 -0.9172165793 -2.9647081204
| 47> *
| 48>
| 49>                          ****END OF INPUT****

CARTESIAN COORDINATES (ANGSTROEM)
---------------------------------
  C      3.242262   -2.382911   -1.704063
  C      3.687028   -0.937254   -1.603805
  O      2.584148   -0.052447   -1.281223
  P      2.048179    0.303539    0.156021
  S      0.980158    1.951246    0.040713
  O      3.401070    0.445200    0.978966
  C      3.529975    0.383000    2.411847
  C      2.577449    1.314854    3.130186
  S      1.222114   -1.436269    1.076968
  C     -0.005247   -2.035762   -0.140616
  S     -0.451239   -0.840779   -1.425717
  P     -1.967476    0.200344   -0.381071
  S     -2.571864    1.903312   -1.132591
  O     -1.378406    0.167620    1.090278
  C     -1.765431    1.131024    2.089192
  C     -3.228254    1.007793    2.455720
  O     -3.129920   -0.885929   -0.220090
  C     -4.194955   -1.019469   -1.171958
  C     -3.715228   -1.605949   -2.484846
  H      2.376386   -2.456641   -2.357928
  H      4.054363   -2.969210   -2.122791
  H      2.993739   -2.779397   -0.722841
  H      4.030859   -0.561818   -2.568975
  H      4.471038   -0.807661   -0.856096
  H      3.364644   -0.652463    2.722094
  H      4.570081    0.663604    2.587594
  H      2.758656    1.264963    4.198868
  H      2.712646    2.337550    2.785651
  H      1.548083    1.021289    2.927286
  H     -0.894540   -2.317761    0.419639
  H      0.424374   -2.890690   -0.657408
  H     -1.114932    0.900284    2.934837
  H     -1.531688    2.131446    1.710406
  H     -3.845944    1.266726    1.596351
  H     -3.454415   -0.010206    2.761936
  H     -3.451160    1.691328    3.268771
  H     -4.913208   -1.673391   -0.675530
  H     -4.637492   -0.031340   -1.334639
  H     -3.211251   -2.554235   -2.318227
  H     -4.565784   -1.759205   -3.141117
  H     -3.019731   -0.917217   -2.964708

 Total Charge           Charge          ....    0
 Multiplicity           Mult            ....    1
 Number of Electrons    NEL             ....  202
 Basis Dimension        Dim             ....  334

ORBITAL ENERGIES
----------------

  NO   OCC          E(Eh)            E(eV)
   0   2.0000     -88.042565     -2395.7600
   1   2.0000     -88.038599     -2395.6521
   2   2.0000     -87.982476     -2394.1249
   3   2.0000     -87.969783     -2393.7795
   4   2.0000     -76.423537     -2079.5902
   5   2.0000     -76.422588     -2079.5643
   6   2.0000     -18.791785      -511.3505
   7   2.0000     -18.788543      -511.2623
   8   2.0000     -18.787980      -511.2469
   9   2.0000     -18.786316      -511.2017
  10   2.0000      -9.962128      -271.0833
  11   2.0000      -9.958850      -270.9941
  12   2.0000      -9.955630      -270.9065
  13   2.0000      -9.947423      -270.6831
  14   2.0000      -9.944427      -270.6016
  15   2.0000      -9.892431      -269.1867
  16   2.0000      -9.884309      -268.9657
  17   2.0000      -9.882305      -268.9112
  18   2.0000      -9.878493      -268.8074
  19   2.0000      -7.687345      -209.1833
  20   2.0000      -7.683444      -209.0771
  21   2.0000      -7.627615      -207.5580
  22   2.0000      -7.614603      -207.2039
  23   2.0000      -6.419883      -174.6939
  24   2.0000      -6.419815      -174.6920
  25   2.0000      -5.715632      -155.5302
  26   2.0000      -5.711734      -155.4242
  27   2.0000      -5.711433      -155.4160
  28   2.0000      -5.707872      -155.3191
  29   2.0000      -5.703931      -155.2118
  30   2.0000      -5.700411      -155.1161
  31   2.0000      -5.656683      -153.9262
  32   2.0000      -5.648393      -153.7006
  33   2.0000      -5.647474      -153.6756
  34   2.0000      -5.644004      -153.5812
  35   2.0000      -5.634942      -153.3346
  36   2.0000      -5.634614      -153.3256
  37   2.0000      -4.643137      -126.3462
  38   2.0000      -4.642117      -126.3184
  39   2.0000      -4.642021      -126.3158
  40   2.0000      -4.641774      -126.3091
  41   2.0000      -4.640414      -126.2721
  42   2.0000      -4.639534      -126.2481
  43   2.0000      -0.985403       -26.8142
  44   2.0000      -0.982035       -26.7225
  45   2.0000      -0.941757       -25.6265
  46   2.0000      -0.939649       -25.5692
  47   2.0000      -0.762066       -20.7369
  48   2.0000      -0.718348       -19.5473
  49   2.0000      -0.707767       -19.2593
  50   2.0000      -0.691789       -18.8245
  51   2.0000      -0.681811       -18.5530
  52   2.0000      -0.672541       -18.3008
  53   2.0000      -0.651641       -17.7321
  54   2.0000      -0.634083       -17.2543
  55   2.0000      -0.594384       -16.1740
  56   2.0000      -0.583747       -15.8846
  57   2.0000      -0.580305       -15.7909
  58   2.0000      -0.569544       -15.4981
  59   2.0000      -0.566503       -15.4153
  60   2.0000      -0.500817       -13.6279
  61   2.0000      -0.488657       -13.2970
  62   2.0000      -0.472053       -12.8452
  63   2.0000      -0.467314       -12.7163
  64   2.0000      -0.455444       -12.3933
  65   2.0000      -0.446769       -12.1572
  66   2.0000      -0.438085       -11.9209
  67   2.0000      -0.436403       -11.8751
  68   2.0000      -0.424711       -11.5570
  69   2.0000      -0.416564       -11.3353
  70   2.0000      -0.412376       -11.2213
  71   2.0000      -0.404727       -11.0132
  72   2.0000      -0.391819       -10.6619
  73   2.0000      -0.388666       -10.5761
  74   2.0000      -0.385664       -10.4944
  75   2.0000      -0.370764       -10.0890
  76   2.0000      -0.359509        -9.7827
  77   2.0000      -0.356850        -9.7104
  78   2.0000      -0.354421        -9.6443
  79   2.0000      -0.345999        -9.4151
  80   2.0000      -0.344421        -9.3722
  81   2.0000      -0.343886        -9.3576
  82   2.0000      -0.342051        -9.3077
  83   2.0000      -0.336973        -9.1695
  84   2.0000      -0.325595        -8.8599
  85   2.0000      -0.321404        -8.7459
  86   2.0000      -0.315951        -8.5975
  87   2.0000      -0.299009        -8.1365
  88   2.0000      -0.292527        -7.9601
  89   2.0000      -0.290383        -7.9017
  90   2.0000      -0.282704        -7.6928
  91   2.0000      -0.274159        -7.4603
  92   2.0000      -0.267403        -7.2764
  93   2.0000      -0.261201        -7.1076
  94   2.0000      -0.254266        -6.9189
  95   2.0000      -0.225385        -6.1330
  96   2.0000      -0.220037        -5.9875
  97   2.0000      -0.205372        -5.5884
  98   2.0000      -0.197073        -5.3626
  99   2.0000      -0.182752        -4.9729
 100   2.0000      -0.176501        -4.8028
 101   0.0000      -0.052755        -1.4355
 102   0.0000      -0.028215        -0.7678
 103   0.0000      -0.018694        -0.5087
 104   0.0000      -0.003948        -0.1074
 105   0.0000       0.024993         0.6801

MULLIKEN ATOMIC CHARGES
-----------------------
   0 C :   -0.325699
   1 C :    0.001865
   2 O :   -0.356446
   3 P :    0.611267
   4 S :   -0.296063
   5 O :   -0.383830
   6 C :   -0.008693
   7 C :   -0.325780
   8 S :   -0.152827
   9 C :   -0.301254
  10 S :   -0.076953
  11 P :    0.619432
  12 S :   -0.297201
  13 O :   -0.376596
  14 C :   -0.015584
  15 C :   -0.296855
  16 O :   -0.378950
  17 C :   -0.006092
  18 C :   -0.303895
  19 H :    0.121794
  20 H :    0.113215
  21 H :    0.125058
  22 H :    0.112283
  23 H :    0.108708
  24 H :    0.111787
  25 H :    0.109194
  26 H :    0.108558
  27 H :    0.129683
  28 H :    0.140683
  29 H :    0.186101
  30 H :    0.177214
  31 H :    0.112238
  32 H :    0.120723
  33 H :    0.122617
  34 H :    0.109241
  35 H :    0.109013
  36 H :    0.100543
  37 H :    0.108816
  38 H :    0.107815
  39 H :    0.110478
  40 H :    0.124391
Sum of atomic charges:   -0.0000000

LOEWDIN ATOMIC CHARGES
----------------------
   0 C :   -0.368473
   1 C :   -0.108909
   2 O :   -0.234083
   3 P :    0.556491
   4 S :   -0.295551
   5 O :   -0.249342
   6 C :   -0.115056
   7 C :   -0.371319
   8 S :    0.046080
   9 C :   -0.465138
  10 S :    0.114876
  11 P :    0.576051
  12 S :   -0.299539
  13 O :   -0.239051
  14 C :   -0.116834
  15 C :   -0.366956
  16 O :   -0.254290
  17 C :   -0.123248
  18 C :   -0.366784
  19 H :    0.125134
  20 H :    0.131463
  21 H :    0.118101
  22 H :    0.123428
  23 H :    0.112956
  24 H :    0.106179
  25 H :    0.121262
  26 H :    0.128576
  27 H :    0.131662
  28 H :    0.120787
  29 H :    0.133523
  30 H :    0.130303
  31 H :    0.116233
  32 H :    0.113005
  33 H :    0.121153
  34 H :    0.123220
  35 H :    0.129463
  36 H :    0.116088
  37 H :    0.108213
  38 H :    0.120638
  39 H :    0.129379
  40 H :    0.120307

  Mayer bond orders larger than 0.100000
B(  0-C ,  1-C ) :   1.1656 B(  0-C , 19-H ) :   0.9428 B(  0-C , 20-H ) :   0.9368
B(  0-C , 21-H ) :   0.9313 B(  1-C ,  2-O ) :   0.9040 B(  1-C , 22-H ) :   0.9353
B(  1-C , 23-H ) :   0.9207 B(  2-O ,  3-P ) :   1.1160 B(  3-P ,  4-S ) :   1.6498
B(  3-P ,  5-O ) :   1.0678 B(  3-P ,  8-S ) :   0.9440 B(  4-S ,  8-S ) :   0.1187
B(  5-O ,  6-C ) :   0.9183 B(  6-C ,  7-C ) :   1.1673 B(  6-C , 24-H ) :   0.9234
B(  6-C , 25-H ) :   0.9332 B(  7-C , 26-H ) :   0.9336 B(  7-C , 27-H ) :   0.9399
B(  7-C , 28-H ) :   0.9278 B(  8-S ,  9-C ) :   0.9682 B(  9-C , 10-S ) :   1.0236
B(  9-C , 29-H ) :   0.9010 B(  9-C , 30-H ) :   0.9054 B( 10-S , 11-P ) :   0.9474
B( 11-P , 12-S ) :   1.6399 B( 11-P , 13-O ) :   1.1111 B( 11-P , 16-O ) :   1.0616
B( 13-O , 14-C ) :   0.8973 B( 14-C , 15-C ) :   1.1612 B( 14-C , 31-H ) :   0.9276
B( 14-C , 32-H ) :   0.9174 B( 15-C , 33-H ) :   0.9317 B( 15-C , 34-H ) :   0.9446
B( 15-C , 35-H ) :   0.9387 B( 16-O , 17-C ) :   0.9198 B( 17-C , 18-C ) :   1.1653
B( 17-C , 36-H ) :   0.9339 B( 17-C , 37-H ) :   0.9119 B( 18-C , 38-H ) :   0.9460
B( 18-C , 39-H ) :   0.9390 B( 18-C , 40-H ) :   0.9369

Dispersion correction           -0.069717632
FINAL SINGLE POINT ENERGY     -2929.501585267650

DIPOLE MOMENT
-------------

Method             : SCF
Type of density    : Electron Density
Multiplicity       :   1
Irrep              :   0
Energy             : -2929.6179563228884035 Eh
Relativity type    :
Basis              : AO
                                X                 Y                 Z
Electronic contribution:      1.834655566       8.983143722      -7.103468890
Nuclear contribution   :     -1.279192167     -10.918208528       7.937800877
                        -----------------------------------------
Total Dipole Moment    :      0.555463399      -1.935064806       0.834331987
                        -----------------------------------------
Magnitude (a.u.)       :      2.179248782
Magnitude (Debye)      :      5.539210197

Rotational constants in cm-1:             0.012129             0.005987             0.005032
Rotational constants in MHz :           363.610925           179.494273           150.866396

                             ****ORCA TERMINATED NORMALLY****
TOTAL RUN TIME: 0 days 0 hours 0 minutes 23 seconds 955 msec
