                         Program Version 6.0.0  -   RELEASE  -
|  1> ! pbe def2-sv(p) def2/J RI DEFGRID1 loosescf d4 GCP(DFT/SV(P)) printgap
|  2> %output
|  3>     printlevel normal
|  4> end
|  5> * xyz 0 1
|  6> C 1.6296614047 0.1031445804 -3.2064321862
|  7> C 2.4117375302 -0.9498776314 -2.4461249415
|  8> O 3.1454562707 -0.3717821156 -1.3499849342
|  9> P 2.5204441451 -0.0713324479 0.072015035
| 10> S 1.2726944701 1.4478806546 0.2368122978
| 11> O 3.9076105841 0.1428802612 0.7980551316
| 12> C 4.0133378693 0.8428356236 2.0485148953
| 13> C 3.3616913059 0.0800012571 3.1852904432
| 14> S 1.8114076508 -1.9671171811 0.7295415792
| 15> C 0.0620844898 -1.6082316115 1.0115659925
| 16> S -0.855799462 -1.252360185 -0.5222740738
| 17> P -2.0334968966 0.4088110711 0.1371694516
| 18> S -1.863913977 0.8936187442 2.0228599626
| 19> O -3.5005890121 -0.0503156228 -0.2855182472
| 20> C -4.1732190524 -1.1166825788 0.411301044
| 21> C -5.6306887855 -1.0972963765 -0.0028582542
| 22> O -1.7775685352 1.5977691718 -0.8551850529
| 23> C -1.9349581007 1.4842982413 -2.2934609628
| 24> C -3.2916371583 1.9977897613 -2.7288115433
| 25> H 2.2994523714 0.8748641047 -3.5755553712
| 26> H 1.11537796 -0.3621604352 -4.0407812163
| 27> H 0.8967309008 0.5669307346 -2.5496124683
| 28> H 3.1836539255 -1.401947271 -3.0712986847
| 29> H 1.7444776298 -1.7311569207 -2.0658581493
| 30> H 5.0885728873 0.9481823878 2.1987014967
| 31> H 3.5557733244 1.8315381567 1.9371895966
| 32> H 3.588706974 0.571220288 4.1261222872
| 33> H 2.2797305708 0.0659138879 3.0530700254
| 34> H 3.7286676806 -0.9429357072 3.2126842782
| 35> H -0.052764571 -0.748580355 1.6773340435
| 36> H -0.3474104166 -2.5091398278 1.4614478365
| 37> H -3.6933819701 -2.0605643319 0.1364780792
| 38> H -4.0586876098 -0.9543178271 1.4882148748
| 39> H -5.7152870119 -1.2431639097 -1.0758147728
| 40> H -6.1564733583 -1.8954268993 0.5106059545
| 41> H -6.0805292378 -0.1443640866 0.2613378377
| 42> H -1.1285478109 2.0971173731 -2.7017482287
| 43> H -1.7928521683 0.4395384531 -2.5844861944
| 44> H -3.4259724455 3.0220255868 -2.3919119327
| 45> H -3.3493867689 1.9651420848 -3.8122782956
| 46> H -4.081293919 1.3831713959 -2.3057445438
| 47> *
| 48>
| 49>                          ****END OF INPUT****

CARTESIAN COORDINATES (ANGSTROEM)
---------------------------------
  C      1.629661    0.103145   -3.206432
  C      2.411738   -0.949878   -2.446125
  O      3.145456   -0.371782   -1.349985
  P      2.520444   -0.071332    0.072015
  S      1.272694    1.447881    0.236812
  O      3.907611    0.142880    0.798055
  C      4.013338    0.842836    2.048515
  C      3.361691    0.080001    3.185290
  S      1.811408   -1.967117    0.729542
  C      0.062084   -1.608232    1.011566
  S     -0.855799   -1.252360   -0.522274
  P     -2.033497    0.408811    0.137169
  S     -1.863914    0.893619    2.022860
  O     -3.500589   -0.050316   -0.285518
  C     -4.173219   -1.116683    0.411301
  C     -5.630689   -1.097296   -0.002858
  O     -1.777569    1.597769   -0.855185
  C     -1.934958    1.484298   -2.293461
  C     -3.291637    1.997790   -2.728812
  H      2.299452    0.874864   -3.575555
  H      1.115378   -0.362160   -4.040781
  H      0.896731    0.566931   -2.549612
  H      3.183654   -1.401947   -3.071299
  H      1.744478   -1.731157   -2.065858
  H      5.088573    0.948182    2.198701
  H      3.555773    1.831538    1.937190
  H      3.588707    0.571220    4.126122
  H      2.279731    0.065914    3.053070
  H      3.728668   -0.942936    3.212684
  H     -0.052765   -0.748580    1.677334
  H     -0.347410   -2.509140    1.461448
  H     -3.693382   -2.060564    0.136478
  H     -4.058688   -0.954318    1.488215
  H     -5.715287   -1.243164   -1.075815
  H     -6.156473   -1.895427    0.510606
  H     -6.080529   -0.144364    0.261338
  H     -1.128548    2.097117   -2.701748
  H     -1.792852    0.439538   -2.584486
  H     -3.425972    3.022026   -2.391912
  H     -3.349387    1.965142   -3.812278
  H     -4.081294    1.383171   -2.305745

 Total Charge           Charge          ....    0
 Multiplicity           Mult            ....    1
 Number of Electrons    NEL             ....  202
 Basis Dimension        Dim             ....  334

ORBITAL ENERGIES
----------------

  NO   OCC          E(Eh)            E(eV)
   0   2.0000     -88.045985     -2395.8531
   1   2.0000     -88.042144     -2395.7485
   2   2.0000     -87.984234     -2394.1727
   3   2.0000     -87.983095     -2394.1417
   4   2.0000     -76.425669     -2079.6482
   5   2.0000     -76.423401     -2079.5865
   6   2.0000     -18.793757      -511.4041
   7   2.0000     -18.791169      -511.3337
   8   2.0000     -18.786148      -511.1971
   9   2.0000     -18.785017      -511.1663
  10   2.0000      -9.959812      -271.0203
  11   2.0000      -9.954771      -270.8831
  12   2.0000      -9.952276      -270.8152
  13   2.0000      -9.951629      -270.7976
  14   2.0000      -9.947521      -270.6858
  15   2.0000      -9.889995      -269.1204
  16   2.0000      -9.887540      -269.0537
  17   2.0000      -9.880699      -268.8675
  18   2.0000      -9.880112      -268.8515
  19   2.0000      -7.690849      -209.2786
  20   2.0000      -7.686600      -209.1630
  21   2.0000      -7.629457      -207.6081
  22   2.0000      -7.627406      -207.5523
  23   2.0000      -6.422948      -174.7773
  24   2.0000      -6.420572      -174.7126
  25   2.0000      -5.718769      -155.6156
  26   2.0000      -5.715086      -155.5154
  27   2.0000      -5.714452      -155.4981
  28   2.0000      -5.711220      -155.4102
  29   2.0000      -5.708076      -155.3247
  30   2.0000      -5.703612      -155.2032
  31   2.0000      -5.658487      -153.9752
  32   2.0000      -5.656401      -153.9185
  33   2.0000      -5.650025      -153.7450
  34   2.0000      -5.649491      -153.7305
  35   2.0000      -5.647892      -153.6869
  36   2.0000      -5.647755      -153.6832
  37   2.0000      -4.645728      -126.4167
  38   2.0000      -4.644676      -126.3881
  39   2.0000      -4.643267      -126.3497
  40   2.0000      -4.642810      -126.3373
  41   2.0000      -4.642757      -126.3358
  42   2.0000      -4.640916      -126.2857
  43   2.0000      -0.989312       -26.9206
  44   2.0000      -0.985621       -26.8201
  45   2.0000      -0.944986       -25.7144
  46   2.0000      -0.941149       -25.6100
  47   2.0000      -0.760683       -20.6992
  48   2.0000      -0.720950       -19.6180
  49   2.0000      -0.710851       -19.3433
  50   2.0000      -0.693540       -18.8722
  51   2.0000      -0.679767       -18.4974
  52   2.0000      -0.675973       -18.3942
  53   2.0000      -0.649144       -17.6641
  54   2.0000      -0.635384       -17.2897
  55   2.0000      -0.595091       -16.1932
  56   2.0000      -0.589971       -16.0539
  57   2.0000      -0.572109       -15.5679
  58   2.0000      -0.568496       -15.4696
  59   2.0000      -0.562104       -15.2956
  60   2.0000      -0.511040       -13.9061
  61   2.0000      -0.494205       -13.4480
  62   2.0000      -0.483198       -13.1485
  63   2.0000      -0.465065       -12.6551
  64   2.0000      -0.449161       -12.2223
  65   2.0000      -0.447179       -12.1684
  66   2.0000      -0.443652       -12.0724
  67   2.0000      -0.434898       -11.8342
  68   2.0000      -0.426078       -11.5942
  69   2.0000      -0.418463       -11.3869
  70   2.0000      -0.410683       -11.1753
  71   2.0000      -0.402123       -10.9423
  72   2.0000      -0.391657       -10.6575
  73   2.0000      -0.387971       -10.5572
  74   2.0000      -0.381048       -10.3688
  75   2.0000      -0.368183       -10.0188
  76   2.0000      -0.364882        -9.9289
  77   2.0000      -0.357117        -9.7177
  78   2.0000      -0.355994        -9.6871
  79   2.0000      -0.350401        -9.5349
  80   2.0000      -0.347463        -9.4550
  81   2.0000      -0.344987        -9.3876
  82   2.0000      -0.341125        -9.2825
  83   2.0000      -0.335743        -9.1360
  84   2.0000      -0.332913        -9.0590
  85   2.0000      -0.316930        -8.6241
  86   2.0000      -0.313147        -8.5212
  87   2.0000      -0.300298        -8.1715
  88   2.0000      -0.296585        -8.0705
  89   2.0000      -0.292581        -7.9615
  90   2.0000      -0.285991        -7.7822
  91   2.0000      -0.276525        -7.5246
  92   2.0000      -0.267232        -7.2718
  93   2.0000      -0.260940        -7.1005
  94   2.0000      -0.255268        -6.9462
  95   2.0000      -0.239461        -6.5161
  96   2.0000      -0.222123        -6.0443
  97   2.0000      -0.212830        -5.7914
  98   2.0000      -0.201358        -5.4792
  99   2.0000      -0.194026        -5.2797
 100   2.0000      -0.186582        -5.0772
 101   0.0000      -0.046224        -1.2578
 102   0.0000      -0.035754        -0.9729
 103   0.0000      -0.013399        -0.3646
 104   0.0000       0.009787         0.2663
 105   0.0000       0.012235         0.3329

MULLIKEN ATOMIC CHARGES
-----------------------
   0 C :   -0.330031
   1 C :   -0.008133
   2 O :   -0.352091
   3 P :    0.590160
   4 S :   -0.311145
   5 O :   -0.355164
   6 C :    0.000083
   7 C :   -0.325713
   8 S :   -0.116084
   9 C :   -0.335757
  10 S :   -0.138897
  11 P :    0.613831
  12 S :   -0.293799
  13 O :   -0.384523
  14 C :   -0.008135
  15 C :   -0.282810
  16 O :   -0.349664
  17 C :   -0.040703
  18 C :   -0.271967
  19 H :    0.115550
  20 H :    0.103150
  21 H :    0.155306
  22 H :    0.106796
  23 H :    0.104769
  24 H :    0.105548
  25 H :    0.115226
  26 H :    0.112911
  27 H :    0.134618
  28 H :    0.117303
  29 H :    0.216876
  30 H :    0.176426
  31 H :    0.096369
  32 H :    0.102333
  33 H :    0.115143
  34 H :    0.112223
  35 H :    0.122549
  36 H :    0.127520
  37 H :    0.105840
  38 H :    0.121934
  39 H :    0.108236
  40 H :    0.123916
Sum of atomic charges:   -0.0000000

LOEWDIN ATOMIC CHARGES
----------------------
   0 C :   -0.369062
   1 C :   -0.117423
   2 O :   -0.232868
   3 P :    0.562619
   4 S :   -0.298746
   5 O :   -0.234511
   6 C :   -0.118519
   7 C :   -0.369784
   8 S :    0.080089
   9 C :   -0.479737
  10 S :    0.046923
  11 P :    0.573962
  12 S :   -0.289192
  13 O :   -0.253167
  14 C :   -0.124661
  15 C :   -0.350686
  16 O :   -0.225374
  17 C :   -0.111007
  18 C :   -0.358495
  19 H :    0.127298
  20 H :    0.126054
  21 H :    0.121268
  22 H :    0.119098
  23 H :    0.097469
  24 H :    0.119193
  25 H :    0.111929
  26 H :    0.130975
  27 H :    0.122981
  28 H :    0.123858
  29 H :    0.121936
  30 H :    0.134317
  31 H :    0.104167
  32 H :    0.107517
  33 H :    0.124989
  34 H :    0.130920
  35 H :    0.129297
  36 H :    0.124866
  37 H :    0.104672
  38 H :    0.130777
  39 H :    0.129371
  40 H :    0.126688

  Mayer bond orders larger than 0.100000
B(  0-C ,  1-C ) :   1.1626 B(  0-C , 19-H ) :   0.9442 B(  0-C , 20-H ) :   0.9389
B(  0-C , 21-H ) :   0.9224 B(  1-C ,  2-O ) :   0.9201 B(  1-C , 22-H ) :   0.9355
B(  1-C , 23-H ) :   0.9062 B(  2-O ,  3-P ) :   1.1304 B(  3-P ,  4-S ) :   1.6241
B(  3-P ,  5-O ) :   1.1306 B(  3-P ,  8-S ) :   0.9292 B(  4-S ,  8-S ) :   0.1215
B(  5-O ,  6-C ) :   0.9125 B(  6-C ,  7-C ) :   1.1622 B(  6-C , 24-H ) :   0.9340
B(  6-C , 25-H ) :   0.9155 B(  7-C , 26-H ) :   0.9378 B(  7-C , 27-H ) :   0.9344
B(  7-C , 28-H ) :   0.9439 B(  8-S ,  9-C ) :   1.0054 B(  9-C , 10-S ) :   0.9911
B(  9-C , 29-H ) :   0.8433 B(  9-C , 30-H ) :   0.9083 B( 10-S , 11-P ) :   0.9317
B( 10-S , 12-S ) :   0.1183 B( 11-P , 12-S ) :   1.6458 B( 11-P , 13-O ) :   1.0628
B( 11-P , 16-O ) :   1.1490 B( 12-S , 29-H ) :   0.1035 B( 13-O , 14-C ) :   0.9119
B( 14-C , 15-C ) :   1.1597 B( 14-C , 31-H ) :   0.9213 B( 14-C , 32-H ) :   0.9103
B( 15-C , 33-H ) :   0.9508 B( 15-C , 34-H ) :   0.9422 B( 15-C , 35-H ) :   0.9512
B( 16-O , 17-C ) :   0.8892 B( 17-C , 18-C ) :   1.1615 B( 17-C , 36-H ) :   0.9269
B( 17-C , 37-H ) :   0.9151 B( 18-C , 38-H ) :   0.9455 B( 18-C , 39-H ) :   0.9391
B( 18-C , 40-H ) :   0.9385

Dispersion correction           -0.065905362
FINAL SINGLE POINT ENERGY     -2929.518076888314

DIPOLE MOMENT
-------------

Method             : SCF
Type of density    : Electron Density
Multiplicity       :   1
Irrep              :   0
Energy             : -2929.6363839531486519 Eh
Relativity type    :
Basis              : AO
                                X                 Y                 Z
Electronic contribution:     11.524033765      -0.497259746       8.857572453
Nuclear contribution   :    -12.054035280      -0.470605214      -9.770089550
                        -----------------------------------------
Total Dipole Moment    :     -0.530001515      -0.967864959      -0.912517097
                        -----------------------------------------
Magnitude (a.u.)       :      1.431904898
Magnitude (Debye)      :      3.639613006

Rotational constants in cm-1:             0.012322             0.005136             0.004628
Rotational constants in MHz :           369.414922           153.960387           138.733550

                             ****ORCA TERMINATED NORMALLY****
TOTAL RUN TIME: 0 days 0 hours 0 minutes 21 seconds 280 msec
