                         Program Version 6.0.1  -  RELEASE   -
|  1> ! pbe def2-sv(p) def2/J RI DEFGRID1 loosescf d4 GCP(DFT/SV(P)) printgap
|  2> %output
|  3>     printlevel normal
|  4> end
|  5> * xyz 0 1
|  6> C 4.5095642465 0.8602595378 -1.1636523434
|  7> C 4.2317114888 -0.3545991558 -2.0334506188
|  8> O 2.8782820537 -0.8214524732 -1.8711535073
|  9> C 2.5977882319 -1.5937491335 -0.8409117256
| 10> O 3.4007479623 -1.9701287259 -0.0182959248
| 11> C 1.1295460271 -1.9873767066 -0.8330244028
| 12> C 0.2513428387 -0.7473343134 -0.6558224036
| 13> H 0.4405418245 -0.0285332227 -1.4567744804
| 14> C 0.5304803647 -0.1022729326 0.6887730117
| 15> O -0.2555955809 -0.1383591283 1.6124299179
| 16> O 1.7108319422 0.455548849 0.7148457455
| 17> C 2.1526436632 1.0492400927 1.9544945238
| 18> C 2.682742787 -0.0124715593 2.9041656065
| 19> S -1.5031746308 -1.2384243719 -0.6911680436
| 20> P -2.3498665283 0.6244281842 -0.0990848104
| 21> S -1.2278527071 2.2269419374 -0.1575968591
| 22> O -3.5256774175 0.7868453519 -1.1514168407
| 23> C -4.5441807983 -0.2129638876 -1.3413955954
| 24> O -3.2099448662 0.3747060858 1.2232438424
| 25> C -2.8111753799 0.5901899066 2.5771243108
| 26> H 5.4969092633 1.2471847689 -1.3930766106
| 27> H 3.7672577304 1.6321188398 -1.3497236993
| 28> H 4.4718346872 0.5815343432 -0.1139837701
| 29> H 4.9129629558 -1.1724626636 -1.7816073639
| 30> H 4.3040139298 -0.1107436672 -3.0933849453
| 31> H 0.9554076539 -2.6946323306 -0.0214532998
| 32> H 0.8831872115 -2.4575181142 -1.7857139273
| 33> H 2.9332587023 1.7465949994 1.6513954328
| 34> H 1.3115170354 1.5926137 2.3938005428
| 35> H 3.1448139855 0.4688225632 3.7593083797
| 36> H 1.8711226057 -0.6482666679 3.2498583366
| 37> H 3.4179471233 -0.6326569186 2.3956699214
| 38> H -5.1807048695 -0.2639140285 -0.4602812243
| 39> H -4.0828285763 -1.1832473919 -1.528373579
| 40> H -5.1083930403 0.1187940765 -2.2091296119
| 41> H -2.1648141438 1.4654841413 2.6462270234
| 42> H -2.2808409597 -0.2831310447 2.9511289353
| 43> H -3.7348884364 0.7533712189 3.1278207766
| 44> *
| 45>
| 46>                          ****END OF INPUT****

CARTESIAN COORDINATES (ANGSTROEM)
---------------------------------
  C      4.509564    0.860260   -1.163652
  C      4.231711   -0.354599   -2.033451
  O      2.878282   -0.821452   -1.871154
  C      2.597788   -1.593749   -0.840912
  O      3.400748   -1.970129   -0.018296
  C      1.129546   -1.987377   -0.833024
  C      0.251343   -0.747334   -0.655822
  H      0.440542   -0.028533   -1.456774
  C      0.530480   -0.102273    0.688773
  O     -0.255596   -0.138359    1.612430
  O      1.710832    0.455549    0.714846
  C      2.152644    1.049240    1.954495
  C      2.682743   -0.012472    2.904166
  S     -1.503175   -1.238424   -0.691168
  P     -2.349867    0.624428   -0.099085
  S     -1.227853    2.226942   -0.157597
  O     -3.525677    0.786845   -1.151417
  C     -4.544181   -0.212964   -1.341396
  O     -3.209945    0.374706    1.223244
  C     -2.811175    0.590190    2.577124
  H      5.496909    1.247185   -1.393077
  H      3.767258    1.632119   -1.349724
  H      4.471835    0.581534   -0.113984
  H      4.912963   -1.172463   -1.781607
  H      4.304014   -0.110744   -3.093385
  H      0.955408   -2.694632   -0.021453
  H      0.883187   -2.457518   -1.785714
  H      2.933259    1.746595    1.651395
  H      1.311517    1.592614    2.393801
  H      3.144814    0.468823    3.759308
  H      1.871123   -0.648267    3.249858
  H      3.417947   -0.632657    2.395670
  H     -5.180705   -0.263914   -0.460281
  H     -4.082829   -1.183247   -1.528374
  H     -5.108393    0.118794   -2.209130
  H     -2.164814    1.465484    2.646227
  H     -2.280841   -0.283131    2.951129
  H     -3.734888    0.753371    3.127821

 Total Charge           Charge          ....    0
 Multiplicity           Mult            ....    1
 Number of Electrons    NEL             ....  174
 Basis Dimension        Dim             ....  316

ORBITAL ENERGIES
----------------

  NO   OCC          E(Eh)            E(eV)
   0   2.0000     -88.034474     -2395.5398
   1   2.0000     -87.977875     -2393.9997
   2   2.0000     -76.421739     -2079.5412
   3   2.0000     -18.816582      -512.0252
   4   2.0000     -18.808062      -511.7934
   5   2.0000     -18.786371      -511.2031
   6   2.0000     -18.782518      -511.0983
   7   2.0000     -18.746092      -510.1071
   8   2.0000     -18.744797      -510.0719
   9   2.0000     -10.022070      -272.7144
  10   2.0000     -10.017651      -272.5942
  11   2.0000      -9.953172      -270.8396
  12   2.0000      -9.952069      -270.8096
  13   2.0000      -9.948632      -270.7160
  14   2.0000      -9.945348      -270.6267
  15   2.0000      -9.934891      -270.3421
  16   2.0000      -9.919306      -269.9180
  17   2.0000      -9.889410      -269.1045
  18   2.0000      -9.884674      -268.9756
  19   2.0000      -7.679669      -208.9744
  20   2.0000      -7.623194      -207.4377
  21   2.0000      -6.418433      -174.6544
  22   2.0000      -5.707611      -155.3120
  23   2.0000      -5.704462      -155.2263
  24   2.0000      -5.696281      -155.0037
  25   2.0000      -5.652414      -153.8100
  26   2.0000      -5.643800      -153.5756
  27   2.0000      -5.643004      -153.5539
  28   2.0000      -4.641172      -126.2927
  29   2.0000      -4.640262      -126.2679
  30   2.0000      -4.638915      -126.2313
  31   2.0000      -1.025676       -27.9101
  32   2.0000      -1.015656       -27.6374
  33   2.0000      -0.978231       -26.6190
  34   2.0000      -0.933881       -25.4122
  35   2.0000      -0.927809       -25.2470
  36   2.0000      -0.921610       -25.0783
  37   2.0000      -0.769130       -20.9291
  38   2.0000      -0.714702       -19.4480
  39   2.0000      -0.708155       -19.2699
  40   2.0000      -0.692659       -18.8482
  41   2.0000      -0.658905       -17.9297
  42   2.0000      -0.632651       -17.2153
  43   2.0000      -0.621844       -16.9212
  44   2.0000      -0.614956       -16.7338
  45   2.0000      -0.598474       -16.2853
  46   2.0000      -0.568459       -15.4686
  47   2.0000      -0.511603       -13.9214
  48   2.0000      -0.504647       -13.7321
  49   2.0000      -0.498099       -13.5540
  50   2.0000      -0.480711       -13.0808
  51   2.0000      -0.470915       -12.8142
  52   2.0000      -0.467788       -12.7292
  53   2.0000      -0.446496       -12.1498
  54   2.0000      -0.443856       -12.0779
  55   2.0000      -0.428506       -11.6603
  56   2.0000      -0.426408       -11.6032
  57   2.0000      -0.425074       -11.5669
  58   2.0000      -0.411947       -11.2096
  59   2.0000      -0.409637       -11.1468
  60   2.0000      -0.405477       -11.0336
  61   2.0000      -0.397860       -10.8263
  62   2.0000      -0.394043       -10.7224
  63   2.0000      -0.385325       -10.4852
  64   2.0000      -0.376800       -10.2533
  65   2.0000      -0.369188       -10.0461
  66   2.0000      -0.359478        -9.7819
  67   2.0000      -0.353173        -9.6103
  68   2.0000      -0.345538        -9.4026
  69   2.0000      -0.344611        -9.3773
  70   2.0000      -0.340580        -9.2676
  71   2.0000      -0.330760        -9.0004
  72   2.0000      -0.325010        -8.8440
  73   2.0000      -0.313626        -8.5342
  74   2.0000      -0.301707        -8.2099
  75   2.0000      -0.299481        -8.1493
  76   2.0000      -0.297348        -8.0912
  77   2.0000      -0.291036        -7.9195
  78   2.0000      -0.273290        -7.4366
  79   2.0000      -0.265887        -7.2352
  80   2.0000      -0.263031        -7.1574
  81   2.0000      -0.256022        -6.9667
  82   2.0000      -0.237171        -6.4537
  83   2.0000      -0.227456        -6.1894
  84   2.0000      -0.211391        -5.7522
  85   2.0000      -0.198904        -5.4124
  86   2.0000      -0.193698        -5.2708
  87   0.0000      -0.045743        -1.2447
  88   0.0000      -0.040077        -1.0906
  89   0.0000      -0.023398        -0.6367
  90   0.0000       0.007978         0.2171
  91   0.0000       0.028828         0.7844

MULLIKEN ATOMIC CHARGES
-----------------------
   0 C :   -0.319514
   1 C :   -0.010171
   2 O :   -0.233541
   3 C :    0.108490
   4 O :   -0.195869
   5 C :   -0.047015
   6 C :   -0.293502
   7 H :    0.160900
   8 C :    0.188189
   9 O :   -0.195967
  10 O :   -0.219505
  11 C :   -0.008124
  12 C :   -0.325656
  13 S :   -0.114552
  14 P :    0.639749
  15 S :   -0.328464
  16 O :   -0.364527
  17 C :   -0.111656
  18 O :   -0.396614
  19 C :   -0.087215
  20 H :    0.112450
  21 H :    0.124030
  22 H :    0.135127
  23 H :    0.107304
  24 H :    0.105791
  25 H :    0.109837
  26 H :    0.128006
  27 H :    0.107996
  28 H :    0.115507
  29 H :    0.112468
  30 H :    0.124411
  31 H :    0.139145
  32 H :    0.122281
  33 H :    0.121340
  34 H :    0.131233
  35 H :    0.115539
  36 H :    0.127482
  37 H :    0.114617
Sum of atomic charges:   -0.0000000

LOEWDIN ATOMIC CHARGES
----------------------
   0 C :   -0.357969
   1 C :   -0.107320
   2 O :   -0.057165
   3 C :    0.027761
   4 O :   -0.162127
   5 C :   -0.238266
   6 C :   -0.266108
   7 H :    0.143414
   8 C :    0.007882
   9 O :   -0.167345
  10 O :   -0.028825
  11 C :   -0.104900
  12 C :   -0.361614
  13 S :    0.085287
  14 P :    0.584726
  15 S :   -0.312799
  16 O :   -0.249178
  17 C :   -0.211756
  18 O :   -0.253125
  19 C :   -0.206604
  20 H :    0.130452
  21 H :    0.128834
  22 H :    0.128301
  23 H :    0.119809
  24 H :    0.119472
  25 H :    0.139618
  26 H :    0.145262
  27 H :    0.118464
  28 H :    0.123053
  29 H :    0.130316
  30 H :    0.129651
  31 H :    0.132220
  32 H :    0.115350
  33 H :    0.106001
  34 H :    0.125909
  35 H :    0.111106
  36 H :    0.116742
  37 H :    0.115469

  Mayer bond orders larger than 0.100000
B(  0-C ,  1-C ) :   1.1760 B(  0-C , 20-H ) :   0.9406 B(  0-C , 21-H ) :   0.9457
B(  0-C , 22-H ) :   0.9369 B(  1-C ,  2-O ) :   0.9171 B(  1-C , 23-H ) :   0.9175
B(  1-C , 24-H ) :   0.9375 B(  2-O ,  3-C ) :   1.2147 B(  3-C ,  4-O ) :   2.0417
B(  3-C ,  5-C ) :   1.0237 B(  5-C ,  6-C ) :   1.0559 B(  5-C , 25-H ) :   0.8975
B(  5-C , 26-H ) :   0.8876 B(  6-C ,  7-H ) :   0.8652 B(  6-C ,  8-C ) :   0.8798
B(  6-C , 13-S ) :   1.0347 B(  8-C ,  9-O ) :   1.9837 B(  8-C , 10-O ) :   1.2550
B( 10-O , 11-C ) :   0.8969 B( 11-C , 12-C ) :   1.1739 B( 11-C , 27-H ) :   0.9310
B( 11-C , 28-H ) :   0.9167 B( 12-C , 29-H ) :   0.9424 B( 12-C , 30-H ) :   0.9426
B( 12-C , 31-H ) :   0.9388 B( 13-S , 14-P ) :   0.9347 B( 13-S , 15-S ) :   0.1110
B( 14-P , 15-S ) :   1.6067 B( 14-P , 16-O ) :   1.1225 B( 14-P , 18-O ) :   1.0956
B( 16-O , 17-C ) :   0.9276 B( 17-C , 32-H ) :   0.9471 B( 17-C , 33-H ) :   0.9361
B( 17-C , 34-H ) :   0.9604 B( 18-O , 19-C ) :   0.9235 B( 19-C , 35-H ) :   0.9423
B( 19-C , 36-H ) :   0.9494 B( 19-C , 37-H ) :   0.9537

Dispersion correction           -0.052890706
FINAL SINGLE POINT ENERGY     -1979.013744943948

DIPOLE MOMENT
-------------

Method             : SCF
Type of density    : Electron Density
Multiplicity       :   1
Irrep              :   0
Energy             : -1979.1456939109634732 Eh
Relativity type    :
Basis              : AO
                                X                 Y                 Z
Electronic contribution:    -16.227532944       0.088163860      -6.635803443
Nuclear contribution   :     16.602191640      -0.482702716       6.670688741
                        -----------------------------------------
Total Dipole Moment    :      0.374658695      -0.394538856       0.034885298
                        -----------------------------------------
Magnitude (a.u.)       :      0.545203660
Magnitude (Debye)      :      1.385797573

Rotational constants in cm-1:             0.016808             0.006215             0.005603
Rotational constants in MHz :           503.886763           186.331576           167.971963

                             ****ORCA TERMINATED NORMALLY****
TOTAL RUN TIME: 0 days 0 hours 0 minutes 43 seconds 99 msec
