                         Program Version 6.0.0  -   RELEASE  -
|  1> ! pbe def2-sv(p) def2/J RI DEFGRID1 loosescf d4 GCP(DFT/SV(P)) printgap
|  2> %output
|  3>     printlevel normal
|  4> end
|  5> * xyz 0 1
|  6> C 1.6358887304 -2.5777484244 1.734110648
|  7> C 1.8853410831 -1.1245999437 2.0826270149
|  8> O 2.933966877 -0.5369669005 1.2949736768
|  9> P 2.839721344 -0.2363558446 -0.2668234466
| 10> S 2.9664644478 -1.746147617 -1.5084210159
| 11> O 4.0764149459 0.7136416997 -0.4728287868
| 12> C 4.5481707842 1.7166932262 0.4594983682
| 13> C 3.5611953271 2.8508967686 0.636509898
| 14> S 1.0707807122 0.9600337047 -0.494428141
| 15> C 0.0555724272 -0.1992368586 -1.4397917171
| 16> S -1.0869732145 -1.1466022293 -0.4097371971
| 17> P -2.516993121 0.4222288519 -0.1608227132
| 18> S -2.7947426094 1.5814494013 -1.7107624337
| 19> O -2.0126380003 1.2369745087 1.0910651292
| 20> C -1.8011426305 0.650818192 2.3998623427
| 21> C -3.0113537991 0.8578341953 3.2873661734
| 22> O -3.8061538976 -0.322656019 0.3957350452
| 23> C -4.8102549322 -0.8845028116 -0.4684092421
| 24> C -4.2819764122 -2.0366000404 -1.2979875992
| 25> H 2.5648575799 -3.1401837415 1.7788815085
| 26> H 0.9257893103 -2.9987677236 2.4383653652
| 27> H 1.2268624705 -2.6656183256 0.7288733504
| 28> H 2.2436327489 -1.0178230953 3.1081129553
| 29> H 0.9752754892 -0.5324033036 1.945541635
| 30> H 4.7610872363 1.2267989434 1.4111080782
| 31> H 5.4766999941 2.0619046846 0.0022651863
| 32> H 2.6475593489 2.4922135817 1.107557149
| 33> H 4.0066476831 3.614898564 1.2661157314
| 34> H 3.3055456905 3.2856624758 -0.3266029076
| 35> H 0.7116549412 -0.9140615882 -1.9426138447
| 36> H -0.522242442 0.3860771109 -2.1562035115
| 37> H -1.5788495786 -0.413530815 2.2796895474
| 38> H -0.9287873423 1.1767740033 2.7928457293
| 39> H -3.8696078217 0.3263380442 2.8858529301
| 40> H -2.7895693026 0.4821655652 4.2813767482
| 41> H -3.2511171805 1.9157779748 3.3483865204
| 42> H -5.5917361179 -1.2106498656 0.2193771093
| 43> H -5.1917530712 -0.0885387403 -1.1151326067
| 44> H -3.561550696 -1.67191253 -2.0288144388
| 45> H -3.7956533879 -2.7720222434 -0.661915927
| 46> H -5.1067275636 -2.5049533157 -1.8255390707
| 47> *
| 48>
| 49>                          ****END OF INPUT****

CARTESIAN COORDINATES (ANGSTROEM)
---------------------------------
  C      1.635889   -2.577748    1.734111
  C      1.885341   -1.124600    2.082627
  O      2.933967   -0.536967    1.294974
  P      2.839721   -0.236356   -0.266823
  S      2.966464   -1.746148   -1.508421
  O      4.076415    0.713642   -0.472829
  C      4.548171    1.716693    0.459498
  C      3.561195    2.850897    0.636510
  S      1.070781    0.960034   -0.494428
  C      0.055572   -0.199237   -1.439792
  S     -1.086973   -1.146602   -0.409737
  P     -2.516993    0.422229   -0.160823
  S     -2.794743    1.581449   -1.710762
  O     -2.012638    1.236975    1.091065
  C     -1.801143    0.650818    2.399862
  C     -3.011354    0.857834    3.287366
  O     -3.806154   -0.322656    0.395735
  C     -4.810255   -0.884503   -0.468409
  C     -4.281976   -2.036600   -1.297988
  H      2.564858   -3.140184    1.778882
  H      0.925789   -2.998768    2.438365
  H      1.226862   -2.665618    0.728873
  H      2.243633   -1.017823    3.108113
  H      0.975275   -0.532403    1.945542
  H      4.761087    1.226799    1.411108
  H      5.476700    2.061905    0.002265
  H      2.647559    2.492214    1.107557
  H      4.006648    3.614899    1.266116
  H      3.305546    3.285662   -0.326603
  H      0.711655   -0.914062   -1.942614
  H     -0.522242    0.386077   -2.156204
  H     -1.578850   -0.413531    2.279690
  H     -0.928787    1.176774    2.792846
  H     -3.869608    0.326338    2.885853
  H     -2.789569    0.482166    4.281377
  H     -3.251117    1.915778    3.348387
  H     -5.591736   -1.210650    0.219377
  H     -5.191753   -0.088539   -1.115133
  H     -3.561551   -1.671913   -2.028814
  H     -3.795653   -2.772022   -0.661916
  H     -5.106728   -2.504953   -1.825539

 Total Charge           Charge          ....    0
 Multiplicity           Mult            ....    1
 Number of Electrons    NEL             ....  202
 Basis Dimension        Dim             ....  334

ORBITAL ENERGIES
----------------

  NO   OCC          E(Eh)            E(eV)
   0   2.0000     -88.045554     -2395.8413
   1   2.0000     -88.042765     -2395.7654
   2   2.0000     -87.990465     -2394.3423
   3   2.0000     -87.985257     -2394.2005
   4   2.0000     -76.430425     -2079.7776
   5   2.0000     -76.427877     -2079.7083
   6   2.0000     -18.800809      -511.5960
   7   2.0000     -18.796160      -511.4695
   8   2.0000     -18.795765      -511.4588
   9   2.0000     -18.793304      -511.3918
  10   2.0000      -9.962443      -271.0919
  11   2.0000      -9.959417      -271.0095
  12   2.0000      -9.958820      -270.9933
  13   2.0000      -9.958597      -270.9872
  14   2.0000      -9.947696      -270.6906
  15   2.0000      -9.893113      -269.2053
  16   2.0000      -9.891674      -269.1661
  17   2.0000      -9.887742      -269.0591
  18   2.0000      -9.883205      -268.9357
  19   2.0000      -7.690109      -209.2585
  20   2.0000      -7.687091      -209.1764
  21   2.0000      -7.635673      -207.7772
  22   2.0000      -7.630467      -207.6356
  23   2.0000      -6.428106      -174.9176
  24   2.0000      -6.425176      -174.8379
  25   2.0000      -5.717730      -155.5873
  26   2.0000      -5.714922      -155.5109
  27   2.0000      -5.714717      -155.5054
  28   2.0000      -5.711579      -155.4200
  29   2.0000      -5.707329      -155.3043
  30   2.0000      -5.704298      -155.2218
  31   2.0000      -5.664689      -154.1440
  32   2.0000      -5.659503      -154.0029
  33   2.0000      -5.656144      -153.9115
  34   2.0000      -5.655853      -153.9036
  35   2.0000      -5.650977      -153.7709
  36   2.0000      -5.650564      -153.7597
  37   2.0000      -4.651049      -126.5615
  38   2.0000      -4.649733      -126.5257
  39   2.0000      -4.648324      -126.4873
  40   2.0000      -4.648083      -126.4808
  41   2.0000      -4.646932      -126.4495
  42   2.0000      -4.645365      -126.4068
  43   2.0000      -0.994147       -27.0521
  44   2.0000      -0.990928       -26.9645
  45   2.0000      -0.951476       -25.8910
  46   2.0000      -0.946522       -25.7562
  47   2.0000      -0.762877       -20.7589
  48   2.0000      -0.725046       -19.7295
  49   2.0000      -0.715847       -19.4792
  50   2.0000      -0.695771       -18.9329
  51   2.0000      -0.693732       -18.8774
  52   2.0000      -0.679921       -18.5016
  53   2.0000      -0.653481       -17.7821
  54   2.0000      -0.639402       -17.3990
  55   2.0000      -0.600439       -16.3388
  56   2.0000      -0.593172       -16.1410
  57   2.0000      -0.584104       -15.8943
  58   2.0000      -0.580913       -15.8074
  59   2.0000      -0.560519       -15.2525
  60   2.0000      -0.506434       -13.7808
  61   2.0000      -0.500559       -13.6209
  62   2.0000      -0.480550       -13.0764
  63   2.0000      -0.476483       -12.9658
  64   2.0000      -0.458903       -12.4874
  65   2.0000      -0.453592       -12.3429
  66   2.0000      -0.447445       -12.1756
  67   2.0000      -0.435772       -11.8579
  68   2.0000      -0.432574       -11.7709
  69   2.0000      -0.429990       -11.7006
  70   2.0000      -0.413463       -11.2509
  71   2.0000      -0.407808       -11.0970
  72   2.0000      -0.398909       -10.8549
  73   2.0000      -0.390824       -10.6349
  74   2.0000      -0.380437       -10.3522
  75   2.0000      -0.372142       -10.1265
  76   2.0000      -0.367197        -9.9919
  77   2.0000      -0.361044        -9.8245
  78   2.0000      -0.357205        -9.7200
  79   2.0000      -0.356361        -9.6971
  80   2.0000      -0.354637        -9.6502
  81   2.0000      -0.350728        -9.5438
  82   2.0000      -0.344765        -9.3815
  83   2.0000      -0.343697        -9.3525
  84   2.0000      -0.338749        -9.2178
  85   2.0000      -0.323834        -8.8120
  86   2.0000      -0.312848        -8.5130
  87   2.0000      -0.303060        -8.2467
  88   2.0000      -0.301018        -8.1911
  89   2.0000      -0.297667        -8.0999
  90   2.0000      -0.293740        -7.9931
  91   2.0000      -0.278966        -7.5911
  92   2.0000      -0.276561        -7.5256
  93   2.0000      -0.267805        -7.2874
  94   2.0000      -0.258810        -7.0426
  95   2.0000      -0.238519        -6.4904
  96   2.0000      -0.220760        -6.0072
  97   2.0000      -0.212848        -5.7919
  98   2.0000      -0.205243        -5.5849
  99   2.0000      -0.202755        -5.5172
 100   2.0000      -0.198591        -5.4039
 101   0.0000      -0.044979        -1.2239
 102   0.0000      -0.031680        -0.8621
 103   0.0000      -0.009710        -0.2642
 104   0.0000      -0.000824        -0.0224
 105   0.0000       0.007740         0.2106

MULLIKEN ATOMIC CHARGES
-----------------------
   0 C :   -0.301248
   1 C :   -0.036771
   2 O :   -0.381462
   3 P :    0.613622
   4 S :   -0.304622
   5 O :   -0.357262
   6 C :    0.002397
   7 C :   -0.329748
   8 S :   -0.113692
   9 C :   -0.356328
  10 S :   -0.105556
  11 P :    0.600281
  12 S :   -0.305399
  13 O :   -0.350338
  14 C :   -0.038718
  15 C :   -0.272618
  16 O :   -0.383694
  17 C :   -0.001109
  18 C :   -0.318942
  19 H :    0.121114
  20 H :    0.105134
  21 H :    0.128374
  22 H :    0.102466
  23 H :    0.125468
  24 H :    0.111306
  25 H :    0.113340
  26 H :    0.127770
  27 H :    0.117780
  28 H :    0.133028
  29 H :    0.194943
  30 H :    0.196331
  31 H :    0.109291
  32 H :    0.117071
  33 H :    0.122193
  34 H :    0.108298
  35 H :    0.120826
  36 H :    0.105584
  37 H :    0.115341
  38 H :    0.131391
  39 H :    0.118011
  40 H :    0.116149
Sum of atomic charges:   -0.0000000

LOEWDIN ATOMIC CHARGES
----------------------
   0 C :   -0.366963
   1 C :   -0.122238
   2 O :   -0.246576
   3 P :    0.570019
   4 S :   -0.295169
   5 O :   -0.233464
   6 C :   -0.109310
   7 C :   -0.369324
   8 S :    0.076123
   9 C :   -0.495756
  10 S :    0.080240
  11 P :    0.571294
  12 S :   -0.301837
  13 O :   -0.234840
  14 C :   -0.117757
  15 C :   -0.358361
  16 O :   -0.247289
  17 C :   -0.115896
  18 C :   -0.371026
  19 H :    0.129270
  20 H :    0.127651
  21 H :    0.115634
  22 H :    0.117711
  23 H :    0.102082
  24 H :    0.114733
  25 H :    0.124169
  26 H :    0.116249
  27 H :    0.133756
  28 H :    0.131999
  29 H :    0.125840
  30 H :    0.128128
  31 H :    0.102390
  32 H :    0.119956
  33 H :    0.126869
  34 H :    0.129175
  35 H :    0.129973
  36 H :    0.118716
  37 H :    0.114508
  38 H :    0.123101
  39 H :    0.123495
  40 H :    0.132722

  Mayer bond orders larger than 0.100000
B(  0-C ,  1-C ) :   1.1656 B(  0-C , 19-H ) :   0.9439 B(  0-C , 20-H ) :   0.9369
B(  0-C , 21-H ) :   0.9278 B(  1-C ,  2-O ) :   0.9172 B(  1-C , 22-H ) :   0.9337
B(  1-C , 23-H ) :   0.9029 B(  2-O ,  3-P ) :   1.0664 B(  3-P ,  4-S ) :   1.6464
B(  3-P ,  5-O ) :   1.1481 B(  3-P ,  8-S ) :   0.9362 B(  4-S ,  8-S ) :   0.1181
B(  4-S , 29-H ) :   0.1233 B(  5-O ,  6-C ) :   0.8999 B(  6-C ,  7-C ) :   1.1682
B(  6-C , 24-H ) :   0.9264 B(  6-C , 25-H ) :   0.9333 B(  7-C , 26-H ) :   0.9329
B(  7-C , 27-H ) :   0.9359 B(  7-C , 28-H ) :   0.9433 B(  8-S ,  9-C ) :   1.0073
B(  9-C , 10-S ) :   1.0024 B(  9-C , 29-H ) :   0.8460 B(  9-C , 30-H ) :   0.8632
B( 10-S , 11-P ) :   0.9468 B( 10-S , 12-S ) :   0.1092 B( 11-P , 12-S ) :   1.6395
B( 11-P , 13-O ) :   1.1408 B( 11-P , 16-O ) :   1.0830 B( 13-O , 14-C ) :   0.8980
B( 14-C , 15-C ) :   1.1558 B( 14-C , 31-H ) :   0.9058 B( 14-C , 32-H ) :   0.9306
B( 15-C , 33-H ) :   0.9406 B( 15-C , 34-H ) :   0.9399 B( 15-C , 35-H ) :   0.9456
B( 16-O , 17-C ) :   0.9030 B( 17-C , 18-C ) :   1.1665 B( 17-C , 36-H ) :   0.9339
B( 17-C , 37-H ) :   0.9193 B( 18-C , 38-H ) :   0.9345 B( 18-C , 39-H ) :   0.9434
B( 18-C , 40-H ) :   0.9366

Dispersion correction           -0.064362863
FINAL SINGLE POINT ENERGY     -2929.517499690128

DIPOLE MOMENT
-------------

Method             : SCF
Type of density    : Electron Density
Multiplicity       :   1
Irrep              :   0
Energy             : -2929.6387182024254798 Eh
Relativity type    :
Basis              : AO
                                X                 Y                 Z
Electronic contribution:      6.647631326       2.864829408     -16.773901593
Nuclear contribution   :     -7.163254327      -2.918480707      18.865216745
                        -----------------------------------------
Total Dipole Moment    :     -0.515623001      -0.053651299       2.091315152
                        -----------------------------------------
Magnitude (a.u.)       :      2.154610082
Magnitude (Debye)      :      5.476583597

Rotational constants in cm-1:             0.012397             0.004491             0.004365
Rotational constants in MHz :           371.642050           134.622211           130.853475

                             ****ORCA TERMINATED NORMALLY****
TOTAL RUN TIME: 0 days 0 hours 0 minutes 21 seconds 146 msec
