                         Program Version 6.0.0  -   RELEASE  -
|  1> ! r2scan-3c def2/J RI DEFGRID2 scfconv6 printgap
|  2> %output
|  3>     printlevel normal
|  4> end
|  5> * xyz 0 1
|  6> C -0.0344068951 -1.1964199183 3.1219092521
|  7> C 1.2777263325 -1.3629635116 2.3838393132
|  8> O 1.5386564428 -0.1678483237 1.6157863221
|  9> P 2.3314502475 -0.1421146936 0.2451376095
| 10> S 2.9909779502 -1.8969530284 -0.3419232424
| 11> O 3.3983274301 0.9615146547 0.6399715363
| 12> C 4.1437342243 1.7728919876 -0.286928918
| 13> C 4.8997841044 0.9516699426 -1.3111430348
| 14> S 1.0971151064 0.8868780673 -1.144966092
| 15> C 0.2583902879 -0.580043988 -1.7954173426
| 16> S -0.7483898046 -1.4260819447 -0.5492184493
| 17> P -2.0918189956 0.1731994876 -0.2154513458
| 18> S -2.6617794215 1.1977741854 -1.7907014668
| 19> O -1.3003979433 0.9715083687 0.8995786932
| 20> C -1.480014808 2.3834226124 1.1162392617
| 21> C -2.8347757825 2.6849952144 1.7213680325
| 22> O -3.2629259965 -0.4763996375 0.6388187768
| 23> C -4.4348581367 -1.0517162679 0.0355655023
| 24> C -4.118878769 -2.3206680423 -0.7295941935
| 25> H 0.004760478 -0.3131427462 3.7526582234
| 26> H -0.8574668668 -1.0887968866 2.4196346259
| 27> H -0.2042394751 -2.0738835959 3.7373243902
| 28> H 1.2530537425 -2.2257231307 1.709630471
| 29> H 2.1090360839 -1.4836315664 3.0827690149
| 30> H 3.4482976661 2.4599837278 -0.7775540394
| 31> H 4.8246581367 2.3335048229 0.3561010888
| 32> H 5.5163676085 1.6089718182 -1.9157366082
| 33> H 5.5321159455 0.218228912 -0.8163716398
| 34> H 4.2023162949 0.4236781598 -1.9599132028
| 35> H 0.9987150511 -1.3033459056 -2.1371833393
| 36> H -0.3761901516 -0.2378791731 -2.6123449391
| 37> H -0.6621438395 2.6513999458 1.7868519002
| 38> H -1.3563780317 2.9008769359 0.1589355389
| 39> H -2.9004893287 3.7441296801 1.9496762497
| 40> H -3.6200971352 2.4263501239 1.0117412064
| 41> H -2.9782845561 2.1071013431 2.6304860259
| 42> H -5.0964711906 -1.2443615335 0.8811096691
| 43> H -4.883572915 -0.3054866308 -0.6278937098
| 44> H -3.5763369182 -3.0193299952 -0.0975659926
| 45> H -5.0442646452 -2.7791617796 -1.0632489994
| 46> H -3.5064229806 -2.0888960208 -1.6001388614
| 47> *
| 48>
| 49>                          ****END OF INPUT****

CARTESIAN COORDINATES (ANGSTROEM)
---------------------------------
  C     -0.034407   -1.196420    3.121909
  C      1.277726   -1.362964    2.383839
  O      1.538656   -0.167848    1.615786
  P      2.331450   -0.142115    0.245138
  S      2.990978   -1.896953   -0.341923
  O      3.398327    0.961515    0.639972
  C      4.143734    1.772892   -0.286929
  C      4.899784    0.951670   -1.311143
  S      1.097115    0.886878   -1.144966
  C      0.258390   -0.580044   -1.795417
  S     -0.748390   -1.426082   -0.549218
  P     -2.091819    0.173199   -0.215451
  S     -2.661779    1.197774   -1.790701
  O     -1.300398    0.971508    0.899579
  C     -1.480015    2.383423    1.116239
  C     -2.834776    2.684995    1.721368
  O     -3.262926   -0.476400    0.638819
  C     -4.434858   -1.051716    0.035566
  C     -4.118879   -2.320668   -0.729594
  H      0.004760   -0.313143    3.752658
  H     -0.857467   -1.088797    2.419635
  H     -0.204239   -2.073884    3.737324
  H      1.253054   -2.225723    1.709630
  H      2.109036   -1.483632    3.082769
  H      3.448298    2.459984   -0.777554
  H      4.824658    2.333505    0.356101
  H      5.516368    1.608972   -1.915737
  H      5.532116    0.218229   -0.816372
  H      4.202316    0.423678   -1.959913
  H      0.998715   -1.303346   -2.137183
  H     -0.376190   -0.237879   -2.612345
  H     -0.662144    2.651400    1.786852
  H     -1.356378    2.900877    0.158936
  H     -2.900489    3.744130    1.949676
  H     -3.620097    2.426350    1.011741
  H     -2.978285    2.107101    2.630486
  H     -5.096471   -1.244362    0.881110
  H     -4.883573   -0.305487   -0.627894
  H     -3.576337   -3.019330   -0.097566
  H     -5.044265   -2.779162   -1.063249
  H     -3.506423   -2.088896   -1.600139

 Total Charge           Charge          ....    0
 Multiplicity           Mult            ....    1
 Number of Electrons    NEL             ....  202
 Basis Dimension        Dim             ....  539

ORBITAL ENERGIES
----------------

  NO   OCC          E(Eh)            E(eV)
   0   2.0000     -88.577300     -2410.3109
   1   2.0000     -88.575214     -2410.2541
   2   2.0000     -88.524650     -2408.8782
   3   2.0000     -88.516832     -2408.6655
   4   2.0000     -76.916197     -2092.9961
   5   2.0000     -76.912384     -2092.8924
   6   2.0000     -18.997054      -516.9361
   7   2.0000     -18.990242      -516.7507
   8   2.0000     -18.988221      -516.6958
   9   2.0000     -18.982914      -516.5514
  10   2.0000     -10.106555      -275.0133
  11   2.0000     -10.102492      -274.9028
  12   2.0000     -10.102184      -274.8944
  13   2.0000     -10.096192      -274.7313
  14   2.0000     -10.089449      -274.5479
  15   2.0000     -10.031438      -272.9693
  16   2.0000     -10.028778      -272.8969
  17   2.0000     -10.026234      -272.8277
  18   2.0000     -10.021926      -272.7105
  19   2.0000      -7.871715      -214.2003
  20   2.0000      -7.869570      -214.1419
  21   2.0000      -7.819367      -212.7758
  22   2.0000      -7.811736      -212.5681
  23   2.0000      -6.594831      -179.4545
  24   2.0000      -6.590520      -179.3372
  25   2.0000      -5.818533      -158.3303
  26   2.0000      -5.816403      -158.2724
  27   2.0000      -5.815651      -158.2519
  28   2.0000      -5.813379      -158.1901
  29   2.0000      -5.808799      -158.0654
  30   2.0000      -5.806776      -158.0104
  31   2.0000      -5.766958      -156.9269
  32   2.0000      -5.759644      -156.7279
  33   2.0000      -5.759444      -156.7224
  34   2.0000      -5.759412      -156.7216
  35   2.0000      -5.752042      -156.5210
  36   2.0000      -5.751673      -156.5110
  37   2.0000      -4.740167      -128.9865
  38   2.0000      -4.739701      -128.9738
  39   2.0000      -4.738747      -128.9479
  40   2.0000      -4.735962      -128.8721
  41   2.0000      -4.735609      -128.8625
  42   2.0000      -4.734194      -128.8240
  43   2.0000      -1.052474       -28.6393
  44   2.0000      -1.046340       -28.4724
  45   2.0000      -1.013151       -27.5692
  46   2.0000      -1.004409       -27.3314
  47   2.0000      -0.804186       -21.8830
  48   2.0000      -0.758401       -20.6371
  49   2.0000      -0.749276       -20.3888
  50   2.0000      -0.732578       -19.9345
  51   2.0000      -0.726711       -19.7748
  52   2.0000      -0.711367       -19.3573
  53   2.0000      -0.686118       -18.6702
  54   2.0000      -0.670053       -18.2331
  55   2.0000      -0.635279       -17.2868
  56   2.0000      -0.624200       -16.9853
  57   2.0000      -0.606800       -16.5119
  58   2.0000      -0.601605       -16.3705
  59   2.0000      -0.589568       -16.0430
  60   2.0000      -0.525387       -14.2965
  61   2.0000      -0.518507       -14.1093
  62   2.0000      -0.495039       -13.4707
  63   2.0000      -0.487436       -13.2638
  64   2.0000      -0.477457       -12.9923
  65   2.0000      -0.461092       -12.5470
  66   2.0000      -0.460139       -12.5210
  67   2.0000      -0.448727       -12.2105
  68   2.0000      -0.440999       -12.0002
  69   2.0000      -0.435506       -11.8507
  70   2.0000      -0.430527       -11.7152
  71   2.0000      -0.413731       -11.2582
  72   2.0000      -0.411639       -11.2013
  73   2.0000      -0.405496       -11.0341
  74   2.0000      -0.398481       -10.8432
  75   2.0000      -0.392783       -10.6882
  76   2.0000      -0.382913       -10.4196
  77   2.0000      -0.373536       -10.1644
  78   2.0000      -0.365189        -9.9373
  79   2.0000      -0.362763        -9.8713
  80   2.0000      -0.361966        -9.8496
  81   2.0000      -0.359663        -9.7869
  82   2.0000      -0.356323        -9.6961
  83   2.0000      -0.352090        -9.5808
  84   2.0000      -0.342900        -9.3308
  85   2.0000      -0.336410        -9.1542
  86   2.0000      -0.324113        -8.8196
  87   2.0000      -0.312942        -8.5156
  88   2.0000      -0.310148        -8.4395
  89   2.0000      -0.301970        -8.2170
  90   2.0000      -0.297685        -8.1004
  91   2.0000      -0.290650        -7.9090
  92   2.0000      -0.285328        -7.7642
  93   2.0000      -0.282380        -7.6840
  94   2.0000      -0.267944        -7.2911
  95   2.0000      -0.245188        -6.6719
  96   2.0000      -0.230940        -6.2842
  97   2.0000      -0.228559        -6.2194
  98   2.0000      -0.222171        -6.0456
  99   2.0000      -0.212574        -5.7844
 100   2.0000      -0.211144        -5.7455
 101   0.0000      -0.049795        -1.3550
 102   0.0000      -0.026036        -0.7085
 103   0.0000      -0.002818        -0.0767
 104   0.0000      -0.001693        -0.0461
 105   0.0000       0.009484         0.2581

MULLIKEN ATOMIC CHARGES
-----------------------
   0 C :   -0.466249
   1 C :   -0.104242
   2 O :   -0.277037
   3 P :    0.674749
   4 S :   -0.465327
   5 O :   -0.301128
   6 C :   -0.150461
   7 C :   -0.425523
   8 S :   -0.149122
   9 C :   -0.236898
  10 S :   -0.129604
  11 P :    0.691705
  12 S :   -0.484197
  13 O :   -0.248478
  14 C :   -0.161878
  15 C :   -0.444969
  16 O :   -0.306654
  17 C :   -0.151022
  18 C :   -0.453635
  19 H :    0.147080
  20 H :    0.168516
  21 H :    0.143066
  22 H :    0.171247
  23 H :    0.147010
  24 H :    0.151054
  25 H :    0.150349
  26 H :    0.146597
  27 H :    0.164417
  28 H :    0.168753
  29 H :    0.212910
  30 H :    0.212536
  31 H :    0.159521
  32 H :    0.172263
  33 H :    0.147547
  34 H :    0.166274
  35 H :    0.156257
  36 H :    0.149294
  37 H :    0.171669
  38 H :    0.156306
  39 H :    0.149312
  40 H :    0.177995
Sum of atomic charges:   -0.0000000

LOEWDIN ATOMIC CHARGES
----------------------
   0 C :   -0.393079
   1 C :    0.014304
   2 O :   -0.653256
   3 P :    0.386464
   4 S :   -0.130920
   5 O :   -0.652119
   6 C :    0.022832
   7 C :   -0.406734
   8 S :    0.162514
   9 C :   -0.420066
  10 S :    0.176658
  11 P :    0.376755
  12 S :   -0.128135
  13 O :   -0.682720
  14 C :    0.017692
  15 C :   -0.398940
  16 O :   -0.661684
  17 C :    0.020530
  18 C :   -0.406507
  19 H :    0.158753
  20 H :    0.168021
  21 H :    0.157569
  22 H :    0.182219
  23 H :    0.172118
  24 H :    0.171510
  25 H :    0.181652
  26 H :    0.157858
  27 H :    0.165449
  28 H :    0.165927
  29 H :    0.192114
  30 H :    0.189685
  31 H :    0.182684
  32 H :    0.181114
  33 H :    0.159452
  34 H :    0.164098
  35 H :    0.160203
  36 H :    0.180022
  37 H :    0.179748
  38 H :    0.160386
  39 H :    0.159895
  40 H :    0.165933

  Mayer bond orders larger than 0.100000
B(  0-C ,  1-C ) :   0.9366 B(  0-C , 19-H ) :   0.9683 B(  0-C , 20-H ) :   0.9667
B(  0-C , 21-H ) :   0.9677 B(  1-C ,  2-O ) :   0.7542 B(  1-C , 22-H ) :   0.9609
B(  1-C , 23-H ) :   0.9453 B(  2-O ,  3-P ) :   1.1600 B(  3-P ,  4-S ) :   1.7778
B(  3-P ,  5-O ) :   1.1195 B(  3-P ,  8-S ) :   1.0211 B(  5-O ,  6-C ) :   0.8081
B(  6-C ,  7-C ) :   0.9403 B(  6-C , 24-H ) :   0.9628 B(  6-C , 25-H ) :   0.9585
B(  7-C , 26-H ) :   0.9629 B(  7-C , 27-H ) :   0.9662 B(  7-C , 28-H ) :   0.9544
B(  8-S ,  9-C ) :   0.9037 B(  9-C , 10-S ) :   0.8965 B(  9-C , 29-H ) :   0.9070
B(  9-C , 30-H ) :   0.9111 B( 10-S , 11-P ) :   1.0799 B( 11-P , 12-S ) :   1.7636
B( 11-P , 13-O ) :   1.1154 B( 11-P , 16-O ) :   1.0506 B( 13-O , 14-C ) :   0.7771
B( 14-C , 15-C ) :   0.9166 B( 14-C , 31-H ) :   0.9639 B( 14-C , 32-H ) :   0.9591
B( 15-C , 33-H ) :   0.9632 B( 15-C , 34-H ) :   0.9608 B( 15-C , 35-H ) :   0.9746
B( 16-O , 17-C ) :   0.8134 B( 17-C , 18-C ) :   0.9217 B( 17-C , 36-H ) :   0.9580
B( 17-C , 37-H ) :   0.9668 B( 18-C , 38-H ) :   0.9689 B( 18-C , 39-H ) :   0.9582
B( 18-C , 40-H ) :   0.9624

Dispersion correction           -0.022257445
FINAL SINGLE POINT ENERGY     -2932.461318567862

DIPOLE MOMENT
-------------

Method             : SCF
Type of density    : Electron Density
Multiplicity       :   1
Irrep              :   0
Energy             : -2932.4856535656422238 Eh
Relativity type    :
Basis              : AO
                                X                 Y                 Z
Electronic contribution:      6.435549743      -2.078075468      -8.698893308
Nuclear contribution   :     -6.957742887       2.570156194       9.399229472
                        -----------------------------------------
Total Dipole Moment    :     -0.522193144       0.492080726       0.700336163
                        -----------------------------------------
Magnitude (a.u.)       :      1.002646429
Magnitude (Debye)      :      2.548524689

Rotational constants in cm-1:             0.012737             0.005199             0.005048
Rotational constants in MHz :           381.852287           155.876860           151.320717

                             ****ORCA TERMINATED NORMALLY****
TOTAL RUN TIME: 0 days 0 hours 1 minutes 26 seconds 79 msec
