                         Program Version 6.0.0  -   RELEASE  -
|  1> ! r2scan-3c def2/J RI DEFGRID2 scfconv6 printgap
|  2> %output
|  3>     printlevel normal
|  4> end
|  5> %cpcm
|  6>     smd true
|  7>     smdsolvent "water"
|  8> end
|  9> * xyz 0 1
| 10> C -0.0344068951 -1.1964199183 3.1219092521
| 11> C 1.2777263325 -1.3629635116 2.3838393132
| 12> O 1.5386564428 -0.1678483237 1.6157863221
| 13> P 2.3314502475 -0.1421146936 0.2451376095
| 14> S 2.9909779502 -1.8969530284 -0.3419232424
| 15> O 3.3983274301 0.9615146547 0.6399715363
| 16> C 4.1437342243 1.7728919876 -0.286928918
| 17> C 4.8997841044 0.9516699426 -1.3111430348
| 18> S 1.0971151064 0.8868780673 -1.144966092
| 19> C 0.2583902879 -0.580043988 -1.7954173426
| 20> S -0.7483898046 -1.4260819447 -0.5492184493
| 21> P -2.0918189956 0.1731994876 -0.2154513458
| 22> S -2.6617794215 1.1977741854 -1.7907014668
| 23> O -1.3003979433 0.9715083687 0.8995786932
| 24> C -1.480014808 2.3834226124 1.1162392617
| 25> C -2.8347757825 2.6849952144 1.7213680325
| 26> O -3.2629259965 -0.4763996375 0.6388187768
| 27> C -4.4348581367 -1.0517162679 0.0355655023
| 28> C -4.118878769 -2.3206680423 -0.7295941935
| 29> H 0.004760478 -0.3131427462 3.7526582234
| 30> H -0.8574668668 -1.0887968866 2.4196346259
| 31> H -0.2042394751 -2.0738835959 3.7373243902
| 32> H 1.2530537425 -2.2257231307 1.709630471
| 33> H 2.1090360839 -1.4836315664 3.0827690149
| 34> H 3.4482976661 2.4599837278 -0.7775540394
| 35> H 4.8246581367 2.3335048229 0.3561010888
| 36> H 5.5163676085 1.6089718182 -1.9157366082
| 37> H 5.5321159455 0.218228912 -0.8163716398
| 38> H 4.2023162949 0.4236781598 -1.9599132028
| 39> H 0.9987150511 -1.3033459056 -2.1371833393
| 40> H -0.3761901516 -0.2378791731 -2.6123449391
| 41> H -0.6621438395 2.6513999458 1.7868519002
| 42> H -1.3563780317 2.9008769359 0.1589355389
| 43> H -2.9004893287 3.7441296801 1.9496762497
| 44> H -3.6200971352 2.4263501239 1.0117412064
| 45> H -2.9782845561 2.1071013431 2.6304860259
| 46> H -5.0964711906 -1.2443615335 0.8811096691
| 47> H -4.883572915 -0.3054866308 -0.6278937098
| 48> H -3.5763369182 -3.0193299952 -0.0975659926
| 49> H -5.0442646452 -2.7791617796 -1.0632489994
| 50> H -3.5064229806 -2.0888960208 -1.6001388614
| 51> *
| 52>
| 53>                          ****END OF INPUT****

CARTESIAN COORDINATES (ANGSTROEM)
---------------------------------
  C     -0.034407   -1.196420    3.121909
  C      1.277726   -1.362964    2.383839
  O      1.538656   -0.167848    1.615786
  P      2.331450   -0.142115    0.245138
  S      2.990978   -1.896953   -0.341923
  O      3.398327    0.961515    0.639972
  C      4.143734    1.772892   -0.286929
  C      4.899784    0.951670   -1.311143
  S      1.097115    0.886878   -1.144966
  C      0.258390   -0.580044   -1.795417
  S     -0.748390   -1.426082   -0.549218
  P     -2.091819    0.173199   -0.215451
  S     -2.661779    1.197774   -1.790701
  O     -1.300398    0.971508    0.899579
  C     -1.480015    2.383423    1.116239
  C     -2.834776    2.684995    1.721368
  O     -3.262926   -0.476400    0.638819
  C     -4.434858   -1.051716    0.035566
  C     -4.118879   -2.320668   -0.729594
  H      0.004760   -0.313143    3.752658
  H     -0.857467   -1.088797    2.419635
  H     -0.204239   -2.073884    3.737324
  H      1.253054   -2.225723    1.709630
  H      2.109036   -1.483632    3.082769
  H      3.448298    2.459984   -0.777554
  H      4.824658    2.333505    0.356101
  H      5.516368    1.608972   -1.915737
  H      5.532116    0.218229   -0.816372
  H      4.202316    0.423678   -1.959913
  H      0.998715   -1.303346   -2.137183
  H     -0.376190   -0.237879   -2.612345
  H     -0.662144    2.651400    1.786852
  H     -1.356378    2.900877    0.158936
  H     -2.900489    3.744130    1.949676
  H     -3.620097    2.426350    1.011741
  H     -2.978285    2.107101    2.630486
  H     -5.096471   -1.244362    0.881110
  H     -4.883573   -0.305487   -0.627894
  H     -3.576337   -3.019330   -0.097566
  H     -5.044265   -2.779162   -1.063249
  H     -3.506423   -2.088896   -1.600139

 Total Charge           Charge          ....    0
 Multiplicity           Mult            ....    1
 Number of Electrons    NEL             ....  202
 Basis Dimension        Dim             ....  539

ORBITAL ENERGIES
----------------

  NO   OCC          E(Eh)            E(eV)
   0   2.0000     -88.579398     -2410.3679
   1   2.0000     -88.579252     -2410.3640
   2   2.0000     -88.529503     -2409.0102
   3   2.0000     -88.526365     -2408.9249
   4   2.0000     -76.919980     -2093.0991
   5   2.0000     -76.919427     -2093.0840
   6   2.0000     -18.996841      -516.9303
   7   2.0000     -18.995182      -516.8852
   8   2.0000     -18.991333      -516.7804
   9   2.0000     -18.990836      -516.7669
  10   2.0000     -10.105440      -274.9830
  11   2.0000     -10.093108      -274.6474
  12   2.0000     -10.090314      -274.5714
  13   2.0000     -10.088763      -274.5292
  14   2.0000     -10.087677      -274.4996
  15   2.0000     -10.018949      -272.6295
  16   2.0000     -10.018528      -272.6180
  17   2.0000     -10.018419      -272.6150
  18   2.0000     -10.017027      -272.5772
  19   2.0000      -7.873839      -214.2581
  20   2.0000      -7.873573      -214.2508
  21   2.0000      -7.824492      -212.9152
  22   2.0000      -7.821556      -212.8354
  23   2.0000      -6.598203      -179.5462
  24   2.0000      -6.598082      -179.5429
  25   2.0000      -5.820646      -158.3878
  26   2.0000      -5.820420      -158.3817
  27   2.0000      -5.817772      -158.3096
  28   2.0000      -5.817376      -158.2988
  29   2.0000      -5.810940      -158.1237
  30   2.0000      -5.810782      -158.1194
  31   2.0000      -5.772036      -157.0651
  32   2.0000      -5.769167      -156.9870
  33   2.0000      -5.764751      -156.8669
  34   2.0000      -5.764579      -156.8622
  35   2.0000      -5.761889      -156.7890
  36   2.0000      -5.761475      -156.7777
  37   2.0000      -4.743618      -129.0804
  38   2.0000      -4.743379      -129.0739
  39   2.0000      -4.743307      -129.0720
  40   2.0000      -4.742967      -129.0627
  41   2.0000      -4.742051      -129.0378
  42   2.0000      -4.741906      -129.0338
  43   2.0000      -1.053352       -28.6632
  44   2.0000      -1.052301       -28.6346
  45   2.0000      -1.013628       -27.5822
  46   2.0000      -1.010357       -27.4932
  47   2.0000      -0.805811       -21.9272
  48   2.0000      -0.756640       -20.5892
  49   2.0000      -0.744586       -20.2612
  50   2.0000      -0.723471       -19.6866
  51   2.0000      -0.721813       -19.6415
  52   2.0000      -0.711088       -19.3497
  53   2.0000      -0.689868       -18.7723
  54   2.0000      -0.675541       -18.3824
  55   2.0000      -0.633303       -17.2331
  56   2.0000      -0.623102       -16.9555
  57   2.0000      -0.599361       -16.3094
  58   2.0000      -0.599035       -16.3006
  59   2.0000      -0.588536       -16.0149
  60   2.0000      -0.524641       -14.2762
  61   2.0000      -0.514525       -14.0009
  62   2.0000      -0.491704       -13.3800
  63   2.0000      -0.486695       -13.2437
  64   2.0000      -0.477323       -12.9886
  65   2.0000      -0.458416       -12.4741
  66   2.0000      -0.455185       -12.3862
  67   2.0000      -0.444796       -12.1035
  68   2.0000      -0.440870       -11.9967
  69   2.0000      -0.434938       -11.8353
  70   2.0000      -0.425965       -11.5911
  71   2.0000      -0.413999       -11.2655
  72   2.0000      -0.407644       -11.0926
  73   2.0000      -0.403672       -10.9845
  74   2.0000      -0.399183       -10.8623
  75   2.0000      -0.390288       -10.6203
  76   2.0000      -0.381219       -10.3735
  77   2.0000      -0.366776        -9.9805
  78   2.0000      -0.361764        -9.8441
  79   2.0000      -0.357689        -9.7332
  80   2.0000      -0.354884        -9.6569
  81   2.0000      -0.353344        -9.6150
  82   2.0000      -0.350222        -9.5300
  83   2.0000      -0.348435        -9.4814
  84   2.0000      -0.340914        -9.2767
  85   2.0000      -0.333987        -9.0882
  86   2.0000      -0.322283        -8.7698
  87   2.0000      -0.309555        -8.4234
  88   2.0000      -0.305450        -8.3117
  89   2.0000      -0.303826        -8.2675
  90   2.0000      -0.298617        -8.1258
  91   2.0000      -0.289749        -7.8845
  92   2.0000      -0.286766        -7.8033
  93   2.0000      -0.280313        -7.6277
  94   2.0000      -0.271410        -7.3855
  95   2.0000      -0.248564        -6.7638
  96   2.0000      -0.236267        -6.4292
  97   2.0000      -0.235093        -6.3972
  98   2.0000      -0.228304        -6.2125
  99   2.0000      -0.220197        -5.9919
 100   2.0000      -0.219505        -5.9730
 101   0.0000      -0.054066        -1.4712
 102   0.0000      -0.031521        -0.8577
 103   0.0000      -0.007185        -0.1955
 104   0.0000      -0.005233        -0.1424
 105   0.0000       0.009218         0.2508

MULLIKEN ATOMIC CHARGES
-----------------------
   0 C :   -0.512919
   1 C :   -0.098557
   2 O :   -0.311101
   3 P :    0.704579
   4 S :   -0.509660
   5 O :   -0.334177
   6 C :   -0.150791
   7 C :   -0.465642
   8 S :   -0.152641
   9 C :   -0.247432
  10 S :   -0.138697
  11 P :    0.728796
  12 S :   -0.527053
  13 O :   -0.277928
  14 C :   -0.155838
  15 C :   -0.485952
  16 O :   -0.332012
  17 C :   -0.151362
  18 C :   -0.489996
  19 H :    0.167229
  20 H :    0.166680
  21 H :    0.169100
  22 H :    0.171987
  23 H :    0.170516
  24 H :    0.171246
  25 H :    0.177223
  26 H :    0.173508
  27 H :    0.170101
  28 H :    0.166004
  29 H :    0.231568
  30 H :    0.235267
  31 H :    0.180495
  32 H :    0.176051
  33 H :    0.172323
  34 H :    0.167358
  35 H :    0.170164
  36 H :    0.175983
  37 H :    0.178342
  38 H :    0.170271
  39 H :    0.173617
  40 H :    0.173349
Sum of atomic charges:    0.0000000

LOEWDIN ATOMIC CHARGES
----------------------
   0 C :   -0.396924
   1 C :    0.016589
   2 O :   -0.672860
   3 P :    0.389008
   4 S :   -0.160272
   5 O :   -0.668580
   6 C :    0.029219
   7 C :   -0.410199
   8 S :    0.163745
   9 C :   -0.413640
  10 S :    0.173125
  11 P :    0.382762
  12 S :   -0.153892
  13 O :   -0.699539
  14 C :    0.021217
  15 C :   -0.402054
  16 O :   -0.671520
  17 C :    0.026316
  18 C :   -0.409757
  19 H :    0.163480
  20 H :    0.165100
  21 H :    0.167992
  22 H :    0.182684
  23 H :    0.180972
  24 H :    0.179390
  25 H :    0.193115
  26 H :    0.168150
  27 H :    0.164369
  28 H :    0.161817
  29 H :    0.197839
  30 H :    0.196860
  31 H :    0.190984
  32 H :    0.182275
  33 H :    0.168614
  34 H :    0.162392
  35 H :    0.163876
  36 H :    0.191383
  37 H :    0.181853
  38 H :    0.163731
  39 H :    0.168719
  40 H :    0.161661

  Mayer bond orders larger than 0.100000
B(  0-C ,  1-C ) :   0.9267 B(  0-C , 19-H ) :   0.9662 B(  0-C , 20-H ) :   0.9669
B(  0-C , 21-H ) :   0.9606 B(  1-C ,  2-O ) :   0.7474 B(  1-C , 22-H ) :   0.9574
B(  1-C , 23-H ) :   0.9364 B(  2-O ,  3-P ) :   1.1547 B(  3-P ,  4-S ) :   1.7455
B(  3-P ,  5-O ) :   1.1253 B(  3-P ,  8-S ) :   1.0408 B(  5-O ,  6-C ) :   0.7986
B(  6-C ,  7-C ) :   0.9216 B(  6-C , 24-H ) :   0.9572 B(  6-C , 25-H ) :   0.9487
B(  7-C , 26-H ) :   0.9566 B(  7-C , 27-H ) :   0.9672 B(  7-C , 28-H ) :   0.9567
B(  8-S ,  9-C ) :   0.8922 B(  9-C , 10-S ) :   0.8866 B(  9-C , 29-H ) :   0.9024
B(  9-C , 30-H ) :   0.9048 B( 10-S , 11-P ) :   1.0877 B( 11-P , 12-S ) :   1.7253
B( 11-P , 13-O ) :   1.1217 B( 11-P , 16-O ) :   1.0596 B( 13-O , 14-C ) :   0.7654
B( 14-C , 15-C ) :   0.9083 B( 14-C , 31-H ) :   0.9542 B( 14-C , 32-H ) :   0.9547
B( 15-C , 33-H ) :   0.9572 B( 15-C , 34-H ) :   0.9601 B( 15-C , 35-H ) :   0.9729
B( 16-O , 17-C ) :   0.8012 B( 17-C , 18-C ) :   0.9083 B( 17-C , 36-H ) :   0.9482
B( 17-C , 37-H ) :   0.9654 B( 18-C , 38-H ) :   0.9660 B( 18-C , 39-H ) :   0.9529
B( 18-C , 40-H ) :   0.9636

Dispersion correction           -0.022257445
FINAL SINGLE POINT ENERGY     -2932.469305568855

DIPOLE MOMENT
-------------

Method             : SCF
Type of density    : Electron Density
Multiplicity       :   1
Irrep              :   0
Energy             : -2932.4936405666358041 Eh
Relativity type    :
Basis              : AO
                                X                 Y                 Z
Electronic contribution:      6.268205379      -1.928778820      -8.591641795
Nuclear contribution   :     -6.957742887       2.570156194       9.399229472
                        -----------------------------------------
Total Dipole Moment    :     -0.689537508       0.641377374       0.807587677
                        -----------------------------------------
Magnitude (a.u.)       :      1.240574370
Magnitude (Debye)      :      3.153289452

Rotational constants in cm-1:             0.012737             0.005199             0.005048
Rotational constants in MHz :           381.852287           155.876860           151.320717

                             ****ORCA TERMINATED NORMALLY****
TOTAL RUN TIME: 0 days 0 hours 1 minutes 59 seconds 314 msec
