                         Program Version 6.0.0  -   RELEASE  -
|  1> ! pbe def2-sv(p) def2/J RI DEFGRID1 loosescf d4 GCP(DFT/SV(P)) printgap
|  2> %output
|  3>     printlevel normal
|  4> end
|  5> * xyz 0 1
|  6> C 0.6542850022 1.6861663698 -0.024554341
|  7> C 1.4227121712 0.3831782205 -0.2603699565
|  8> H 1.6308791634 0.2694557878 -1.3352659562
|  9> C 0.5581509923 -0.8061957548 0.1790236278
| 10> H 0.4249748248 -0.7702971027 1.2719264539
| 11> C -0.8168266891 -0.7367124879 -0.5004461264
| 12> H -0.6672619495 -0.8665847502 -1.5831882577
| 13> C -1.4740775266 0.6450417471 -0.2741695016
| 14> H -2.3439141158 0.7642247162 -0.931288322
| 15> O -0.6059129438 1.680020253 -0.6729375624
| 16> O -1.9700726551 0.8003626073 1.0145913736
| 17> O -1.5892048546 -1.7826887711 0.0342738384
| 18> O 1.2403372957 -1.9867176253 -0.1704345416
| 19> O 2.6195157979 0.4470602501 0.4708430643
| 20> H 1.1988771007 2.5266334432 -0.4533949886
| 21> H 0.5474055873 1.8507869509 1.0542936305
| 22> H -1.3112785593 0.552615097 1.6797186581
| 23> H -2.4782084039 -1.7760746779 -0.3461517408
| 24> H 0.6657840509 -2.7431749703 0.018998852
| 25> H 3.0773602908 -0.4025998715 0.3811810154
| 26> *
| 27>
| 28>                          ****END OF INPUT****

CARTESIAN COORDINATES (ANGSTROEM)
---------------------------------
  C      0.654285    1.686166   -0.024554
  C      1.422712    0.383178   -0.260370
  H      1.630879    0.269456   -1.335266
  C      0.558151   -0.806196    0.179024
  H      0.424975   -0.770297    1.271926
  C     -0.816827   -0.736712   -0.500446
  H     -0.667262   -0.866585   -1.583188
  C     -1.474078    0.645042   -0.274170
  H     -2.343914    0.764225   -0.931288
  O     -0.605913    1.680020   -0.672938
  O     -1.970073    0.800363    1.014591
  O     -1.589205   -1.782689    0.034274
  O      1.240337   -1.986718   -0.170435
  O      2.619516    0.447060    0.470843
  H      1.198877    2.526633   -0.453395
  H      0.547406    1.850787    1.054294
  H     -1.311279    0.552615    1.679719
  H     -2.478208   -1.776075   -0.346152
  H      0.665784   -2.743175    0.018999
  H      3.077360   -0.402600    0.381181

 Total Charge           Charge          ....    0
 Multiplicity           Mult            ....    1
 Number of Electrons    NEL             ....   80
 Basis Dimension        Dim             ....  160

ORBITAL ENERGIES
----------------

  NO   OCC          E(Eh)            E(eV)
   0   2.0000     -18.768512      -510.7172
   1   2.0000     -18.767628      -510.6931
   2   2.0000     -18.763606      -510.5837
   3   2.0000     -18.760696      -510.5045
   4   2.0000     -18.751761      -510.2614
   5   2.0000      -9.987528      -271.7745
   6   2.0000      -9.949532      -270.7405
   7   2.0000      -9.948937      -270.7243
   8   2.0000      -9.944616      -270.6067
   9   2.0000      -9.937267      -270.4068
  10   2.0000      -0.981434       -26.7062
  11   2.0000      -0.950685       -25.8694
  12   2.0000      -0.938370       -25.5344
  13   2.0000      -0.920071       -25.0364
  14   2.0000      -0.912778       -24.8379
  15   2.0000      -0.706302       -19.2195
  16   2.0000      -0.683172       -18.5900
  17   2.0000      -0.592450       -16.1214
  18   2.0000      -0.585319       -15.9273
  19   2.0000      -0.527119       -14.3436
  20   2.0000      -0.504948       -13.7403
  21   2.0000      -0.496776       -13.5180
  22   2.0000      -0.471447       -12.8287
  23   2.0000      -0.447506       -12.1773
  24   2.0000      -0.433541       -11.7972
  25   2.0000      -0.433108       -11.7855
  26   2.0000      -0.412439       -11.2230
  27   2.0000      -0.381250       -10.3743
  28   2.0000      -0.366466        -9.9721
  29   2.0000      -0.350012        -9.5243
  30   2.0000      -0.327973        -8.9246
  31   2.0000      -0.313325        -8.5260
  32   2.0000      -0.308708        -8.4004
  33   2.0000      -0.288846        -7.8599
  34   2.0000      -0.280516        -7.6332
  35   2.0000      -0.256216        -6.9720
  36   2.0000      -0.238497        -6.4898
  37   2.0000      -0.232643        -6.3305
  38   2.0000      -0.222421        -6.0524
  39   2.0000      -0.216023        -5.8783
  40   0.0000       0.009708         0.2642
  41   0.0000       0.015058         0.4097
  42   0.0000       0.029963         0.8153
  43   0.0000       0.046909         1.2765
  44   0.0000       0.067797         1.8449

MULLIKEN ATOMIC CHARGES
-----------------------
   0 C :    0.068282
   1 C :    0.040029
   2 H :    0.065729
   3 C :    0.007694
   4 H :    0.044585
   5 C :    0.031244
   6 H :    0.068029
   7 C :    0.163345
   8 H :    0.064586
   9 O :   -0.303863
  10 O :   -0.389379
  11 O :   -0.416068
  12 O :   -0.426206
  13 O :   -0.419451
  14 H :    0.107619
  15 H :    0.057001
  16 H :    0.306347
  17 H :    0.308522
  18 H :    0.311863
  19 H :    0.310091
Sum of atomic charges:   -0.0000000

LOEWDIN ATOMIC CHARGES
----------------------
   0 C :   -0.115264
   1 C :   -0.074081
   2 H :    0.106329
   3 C :   -0.079390
   4 H :    0.096467
   5 C :   -0.102835
   6 H :    0.108630
   7 C :   -0.010900
   8 H :    0.106778
   9 O :   -0.151556
  10 O :   -0.297091
  11 O :   -0.321574
  12 O :   -0.324611
  13 O :   -0.320932
  14 H :    0.125981
  15 H :    0.098211
  16 H :    0.282328
  17 H :    0.292271
  18 H :    0.290896
  19 H :    0.290344

  Mayer bond orders larger than 0.100000
B(  0-C ,  1-C ) :   1.0536 B(  0-C ,  9-O ) :   1.0092 B(  0-C , 14-H ) :   0.9257
B(  0-C , 15-H ) :   0.8913 B(  1-C ,  2-H ) :   0.8769 B(  1-C ,  3-C ) :   1.0214
B(  1-C , 13-O ) :   1.0813 B(  3-C ,  4-H ) :   0.8777 B(  3-C ,  5-C ) :   0.9893
B(  3-C , 12-O ) :   1.0825 B(  5-C ,  6-H ) :   0.8751 B(  5-C ,  7-C ) :   0.9656
B(  5-C , 11-O ) :   1.0722 B(  7-C ,  8-H ) :   0.9025 B(  7-C ,  9-O ) :   1.0570
B(  7-C , 10-O ) :   1.1193 B( 10-O , 16-H ) :   0.8365 B( 11-O , 17-H ) :   0.8441
B( 12-O , 18-H ) :   0.8353 B( 13-O , 19-H ) :   0.8387

Dispersion correction           -0.019149965
FINAL SINGLE POINT ENERGY      -571.416665664855

DIPOLE MOMENT
-------------

Method             : SCF
Type of density    : Electron Density
Multiplicity       :   1
Irrep              :   0
Energy             :  -571.5247819551004795 Eh
Relativity type    :
Basis              : AO
                                X                 Y                 Z
Electronic contribution:     -0.932696705      -0.283240392       0.059035269
Nuclear contribution   :      0.694054929      -0.570698905      -0.218115866
                        -----------------------------------------
Total Dipole Moment    :     -0.238641776      -0.853939297      -0.159080597
                        -----------------------------------------
Magnitude (a.u.)       :      0.900815661
Magnitude (Debye)      :      2.289691446

Rotational constants in cm-1:             0.057149             0.044039             0.028590
Rotational constants in MHz :          1713.288254          1320.242454           857.112728

                             ****ORCA TERMINATED NORMALLY****
TOTAL RUN TIME: 0 days 0 hours 0 minutes 11 seconds 747 msec
