                         Program Version 6.0.0  -   RELEASE  -
|  1> ! pbe def2-sv(p) def2/J RI DEFGRID1 loosescf d4 GCP(DFT/SV(P)) printgap
|  2> %output
|  3>     printlevel normal
|  4> end
|  5> * xyz 0 1
|  6> C 3.9355251792 -0.6008207875 -2.7249089201
|  7> C 4.2056287333 0.4797257917 -1.6978946864
|  8> O 3.7440619043 0.1058754412 -0.3886588771
|  9> P 2.2041552624 -0.0570575936 -0.0388651987
| 10> S 1.0616016053 1.3135579204 -0.8677916041
| 11> O 2.210697897 -0.1026046944 1.5422694058
| 12> C 2.1315811718 1.0772784095 2.3668826978
| 13> C 3.3254594788 1.9873816826 2.1761738338
| 14> S 1.8629833604 -2.1030733143 -0.4170139809
| 15> C 0.116396366 -2.2379848962 0.039869984
| 16> S -1.0025601536 -1.476032336 -1.1911326176
| 17> P -2.1303305147 -0.2644528303 0.1128277976
| 18> S -1.3064960905 0.3289909671 1.7954107058
| 19> O -3.3605901468 -1.2435046668 0.3054829728
| 20> C -4.3138561745 -1.0979776358 1.3782589574
| 21> C -5.1256896477 0.17390215 1.2529821778
| 22> O -2.7440472738 0.8692561434 -0.8060481155
| 23> C -2.203558062 2.1923015114 -0.9717672958
| 24> C -3.3561014773 3.1399641911 -1.2346357447
| 25> H 4.333369023 -1.5533600389 -2.3840633992
| 26> H 2.8620847385 -0.7069388687 -2.8799372709
| 27> H 4.4018668714 -0.3284587889 -3.6662711924
| 28> H 3.7127549881 1.4144304823 -1.984928745
| 29> H 5.274303371 0.6487670834 -1.5600515864
| 30> H 1.1979026373 1.5997922319 2.135575782
| 31> H 2.0779429133 0.6779771843 3.3805762012
| 32> H 3.3150215062 2.4068422721 1.1707425477
| 33> H 3.2761901107 2.7974297211 2.8970677748
| 34> H 4.2476123145 1.4294367934 2.3165199972
| 35> H -0.0450177485 -1.757343281 1.0076911497
| 36> H -0.0961911192 -3.3025321745 0.0830564174
| 37> H -4.9377156365 -1.98829055 1.2905092378
| 38> H -3.7686429307 -1.1154771451 2.3274640513
| 39> H -5.9039542401 0.1804019635 2.0097502085
| 40> H -4.4809502865 1.0392810077 1.4018259176
| 41> H -5.576779935 0.2353562589 0.2660645621
| 42> H -1.6525564114 2.4670131404 -0.0660358465
| 43> H -1.5007084209 2.1712527735 -1.8083670921
| 44> H -4.0242668106 3.1708669229 -0.3783405332
| 45> H -2.9597999601 4.13345271 -1.4161142212
| 46> H -3.9126246128 2.8086367468 -2.1063109052
| 47> *
| 48>
| 49>                          ****END OF INPUT****

CARTESIAN COORDINATES (ANGSTROEM)
---------------------------------
  C      3.935525   -0.600821   -2.724909
  C      4.205629    0.479726   -1.697895
  O      3.744062    0.105875   -0.388659
  P      2.204155   -0.057058   -0.038865
  S      1.061602    1.313558   -0.867792
  O      2.210698   -0.102605    1.542269
  C      2.131581    1.077278    2.366883
  C      3.325459    1.987382    2.176174
  S      1.862983   -2.103073   -0.417014
  C      0.116396   -2.237985    0.039870
  S     -1.002560   -1.476032   -1.191133
  P     -2.130331   -0.264453    0.112828
  S     -1.306496    0.328991    1.795411
  O     -3.360590   -1.243505    0.305483
  C     -4.313856   -1.097978    1.378259
  C     -5.125690    0.173902    1.252982
  O     -2.744047    0.869256   -0.806048
  C     -2.203558    2.192302   -0.971767
  C     -3.356101    3.139964   -1.234636
  H      4.333369   -1.553360   -2.384063
  H      2.862085   -0.706939   -2.879937
  H      4.401867   -0.328459   -3.666271
  H      3.712755    1.414430   -1.984929
  H      5.274303    0.648767   -1.560052
  H      1.197903    1.599792    2.135576
  H      2.077943    0.677977    3.380576
  H      3.315022    2.406842    1.170743
  H      3.276190    2.797430    2.897068
  H      4.247612    1.429437    2.316520
  H     -0.045018   -1.757343    1.007691
  H     -0.096191   -3.302532    0.083056
  H     -4.937716   -1.988291    1.290509
  H     -3.768643   -1.115477    2.327464
  H     -5.903954    0.180402    2.009750
  H     -4.480950    1.039281    1.401826
  H     -5.576780    0.235356    0.266065
  H     -1.652556    2.467013   -0.066036
  H     -1.500708    2.171253   -1.808367
  H     -4.024267    3.170867   -0.378341
  H     -2.959800    4.133453   -1.416114
  H     -3.912625    2.808637   -2.106311

 Total Charge           Charge          ....    0
 Multiplicity           Mult            ....    1
 Number of Electrons    NEL             ....  202
 Basis Dimension        Dim             ....  334

ORBITAL ENERGIES
----------------

  NO   OCC          E(Eh)            E(eV)
   0   2.0000     -88.040309     -2395.6986
   1   2.0000     -88.033921     -2395.5248
   2   2.0000     -87.986780     -2394.2420
   3   2.0000     -87.982052     -2394.1134
   4   2.0000     -76.423201     -2079.5810
   5   2.0000     -76.422993     -2079.5754
   6   2.0000     -18.791866      -511.3527
   7   2.0000     -18.790629      -511.3190
   8   2.0000     -18.784759      -511.1593
   9   2.0000     -18.783601      -511.1278
  10   2.0000      -9.953068      -270.8367
  11   2.0000      -9.950648      -270.7709
  12   2.0000      -9.948642      -270.7163
  13   2.0000      -9.946677      -270.6628
  14   2.0000      -9.942577      -270.5513
  15   2.0000      -9.884727      -268.9771
  16   2.0000      -9.883189      -268.9353
  17   2.0000      -9.882541      -268.9176
  18   2.0000      -9.878215      -268.7999
  19   2.0000      -7.685818      -209.1417
  20   2.0000      -7.679476      -208.9692
  21   2.0000      -7.631497      -207.6636
  22   2.0000      -7.626706      -207.5332
  23   2.0000      -6.420903      -174.7217
  24   2.0000      -6.420467      -174.7098
  25   2.0000      -5.713646      -155.4762
  26   2.0000      -5.710386      -155.3875
  27   2.0000      -5.707478      -155.3084
  28   2.0000      -5.704296      -155.2218
  29   2.0000      -5.702693      -155.1782
  30   2.0000      -5.695914      -154.9937
  31   2.0000      -5.660160      -154.0208
  32   2.0000      -5.655471      -153.8932
  33   2.0000      -5.652530      -153.8132
  34   2.0000      -5.651476      -153.7845
  35   2.0000      -5.647374      -153.6729
  36   2.0000      -5.647007      -153.6629
  37   2.0000      -4.643288      -126.3503
  38   2.0000      -4.642987      -126.3421
  39   2.0000      -4.642588      -126.3313
  40   2.0000      -4.642233      -126.3216
  41   2.0000      -4.641588      -126.3040
  42   2.0000      -4.641001      -126.2881
  43   2.0000      -0.983396       -26.7596
  44   2.0000      -0.983189       -26.7539
  45   2.0000      -0.942410       -25.6443
  46   2.0000      -0.941821       -25.6283
  47   2.0000      -0.758691       -20.6450
  48   2.0000      -0.720448       -19.6044
  49   2.0000      -0.705076       -19.1861
  50   2.0000      -0.686563       -18.6823
  51   2.0000      -0.683890       -18.6096
  52   2.0000      -0.668824       -18.1996
  53   2.0000      -0.650515       -17.7014
  54   2.0000      -0.633992       -17.2518
  55   2.0000      -0.601817       -16.3763
  56   2.0000      -0.591146       -16.0859
  57   2.0000      -0.569584       -15.4992
  58   2.0000      -0.564216       -15.3531
  59   2.0000      -0.557485       -15.1699
  60   2.0000      -0.501628       -13.6500
  61   2.0000      -0.487341       -13.2612
  62   2.0000      -0.473806       -12.8929
  63   2.0000      -0.469174       -12.7669
  64   2.0000      -0.448771       -12.2117
  65   2.0000      -0.444777       -12.1030
  66   2.0000      -0.436347       -11.8736
  67   2.0000      -0.430002       -11.7009
  68   2.0000      -0.425000       -11.5648
  69   2.0000      -0.414128       -11.2690
  70   2.0000      -0.407611       -11.0916
  71   2.0000      -0.395509       -10.7623
  72   2.0000      -0.391034       -10.6406
  73   2.0000      -0.383640       -10.4394
  74   2.0000      -0.380251       -10.3472
  75   2.0000      -0.372385       -10.1331
  76   2.0000      -0.371960       -10.1215
  77   2.0000      -0.355306        -9.6684
  78   2.0000      -0.351899        -9.5757
  79   2.0000      -0.346779        -9.4363
  80   2.0000      -0.344675        -9.3791
  81   2.0000      -0.340847        -9.2749
  82   2.0000      -0.340040        -9.2530
  83   2.0000      -0.334574        -9.1042
  84   2.0000      -0.330928        -9.0050
  85   2.0000      -0.312295        -8.4980
  86   2.0000      -0.309109        -8.4113
  87   2.0000      -0.294125        -8.0035
  88   2.0000      -0.292327        -7.9546
  89   2.0000      -0.280809        -7.6412
  90   2.0000      -0.278010        -7.5650
  91   2.0000      -0.270875        -7.3709
  92   2.0000      -0.268043        -7.2938
  93   2.0000      -0.260980        -7.1016
  94   2.0000      -0.259474        -7.0606
  95   2.0000      -0.239308        -6.5119
  96   2.0000      -0.223282        -6.0758
  97   2.0000      -0.208407        -5.6710
  98   2.0000      -0.203792        -5.5455
  99   2.0000      -0.188810        -5.1378
 100   2.0000      -0.186910        -5.0861
 101   0.0000      -0.038052        -1.0355
 102   0.0000      -0.029436        -0.8010
 103   0.0000      -0.007908        -0.2152
 104   0.0000       0.007001         0.1905
 105   0.0000       0.026133         0.7111

MULLIKEN ATOMIC CHARGES
-----------------------
   0 C :   -0.322533
   1 C :   -0.002599
   2 O :   -0.372342
   3 P :    0.626444
   4 S :   -0.342171
   5 O :   -0.366762
   6 C :   -0.008162
   7 C :   -0.306845
   8 S :   -0.085900
   9 C :   -0.356437
  10 S :   -0.069212
  11 P :    0.627283
  12 S :   -0.336352
  13 O :   -0.367149
  14 C :    0.000003
  15 C :   -0.316580
  16 O :   -0.376787
  17 C :   -0.027705
  18 C :   -0.278381
  19 H :    0.119941
  20 H :    0.131823
  21 H :    0.113576
  22 H :    0.109659
  23 H :    0.104796
  24 H :    0.126603
  25 H :    0.102916
  26 H :    0.119806
  27 H :    0.109757
  28 H :    0.115170
  29 H :    0.195986
  30 H :    0.184834
  31 H :    0.104231
  32 H :    0.107590
  33 H :    0.110893
  34 H :    0.125035
  35 H :    0.119032
  36 H :    0.116104
  37 H :    0.119903
  38 H :    0.117008
  39 H :    0.111872
  40 H :    0.115650
Sum of atomic charges:    0.0000000

LOEWDIN ATOMIC CHARGES
----------------------
   0 C :   -0.371286
   1 C :   -0.120196
   2 O :   -0.242042
   3 P :    0.574183
   4 S :   -0.320446
   5 O :   -0.237633
   6 C :   -0.118825
   7 C :   -0.366660
   8 S :    0.092629
   9 C :   -0.477512
  10 S :    0.084616
  11 P :    0.575085
  12 S :   -0.309482
  13 O :   -0.246576
  14 C :   -0.117476
  15 C :   -0.366376
  16 O :   -0.239411
  17 C :   -0.120372
  18 C :   -0.351513
  19 H :    0.124435
  20 H :    0.123246
  21 H :    0.131474
  22 H :    0.109569
  23 H :    0.118516
  24 H :    0.108796
  25 H :    0.118895
  26 H :    0.120747
  27 H :    0.129471
  28 H :    0.125238
  29 H :    0.123281
  30 H :    0.137520
  31 H :    0.118551
  32 H :    0.109113
  33 H :    0.129783
  34 H :    0.120784
  35 H :    0.126800
  36 H :    0.107792
  37 H :    0.112536
  38 H :    0.125017
  39 H :    0.131100
  40 H :    0.126630

  Mayer bond orders larger than 0.100000
B(  0-C ,  1-C ) :   1.1664 B(  0-C , 19-H ) :   0.9437 B(  0-C , 20-H ) :   0.9338
B(  0-C , 21-H ) :   0.9377 B(  1-C ,  2-O ) :   0.9077 B(  1-C , 22-H ) :   0.9137
B(  1-C , 23-H ) :   0.9332 B(  2-O ,  3-P ) :   1.1036 B(  3-P ,  4-S ) :   1.5997
B(  3-P ,  5-O ) :   1.1337 B(  3-P ,  8-S ) :   0.9656 B(  4-S ,  8-S ) :   0.1175
B(  5-O ,  6-C ) :   0.9001 B(  6-C ,  7-C ) :   1.1625 B(  6-C , 24-H ) :   0.9098
B(  6-C , 25-H ) :   0.9363 B(  7-C , 26-H ) :   0.9357 B(  7-C , 27-H ) :   0.9388
B(  7-C , 28-H ) :   0.9447 B(  8-S ,  9-C ) :   0.9998 B(  9-C , 10-S ) :   0.9945
B(  9-C , 29-H ) :   0.8565 B(  9-C , 30-H ) :   0.9118 B( 10-S , 11-P ) :   0.9733
B( 10-S , 12-S ) :   0.1148 B( 11-P , 12-S ) :   1.5707 B( 11-P , 13-O ) :   1.1253
B( 11-P , 16-O ) :   1.1277 B( 13-O , 14-C ) :   0.9154 B( 14-C , 15-C ) :   1.1628
B( 14-C , 31-H ) :   0.9350 B( 14-C , 32-H ) :   0.9168 B( 15-C , 33-H ) :   0.9378
B( 15-C , 34-H ) :   0.9340 B( 15-C , 35-H ) :   0.9458 B( 16-O , 17-C ) :   0.8965
B( 17-C , 18-C ) :   1.1529 B( 17-C , 36-H ) :   0.9112 B( 17-C , 37-H ) :   0.9269
B( 18-C , 38-H ) :   0.9489 B( 18-C , 39-H ) :   0.9419 B( 18-C , 40-H ) :   0.9489

Dispersion correction           -0.066499739
FINAL SINGLE POINT ENERGY     -2929.519270464088

DIPOLE MOMENT
-------------

Method             : SCF
Type of density    : Electron Density
Multiplicity       :   1
Irrep              :   0
Energy             : -2929.6373449141651690 Eh
Relativity type    :
Basis              : AO
                                X                 Y                 Z
Electronic contribution:      3.884974393     -15.418801566      -1.798561028
Nuclear contribution   :     -3.988944766      15.750624627       1.873799756
                        -----------------------------------------
Total Dipole Moment    :     -0.103970373       0.331823060       0.075238728
                        -----------------------------------------
Magnitude (a.u.)       :      0.355776964
Magnitude (Debye)      :      0.904313175

Rotational constants in cm-1:             0.012626             0.004989             0.004797
Rotational constants in MHz :           378.517173           149.560725           143.797400

                             ****ORCA TERMINATED NORMALLY****
TOTAL RUN TIME: 0 days 0 hours 0 minutes 21 seconds 188 msec
