                         Program Version 6.0.0  -   RELEASE  -
|  1> ! wb97x-v def2-tzvp def2/J RIJCOSX DEFGRID2 scfconv7 GCP(DFT/TZ) printgap
|  2> %output
|  3>     printlevel normal
|  4> end
|  5> * xyz 0 1
|  6> C -1.1010367379518047 0.1916773613459859 0.0023206064035483243
|  7> C -0.19169574132584757 -1.1011679072732743 -0.0024137102494494727
|  8> C 1.1010441448631245 -0.19167515158261134 0.0024517432119257614
|  9> C 0.19170318040661732 1.101171115239047 -0.0023591361038150017
| 10> F 0.32083721566640333 1.853196659391283 -1.1064693266922356
| 11> F 0.32290702521113424 1.8654816164153893 1.0927993337884427
| 12> F 1.86544515523603 -0.3229358399299956 -1.0926300413528087
| 13> F 1.853002219295499 -0.32075520724103296 1.1066064142048648
| 14> F -0.3230409443506544 -1.865504712478931 1.0927102330079055
| 15> F -0.3206857016495822 -1.8531676994446364 -1.10655803411582
| 16> F -1.8531296170312113 0.32072414836578156 1.1063888634889005
| 17> F -1.865304560303616 0.3229702440780804 -1.092849981263482
| 18> *
| 19>
| 20>                          ****END OF INPUT****

CARTESIAN COORDINATES (ANGSTROEM)
---------------------------------
  C     -1.101037    0.191677    0.002321
  C     -0.191696   -1.101168   -0.002414
  C      1.101044   -0.191675    0.002452
  C      0.191703    1.101171   -0.002359
  F      0.320837    1.853197   -1.106469
  F      0.322907    1.865482    1.092799
  F      1.865445   -0.322936   -1.092630
  F      1.853002   -0.320755    1.106606
  F     -0.323041   -1.865505    1.092710
  F     -0.320686   -1.853168   -1.106558
  F     -1.853130    0.320724    1.106389
  F     -1.865305    0.322970   -1.092850

 Total Charge           Charge          ....    0
 Multiplicity           Mult            ....    1
 Number of Electrons    NEL             ....   96
 Basis Dimension        Dim             ....  372

ORBITAL ENERGIES
----------------

  NO   OCC          E(Eh)            E(eV)
   0   2.0000     -27.632172      -751.9096
   1   2.0000     -27.632123      -751.9083
   2   2.0000     -27.632118      -751.9082
   3   2.0000     -27.632112      -751.9080
   4   2.0000     -27.632068      -751.9068
   5   2.0000     -27.632061      -751.9066
   6   2.0000     -27.632049      -751.9063
   7   2.0000     -27.632007      -751.9051
   8   2.0000     -12.279281      -334.1362
   9   2.0000     -12.278873      -334.1251
  10   2.0000     -12.278871      -334.1251
  11   2.0000     -12.276893      -334.0712
  12   2.0000      -2.079430       -56.5842
  13   2.0000      -2.075054       -56.4651
  14   2.0000      -2.075053       -56.4651
  15   2.0000      -2.070036       -56.3285
  16   2.0000      -2.045847       -55.6703
  17   2.0000      -2.043444       -55.6049
  18   2.0000      -2.043441       -55.6049
  19   2.0000      -2.041533       -55.5529
  20   2.0000      -1.490612       -40.5616
  21   2.0000      -1.387270       -37.7495
  22   2.0000      -1.387266       -37.7494
  23   2.0000      -1.351152       -36.7667
  24   2.0000      -1.287249       -35.0278
  25   2.0000      -1.277596       -34.7652
  26   2.0000      -1.277082       -34.7512
  27   2.0000      -1.277080       -34.7511
  28   2.0000      -1.268818       -34.5263
  29   2.0000      -1.236417       -33.6446
  30   2.0000      -1.228305       -33.4239
  31   2.0000      -1.228295       -33.4236
  32   2.0000      -1.197290       -32.5799
  33   2.0000      -1.196652       -32.5626
  34   2.0000      -1.194125       -32.4938
  35   2.0000      -1.194125       -32.4938
  36   2.0000      -1.189290       -32.3622
  37   2.0000      -1.188710       -32.3464
  38   2.0000      -1.187985       -32.3267
  39   2.0000      -1.187981       -32.3266
  40   2.0000      -1.182427       -32.1755
  41   2.0000      -1.180579       -32.1252
  42   2.0000      -1.180574       -32.1251
  43   2.0000      -1.174544       -31.9610
  44   2.0000      -1.162770       -31.6406
  45   2.0000      -1.018643       -27.7187
  46   2.0000      -1.018594       -27.7173
  47   2.0000      -0.913969       -24.8704
  48   0.0000      -0.417297       -11.3552
  49   0.0000      -0.343319        -9.3422
  50   0.0000      -0.301982        -8.2173
  51   0.0000      -0.254103        -6.9145
  52   0.0000      -0.254078        -6.9138

MULLIKEN ATOMIC CHARGES
-----------------------
   0 C :    0.279567
   1 C :    0.279777
   2 C :    0.279585
   3 C :    0.279754
   4 F :   -0.139775
   5 F :   -0.139895
   6 F :   -0.139896
   7 F :   -0.139776
   8 F :   -0.139894
   9 F :   -0.139774
  10 F :   -0.139775
  11 F :   -0.139896
Sum of atomic charges:    0.0000000

LOEWDIN ATOMIC CHARGES
----------------------
   0 C :   -0.441304
   1 C :   -0.441267
   2 C :   -0.441305
   3 C :   -0.441268
   4 F :    0.220602
   5 F :    0.220681
   6 F :    0.220683
   7 F :    0.220606
   8 F :    0.220680
   9 F :    0.220603
  10 F :    0.220605
  11 F :    0.220684

  Mayer bond orders larger than 0.100000
B(  0-C ,  1-C ) :   0.9339 B(  0-C ,  3-C ) :   0.9339 B(  0-C , 10-F ) :   1.1707
B(  0-C , 11-F ) :   1.1702 B(  1-C ,  2-C ) :   0.9339 B(  1-C ,  8-F ) :   1.1702
B(  1-C ,  9-F ) :   1.1707 B(  2-C ,  3-C ) :   0.9339 B(  2-C ,  6-F ) :   1.1702
B(  2-C ,  7-F ) :   1.1707 B(  3-C ,  4-F ) :   1.1707 B(  3-C ,  5-F ) :   1.1702

FINAL SINGLE POINT ENERGY      -951.190258360113

DIPOLE MOMENT
-------------

Method             : SCF
Type of density    : Electron Density
Multiplicity       :   1
Irrep              :   0
Energy             :  -951.2374809519133123 Eh
Relativity type    :
Basis              : AO
                                X                 Y                 Z
Electronic contribution:      0.000000140       0.000000443      -0.000000241
Nuclear contribution   :     -0.000000245       0.000000362       0.000000344
                        -----------------------------------------
Total Dipole Moment    :     -0.000000104       0.000000805       0.000000103
                        -----------------------------------------
Magnitude (a.u.)       :      0.000000819
Magnitude (Debye)      :      0.000002081

Rotational constants in cm-1:             0.034805             0.034802             0.028042
Rotational constants in MHz :          1043.431649          1043.342834           840.671034

                             ****ORCA TERMINATED NORMALLY****
TOTAL RUN TIME: 0 days 0 hours 3 minutes 20 seconds 447 msec
