                         Program Version 6.0.0  -   RELEASE  -
|  1> ! wb97x-v def2-tzvp def2/J RIJCOSX DEFGRID2 scfconv7 GCP(DFT/TZ) printgap
|  2> %output
|  3>     printlevel normal
|  4> end
|  5> %cpcm
|  6>     smd true
|  7>     smdsolvent "water"
|  8> end
|  9> * xyz 0 1
| 10> C -1.1010367379518047 0.1916773613459859 0.0023206064035483243
| 11> C -0.19169574132584757 -1.1011679072732743 -0.0024137102494494727
| 12> C 1.1010441448631245 -0.19167515158261134 0.0024517432119257614
| 13> C 0.19170318040661732 1.101171115239047 -0.0023591361038150017
| 14> F 0.32083721566640333 1.853196659391283 -1.1064693266922356
| 15> F 0.32290702521113424 1.8654816164153893 1.0927993337884427
| 16> F 1.86544515523603 -0.3229358399299956 -1.0926300413528087
| 17> F 1.853002219295499 -0.32075520724103296 1.1066064142048648
| 18> F -0.3230409443506544 -1.865504712478931 1.0927102330079055
| 19> F -0.3206857016495822 -1.8531676994446364 -1.10655803411582
| 20> F -1.8531296170312113 0.32072414836578156 1.1063888634889005
| 21> F -1.865304560303616 0.3229702440780804 -1.092849981263482
| 22> *
| 23>
| 24>                          ****END OF INPUT****

CARTESIAN COORDINATES (ANGSTROEM)
---------------------------------
  C     -1.101037    0.191677    0.002321
  C     -0.191696   -1.101168   -0.002414
  C      1.101044   -0.191675    0.002452
  C      0.191703    1.101171   -0.002359
  F      0.320837    1.853197   -1.106469
  F      0.322907    1.865482    1.092799
  F      1.865445   -0.322936   -1.092630
  F      1.853002   -0.320755    1.106606
  F     -0.323041   -1.865505    1.092710
  F     -0.320686   -1.853168   -1.106558
  F     -1.853130    0.320724    1.106389
  F     -1.865305    0.322970   -1.092850

 Total Charge           Charge          ....    0
 Multiplicity           Mult            ....    1
 Number of Electrons    NEL             ....   96
 Basis Dimension        Dim             ....  372

ORBITAL ENERGIES
----------------

  NO   OCC          E(Eh)            E(eV)
   0   2.0000     -27.621682      -751.6242
   1   2.0000     -27.621633      -751.6228
   2   2.0000     -27.621626      -751.6227
   3   2.0000     -27.621620      -751.6225
   4   2.0000     -27.621583      -751.6215
   5   2.0000     -27.621576      -751.6213
   6   2.0000     -27.621562      -751.6209
   7   2.0000     -27.621519      -751.6197
   8   2.0000     -12.268067      -333.8311
   9   2.0000     -12.267656      -333.8199
  10   2.0000     -12.267655      -333.8199
  11   2.0000     -12.265669      -333.7658
  12   2.0000      -2.068783       -56.2944
  13   2.0000      -2.064469       -56.1770
  14   2.0000      -2.064468       -56.1770
  15   2.0000      -2.059492       -56.0416
  16   2.0000      -2.035377       -55.3854
  17   2.0000      -2.033023       -55.3214
  18   2.0000      -2.033020       -55.3213
  19   2.0000      -2.031141       -55.2702
  20   2.0000      -1.478619       -40.2353
  21   2.0000      -1.376802       -37.4647
  22   2.0000      -1.376798       -37.4646
  23   2.0000      -1.341189       -36.4956
  24   2.0000      -1.277309       -34.7573
  25   2.0000      -1.267262       -34.4840
  26   2.0000      -1.267261       -34.4839
  27   2.0000      -1.266830       -34.4722
  28   2.0000      -1.259068       -34.2610
  29   2.0000      -1.225565       -33.3493
  30   2.0000      -1.217639       -33.1336
  31   2.0000      -1.217629       -33.1334
  32   2.0000      -1.187039       -32.3010
  33   2.0000      -1.186428       -32.2843
  34   2.0000      -1.184021       -32.2189
  35   2.0000      -1.184021       -32.2188
  36   2.0000      -1.179017       -32.0827
  37   2.0000      -1.178474       -32.0679
  38   2.0000      -1.177738       -32.0479
  39   2.0000      -1.177735       -32.0478
  40   2.0000      -1.172271       -31.8991
  41   2.0000      -1.170449       -31.8495
  42   2.0000      -1.170444       -31.8494
  43   2.0000      -1.164622       -31.6910
  44   2.0000      -1.152494       -31.3610
  45   2.0000      -1.006841       -27.3975
  46   2.0000      -1.006791       -27.3962
  47   2.0000      -0.901601       -24.5338
  48   0.0000      -0.403372       -10.9763
  49   0.0000      -0.330776        -9.0009
  50   0.0000      -0.290390        -7.9019
  51   0.0000      -0.242374        -6.5953
  52   0.0000      -0.242350        -6.5947

MULLIKEN ATOMIC CHARGES
-----------------------
   0 C :    0.307034
   1 C :    0.307269
   2 C :    0.307054
   3 C :    0.307248
   4 F :   -0.153526
   5 F :   -0.153624
   6 F :   -0.153627
   7 F :   -0.153527
   8 F :   -0.153623
   9 F :   -0.153525
  10 F :   -0.153527
  11 F :   -0.153626
Sum of atomic charges:    0.0000000

LOEWDIN ATOMIC CHARGES
----------------------
   0 C :   -0.430191
   1 C :   -0.430155
   2 C :   -0.430192
   3 C :   -0.430156
   4 F :    0.215054
   5 F :    0.215117
   6 F :    0.215119
   7 F :    0.215058
   8 F :    0.215116
   9 F :    0.215054
  10 F :    0.215056
  11 F :    0.215119

  Mayer bond orders larger than 0.100000
B(  0-C ,  1-C ) :   0.9354 B(  0-C ,  3-C ) :   0.9354 B(  0-C , 10-F ) :   1.1578
B(  0-C , 11-F ) :   1.1576 B(  1-C ,  2-C ) :   0.9354 B(  1-C ,  8-F ) :   1.1576
B(  1-C ,  9-F ) :   1.1578 B(  2-C ,  3-C ) :   0.9354 B(  2-C ,  6-F ) :   1.1576
B(  2-C ,  7-F ) :   1.1578 B(  3-C ,  4-F ) :   1.1578 B(  3-C ,  5-F ) :   1.1576

FINAL SINGLE POINT ENERGY      -951.186157833881

DIPOLE MOMENT
-------------

Method             : SCF
Type of density    : Electron Density
Multiplicity       :   1
Irrep              :   0
Energy             :  -951.2333804256810481 Eh
Relativity type    :
Basis              : AO
                                X                 Y                 Z
Electronic contribution:      0.000000014       0.000000517       0.000000154
Nuclear contribution   :     -0.000000245       0.000000362       0.000000344
                        -----------------------------------------
Total Dipole Moment    :     -0.000000231       0.000000879       0.000000498
                        -----------------------------------------
Magnitude (a.u.)       :      0.000001036
Magnitude (Debye)      :      0.000002634

Rotational constants in cm-1:             0.034805             0.034802             0.028042
Rotational constants in MHz :          1043.431649          1043.342834           840.671034

                             ****ORCA TERMINATED NORMALLY****
TOTAL RUN TIME: 0 days 0 hours 3 minutes 31 seconds 666 msec
