                         Program Version 6.0.0  -   RELEASE  -
|  1> ! pbe def2-sv(p) def2/J RI DEFGRID1 loosescf d4 GCP(DFT/SV(P)) printgap
|  2> %output
|  3>     printlevel normal
|  4> end
|  5> * xyz 0 1
|  6> C 1.9677091191 -1.947364633 -2.4080393118
|  7> C 2.4856287506 -0.5317014034 -2.5538393904
|  8> O 2.0158928315 0.3569384551 -1.5090895219
|  9> P 2.2174385857 0.1453181025 0.0390288311
| 10> S 2.1240331669 1.8460202556 1.0072423129
| 11> O 3.6241895606 -0.6024835992 0.0522463789
| 12> C 4.1767866289 -1.3221522127 1.1682286374
| 13> C 4.4631835657 -0.4325915056 2.3603824547
| 14> S 0.8609441581 -1.3689364885 0.7070439181
| 15> C -0.0716013008 -0.440217101 1.9582050738
| 16> S -1.8619943759 -0.6559646605 1.8075081626
| 17> P -2.1606564305 0.1407391268 -0.1168946099
| 18> S -0.9684911349 1.5783612267 -0.7481514002
| 19> O -3.7214331115 0.4418210011 -0.1444068727
| 20> C -4.4471899003 1.2039576874 0.8366762224
| 21> C -3.8182569209 2.5521322895 1.1213985506
| 22> O -2.0839486627 -1.1705587976 -1.0057502404
| 23> C -1.9072249412 -1.1223239156 -2.4334216199
| 24> C -3.1636685559 -0.6485791563 -3.133070538
| 25> H 2.2799460602 -2.5267544205 -3.2713205252
| 26> H 2.3676422891 -2.4095484314 -1.5073038489
| 27> H 0.882557053 -1.9528814844 -2.3472722621
| 28> H 2.1130069584 -0.0579720453 -3.463796768
| 29> H 3.5770757165 -0.51194768 -2.5451673173
| 30> H 3.4830888645 -2.123448563 1.4395260548
| 31> H 5.0961596139 -1.7500328266 0.7639949491
| 32> H 3.53753921 -0.0233391682 2.7606471953
| 33> H 4.9586468599 -1.0145426108 3.1307901106
| 34> H 5.1017774937 0.3972470304 2.0680838617
| 35> H 0.1938710818 0.6178734665 1.8628082446
| 36> H 0.182982957 -0.8208759919 2.9444395499
| 37> H -5.4392392685 1.3128640329 0.3946441607
| 38> H -4.511358878 0.6062976463 1.7501830664
| 39> H -3.6996014692 3.1196376664 0.201067155
| 40> H -4.4485161852 3.1081467083 1.8079374556
| 41> H -2.8342746957 2.4217976881 1.571369011
| 42> H -1.0686438686 -0.453085469 -2.6579501297
| 43> H -1.656094918 -2.1494234429 -2.7032624247
| 44> H -3.3722291985 0.3827037068 -2.8512497603
| 45> H -3.0217226648 -0.702925201 -4.2079280879
| 46> H -4.0083654163 -1.2679931367 -2.8444575626
| 47> *
| 48>
| 49>                          ****END OF INPUT****

CARTESIAN COORDINATES (ANGSTROEM)
---------------------------------
  C      1.967709   -1.947365   -2.408039
  C      2.485629   -0.531701   -2.553839
  O      2.015893    0.356938   -1.509090
  P      2.217439    0.145318    0.039029
  S      2.124033    1.846020    1.007242
  O      3.624190   -0.602484    0.052246
  C      4.176787   -1.322152    1.168229
  C      4.463184   -0.432592    2.360382
  S      0.860944   -1.368936    0.707044
  C     -0.071601   -0.440217    1.958205
  S     -1.861994   -0.655965    1.807508
  P     -2.160656    0.140739   -0.116895
  S     -0.968491    1.578361   -0.748151
  O     -3.721433    0.441821   -0.144407
  C     -4.447190    1.203958    0.836676
  C     -3.818257    2.552132    1.121399
  O     -2.083949   -1.170559   -1.005750
  C     -1.907225   -1.122324   -2.433422
  C     -3.163669   -0.648579   -3.133071
  H      2.279946   -2.526754   -3.271321
  H      2.367642   -2.409548   -1.507304
  H      0.882557   -1.952881   -2.347272
  H      2.113007   -0.057972   -3.463797
  H      3.577076   -0.511948   -2.545167
  H      3.483089   -2.123449    1.439526
  H      5.096160   -1.750033    0.763995
  H      3.537539   -0.023339    2.760647
  H      4.958647   -1.014543    3.130790
  H      5.101777    0.397247    2.068084
  H      0.193871    0.617873    1.862808
  H      0.182983   -0.820876    2.944440
  H     -5.439239    1.312864    0.394644
  H     -4.511359    0.606298    1.750183
  H     -3.699601    3.119638    0.201067
  H     -4.448516    3.108147    1.807937
  H     -2.834275    2.421798    1.571369
  H     -1.068644   -0.453085   -2.657950
  H     -1.656095   -2.149423   -2.703262
  H     -3.372229    0.382704   -2.851250
  H     -3.021723   -0.702925   -4.207928
  H     -4.008365   -1.267993   -2.844458

 Total Charge           Charge          ....    0
 Multiplicity           Mult            ....    1
 Number of Electrons    NEL             ....  202
 Basis Dimension        Dim             ....  334

ORBITAL ENERGIES
----------------

  NO   OCC          E(Eh)            E(eV)
   0   2.0000     -88.044075     -2395.8011
   1   2.0000     -88.041488     -2395.7307
   2   2.0000     -87.977674     -2393.9942
   3   2.0000     -87.977346     -2393.9853
   4   2.0000     -76.423564     -2079.5909
   5   2.0000     -76.420996     -2079.5210
   6   2.0000     -18.791570      -511.3446
   7   2.0000     -18.787941      -511.2459
   8   2.0000     -18.786297      -511.2011
   9   2.0000     -18.780787      -511.0512
  10   2.0000      -9.955463      -270.9019
  11   2.0000      -9.955234      -270.8957
  12   2.0000      -9.955019      -270.8898
  13   2.0000      -9.952441      -270.8197
  14   2.0000      -9.947010      -270.6719
  15   2.0000      -9.891234      -269.1542
  16   2.0000      -9.881041      -268.8768
  17   2.0000      -9.879952      -268.8472
  18   2.0000      -9.879822      -268.8436
  19   2.0000      -7.689545      -209.2432
  20   2.0000      -7.685605      -209.1359
  21   2.0000      -7.622896      -207.4295
  22   2.0000      -7.621833      -207.4006
  23   2.0000      -6.420353      -174.7067
  24   2.0000      -6.418201      -174.6481
  25   2.0000      -5.717438      -155.5794
  26   2.0000      -5.713846      -155.4817
  27   2.0000      -5.713430      -155.4703
  28   2.0000      -5.710120      -155.3803
  29   2.0000      -5.706651      -155.2859
  30   2.0000      -5.702775      -155.1804
  31   2.0000      -5.652035      -153.7997
  32   2.0000      -5.650785      -153.7657
  33   2.0000      -5.643411      -153.5650
  34   2.0000      -5.642870      -153.5503
  35   2.0000      -5.642574      -153.5422
  36   2.0000      -5.641946      -153.5252
  37   2.0000      -4.643276      -126.3500
  38   2.0000      -4.642170      -126.3199
  39   2.0000      -4.640712      -126.2802
  40   2.0000      -4.640556      -126.2760
  41   2.0000      -4.640179      -126.2657
  42   2.0000      -4.638551      -126.2214
  43   2.0000      -0.985387       -26.8137
  44   2.0000      -0.980906       -26.6918
  45   2.0000      -0.939758       -25.5721
  46   2.0000      -0.939624       -25.5685
  47   2.0000      -0.761108       -20.7108
  48   2.0000      -0.718248       -19.5445
  49   2.0000      -0.707802       -19.2603
  50   2.0000      -0.690728       -18.7957
  51   2.0000      -0.684917       -18.6375
  52   2.0000      -0.675037       -18.3687
  53   2.0000      -0.648674       -17.6513
  54   2.0000      -0.632145       -17.2015
  55   2.0000      -0.593771       -16.1573
  56   2.0000      -0.588462       -16.0129
  57   2.0000      -0.580380       -15.7929
  58   2.0000      -0.571961       -15.5638
  59   2.0000      -0.560275       -15.2459
  60   2.0000      -0.498022       -13.5519
  61   2.0000      -0.488953       -13.3051
  62   2.0000      -0.470519       -12.8035
  63   2.0000      -0.466194       -12.6858
  64   2.0000      -0.451619       -12.2892
  65   2.0000      -0.450446       -12.2573
  66   2.0000      -0.436352       -11.8737
  67   2.0000      -0.431895       -11.7524
  68   2.0000      -0.428518       -11.6606
  69   2.0000      -0.421285       -11.4637
  70   2.0000      -0.410163       -11.1611
  71   2.0000      -0.404650       -11.0111
  72   2.0000      -0.394381       -10.7317
  73   2.0000      -0.388841       -10.5809
  74   2.0000      -0.384596       -10.4654
  75   2.0000      -0.368396       -10.0246
  76   2.0000      -0.357747        -9.7348
  77   2.0000      -0.353416        -9.6170
  78   2.0000      -0.348609        -9.4861
  79   2.0000      -0.347024        -9.4430
  80   2.0000      -0.344091        -9.3632
  81   2.0000      -0.343354        -9.3431
  82   2.0000      -0.338830        -9.2200
  83   2.0000      -0.337715        -9.1897
  84   2.0000      -0.333162        -9.0658
  85   2.0000      -0.316390        -8.6094
  86   2.0000      -0.311162        -8.4671
  87   2.0000      -0.294603        -8.0166
  88   2.0000      -0.293648        -7.9906
  89   2.0000      -0.289449        -7.8763
  90   2.0000      -0.283408        -7.7119
  91   2.0000      -0.274529        -7.4703
  92   2.0000      -0.267416        -7.2767
  93   2.0000      -0.258128        -7.0240
  94   2.0000      -0.255656        -6.9567
  95   2.0000      -0.231964        -6.3121
  96   2.0000      -0.222992        -6.0679
  97   2.0000      -0.209516        -5.7012
  98   2.0000      -0.193156        -5.2560
  99   2.0000      -0.189648        -5.1606
 100   2.0000      -0.178826        -4.8661
 101   0.0000      -0.040780        -1.1097
 102   0.0000      -0.033430        -0.9097
 103   0.0000      -0.009082        -0.2471
 104   0.0000       0.012915         0.3514
 105   0.0000       0.015687         0.4269

MULLIKEN ATOMIC CHARGES
-----------------------
   0 C :   -0.360542
   1 C :    0.015989
   2 O :   -0.356472
   3 P :    0.623836
   4 S :   -0.288410
   5 O :   -0.385807
   6 C :   -0.007805
   7 C :   -0.301040
   8 S :   -0.128679
   9 C :   -0.337807
  10 S :   -0.104972
  11 P :    0.602112
  12 S :   -0.301806
  13 O :   -0.375293
  14 C :   -0.009655
  15 C :   -0.312307
  16 O :   -0.363012
  17 C :   -0.047740
  18 C :   -0.277110
  19 H :    0.115487
  20 H :    0.124991
  21 H :    0.150592
  22 H :    0.110661
  23 H :    0.110011
  24 H :    0.105523
  25 H :    0.103366
  26 H :    0.120883
  27 H :    0.107253
  28 H :    0.122775
  29 H :    0.207474
  30 H :    0.176488
  31 H :    0.107771
  32 H :    0.111912
  33 H :    0.126936
  34 H :    0.110016
  35 H :    0.129453
  36 H :    0.122288
  37 H :    0.110244
  38 H :    0.122928
  39 H :    0.106318
  40 H :    0.113149
Sum of atomic charges:   -0.0000000

LOEWDIN ATOMIC CHARGES
----------------------
   0 C :   -0.373954
   1 C :   -0.106649
   2 O :   -0.230376
   3 P :    0.573958
   4 S :   -0.284320
   5 O :   -0.248429
   6 C :   -0.119498
   7 C :   -0.367672
   8 S :    0.067760
   9 C :   -0.481596
  10 S :    0.082528
  11 P :    0.560289
  12 S :   -0.297692
  13 O :   -0.246676
  14 C :   -0.114683
  15 C :   -0.370078
  16 O :   -0.242912
  17 C :   -0.124538
  18 C :   -0.362155
  19 H :    0.133132
  20 H :    0.118224
  21 H :    0.129455
  22 H :    0.122707
  23 H :    0.115348
  24 H :    0.102434
  25 H :    0.117954
  26 H :    0.119315
  27 H :    0.128035
  28 H :    0.129879
  29 H :    0.123967
  30 H :    0.133547
  31 H :    0.120768
  32 H :    0.108651
  33 H :    0.129985
  34 H :    0.129255
  35 H :    0.122265
  36 H :    0.107829
  37 H :    0.115729
  38 H :    0.124648
  39 H :    0.127873
  40 H :    0.125693

  Mayer bond orders larger than 0.100000
B(  0-C ,  1-C ) :   1.1686 B(  0-C , 19-H ) :   0.9341 B(  0-C , 20-H ) :   0.9344
B(  0-C , 21-H ) :   0.9296 B(  1-C ,  2-O ) :   0.9031 B(  1-C , 22-H ) :   0.9319
B(  1-C , 23-H ) :   0.9293 B(  2-O ,  3-P ) :   1.1340 B(  3-P ,  4-S ) :   1.6416
B(  3-P ,  5-O ) :   1.0632 B(  3-P ,  8-S ) :   0.9289 B(  4-S ,  8-S ) :   0.1229
B(  4-S , 29-H ) :   0.1164 B(  5-O ,  6-C ) :   0.9154 B(  6-C ,  7-C ) :   1.1674
B(  6-C , 24-H ) :   0.9171 B(  6-C , 25-H ) :   0.9339 B(  7-C , 26-H ) :   0.9330
B(  7-C , 27-H ) :   0.9360 B(  7-C , 28-H ) :   0.9454 B(  8-S ,  9-C ) :   0.9995
B(  9-C , 10-S ) :   1.0027 B(  9-C , 29-H ) :   0.8413 B(  9-C , 30-H ) :   0.9102
B( 10-S , 11-P ) :   0.9452 B( 10-S , 12-S ) :   0.1145 B( 11-P , 12-S ) :   1.6355
B( 11-P , 13-O ) :   1.0959 B( 11-P , 16-O ) :   1.1169 B( 13-O , 14-C ) :   0.9165
B( 14-C , 15-C ) :   1.1634 B( 14-C , 31-H ) :   0.9343 B( 14-C , 32-H ) :   0.9282
B( 15-C , 33-H ) :   0.9421 B( 15-C , 34-H ) :   0.9347 B( 15-C , 35-H ) :   0.9331
B( 16-O , 17-C ) :   0.9136 B( 17-C , 18-C ) :   1.1566 B( 17-C , 36-H ) :   0.9013
B( 17-C , 37-H ) :   0.9269 B( 18-C , 38-H ) :   0.9348 B( 18-C , 39-H ) :   0.9398
B( 18-C , 40-H ) :   0.9450

Dispersion correction           -0.067437627
FINAL SINGLE POINT ENERGY     -2929.510864891763

DIPOLE MOMENT
-------------

Method             : SCF
Type of density    : Electron Density
Multiplicity       :   1
Irrep              :   0
Energy             : -2929.6288268464345492 Eh
Relativity type    :
Basis              : AO
                                X                 Y                 Z
Electronic contribution:      0.247294759       4.352609006       7.024229370
Nuclear contribution   :     -0.325740262      -5.750244192      -7.277205948
                        -----------------------------------------
Total Dipole Moment    :     -0.078445503      -1.397635186      -0.252976578
                        -----------------------------------------
Magnitude (a.u.)       :      1.422510091
Magnitude (Debye)      :      3.615733304

Rotational constants in cm-1:             0.012550             0.005465             0.004778
Rotational constants in MHz :           376.231165           163.846378           143.245611

                             ****ORCA TERMINATED NORMALLY****
TOTAL RUN TIME: 0 days 0 hours 0 minutes 21 seconds 179 msec
