                         Program Version 6.0.0  -   RELEASE  -
|  1> ! pbe def2-sv(p) def2/J RI DEFGRID1 loosescf d4 GCP(DFT/SV(P)) printgap
|  2> %output
|  3>     printlevel normal
|  4> end
|  5> * xyz 0 1
|  6> C 2.6063749624 -3.0689919889 1.487329155
|  7> C 1.1816768096 -2.6311503749 1.2307806048
|  8> O 1.0275981449 -1.8963604464 -0.0117029541
|  9> P 1.8275464429 -0.6127214421 -0.4585539518
| 10> S 0.9504358513 0.2856078854 -1.9655669819
| 11> O 3.2691830191 -1.1927847037 -0.7876199684
| 12> C 4.216643574 -0.4962012005 -1.6132114891
| 13> C 4.7101579759 0.7837937656 -0.9698581246
| 14> S 2.1207445948 0.5553522195 1.2946051906
| 15> C 0.531050792 1.4090857254 1.291461474
| 16> S -0.870933205 0.2780496053 1.5745671303
| 17> P -2.1054876629 0.7443905062 -0.0971231822
| 18> S -1.7633852971 2.4460938306 -0.9933566843
| 19> O -3.5732180863 0.5887362876 0.5070117223
| 20> C -4.2840019596 1.6772382843 1.1238211141
| 21> C -3.6207289896 2.1588553997 2.3978266211
| 22> O -2.0482556649 -0.5167988688 -1.0421321033
| 23> C -2.4393767218 -1.8369541573 -0.5851658962
| 24> C -1.8852429703 -2.8490425253 -1.5650725482
| 25> H 2.9887451957 -3.6269684073 0.6367595136
| 26> H 3.2437741751 -2.2038245929 1.6565302137
| 27> H 2.625385641 -3.7002556828 2.3703950638
| 28> H 0.8112074104 -2.0014635745 2.0451711033
| 29> H 0.5168641773 -3.48555972 1.0942750763
| 30> H 5.0239852137 -1.2177452586 -1.7460373997
| 31> H 3.7445820604 -0.2834622876 -2.5776770415
| 32> H 5.0667938041 0.5894620246 0.0383846886
| 33> H 5.5182564086 1.1955894298 -1.5659136736
| 34> H 3.9023131574 1.5127467421 -0.9242208497
| 35> H 0.3746391907 1.9163233776 0.3351666479
| 36> H 0.5689979198 2.1202532261 2.1126106089
| 37> H -4.3570874352 2.4928943163 0.3980905858
| 38> H -5.2735053121 1.26027466 1.3166151422
| 39> H -4.2682476396 2.8815516962 2.8837520731
| 40> H -3.4386022584 1.3250207932 3.0710420383
| 41> H -2.6728274824 2.6403439702 2.1619628476
| 42> H -2.0360594781 -1.9880240021 0.4212858789
| 43> H -3.5300739945 -1.8650854468 -0.5455458232
| 44> H -0.8008082398 -2.7766185625 -1.6000297869
| 45> H -2.1736196297 -3.8467226725 -1.2504083871
| 46> H -2.275278873 -2.6543766529 -2.5601849502
| 47> *
| 48>
| 49>                          ****END OF INPUT****

CARTESIAN COORDINATES (ANGSTROEM)
---------------------------------
  C      2.606375   -3.068992    1.487329
  C      1.181677   -2.631150    1.230781
  O      1.027598   -1.896360   -0.011703
  P      1.827546   -0.612721   -0.458554
  S      0.950436    0.285608   -1.965567
  O      3.269183   -1.192785   -0.787620
  C      4.216644   -0.496201   -1.613211
  C      4.710158    0.783794   -0.969858
  S      2.120745    0.555352    1.294605
  C      0.531051    1.409086    1.291461
  S     -0.870933    0.278050    1.574567
  P     -2.105488    0.744391   -0.097123
  S     -1.763385    2.446094   -0.993357
  O     -3.573218    0.588736    0.507012
  C     -4.284002    1.677238    1.123821
  C     -3.620729    2.158855    2.397827
  O     -2.048256   -0.516799   -1.042132
  C     -2.439377   -1.836954   -0.585166
  C     -1.885243   -2.849043   -1.565073
  H      2.988745   -3.626968    0.636760
  H      3.243774   -2.203825    1.656530
  H      2.625386   -3.700256    2.370395
  H      0.811207   -2.001464    2.045171
  H      0.516864   -3.485560    1.094275
  H      5.023985   -1.217745   -1.746037
  H      3.744582   -0.283462   -2.577677
  H      5.066794    0.589462    0.038385
  H      5.518256    1.195589   -1.565914
  H      3.902313    1.512747   -0.924221
  H      0.374639    1.916323    0.335167
  H      0.568998    2.120253    2.112611
  H     -4.357087    2.492894    0.398091
  H     -5.273505    1.260275    1.316615
  H     -4.268248    2.881552    2.883752
  H     -3.438602    1.325021    3.071042
  H     -2.672827    2.640344    2.161963
  H     -2.036059   -1.988024    0.421286
  H     -3.530074   -1.865085   -0.545546
  H     -0.800808   -2.776619   -1.600030
  H     -2.173620   -3.846723   -1.250408
  H     -2.275279   -2.654377   -2.560185

 Total Charge           Charge          ....    0
 Multiplicity           Mult            ....    1
 Number of Electrons    NEL             ....  202
 Basis Dimension        Dim             ....  334

ORBITAL ENERGIES
----------------

  NO   OCC          E(Eh)            E(eV)
   0   2.0000     -88.046283     -2395.8612
   1   2.0000     -88.040887     -2395.7143
   2   2.0000     -87.981786     -2394.1061
   3   2.0000     -87.978267     -2394.0104
   4   2.0000     -76.424471     -2079.6156
   5   2.0000     -76.420960     -2079.5200
   6   2.0000     -18.792050      -511.3577
   7   2.0000     -18.791974      -511.3556
   8   2.0000     -18.787103      -511.2231
   9   2.0000     -18.781869      -511.0806
  10   2.0000      -9.957266      -270.9510
  11   2.0000      -9.954794      -270.8837
  12   2.0000      -9.951937      -270.8060
  13   2.0000      -9.949614      -270.7428
  14   2.0000      -9.948657      -270.7167
  15   2.0000      -9.889255      -269.1003
  16   2.0000      -9.883465      -268.9428
  17   2.0000      -9.881958      -268.9017
  18   2.0000      -9.876760      -268.7603
  19   2.0000      -7.691104      -209.2856
  20   2.0000      -7.685355      -209.1291
  21   2.0000      -7.626956      -207.5400
  22   2.0000      -7.623114      -207.4355
  23   2.0000      -6.421647      -174.7419
  24   2.0000      -6.418362      -174.6525
  25   2.0000      -5.718974      -155.6212
  26   2.0000      -5.715429      -155.5247
  27   2.0000      -5.713189      -155.4638
  28   2.0000      -5.709847      -155.3728
  29   2.0000      -5.708303      -155.3308
  30   2.0000      -5.702425      -155.1709
  31   2.0000      -5.656021      -153.9082
  32   2.0000      -5.652212      -153.8045
  33   2.0000      -5.647472      -153.6755
  34   2.0000      -5.647039      -153.6637
  35   2.0000      -5.643597      -153.5701
  36   2.0000      -5.643262      -153.5610
  37   2.0000      -4.644416      -126.3810
  38   2.0000      -4.643539      -126.3571
  39   2.0000      -4.641821      -126.3104
  40   2.0000      -4.641110      -126.2910
  41   2.0000      -4.639971      -126.2600
  42   2.0000      -4.638856      -126.2297
  43   2.0000      -0.986739       -26.8505
  44   2.0000      -0.981622       -26.7113
  45   2.0000      -0.945639       -25.7321
  46   2.0000      -0.936325       -25.4787
  47   2.0000      -0.762075       -20.7371
  48   2.0000      -0.718081       -19.5400
  49   2.0000      -0.709287       -19.3007
  50   2.0000      -0.690960       -18.8020
  51   2.0000      -0.684288       -18.6204
  52   2.0000      -0.676901       -18.4194
  53   2.0000      -0.648271       -17.6404
  54   2.0000      -0.631663       -17.1884
  55   2.0000      -0.597469       -16.2579
  56   2.0000      -0.588460       -16.0128
  57   2.0000      -0.577322       -15.7097
  58   2.0000      -0.563976       -15.3466
  59   2.0000      -0.561488       -15.2789
  60   2.0000      -0.501219       -13.6389
  61   2.0000      -0.492184       -13.3930
  62   2.0000      -0.472050       -12.8451
  63   2.0000      -0.468215       -12.7408
  64   2.0000      -0.451785       -12.2937
  65   2.0000      -0.448918       -12.2157
  66   2.0000      -0.441587       -12.0162
  67   2.0000      -0.435075       -11.8390
  68   2.0000      -0.431514       -11.7421
  69   2.0000      -0.421635       -11.4733
  70   2.0000      -0.412521       -11.2253
  71   2.0000      -0.398785       -10.8515
  72   2.0000      -0.386994       -10.5306
  73   2.0000      -0.385544       -10.4912
  74   2.0000      -0.379526       -10.3274
  75   2.0000      -0.365422        -9.9436
  76   2.0000      -0.361716        -9.8428
  77   2.0000      -0.358841        -9.7645
  78   2.0000      -0.354321        -9.6416
  79   2.0000      -0.349308        -9.5052
  80   2.0000      -0.347385        -9.4528
  81   2.0000      -0.346569        -9.4306
  82   2.0000      -0.338069        -9.1993
  83   2.0000      -0.334529        -9.1030
  84   2.0000      -0.329648        -8.9702
  85   2.0000      -0.313571        -8.5327
  86   2.0000      -0.308759        -8.4018
  87   2.0000      -0.296221        -8.0606
  88   2.0000      -0.294228        -8.0063
  89   2.0000      -0.291211        -7.9243
  90   2.0000      -0.290403        -7.9023
  91   2.0000      -0.275365        -7.4931
  92   2.0000      -0.263047        -7.1579
  93   2.0000      -0.260444        -7.0870
  94   2.0000      -0.255670        -6.9571
  95   2.0000      -0.236390        -6.4325
  96   2.0000      -0.218867        -5.9557
  97   2.0000      -0.212543        -5.7836
  98   2.0000      -0.199789        -5.4365
  99   2.0000      -0.190933        -5.1956
 100   2.0000      -0.183691        -4.9985
 101   0.0000      -0.042442        -1.1549
 102   0.0000      -0.032693        -0.8896
 103   0.0000      -0.009476        -0.2578
 104   0.0000       0.009170         0.2495
 105   0.0000       0.018258         0.4968

MULLIKEN ATOMIC CHARGES
-----------------------
   0 C :   -0.298808
   1 C :   -0.009536
   2 O :   -0.356602
   3 P :    0.588784
   4 S :   -0.279331
   5 O :   -0.374912
   6 C :   -0.000397
   7 C :   -0.320033
   8 S :   -0.116065
   9 C :   -0.337295
  10 S :   -0.132428
  11 P :    0.615619
  12 S :   -0.288254
  13 O :   -0.390166
  14 C :    0.002799
  15 C :   -0.311755
  16 O :   -0.346676
  17 C :   -0.017222
  18 C :   -0.288760
  19 H :    0.122179
  20 H :    0.118897
  21 H :    0.112613
  22 H :    0.113215
  23 H :    0.105936
  24 H :    0.103470
  25 H :    0.114064
  26 H :    0.114707
  27 H :    0.114355
  28 H :    0.131554
  29 H :    0.207652
  30 H :    0.180054
  31 H :    0.111301
  32 H :    0.101716
  33 H :    0.111207
  34 H :    0.116058
  35 H :    0.119149
  36 H :    0.099504
  37 H :    0.105399
  38 H :    0.139598
  39 H :    0.099401
  40 H :    0.119008
Sum of atomic charges:   -0.0000000

LOEWDIN ATOMIC CHARGES
----------------------
   0 C :   -0.365954
   1 C :   -0.117450
   2 O :   -0.232805
   3 P :    0.562925
   4 S :   -0.287649
   5 O :   -0.243375
   6 C :   -0.118292
   7 C :   -0.371529
   8 S :    0.073669
   9 C :   -0.478554
  10 S :    0.066264
  11 P :    0.574598
  12 S :   -0.290915
  13 O :   -0.253258
  14 C :   -0.116633
  15 C :   -0.371100
  16 O :   -0.229132
  17 C :   -0.112960
  18 C :   -0.355442
  19 H :    0.128861
  20 H :    0.118099
  21 H :    0.131295
  22 H :    0.102270
  23 H :    0.119100
  24 H :    0.117959
  25 H :    0.113220
  26 H :    0.121927
  27 H :    0.131817
  28 H :    0.122977
  29 H :    0.125822
  30 H :    0.135541
  31 H :    0.111939
  32 H :    0.117189
  33 H :    0.129734
  34 H :    0.122146
  35 H :    0.118886
  36 H :    0.100568
  37 H :    0.112582
  38 H :    0.130994
  39 H :    0.124891
  40 H :    0.129772

  Mayer bond orders larger than 0.100000
B(  0-C ,  1-C ) :   1.1730 B(  0-C , 19-H ) :   0.9427 B(  0-C , 20-H ) :   0.9375
B(  0-C , 21-H ) :   0.9354 B(  1-C ,  2-O ) :   0.8973 B(  1-C , 22-H ) :   0.9102
B(  1-C , 23-H ) :   0.9320 B(  2-O ,  3-P ) :   1.1221 B(  3-P ,  4-S ) :   1.6586
B(  3-P ,  5-O ) :   1.0884 B(  3-P ,  8-S ) :   0.9282 B(  4-S ,  8-S ) :   0.1065
B(  5-O ,  6-C ) :   0.9059 B(  6-C ,  7-C ) :   1.1658 B(  6-C , 24-H ) :   0.9339
B(  6-C , 25-H ) :   0.9148 B(  7-C , 26-H ) :   0.9448 B(  7-C , 27-H ) :   0.9375
B(  7-C , 28-H ) :   0.9338 B(  8-S ,  9-C ) :   1.0033 B(  9-C , 10-S ) :   0.9963
B(  9-C , 29-H ) :   0.8460 B(  9-C , 30-H ) :   0.9098 B( 10-S , 11-P ) :   0.9376
B( 10-S , 12-S ) :   0.1120 B( 11-P , 12-S ) :   1.6349 B( 11-P , 13-O ) :   1.0706
B( 11-P , 16-O ) :   1.1417 B( 13-O , 14-C ) :   0.9144 B( 14-C , 15-C ) :   1.1665
B( 14-C , 31-H ) :   0.9183 B( 14-C , 32-H ) :   0.9346 B( 15-C , 33-H ) :   0.9372
B( 15-C , 34-H ) :   0.9426 B( 15-C , 35-H ) :   0.9367 B( 16-O , 17-C ) :   0.8967
B( 17-C , 18-C ) :   1.1654 B( 17-C , 36-H ) :   0.9135 B( 17-C , 37-H ) :   0.9296
B( 18-C , 38-H ) :   0.9346 B( 18-C , 39-H ) :   0.9399 B( 18-C , 40-H ) :   0.9480

Dispersion correction           -0.068622804
FINAL SINGLE POINT ENERGY     -2929.516538064395

DIPOLE MOMENT
-------------

Method             : SCF
Type of density    : Electron Density
Multiplicity       :   1
Irrep              :   0
Energy             : -2929.6347337629968024 Eh
Relativity type    :
Basis              : AO
                                X                 Y                 Z
Electronic contribution:     -3.246278754      10.150748407      -6.312491833
Nuclear contribution   :      3.555437666     -11.256821644       7.770828508
                        -----------------------------------------
Total Dipole Moment    :      0.309158912      -1.106073237       1.458336676
                        -----------------------------------------
Magnitude (a.u.)       :      1.856265902
Magnitude (Debye)      :      4.718252957

Rotational constants in cm-1:             0.012571             0.005440             0.005168
Rotational constants in MHz :           376.876229           163.099758           154.934696

                             ****ORCA TERMINATED NORMALLY****
TOTAL RUN TIME: 0 days 0 hours 0 minutes 21 seconds 892 msec
