                         Program Version 6.0.0  -   RELEASE  -
|  1> ! pbe def2-sv(p) def2/J RI DEFGRID1 loosescf d4 GCP(DFT/SV(P)) printgap
|  2> %output
|  3>     printlevel normal
|  4> end
|  5> * xyz 0 1
|  6> C 4.9087180673 1.0156697567 -1.0109753893
|  7> C 4.3244571942 -0.2766944645 -1.5429736823
|  8> O 3.4369944218 -0.9197852498 -0.610723174
|  9> P 2.2261988265 -0.2296452438 0.1516032699
| 10> S 2.6584957963 0.8850152012 1.7099910922
| 11> O 1.3308696653 -1.495403906 0.4833338194
| 12> C 1.3593050191 -2.1354005343 1.7742586163
| 13> C 2.6693978402 -2.859594638 1.9994312169
| 14> S 1.1287639183 0.6934774379 -1.3964197737
| 15> C 0.0948018001 1.7301791385 -0.3188132618
| 16> S -0.9174292407 0.8045526219 0.8584343215
| 17> P -2.3814849271 0.088409641 -0.5355374078
| 18> S -1.7624755112 -1.1930435734 -1.8819895165
| 19> O -2.9850025875 1.3503530656 -1.2650299756
| 20> C -3.9791802813 2.2626267401 -0.7327965275
| 21> C -3.4142592764 3.2019625606 0.3131994157
| 22> O -3.5718597922 -0.3600556748 0.4152309779
| 23> C -3.4232678151 -1.1983858587 1.5752228926
| 24> C -2.779469681 -2.5302535735 1.252642094
| 25> H 5.398979393 0.8463684995 -0.0551801042
| 26> H 5.6310502535 1.4026586922 -1.7224979756
| 27> H 4.1201411263 1.7536625681 -0.8688976127
| 28> H 5.1004877178 -1.0249354048 -1.714999772
| 29> H 3.7713019084 -0.0996258895 -2.4700731136
| 30> H 1.1959377874 -1.373615104 2.5440206348
| 31> H 0.5145595896 -2.8250782871 1.7469085676
| 32> H 2.8462712503 -3.571956228 1.1978770113
| 33> H 3.4867093228 -2.1389513016 2.0140818878
| 34> H 2.6368333144 -3.3806794074 2.950935437
| 35> H -0.5413392839 2.3129138868 -0.9812565007
| 36> H 0.7381430591 2.3694546981 0.285688074
| 37> H -4.3135036432 2.805635478 -1.6183250296
| 38> H -4.8019576791 1.6731280145 -0.326476355
| 39> H -4.1896635601 3.903704023 0.6048126501
| 40> H -3.0909505577 2.6504137263 1.1928000135
| 41> H -2.5693583669 3.7580023593 -0.0852404389
| 42> H -2.8326035412 -0.6532474332 2.317250843
| 43> H -4.4460630366 -1.325261023 1.93442642
| 44> H -3.3482110754 -3.0520105767 0.4867319754
| 45> H -1.7691811254 -2.3719648099 0.876405767
| 46> H -2.7364184069 -3.1389854248 2.1500299468
| 47> *
| 48>
| 49>                          ****END OF INPUT****

CARTESIAN COORDINATES (ANGSTROEM)
---------------------------------
  C      4.908718    1.015670   -1.010975
  C      4.324457   -0.276694   -1.542974
  O      3.436994   -0.919785   -0.610723
  P      2.226199   -0.229645    0.151603
  S      2.658496    0.885015    1.709991
  O      1.330870   -1.495404    0.483334
  C      1.359305   -2.135401    1.774259
  C      2.669398   -2.859595    1.999431
  S      1.128764    0.693477   -1.396420
  C      0.094802    1.730179   -0.318813
  S     -0.917429    0.804553    0.858434
  P     -2.381485    0.088410   -0.535537
  S     -1.762476   -1.193044   -1.881990
  O     -2.985003    1.350353   -1.265030
  C     -3.979180    2.262627   -0.732797
  C     -3.414259    3.201963    0.313199
  O     -3.571860   -0.360056    0.415231
  C     -3.423268   -1.198386    1.575223
  C     -2.779470   -2.530254    1.252642
  H      5.398979    0.846368   -0.055180
  H      5.631050    1.402659   -1.722498
  H      4.120141    1.753663   -0.868898
  H      5.100488   -1.024935   -1.715000
  H      3.771302   -0.099626   -2.470073
  H      1.195938   -1.373615    2.544021
  H      0.514560   -2.825078    1.746909
  H      2.846271   -3.571956    1.197877
  H      3.486709   -2.138951    2.014082
  H      2.636833   -3.380679    2.950935
  H     -0.541339    2.312914   -0.981257
  H      0.738143    2.369455    0.285688
  H     -4.313504    2.805635   -1.618325
  H     -4.801958    1.673128   -0.326476
  H     -4.189664    3.903704    0.604813
  H     -3.090951    2.650414    1.192800
  H     -2.569358    3.758002   -0.085240
  H     -2.832604   -0.653247    2.317251
  H     -4.446063   -1.325261    1.934426
  H     -3.348211   -3.052011    0.486732
  H     -1.769181   -2.371965    0.876406
  H     -2.736418   -3.138985    2.150030

 Total Charge           Charge          ....    0
 Multiplicity           Mult            ....    1
 Number of Electrons    NEL             ....  202
 Basis Dimension        Dim             ....  334

ORBITAL ENERGIES
----------------

  NO   OCC          E(Eh)            E(eV)
   0   2.0000     -88.041738     -2395.7375
   1   2.0000     -88.038829     -2395.6583
   2   2.0000     -87.983878     -2394.1630
   3   2.0000     -87.973145     -2393.8710
   4   2.0000     -76.423916     -2079.6005
   5   2.0000     -76.423804     -2079.5974
   6   2.0000     -18.796433      -511.4769
   7   2.0000     -18.791758      -511.3497
   8   2.0000     -18.789656      -511.2925
   9   2.0000     -18.781765      -511.0778
  10   2.0000      -9.962978      -271.1064
  11   2.0000      -9.958662      -270.9890
  12   2.0000      -9.958190      -270.9761
  13   2.0000      -9.955866      -270.9129
  14   2.0000      -9.944842      -270.6129
  15   2.0000      -9.891181      -269.1527
  16   2.0000      -9.885533      -268.9990
  17   2.0000      -9.881747      -268.8960
  18   2.0000      -9.877960      -268.7930
  19   2.0000      -7.686102      -209.1495
  20   2.0000      -7.684082      -209.0945
  21   2.0000      -7.628893      -207.5927
  22   2.0000      -7.618379      -207.3066
  23   2.0000      -6.420934      -174.7225
  24   2.0000      -6.420886      -174.7212
  25   2.0000      -5.713831      -155.4812
  26   2.0000      -5.711907      -155.4289
  27   2.0000      -5.710814      -155.3991
  28   2.0000      -5.708643      -155.3401
  29   2.0000      -5.703114      -155.1896
  30   2.0000      -5.700975      -155.1314
  31   2.0000      -5.657680      -153.9533
  32   2.0000      -5.649633      -153.7343
  33   2.0000      -5.649071      -153.7190
  34   2.0000      -5.647599      -153.6790
  35   2.0000      -5.639046      -153.4463
  36   2.0000      -5.638208      -153.4234
  37   2.0000      -4.644233      -126.3760
  38   2.0000      -4.643381      -126.3528
  39   2.0000      -4.642920      -126.3403
  40   2.0000      -4.642757      -126.3358
  41   2.0000      -4.641412      -126.2992
  42   2.0000      -4.640539      -126.2755
  43   2.0000      -0.989926       -26.9373
  44   2.0000      -0.981719       -26.7139
  45   2.0000      -0.946444       -25.7541
  46   2.0000      -0.940076       -25.5808
  47   2.0000      -0.763277       -20.7698
  48   2.0000      -0.720264       -19.5994
  49   2.0000      -0.709109       -19.2958
  50   2.0000      -0.694690       -18.9035
  51   2.0000      -0.684342       -18.6219
  52   2.0000      -0.673630       -18.3304
  53   2.0000      -0.649858       -17.6835
  54   2.0000      -0.636890       -17.3307
  55   2.0000      -0.594098       -16.1662
  56   2.0000      -0.587464       -15.9857
  57   2.0000      -0.583307       -15.8726
  58   2.0000      -0.572287       -15.5727
  59   2.0000      -0.563295       -15.3280
  60   2.0000      -0.503365       -13.6973
  61   2.0000      -0.490407       -13.3447
  62   2.0000      -0.475570       -12.9409
  63   2.0000      -0.465960       -12.6794
  64   2.0000      -0.461722       -12.5641
  65   2.0000      -0.447635       -12.1808
  66   2.0000      -0.438437       -11.9305
  67   2.0000      -0.436020       -11.8647
  68   2.0000      -0.430683       -11.7195
  69   2.0000      -0.416202       -11.3254
  70   2.0000      -0.412613       -11.2278
  71   2.0000      -0.406019       -11.0483
  72   2.0000      -0.388116       -10.5612
  73   2.0000      -0.387106       -10.5337
  74   2.0000      -0.384144       -10.4531
  75   2.0000      -0.374822       -10.1994
  76   2.0000      -0.360748        -9.8164
  77   2.0000      -0.357298        -9.7226
  78   2.0000      -0.354899        -9.6573
  79   2.0000      -0.346406        -9.4262
  80   2.0000      -0.345042        -9.3891
  81   2.0000      -0.344468        -9.3734
  82   2.0000      -0.341740        -9.2992
  83   2.0000      -0.338874        -9.2212
  84   2.0000      -0.332095        -9.0368
  85   2.0000      -0.326096        -8.8735
  86   2.0000      -0.313413        -8.5284
  87   2.0000      -0.299788        -8.1577
  88   2.0000      -0.295376        -8.0376
  89   2.0000      -0.293222        -7.9790
  90   2.0000      -0.282777        -7.6948
  91   2.0000      -0.278016        -7.5652
  92   2.0000      -0.269939        -7.3454
  93   2.0000      -0.261494        -7.1156
  94   2.0000      -0.255697        -6.9579
  95   2.0000      -0.234324        -6.3763
  96   2.0000      -0.215535        -5.8650
  97   2.0000      -0.205527        -5.5927
  98   2.0000      -0.199130        -5.4186
  99   2.0000      -0.189463        -5.1555
 100   2.0000      -0.179995        -4.8979
 101   0.0000      -0.044056        -1.1988
 102   0.0000      -0.023405        -0.6369
 103   0.0000      -0.011200        -0.3048
 104   0.0000      -0.000398        -0.0108
 105   0.0000       0.017520         0.4767

MULLIKEN ATOMIC CHARGES
-----------------------
   0 C :   -0.310173
   1 C :   -0.010179
   2 O :   -0.372324
   3 P :    0.610280
   4 S :   -0.343489
   5 O :   -0.349833
   6 C :   -0.016990
   7 C :   -0.297810
   8 S :   -0.062130
   9 C :   -0.351643
  10 S :   -0.111096
  11 P :    0.596490
  12 S :   -0.292324
  13 O :   -0.367452
  14 C :    0.001144
  15 C :   -0.321143
  16 O :   -0.384861
  17 C :   -0.016034
  18 C :   -0.334479
  19 H :    0.125643
  20 H :    0.110838
  21 H :    0.122891
  22 H :    0.109361
  23 H :    0.115918
  24 H :    0.108990
  25 H :    0.108001
  26 H :    0.116726
  27 H :    0.122163
  28 H :    0.107095
  29 H :    0.185275
  30 H :    0.194205
  31 H :    0.110991
  32 H :    0.112531
  33 H :    0.113426
  34 H :    0.127969
  35 H :    0.119796
  36 H :    0.116499
  37 H :    0.110390
  38 H :    0.127860
  39 H :    0.156527
  40 H :    0.110951
Sum of atomic charges:   -0.0000000

LOEWDIN ATOMIC CHARGES
----------------------
   0 C :   -0.370457
   1 C :   -0.113160
   2 O :   -0.243425
   3 P :    0.573574
   4 S :   -0.328720
   5 O :   -0.233507
   6 C :   -0.121129
   7 C :   -0.364111
   8 S :    0.097374
   9 C :   -0.476500
  10 S :    0.074148
  11 P :    0.560340
  12 S :   -0.304906
  13 O :   -0.241893
  14 C :   -0.109790
  15 C :   -0.368127
  16 O :   -0.247072
  17 C :   -0.114038
  18 C :   -0.371716
  19 H :    0.129044
  20 H :    0.129646
  21 H :    0.119649
  22 H :    0.121667
  23 H :    0.111267
  24 H :    0.106909
  25 H :    0.115815
  26 H :    0.126576
  27 H :    0.122033
  28 H :    0.128262
  29 H :    0.130116
  30 H :    0.132181
  31 H :    0.122143
  32 H :    0.115472
  33 H :    0.131679
  34 H :    0.119193
  35 H :    0.125016
  36 H :    0.107742
  37 H :    0.121506
  38 H :    0.132218
  39 H :    0.126041
  40 H :    0.128939

  Mayer bond orders larger than 0.100000
B(  0-C ,  1-C ) :   1.1637 B(  0-C , 19-H ) :   0.9423 B(  0-C , 20-H ) :   0.9349
B(  0-C , 21-H ) :   0.9329 B(  1-C ,  2-O ) :   0.9150 B(  1-C , 22-H ) :   0.9344
B(  1-C , 23-H ) :   0.9286 B(  2-O ,  3-P ) :   1.1129 B(  3-P ,  4-S ) :   1.5778
B(  3-P ,  5-O ) :   1.1326 B(  3-P ,  8-S ) :   0.9653 B(  4-S ,  8-S ) :   0.1103
B(  5-O ,  6-C ) :   0.9087 B(  6-C ,  7-C ) :   1.1679 B(  6-C , 24-H ) :   0.9128
B(  6-C , 25-H ) :   0.9246 B(  7-C , 26-H ) :   0.9460 B(  7-C , 27-H ) :   0.9344
B(  7-C , 28-H ) :   0.9397 B(  8-S ,  9-C ) :   1.0082 B(  9-C , 10-S ) :   1.0071
B(  9-C , 29-H ) :   0.8920 B(  9-C , 30-H ) :   0.8855 B( 10-S , 11-P ) :   0.9206
B( 10-S , 12-S ) :   0.1149 B( 11-P , 12-S ) :   1.7127 B( 11-P , 13-O ) :   1.1079
B( 11-P , 16-O ) :   1.0660 B( 13-O , 14-C ) :   0.8982 B( 14-C , 15-C ) :   1.1678
B( 14-C , 31-H ) :   0.9354 B( 14-C , 32-H ) :   0.9250 B( 15-C , 33-H ) :   0.9365
B( 15-C , 34-H ) :   0.9353 B( 15-C , 35-H ) :   0.9452 B( 16-O , 17-C ) :   0.9161
B( 17-C , 18-C ) :   1.1650 B( 17-C , 36-H ) :   0.9238 B( 17-C , 37-H ) :   0.9336
B( 18-C , 38-H ) :   0.9408 B( 18-C , 39-H ) :   0.9169 B( 18-C , 40-H ) :   0.9348

Dispersion correction           -0.066570012
FINAL SINGLE POINT ENERGY     -2929.509448363148

DIPOLE MOMENT
-------------

Method             : SCF
Type of density    : Electron Density
Multiplicity       :   1
Irrep              :   0
Energy             : -2929.6274994371151479 Eh
Relativity type    :
Basis              : AO
                                X                 Y                 Z
Electronic contribution:     -1.368324295       1.721698562      -9.502175995
Nuclear contribution   :      0.831828546      -1.318195880      10.161486720
                        -----------------------------------------
Total Dipole Moment    :     -0.536495748       0.403502682       0.659310725
                        -----------------------------------------
Magnitude (a.u.)       :      0.940921216
Magnitude (Debye)      :      2.391631665

Rotational constants in cm-1:             0.012452             0.005153             0.004633
Rotational constants in MHz :           373.299718           154.468145           138.880226

                             ****ORCA TERMINATED NORMALLY****
TOTAL RUN TIME: 0 days 0 hours 0 minutes 21 seconds 173 msec
