                         Program Version 6.0.1  -  RELEASE   -
|  1> ! r2scan-3c def2/J RI DEFGRID2 scfconv6 printgap
|  2> %output
|  3>     printlevel normal
|  4> end
|  5> * xyz 0 1
|  6> C 2.6060726476 -2.7466440858 0.5936623116
|  7> C 3.3248649894 -1.7288876967 -0.2766732356
|  8> O 2.3562204553 -0.8579517171 -0.8931064489
|  9> C 2.1385365082 -0.9398221615 -2.1935386499
| 10> O 2.7576226023 -1.6549537572 -2.9487843439
| 11> C 1.0271013711 -0.0139960346 -2.645274657
| 12> C 0.1753536197 0.499154202 -1.4901767105
| 13> H -0.5888134432 1.1862454596 -1.8709059168
| 14> C 1.030632259 1.2849016509 -0.5113789632
| 15> O 1.8305831146 2.1109063639 -0.8902925815
| 16> O 0.7886837517 0.999694974 0.7489046463
| 17> C 1.5393515566 1.7201102335 1.7494087857
| 18> C 1.6225680139 0.8816823044 3.0086714487
| 19> S -0.6929679794 -0.8839124494 -0.6820095241
| 20> P -1.9281229712 0.2473245822 0.6303504653
| 21> S -2.1526807731 2.1528874194 0.2310146148
| 22> O -3.2990538911 -0.5835592689 0.5934199802
| 23> C -4.1298449791 -0.5935973251 -0.5711411178
| 24> O -1.4731339555 -0.051440487 2.1117652441
| 25> C -1.3749113255 -1.4056922123 2.5996997076
| 26> H 1.9887070906 -2.2366021923 1.3282960381
| 27> H 1.9687553016 -3.3789952085 -0.0192721944
| 28> H 3.3381395524 -3.3633785081 1.1041496795
| 29> H 3.9069841318 -2.2132727639 -1.0653000289
| 30> H 3.9708331878 -1.079368412 0.3177539073
| 31> H 0.4180925745 -0.5444491857 -3.3776088043
| 32> H 1.4963441013 0.8403365468 -3.1410011473
| 33> H 2.5268137491 1.9372980938 1.3310127205
| 34> H 1.0175682856 2.6651162214 1.9297109846
| 35> H 0.626652246 0.7189383605 3.4085122442
| 36> H 2.0864328961 -0.0766219544 2.7935521582
| 37> H 2.2202355274 1.4110348783 3.7434130318
| 38> H -4.3081621276 0.4266432577 -0.9148438692
| 39> H -5.0630568266 -1.0573134078 -0.2620533428
| 40> H -3.6547030264 -1.1759740043 -1.3605389846
| 41> H -0.8953234415 -1.330660587 3.5721031231
| 42> H -0.7729893042 -2.0045685288 1.9160086274
| 43> H -2.3695353997 -1.8367264407 2.6925193489
| 44> *
| 45>
| 46>                          ****END OF INPUT****

CARTESIAN COORDINATES (ANGSTROEM)
---------------------------------
  C      2.606073   -2.746644    0.593662
  C      3.324865   -1.728888   -0.276673
  O      2.356220   -0.857952   -0.893106
  C      2.138537   -0.939822   -2.193539
  O      2.757623   -1.654954   -2.948784
  C      1.027101   -0.013996   -2.645275
  C      0.175354    0.499154   -1.490177
  H     -0.588813    1.186245   -1.870906
  C      1.030632    1.284902   -0.511379
  O      1.830583    2.110906   -0.890293
  O      0.788684    0.999695    0.748905
  C      1.539352    1.720110    1.749409
  C      1.622568    0.881682    3.008671
  S     -0.692968   -0.883912   -0.682010
  P     -1.928123    0.247325    0.630350
  S     -2.152681    2.152887    0.231015
  O     -3.299054   -0.583559    0.593420
  C     -4.129845   -0.593597   -0.571141
  O     -1.473134   -0.051440    2.111765
  C     -1.374911   -1.405692    2.599700
  H      1.988707   -2.236602    1.328296
  H      1.968755   -3.378995   -0.019272
  H      3.338140   -3.363379    1.104150
  H      3.906984   -2.213273   -1.065300
  H      3.970833   -1.079368    0.317754
  H      0.418093   -0.544449   -3.377609
  H      1.496344    0.840337   -3.141001
  H      2.526814    1.937298    1.331013
  H      1.017568    2.665116    1.929711
  H      0.626652    0.718938    3.408512
  H      2.086433   -0.076622    2.793552
  H      2.220236    1.411035    3.743413
  H     -4.308162    0.426643   -0.914844
  H     -5.063057   -1.057313   -0.262053
  H     -3.654703   -1.175974   -1.360539
  H     -0.895323   -1.330661    3.572103
  H     -0.772989   -2.004569    1.916009
  H     -2.369535   -1.836726    2.692519

 Total Charge           Charge          ....    0
 Multiplicity           Mult            ....    1
 Number of Electrons    NEL             ....  174
 Basis Dimension        Dim             ....  510

ORBITAL ENERGIES
----------------

  NO   OCC          E(Eh)            E(eV)
   0   2.0000     -88.577955     -2410.3287
   1   2.0000     -88.522784     -2408.8274
   2   2.0000     -76.918606     -2093.0617
   3   2.0000     -19.008760      -517.2547
   4   2.0000     -19.002489      -517.0840
   5   2.0000     -19.001054      -517.0450
   6   2.0000     -18.994641      -516.8704
   7   2.0000     -18.936376      -515.2850
   8   2.0000     -18.934247      -515.2271
   9   2.0000     -10.165355      -276.6134
  10   2.0000     -10.163102      -276.5521
  11   2.0000     -10.105172      -274.9757
  12   2.0000     -10.100454      -274.8473
  13   2.0000     -10.097848      -274.7764
  14   2.0000     -10.094514      -274.6857
  15   2.0000     -10.093889      -274.6687
  16   2.0000     -10.066217      -273.9157
  17   2.0000     -10.039333      -273.1841
  18   2.0000     -10.035577      -273.0819
  19   2.0000      -7.872357      -214.2177
  20   2.0000      -7.817383      -212.7218
  21   2.0000      -6.596840      -179.5091
  22   2.0000      -5.819161      -158.3474
  23   2.0000      -5.816293      -158.2694
  24   2.0000      -5.809450      -158.0832
  25   2.0000      -5.765304      -156.8819
  26   2.0000      -5.757638      -156.6733
  27   2.0000      -5.757170      -156.6606
  28   2.0000      -4.742583      -129.0522
  29   2.0000      -4.741903      -129.0337
  30   2.0000      -4.740275      -128.9895
  31   2.0000      -1.086626       -29.5686
  32   2.0000      -1.079746       -29.3814
  33   2.0000      -1.056883       -28.7592
  34   2.0000      -1.013681       -27.5837
  35   2.0000      -0.987285       -26.8654
  36   2.0000      -0.984770       -26.7970
  37   2.0000      -0.816483       -22.2176
  38   2.0000      -0.760578       -20.6964
  39   2.0000      -0.747506       -20.3407
  40   2.0000      -0.737758       -20.0754
  41   2.0000      -0.702476       -19.1153
  42   2.0000      -0.681359       -18.5407
  43   2.0000      -0.662070       -18.0159
  44   2.0000      -0.651315       -17.7232
  45   2.0000      -0.634731       -17.2719
  46   2.0000      -0.601755       -16.3746
  47   2.0000      -0.547328       -14.8936
  48   2.0000      -0.541519       -14.7355
  49   2.0000      -0.535262       -14.5652
  50   2.0000      -0.502235       -13.6665
  51   2.0000      -0.498329       -13.5602
  52   2.0000      -0.490502       -13.3472
  53   2.0000      -0.470391       -12.8000
  54   2.0000      -0.460185       -12.5223
  55   2.0000      -0.458256       -12.4698
  56   2.0000      -0.449976       -12.2445
  57   2.0000      -0.447141       -12.1673
  58   2.0000      -0.441323       -12.0090
  59   2.0000      -0.436319       -11.8728
  60   2.0000      -0.424666       -11.5558
  61   2.0000      -0.422558       -11.4984
  62   2.0000      -0.410050       -11.1580
  63   2.0000      -0.405047       -11.0219
  64   2.0000      -0.397403       -10.8139
  65   2.0000      -0.388138       -10.5618
  66   2.0000      -0.381179       -10.3724
  67   2.0000      -0.376927       -10.2567
  68   2.0000      -0.365070        -9.9340
  69   2.0000      -0.358136        -9.7454
  70   2.0000      -0.353774        -9.6267
  71   2.0000      -0.352242        -9.5850
  72   2.0000      -0.339034        -9.2256
  73   2.0000      -0.335906        -9.1405
  74   2.0000      -0.332393        -9.0449
  75   2.0000      -0.321011        -8.7351
  76   2.0000      -0.315737        -8.5916
  77   2.0000      -0.314576        -8.5600
  78   2.0000      -0.292187        -7.9508
  79   2.0000      -0.283872        -7.7245
  80   2.0000      -0.281153        -7.6506
  81   2.0000      -0.274390        -7.4665
  82   2.0000      -0.259189        -7.0529
  83   2.0000      -0.246995        -6.7211
  84   2.0000      -0.228207        -6.2098
  85   2.0000      -0.221471        -6.0265
  86   2.0000      -0.217472        -5.9177
  87   0.0000      -0.048377        -1.3164
  88   0.0000      -0.022180        -0.6036
  89   0.0000      -0.017083        -0.4648
  90   0.0000      -0.000080        -0.0022
  91   0.0000       0.009917         0.2699

MULLIKEN ATOMIC CHARGES
-----------------------
   0 C :   -0.453591
   1 C :   -0.182554
   2 O :   -0.080290
   3 C :    0.282233
   4 O :   -0.399809
   5 C :   -0.397468
   6 C :    0.044514
   7 H :    0.250362
   8 C :    0.195616
   9 O :   -0.387892
  10 O :   -0.125307
  11 C :   -0.124021
  12 C :   -0.481505
  13 S :   -0.225478
  14 P :    0.781509
  15 S :   -0.440679
  16 O :   -0.346848
  17 C :   -0.299273
  18 O :   -0.316983
  19 C :   -0.289439
  20 H :    0.152286
  21 H :    0.161879
  22 H :    0.150576
  23 H :    0.190327
  24 H :    0.152428
  25 H :    0.194159
  26 H :    0.212561
  27 H :    0.174182
  28 H :    0.163360
  29 H :    0.165792
  30 H :    0.146106
  31 H :    0.150846
  32 H :    0.174866
  33 H :    0.152158
  34 H :    0.159139
  35 H :    0.157979
  36 H :    0.166759
  37 H :    0.171501
Sum of atomic charges:   -0.0000000

LOEWDIN ATOMIC CHARGES
----------------------
   0 C :   -0.389090
   1 C :    0.038007
   2 O :   -0.610538
   3 C :    0.366028
   4 O :   -0.421089
   5 C :   -0.200102
   6 C :   -0.198888
   7 H :    0.208690
   8 C :    0.342749
   9 O :   -0.418299
  10 O :   -0.620221
  11 C :    0.041245
  12 C :   -0.386583
  13 S :    0.212442
  14 P :    0.401812
  15 S :   -0.077894
  16 O :   -0.687214
  17 C :   -0.060590
  18 O :   -0.654422
  19 C :   -0.055128
  20 H :    0.156883
  21 H :    0.161893
  22 H :    0.159708
  23 H :    0.198119
  24 H :    0.178853
  25 H :    0.191325
  26 H :    0.209817
  27 H :    0.192604
  28 H :    0.185156
  29 H :    0.167242
  30 H :    0.156167
  31 H :    0.160327
  32 H :    0.176513
  33 H :    0.177323
  34 H :    0.169092
  35 H :    0.178846
  36 H :    0.172815
  37 H :    0.176401

  Mayer bond orders larger than 0.100000
B(  0-C ,  1-C ) :   0.9320 B(  0-C , 20-H ) :   0.9727 B(  0-C , 21-H ) :   0.9706
B(  0-C , 22-H ) :   0.9657 B(  1-C ,  2-O ) :   0.7569 B(  1-C , 23-H ) :   0.9610
B(  1-C , 24-H ) :   0.9629 B(  2-O ,  3-C ) :   1.0932 B(  2-O ,  8-C ) :   0.1105
B(  3-C ,  4-O ) :   1.9097 B(  3-C ,  5-C ) :   0.9628 B(  5-C ,  6-C ) :   0.9158
B(  5-C , 25-H ) :   0.9670 B(  5-C , 26-H ) :   0.9166 B(  6-C ,  7-H ) :   0.9099
B(  6-C ,  8-C ) :   0.8470 B(  6-C , 13-S ) :   0.8194 B(  8-C ,  9-O ) :   1.8590
B(  8-C , 10-O ) :   1.1580 B( 10-O , 11-C ) :   0.7656 B( 11-C , 12-C ) :   0.9261
B( 11-C , 27-H ) :   0.9658 B( 11-C , 28-H ) :   0.9405 B( 12-C , 29-H ) :   0.9641
B( 12-C , 30-H ) :   0.9766 B( 12-C , 31-H ) :   0.9677 B( 13-S , 14-P ) :   0.9800
B( 14-P , 15-S ) :   1.7975 B( 14-P , 16-O ) :   1.0243 B( 14-P , 18-O ) :   1.1456
B( 16-O , 17-C ) :   0.8323 B( 17-C , 32-H ) :   0.9589 B( 17-C , 33-H ) :   0.9671
B( 17-C , 34-H ) :   0.9563 B( 18-O , 19-C ) :   0.7913 B( 19-C , 35-H ) :   0.9643
B( 19-C , 36-H ) :   0.9577 B( 19-C , 37-H ) :   0.9580

Dispersion correction           -0.018721001
FINAL SINGLE POINT ENERGY     -1981.452261206546

DIPOLE MOMENT
-------------

Method             : SCF
Type of density    : Electron Density
Multiplicity       :   1
Irrep              :   0
Energy             : -1981.4712138451436658 Eh
Relativity type    :
Basis              : AO
                                X                 Y                 Z
Electronic contribution:     -9.541448323       9.263969480      -9.522082783
Nuclear contribution   :      9.272745968     -10.683532370      10.806708559
                        -----------------------------------------
Total Dipole Moment    :     -0.268702355      -1.419562890       1.284625776
                        -----------------------------------------
Magnitude (a.u.)       :      1.933293340
Magnitude (Debye)      :      4.914041144

Rotational constants in cm-1:             0.013645             0.007686             0.007226
Rotational constants in MHz :           409.067851           230.430091           216.628005

                             ****ORCA TERMINATED NORMALLY****
TOTAL RUN TIME: 0 days 0 hours 1 minutes 28 seconds 463 msec
