                         Program Version 6.0.1  -  RELEASE   -
|  1> ! r2scan-3c def2/J RI DEFGRID2 scfconv6 printgap
|  2> %output
|  3>     printlevel normal
|  4> end
|  5> %cpcm
|  6>     smd true
|  7>     smdsolvent "water"
|  8> end
|  9> * xyz 0 1
| 10> C 2.6060726476 -2.7466440858 0.5936623116
| 11> C 3.3248649894 -1.7288876967 -0.2766732356
| 12> O 2.3562204553 -0.8579517171 -0.8931064489
| 13> C 2.1385365082 -0.9398221615 -2.1935386499
| 14> O 2.7576226023 -1.6549537572 -2.9487843439
| 15> C 1.0271013711 -0.0139960346 -2.645274657
| 16> C 0.1753536197 0.499154202 -1.4901767105
| 17> H -0.5888134432 1.1862454596 -1.8709059168
| 18> C 1.030632259 1.2849016509 -0.5113789632
| 19> O 1.8305831146 2.1109063639 -0.8902925815
| 20> O 0.7886837517 0.999694974 0.7489046463
| 21> C 1.5393515566 1.7201102335 1.7494087857
| 22> C 1.6225680139 0.8816823044 3.0086714487
| 23> S -0.6929679794 -0.8839124494 -0.6820095241
| 24> P -1.9281229712 0.2473245822 0.6303504653
| 25> S -2.1526807731 2.1528874194 0.2310146148
| 26> O -3.2990538911 -0.5835592689 0.5934199802
| 27> C -4.1298449791 -0.5935973251 -0.5711411178
| 28> O -1.4731339555 -0.051440487 2.1117652441
| 29> C -1.3749113255 -1.4056922123 2.5996997076
| 30> H 1.9887070906 -2.2366021923 1.3282960381
| 31> H 1.9687553016 -3.3789952085 -0.0192721944
| 32> H 3.3381395524 -3.3633785081 1.1041496795
| 33> H 3.9069841318 -2.2132727639 -1.0653000289
| 34> H 3.9708331878 -1.079368412 0.3177539073
| 35> H 0.4180925745 -0.5444491857 -3.3776088043
| 36> H 1.4963441013 0.8403365468 -3.1410011473
| 37> H 2.5268137491 1.9372980938 1.3310127205
| 38> H 1.0175682856 2.6651162214 1.9297109846
| 39> H 0.626652246 0.7189383605 3.4085122442
| 40> H 2.0864328961 -0.0766219544 2.7935521582
| 41> H 2.2202355274 1.4110348783 3.7434130318
| 42> H -4.3081621276 0.4266432577 -0.9148438692
| 43> H -5.0630568266 -1.0573134078 -0.2620533428
| 44> H -3.6547030264 -1.1759740043 -1.3605389846
| 45> H -0.8953234415 -1.330660587 3.5721031231
| 46> H -0.7729893042 -2.0045685288 1.9160086274
| 47> H -2.3695353997 -1.8367264407 2.6925193489
| 48> *
| 49>
| 50>                          ****END OF INPUT****

CARTESIAN COORDINATES (ANGSTROEM)
---------------------------------
  C      2.606073   -2.746644    0.593662
  C      3.324865   -1.728888   -0.276673
  O      2.356220   -0.857952   -0.893106
  C      2.138537   -0.939822   -2.193539
  O      2.757623   -1.654954   -2.948784
  C      1.027101   -0.013996   -2.645275
  C      0.175354    0.499154   -1.490177
  H     -0.588813    1.186245   -1.870906
  C      1.030632    1.284902   -0.511379
  O      1.830583    2.110906   -0.890293
  O      0.788684    0.999695    0.748905
  C      1.539352    1.720110    1.749409
  C      1.622568    0.881682    3.008671
  S     -0.692968   -0.883912   -0.682010
  P     -1.928123    0.247325    0.630350
  S     -2.152681    2.152887    0.231015
  O     -3.299054   -0.583559    0.593420
  C     -4.129845   -0.593597   -0.571141
  O     -1.473134   -0.051440    2.111765
  C     -1.374911   -1.405692    2.599700
  H      1.988707   -2.236602    1.328296
  H      1.968755   -3.378995   -0.019272
  H      3.338140   -3.363379    1.104150
  H      3.906984   -2.213273   -1.065300
  H      3.970833   -1.079368    0.317754
  H      0.418093   -0.544449   -3.377609
  H      1.496344    0.840337   -3.141001
  H      2.526814    1.937298    1.331013
  H      1.017568    2.665116    1.929711
  H      0.626652    0.718938    3.408512
  H      2.086433   -0.076622    2.793552
  H      2.220236    1.411035    3.743413
  H     -4.308162    0.426643   -0.914844
  H     -5.063057   -1.057313   -0.262053
  H     -3.654703   -1.175974   -1.360539
  H     -0.895323   -1.330661    3.572103
  H     -0.772989   -2.004569    1.916009
  H     -2.369535   -1.836726    2.692519

 Total Charge           Charge          ....    0
 Multiplicity           Mult            ....    1
 Number of Electrons    NEL             ....  174
 Basis Dimension        Dim             ....  510

ORBITAL ENERGIES
----------------

  NO   OCC          E(Eh)            E(eV)
   0   2.0000     -88.577432     -2410.3145
   1   2.0000     -88.529813     -2409.0187
   2   2.0000     -76.920784     -2093.1210
   3   2.0000     -19.010244      -517.2950
   4   2.0000     -19.008105      -517.2368
   5   2.0000     -18.998486      -516.9751
   6   2.0000     -18.993243      -516.8324
   7   2.0000     -18.949245      -515.6352
   8   2.0000     -18.948318      -515.6099
   9   2.0000     -10.174271      -276.8560
  10   2.0000     -10.173056      -276.8229
  11   2.0000     -10.097106      -274.7562
  12   2.0000     -10.086683      -274.4726
  13   2.0000     -10.086436      -274.4659
  14   2.0000     -10.085570      -274.4423
  15   2.0000     -10.081003      -274.3180
  16   2.0000     -10.061354      -273.7833
  17   2.0000     -10.019775      -272.6520
  18   2.0000     -10.019126      -272.6343
  19   2.0000      -7.871766      -214.2016
  20   2.0000      -7.824799      -212.9236
  21   2.0000      -6.599089      -179.5703
  22   2.0000      -5.818636      -158.3331
  23   2.0000      -5.815756      -158.2548
  24   2.0000      -5.808742      -158.0639
  25   2.0000      -5.772578      -157.0798
  26   2.0000      -5.765080      -156.8758
  27   2.0000      -5.764625      -156.8634
  28   2.0000      -4.744775      -129.1119
  29   2.0000      -4.744106      -129.0937
  30   2.0000      -4.742668      -129.0546
  31   2.0000      -1.091697       -29.7066
  32   2.0000      -1.085271       -29.5317
  33   2.0000      -1.054577       -28.6965
  34   2.0000      -1.010842       -27.5064
  35   2.0000      -0.998221       -27.1630
  36   2.0000      -0.996700       -27.1216
  37   2.0000      -0.815411       -22.1884
  38   2.0000      -0.753215       -20.4960
  39   2.0000      -0.739772       -20.1302
  40   2.0000      -0.730952       -19.8902
  41   2.0000      -0.696110       -18.9421
  42   2.0000      -0.670462       -18.2442
  43   2.0000      -0.660072       -17.9615
  44   2.0000      -0.649169       -17.6648
  45   2.0000      -0.624608       -16.9965
  46   2.0000      -0.595749       -16.2112
  47   2.0000      -0.542231       -14.7548
  48   2.0000      -0.535845       -14.5811
  49   2.0000      -0.530959       -14.4481
  50   2.0000      -0.500524       -13.6199
  51   2.0000      -0.492166       -13.3925
  52   2.0000      -0.488602       -13.2955
  53   2.0000      -0.471462       -12.8291
  54   2.0000      -0.458917       -12.4878
  55   2.0000      -0.455141       -12.3850
  56   2.0000      -0.450743       -12.2653
  57   2.0000      -0.450245       -12.2518
  58   2.0000      -0.442002       -12.0275
  59   2.0000      -0.427522       -11.6335
  60   2.0000      -0.421007       -11.4562
  61   2.0000      -0.411357       -11.1936
  62   2.0000      -0.404289       -11.0013
  63   2.0000      -0.397834       -10.8256
  64   2.0000      -0.395640       -10.7659
  65   2.0000      -0.382649       -10.4124
  66   2.0000      -0.369960       -10.0671
  67   2.0000      -0.366819        -9.9817
  68   2.0000      -0.358937        -9.7672
  69   2.0000      -0.352538        -9.5930
  70   2.0000      -0.348424        -9.4811
  71   2.0000      -0.344096        -9.3633
  72   2.0000      -0.337361        -9.1801
  73   2.0000      -0.329358        -8.9623
  74   2.0000      -0.325424        -8.8552
  75   2.0000      -0.316473        -8.6117
  76   2.0000      -0.313194        -8.5224
  77   2.0000      -0.308816        -8.4033
  78   2.0000      -0.288185        -7.8419
  79   2.0000      -0.285055        -7.7567
  80   2.0000      -0.280888        -7.6434
  81   2.0000      -0.279180        -7.5969
  82   2.0000      -0.267808        -7.2874
  83   2.0000      -0.259606        -7.0642
  84   2.0000      -0.235832        -6.4173
  85   2.0000      -0.228709        -6.2235
  86   2.0000      -0.224092        -6.0978
  87   0.0000      -0.050518        -1.3747
  88   0.0000      -0.029201        -0.7946
  89   0.0000      -0.023939        -0.6514
  90   0.0000       0.002209         0.0601
  91   0.0000       0.009597         0.2611

MULLIKEN ATOMIC CHARGES
-----------------------
   0 C :   -0.492089
   1 C :   -0.167115
   2 O :   -0.096143
   3 C :    0.324962
   4 O :   -0.475565
   5 C :   -0.446090
   6 C :    0.063112
   7 H :    0.276468
   8 C :    0.198872
   9 O :   -0.454662
  10 O :   -0.135685
  11 C :   -0.129045
  12 C :   -0.518747
  13 S :   -0.212399
  14 P :    0.804146
  15 S :   -0.501498
  16 O :   -0.374182
  17 C :   -0.308459
  18 O :   -0.352340
  19 C :   -0.297476
  20 H :    0.168920
  21 H :    0.168987
  22 H :    0.171745
  23 H :    0.184006
  24 H :    0.178485
  25 H :    0.226180
  26 H :    0.239400
  27 H :    0.178158
  28 H :    0.179736
  29 H :    0.171931
  30 H :    0.171253
  31 H :    0.171998
  32 H :    0.176177
  33 H :    0.179062
  34 H :    0.175044
  35 H :    0.187435
  36 H :    0.180367
  37 H :    0.185052
Sum of atomic charges:   -0.0000000

LOEWDIN ATOMIC CHARGES
----------------------
   0 C :   -0.389968
   1 C :    0.045046
   2 O :   -0.608006
   3 C :    0.373288
   4 O :   -0.477322
   5 C :   -0.194949
   6 C :   -0.194231
   7 H :    0.217537
   8 C :    0.344687
   9 O :   -0.470119
  10 O :   -0.621938
  11 C :    0.043233
  12 C :   -0.386735
  13 S :    0.227517
  14 P :    0.403907
  15 S :   -0.123331
  16 O :   -0.697113
  17 C :   -0.056145
  18 O :   -0.672437
  19 C :   -0.046077
  20 H :    0.162219
  21 H :    0.162578
  22 H :    0.168234
  23 H :    0.196812
  24 H :    0.190209
  25 H :    0.203956
  26 H :    0.217722
  27 H :    0.195582
  28 H :    0.188315
  29 H :    0.168598
  30 H :    0.164802
  31 H :    0.168730
  32 H :    0.177105
  33 H :    0.188521
  34 H :    0.175965
  35 H :    0.191577
  36 H :    0.179497
  37 H :    0.182735

  Mayer bond orders larger than 0.100000
B(  0-C ,  1-C ) :   0.9237 B(  0-C , 20-H ) :   0.9696 B(  0-C , 21-H ) :   0.9691
B(  0-C , 22-H ) :   0.9597 B(  1-C ,  2-O ) :   0.7477 B(  1-C , 23-H ) :   0.9559
B(  1-C , 24-H ) :   0.9523 B(  2-O ,  3-C ) :   1.1252 B(  2-O ,  8-C ) :   0.1087
B(  3-C ,  4-O ) :   1.8469 B(  3-C ,  5-C ) :   0.9413 B(  5-C ,  6-C ) :   0.9006
B(  5-C , 25-H ) :   0.9555 B(  5-C , 26-H ) :   0.9197 B(  6-C ,  7-H ) :   0.8979
B(  6-C ,  8-C ) :   0.8412 B(  6-C , 13-S ) :   0.8151 B(  8-C ,  9-O ) :   1.8048
B(  8-C , 10-O ) :   1.1765 B( 10-O , 11-C ) :   0.7527 B( 11-C , 12-C ) :   0.9259
B( 11-C , 27-H ) :   0.9566 B( 11-C , 28-H ) :   0.9358 B( 12-C , 29-H ) :   0.9605
B( 12-C , 30-H ) :   0.9714 B( 12-C , 31-H ) :   0.9614 B( 13-S , 14-P ) :   0.9946
B( 14-P , 15-S ) :   1.7673 B( 14-P , 16-O ) :   1.0316 B( 14-P , 18-O ) :   1.1517
B( 16-O , 17-C ) :   0.8253 B( 17-C , 32-H ) :   0.9553 B( 17-C , 33-H ) :   0.9574
B( 17-C , 34-H ) :   0.9502 B( 18-O , 19-C ) :   0.7815 B( 19-C , 35-H ) :   0.9534
B( 19-C , 36-H ) :   0.9479 B( 19-C , 37-H ) :   0.9503

Dispersion correction           -0.018721001
FINAL SINGLE POINT ENERGY     -1981.468040885199

DIPOLE MOMENT
-------------

Method             : SCF
Type of density    : Electron Density
Multiplicity       :   1
Irrep              :   0
Energy             : -1981.4869935237964000 Eh
Relativity type    :
Basis              : AO
                                X                 Y                 Z
Electronic contribution:     -9.651697006       8.608975412      -9.118211198
Nuclear contribution   :      9.272745968     -10.683532370      10.806708559
                        -----------------------------------------
Total Dipole Moment    :     -0.378951038      -2.074556958       1.688497361
                        -----------------------------------------
Magnitude (a.u.)       :      2.701557662
Magnitude (Debye)      :      6.866813863

Rotational constants in cm-1:             0.013645             0.007686             0.007226
Rotational constants in MHz :           409.067851           230.430091           216.628005

                             ****ORCA TERMINATED NORMALLY****
TOTAL RUN TIME: 0 days 0 hours 1 minutes 59 seconds 785 msec
