                         Program Version 6.0.1  -  RELEASE   -
|  1> ! pbe def2-sv(p) def2/J RI DEFGRID1 loosescf d4 GCP(DFT/SV(P)) printgap
|  2> %output
|  3>     printlevel normal
|  4> end
|  5> * xyz 0 1
|  6> C 2.2176216972 -2.670854841 0.6830340409
|  7> C 3.2482790366 -1.8290576783 -0.0529331767
|  8> O 2.6116949387 -0.6880179981 -0.659050287
|  9> C 2.12471026 -0.8169950963 -1.8833866289
| 10> O 2.2814188152 -1.78964517 -2.583262415
| 11> C 1.3414929826 0.4151260655 -2.2967416691
| 12> C 0.2634942582 0.7228285635 -1.2607330259
| 13> H -0.3466363422 1.5707150436 -1.5873654607
| 14> C 0.8461655076 1.0655859865 0.1003128275
| 15> O 0.4967745682 0.509005118 1.1211612697
| 16> O 1.6945575732 2.0539353661 0.0258631757
| 17> C 2.2810622769 2.5441252518 1.2504015718
| 18> C 3.439961084 1.6705060092 1.698876844
| 19> S -0.8409736911 -0.7184972351 -1.0500550338
| 20> P -2.0490523545 0.0440302833 0.5271233042
| 21> S -2.1753528837 1.9912239635 0.6900441928
| 22> O -3.4614848965 -0.6273891437 0.1498569092
| 23> C -4.207267563 -0.2005137676 -0.9926386232
| 24> O -1.7718847379 -0.7247558676 1.8775739581
| 25> C -1.7731557335 -2.1630026864 1.9597899831
| 26> H 2.7167825356 -3.4637079735 1.2295398649
| 27> H 1.6608787589 -2.046914505 1.3798338999
| 28> H 1.521257074 -3.1103647733 -0.028504824
| 29> H 3.7426769539 -2.4094838946 -0.8366157285
| 30> H 3.9846636439 -1.4088456785 0.6325292143
| 31> H 0.8902197517 0.2230969266 -3.2693431033
| 32> H 2.017182775 1.269642143 -2.3594714959
| 33> H 2.6109256312 3.5515466512 0.9971002666
| 34> H 1.4997636522 2.5810569703 2.0152815297
| 35> H 3.077960803 0.680200317 1.9630051581
| 36> H 4.1714538761 1.5815133311 0.9004762331
| 37> H 3.9082112836 2.1194483404 2.5685950211
| 38> H -5.1898988114 -0.6530130338 -0.8876616608
| 39> H -3.7199858314 -0.5462103599 -1.9043714579
| 40> H -4.2877370783 0.8878508523 -1.0014248572
| 41> H -2.7863219243 -2.5385845161 1.8281501522
| 42> H -1.3988527043 -2.3895458729 2.9547441156
| 43> H -1.1166906565 -2.5829601878 1.1973305311
| 44> *
| 45>
| 46>                          ****END OF INPUT****

CARTESIAN COORDINATES (ANGSTROEM)
---------------------------------
  C      2.217622   -2.670855    0.683034
  C      3.248279   -1.829058   -0.052933
  O      2.611695   -0.688018   -0.659050
  C      2.124710   -0.816995   -1.883387
  O      2.281419   -1.789645   -2.583262
  C      1.341493    0.415126   -2.296742
  C      0.263494    0.722829   -1.260733
  H     -0.346636    1.570715   -1.587365
  C      0.846166    1.065586    0.100313
  O      0.496775    0.509005    1.121161
  O      1.694558    2.053935    0.025863
  C      2.281062    2.544125    1.250402
  C      3.439961    1.670506    1.698877
  S     -0.840974   -0.718497   -1.050055
  P     -2.049052    0.044030    0.527123
  S     -2.175353    1.991224    0.690044
  O     -3.461485   -0.627389    0.149857
  C     -4.207268   -0.200514   -0.992639
  O     -1.771885   -0.724756    1.877574
  C     -1.773156   -2.163003    1.959790
  H      2.716783   -3.463708    1.229540
  H      1.660879   -2.046915    1.379834
  H      1.521257   -3.110365   -0.028505
  H      3.742677   -2.409484   -0.836616
  H      3.984664   -1.408846    0.632529
  H      0.890220    0.223097   -3.269343
  H      2.017183    1.269642   -2.359471
  H      2.610926    3.551547    0.997100
  H      1.499764    2.581057    2.015282
  H      3.077961    0.680200    1.963005
  H      4.171454    1.581513    0.900476
  H      3.908211    2.119448    2.568595
  H     -5.189899   -0.653013   -0.887662
  H     -3.719986   -0.546210   -1.904371
  H     -4.287737    0.887851   -1.001425
  H     -2.786322   -2.538585    1.828150
  H     -1.398853   -2.389546    2.954744
  H     -1.116691   -2.582960    1.197331

 Total Charge           Charge          ....    0
 Multiplicity           Mult            ....    1
 Number of Electrons    NEL             ....  174
 Basis Dimension        Dim             ....  316

ORBITAL ENERGIES
----------------

  NO   OCC          E(Eh)            E(eV)
   0   2.0000     -88.039850     -2395.6861
   1   2.0000     -87.975673     -2393.9398
   2   2.0000     -76.421986     -2079.5480
   3   2.0000     -18.813977      -511.9543
   4   2.0000     -18.809922      -511.8440
   5   2.0000     -18.785409      -511.1770
   6   2.0000     -18.783237      -511.1179
   7   2.0000     -18.743897      -510.0474
   8   2.0000     -18.743725      -510.0427
   9   2.0000     -10.020279      -272.6657
  10   2.0000     -10.016699      -272.5682
  11   2.0000      -9.953827      -270.8574
  12   2.0000      -9.951462      -270.7930
  13   2.0000      -9.950659      -270.7712
  14   2.0000      -9.945648      -270.6348
  15   2.0000      -9.937426      -270.4111
  16   2.0000      -9.919947      -269.9355
  17   2.0000      -9.891316      -269.1564
  18   2.0000      -9.886107      -269.0146
  19   2.0000      -7.684310      -209.1007
  20   2.0000      -7.621016      -207.3784
  21   2.0000      -6.418180      -174.6475
  22   2.0000      -5.712074      -155.4334
  23   2.0000      -5.708918      -155.3475
  24   2.0000      -5.701398      -155.1429
  25   2.0000      -5.650261      -153.7514
  26   2.0000      -5.641621      -153.5163
  27   2.0000      -5.640793      -153.4938
  28   2.0000      -4.640967      -126.2871
  29   2.0000      -4.640198      -126.2662
  30   2.0000      -4.638496      -126.2199
  31   2.0000      -1.023995       -27.8643
  32   2.0000      -1.015415       -27.6308
  33   2.0000      -0.979728       -26.6597
  34   2.0000      -0.934203       -25.4210
  35   2.0000      -0.925429       -25.1822
  36   2.0000      -0.921508       -25.0755
  37   2.0000      -0.770768       -20.9737
  38   2.0000      -0.712218       -19.3804
  39   2.0000      -0.710629       -19.3372
  40   2.0000      -0.690672       -18.7941
  41   2.0000      -0.658525       -17.9194
  42   2.0000      -0.630363       -17.1531
  43   2.0000      -0.624721       -16.9995
  44   2.0000      -0.615256       -16.7420
  45   2.0000      -0.598173       -16.2771
  46   2.0000      -0.571218       -15.5436
  47   2.0000      -0.512101       -13.9350
  48   2.0000      -0.506296       -13.7770
  49   2.0000      -0.497816       -13.5463
  50   2.0000      -0.482509       -13.1297
  51   2.0000      -0.470588       -12.8054
  52   2.0000      -0.468960       -12.7611
  53   2.0000      -0.445937       -12.1346
  54   2.0000      -0.441427       -12.0118
  55   2.0000      -0.430414       -11.7122
  56   2.0000      -0.427546       -11.6341
  57   2.0000      -0.423518       -11.5245
  58   2.0000      -0.409715       -11.1489
  59   2.0000      -0.408221       -11.1083
  60   2.0000      -0.403382       -10.9766
  61   2.0000      -0.398853       -10.8533
  62   2.0000      -0.394730       -10.7411
  63   2.0000      -0.387143       -10.5347
  64   2.0000      -0.377091       -10.2612
  65   2.0000      -0.371207       -10.1011
  66   2.0000      -0.364211        -9.9107
  67   2.0000      -0.357660        -9.7324
  68   2.0000      -0.349097        -9.4994
  69   2.0000      -0.344751        -9.3812
  70   2.0000      -0.335693        -9.1347
  71   2.0000      -0.332455        -9.0466
  72   2.0000      -0.327127        -8.9016
  73   2.0000      -0.315937        -8.5971
  74   2.0000      -0.304431        -8.2840
  75   2.0000      -0.297373        -8.0919
  76   2.0000      -0.294430        -8.0119
  77   2.0000      -0.290868        -7.9149
  78   2.0000      -0.272191        -7.4067
  79   2.0000      -0.265479        -7.2240
  80   2.0000      -0.262741        -7.1495
  81   2.0000      -0.254158        -6.9160
  82   2.0000      -0.234963        -6.3937
  83   2.0000      -0.228139        -6.2080
  84   2.0000      -0.220475        -5.9994
  85   2.0000      -0.197261        -5.3677
  86   2.0000      -0.190639        -5.1876
  87   0.0000      -0.043019        -1.1706
  88   0.0000      -0.035880        -0.9764
  89   0.0000      -0.019314        -0.5256
  90   0.0000       0.003358         0.0914
  91   0.0000       0.024942         0.6787

MULLIKEN ATOMIC CHARGES
-----------------------
   0 C :   -0.329383
   1 C :   -0.014929
   2 O :   -0.241347
   3 C :    0.098864
   4 O :   -0.185546
   5 C :   -0.059843
   6 C :   -0.327284
   7 H :    0.154106
   8 C :    0.238780
   9 O :   -0.193982
  10 O :   -0.226194
  11 C :   -0.006506
  12 C :   -0.319049
  13 S :   -0.097860
  14 P :    0.623987
  15 S :   -0.329548
  16 O :   -0.396122
  17 C :   -0.099743
  18 O :   -0.352945
  19 C :   -0.109079
  20 H :    0.109774
  21 H :    0.140799
  22 H :    0.128510
  23 H :    0.112216
  24 H :    0.105267
  25 H :    0.120781
  26 H :    0.137152
  27 H :    0.105324
  28 H :    0.120512
  29 H :    0.138310
  30 H :    0.115009
  31 H :    0.114798
  32 H :    0.121575
  33 H :    0.110987
  34 H :    0.114939
  35 H :    0.124460
  36 H :    0.129723
  37 H :    0.123490
Sum of atomic charges:    0.0000000

LOEWDIN ATOMIC CHARGES
----------------------
   0 C :   -0.361133
   1 C :   -0.109718
   2 O :   -0.054436
   3 C :    0.024562
   4 O :   -0.153191
   5 C :   -0.242711
   6 C :   -0.264239
   7 H :    0.144042
   8 C :    0.006962
   9 O :   -0.164073
  10 O :   -0.040492
  11 C :   -0.103019
  12 C :   -0.357695
  13 S :    0.094964
  14 P :    0.589276
  15 S :   -0.322133
  16 O :   -0.266796
  17 C :   -0.220109
  18 O :   -0.230142
  19 C :   -0.207768
  20 H :    0.128482
  21 H :    0.130382
  22 H :    0.127986
  23 H :    0.121211
  24 H :    0.116106
  25 H :    0.142454
  26 H :    0.151294
  27 H :    0.119717
  28 H :    0.126595
  29 H :    0.129887
  30 H :    0.124484
  31 H :    0.131753
  32 H :    0.120517
  33 H :    0.105884
  34 H :    0.109205
  35 H :    0.116124
  36 H :    0.125544
  37 H :    0.110224

  Mayer bond orders larger than 0.100000
B(  0-C ,  1-C ) :   1.1787 B(  0-C , 20-H ) :   0.9412 B(  0-C , 21-H ) :   0.9388
B(  0-C , 22-H ) :   0.9403 B(  1-C ,  2-O ) :   0.9069 B(  1-C , 23-H ) :   0.9121
B(  1-C , 24-H ) :   0.9301 B(  2-O ,  3-C ) :   1.1946 B(  3-C ,  4-O ) :   2.0785
B(  3-C ,  5-C ) :   1.0002 B(  5-C ,  6-C ) :   1.0565 B(  5-C , 25-H ) :   0.9048
B(  5-C , 26-H ) :   0.8819 B(  6-C ,  7-H ) :   0.8571 B(  6-C ,  8-C ) :   0.8700
B(  6-C , 13-S ) :   1.0365 B(  8-C ,  9-O ) :   1.9725 B(  8-C , 10-O ) :   1.2563
B( 10-O , 11-C ) :   0.9102 B( 11-C , 12-C ) :   1.1730 B( 11-C , 27-H ) :   0.9379
B( 11-C , 28-H ) :   0.9179 B( 12-C , 29-H ) :   0.9371 B( 12-C , 30-H ) :   0.9456
B( 12-C , 31-H ) :   0.9409 B( 13-S , 14-P ) :   0.9391 B( 13-S , 15-S ) :   0.1096
B( 14-P , 15-S ) :   1.6176 B( 14-P , 16-O ) :   1.0501 B( 14-P , 18-O ) :   1.1342
B( 16-O , 17-C ) :   0.9390 B( 17-C , 32-H ) :   0.9587 B( 17-C , 33-H ) :   0.9456
B( 17-C , 34-H ) :   0.9336 B( 18-O , 19-C ) :   0.9217 B( 19-C , 35-H ) :   0.9473
B( 19-C , 36-H ) :   0.9596 B( 19-C , 37-H ) :   0.9353

Dispersion correction           -0.054659607
FINAL SINGLE POINT ENERGY     -1979.017134101329

DIPOLE MOMENT
-------------

Method             : SCF
Type of density    : Electron Density
Multiplicity       :   1
Irrep              :   0
Energy             : -1979.1465692790129651 Eh
Relativity type    :
Basis              : AO
                                X                 Y                 Z
Electronic contribution:    -13.239771970       6.048815606      -4.810560365
Nuclear contribution   :     14.100385093      -6.366210364       4.972155295
                        -----------------------------------------
Total Dipole Moment    :      0.860613123      -0.317394758       0.161594930
                        -----------------------------------------
Magnitude (a.u.)       :      0.931400720
Magnitude (Debye)      :      2.367432488

Rotational constants in cm-1:             0.013759             0.007755             0.006828
Rotational constants in MHz :           412.481505           232.479878           204.698188

                             ****ORCA TERMINATED NORMALLY****
TOTAL RUN TIME: 0 days 0 hours 0 minutes 45 seconds 347 msec
