                         Program Version 6.0.0  -   RELEASE  -
|  1> ! r2scan-3c def2/J RI DEFGRID2 scfconv6 printgap
|  2> %output
|  3>     printlevel normal
|  4> end
|  5> * xyz 0 1
|  6> C 1.4206747545 0.5151407276 9.6832e-06
|  7> O 0.5722179174 -0.6443882416 -3.357e-05
|  8> C -0.7234025299 -0.4808017275 4.37641e-05
|  9> O -1.3273520042 0.562567902 -2.17034e-05
| 10> H 0.8119832262 1.4192643309 -0.0034827198
| 11> H 2.0426116745 0.4657880965 -0.8912516148
| 12> H 2.0378051729 0.4696954557 0.8948473831
| 13> H -1.2146605996 -1.4651717031 0.0001274425
| 14> *
| 15>
| 16>                          ****END OF INPUT****

CARTESIAN COORDINATES (ANGSTROEM)
---------------------------------
  C      1.420675    0.515141    0.000010
  O      0.572218   -0.644388   -0.000034
  C     -0.723403   -0.480802    0.000044
  O     -1.327352    0.562568   -0.000022
  H      0.811983    1.419264   -0.003483
  H      2.042612    0.465788   -0.891252
  H      2.037805    0.469695    0.894847
  H     -1.214661   -1.465172    0.000127

 Total Charge           Charge          ....    0
 Multiplicity           Mult            ....    1
 Number of Electrons    NEL             ....   32
 Basis Dimension        Dim             ....  106

ORBITAL ENERGIES
----------------

  NO   OCC          E(Eh)            E(eV)
   0   2.0000     -19.015247      -517.4312
   1   2.0000     -18.942042      -515.4392
   2   2.0000     -10.159173      -276.4452
   3   2.0000     -10.095804      -274.7208
   4   2.0000      -1.088081       -29.6082
   5   2.0000      -0.991707       -26.9857
   6   2.0000      -0.720663       -19.6102
   7   2.0000      -0.568680       -15.4746
   8   2.0000      -0.505097       -13.7444
   9   2.0000      -0.461676       -12.5629
  10   2.0000      -0.445251       -12.1159
  11   2.0000      -0.395939       -10.7741
  12   2.0000      -0.379255       -10.3201
  13   2.0000      -0.329732        -8.9725
  14   2.0000      -0.285132        -7.7588
  15   2.0000      -0.252530        -6.8717
  16   0.0000      -0.025113        -0.6834
  17   0.0000       0.064659         1.7594
  18   0.0000       0.094274         2.5653
  19   0.0000       0.122141         3.3236
  20   0.0000       0.156687         4.2637

MULLIKEN ATOMIC CHARGES
-----------------------
   0 C :   -0.286546
   1 O :   -0.172083
   2 C :    0.259696
   3 O :   -0.416660
   4 H :    0.188289
   5 H :    0.153253
   6 H :    0.153279
   7 H :    0.120770
Sum of atomic charges:    0.0000000

LOEWDIN ATOMIC CHARGES
----------------------
   0 C :   -0.051722
   1 O :   -0.582847
   2 C :    0.330897
   3 O :   -0.429497
   4 H :    0.192080
   5 H :    0.176347
   6 H :    0.176329
   7 H :    0.188413

  Mayer bond orders larger than 0.100000
B(  0-C ,  1-O ) :   0.8345 B(  0-C ,  4-H ) :   0.9610 B(  0-C ,  5-H ) :   0.9649
B(  0-C ,  6-H ) :   0.9649 B(  1-O ,  2-C ) :   1.1380 B(  2-C ,  3-O ) :   1.8574
B(  2-C ,  7-H ) :   0.9875

Dispersion correction           -0.001199459
FINAL SINGLE POINT ENERGY      -229.020090618570

DIPOLE MOMENT
-------------

Method             : SCF
Type of density    : Electron Density
Multiplicity       :   1
Irrep              :   0
Energy             :  -229.0260696829339793 Eh
Relativity type    :
Basis              : AO
                                X                 Y                 Z
Electronic contribution:     -2.592813764      -1.108033779      -0.000178820
Nuclear contribution   :      3.439155956       0.833363350       0.000224802
                        -----------------------------------------
Total Dipole Moment    :      0.846342191      -0.274670429       0.000045982
                        -----------------------------------------
Magnitude (a.u.)       :      0.889797141
Magnitude (Debye)      :      2.261684593

Rotational constants in cm-1:             0.704929             0.221504             0.174143
Rotational constants in MHz :         21133.232239          6640.528309          5220.669660

                             ****ORCA TERMINATED NORMALLY****
TOTAL RUN TIME: 0 days 0 hours 0 minutes 8 seconds 947 msec
