                         Program Version 6.0.0  -   RELEASE  -
|  1> ! wb97x-v def2-tzvp def2/J RIJCOSX DEFGRID2 scfconv7 GCP(DFT/TZ) printgap
|  2> %output
|  3>     printlevel normal
|  4> end
|  5> * xyz 0 1
|  6> C 5.9019821841385385 -1.3472047238187181 0.4668404837125259
|  7> C 4.588083219596239 -1.4760535167035653 -0.25814394191781864
|  8> O 3.7695017754806064 -0.3103510861572031 0.10996838005006328
|  9> P 2.4974068168055927 0.1329823520194742 -0.770386710019255
| 10> S 2.7318912692918946 0.38212837887879697 -2.6839513176706604
| 11> O 2.085745166904234 1.5041920962560427 -0.05230552133222112
| 12> C 1.8759206120574592 1.5904061280749173 1.4040803275475449
| 13> C 1.0418120480587043 2.8174635182591476 1.6636878839880127
| 14> S 1.1027832523295484 -1.3656873448053855 -0.2023554642118926
| 15> C -0.21541739158466988 -1.1015033800896048 -1.453446934541142
| 16> S -1.0589025153359641 0.5362103801222718 -1.4769737494100739
| 17> P -2.36499714479828 0.4304352674067067 0.1729338584738971
| 18> S -3.565760516130725 1.962814098895912 0.13244689206670204
| 19> O -1.3911589028937874 0.278647155344332 1.4357345766872118
| 20> C -1.8167943241084685 0.656446497643758 2.7940803732540878
| 21> C -2.825501392557377 -0.3121734752240874 3.360034961245409
| 22> O -3.023362635234484 -1.0400718897432695 0.147100820253418
| 23> C -4.056663254466859 -1.3742192475004673 -0.8462073386774247
| 24> C -5.379220496698404 -1.5504521021342548 -0.14425902539986538
| 25> H 6.522520793215936 -2.21696719992663 0.23024992586067736
| 26> H 6.435064083942369 -0.4456312866431729 0.1525013414465975
| 27> H 5.750945338224826 -1.3159865797559551 1.54954049018576
| 28> H 4.044731579320161 -2.3773425183630645 0.04165513104730407
| 29> H 4.722493391596187 -1.477286853516446 -1.3444306484229622
| 30> H 1.3709991529799843 0.6799005185615626 1.743170774545675
| 31> H 2.8608057374114266 1.6549852600720123 1.8749524021013595
| 32> H 1.5511996969624564 3.718502603356804 1.310060557848253
| 33> H 0.06753581696431814 2.741729676563533 1.1715088971506757
| 34> H 0.8795654972509681 2.9143037088367603 2.7417204262390102
| 35> H -0.9490190026109748 -1.8945126214409926 -1.2820108410633893
| 36> H 0.20980861888910685 -1.2169120412522072 -2.4545542614657223
| 37> H -0.8841379815028417 0.645137048814562 3.3616931064143394
| 38> H -2.2026894361120224 1.6798294063230337 2.7588948102837074
| 39> H -3.7720130887252914 -0.27684223312922335 2.811900719530568
| 40> H -2.439919369834656 -1.3354874655805038 3.3408352040743585
| 41> H -3.025153723993555 -0.03747868263010927 4.401095199323703
| 42> H -4.103069539946372 -0.5886039285771797 -1.6071801747302603
| 43> H -3.7148032856970734 -2.2994611781632757 -1.3167742664343138
| 44> H -5.313018984538386 -2.3276515699691114 0.6225462252736073
| 45> H -5.701543751282093 -0.6148213747714566 0.3213083364451798
| 46> H -6.134594576480076 -1.8521297806720023 -0.8770971202011509
| 47> *
| 48>
| 49>                          ****END OF INPUT****

CARTESIAN COORDINATES (ANGSTROEM)
---------------------------------
  C      5.901982   -1.347205    0.466840
  C      4.588083   -1.476054   -0.258144
  O      3.769502   -0.310351    0.109968
  P      2.497407    0.132982   -0.770387
  S      2.731891    0.382128   -2.683951
  O      2.085745    1.504192   -0.052306
  C      1.875921    1.590406    1.404080
  C      1.041812    2.817464    1.663688
  S      1.102783   -1.365687   -0.202355
  C     -0.215417   -1.101503   -1.453447
  S     -1.058903    0.536210   -1.476974
  P     -2.364997    0.430435    0.172934
  S     -3.565761    1.962814    0.132447
  O     -1.391159    0.278647    1.435735
  C     -1.816794    0.656446    2.794080
  C     -2.825501   -0.312173    3.360035
  O     -3.023363   -1.040072    0.147101
  C     -4.056663   -1.374219   -0.846207
  C     -5.379220   -1.550452   -0.144259
  H      6.522521   -2.216967    0.230250
  H      6.435064   -0.445631    0.152501
  H      5.750945   -1.315987    1.549540
  H      4.044732   -2.377343    0.041655
  H      4.722493   -1.477287   -1.344431
  H      1.370999    0.679901    1.743171
  H      2.860806    1.654985    1.874952
  H      1.551200    3.718503    1.310061
  H      0.067536    2.741730    1.171509
  H      0.879565    2.914304    2.741720
  H     -0.949019   -1.894513   -1.282011
  H      0.209809   -1.216912   -2.454554
  H     -0.884138    0.645137    3.361693
  H     -2.202689    1.679829    2.758895
  H     -3.772013   -0.276842    2.811901
  H     -2.439919   -1.335487    3.340835
  H     -3.025154   -0.037479    4.401095
  H     -4.103070   -0.588604   -1.607180
  H     -3.714803   -2.299461   -1.316774
  H     -5.313019   -2.327652    0.622546
  H     -5.701544   -0.614821    0.321308
  H     -6.134595   -1.852130   -0.877097

 Total Charge           Charge          ....    0
 Multiplicity           Mult            ....    1
 Number of Electrons    NEL             ....  202
 Basis Dimension        Dim             ....  757

ORBITAL ENERGIES
----------------

  NO   OCC          E(Eh)            E(eV)
   0   2.0000     -94.146082     -2561.8451
   1   2.0000     -94.144615     -2561.8052
   2   2.0000     -94.084345     -2560.1652
   3   2.0000     -94.078425     -2560.0041
   4   2.0000     -82.122361     -2234.6631
   5   2.0000     -82.117926     -2234.5424
   6   2.0000     -21.716344      -590.9318
   7   2.0000     -21.713799      -590.8625
   8   2.0000     -21.713561      -590.8560
   9   2.0000     -21.705771      -590.6441
  10   2.0000     -12.128652      -330.0374
  11   2.0000     -12.123182      -329.8885
  12   2.0000     -12.122168      -329.8610
  13   2.0000     -12.118915      -329.7724
  14   2.0000     -12.112241      -329.5908
  15   2.0000     -12.052398      -327.9624
  16   2.0000     -12.052205      -327.9572
  17   2.0000     -12.051748      -327.9447
  18   2.0000     -12.043203      -327.7122
  19   2.0000      -9.657097      -262.7830
  20   2.0000      -9.656239      -262.7596
  21   2.0000      -9.597075      -261.1497
  22   2.0000      -9.591126      -260.9878
  23   2.0000      -8.235720      -224.1053
  24   2.0000      -8.231067      -223.9787
  25   2.0000      -7.634788      -207.7531
  26   2.0000      -7.633997      -207.7316
  27   2.0000      -7.633557      -207.7196
  28   2.0000      -7.633024      -207.7051
  29   2.0000      -7.632152      -207.6814
  30   2.0000      -7.631377      -207.6603
  31   2.0000      -7.574708      -206.1183
  32   2.0000      -7.573035      -206.0727
  33   2.0000      -7.572798      -206.0663
  34   2.0000      -7.568707      -205.9550
  35   2.0000      -7.567047      -205.9098
  36   2.0000      -7.566867      -205.9049
  37   2.0000      -6.399929      -174.1509
  38   2.0000      -6.399718      -174.1452
  39   2.0000      -6.399369      -174.1357
  40   2.0000      -6.395433      -174.0286
  41   2.0000      -6.395099      -174.0195
  42   2.0000      -6.394501      -174.0032
  43   2.0000      -1.726724       -46.9865
  44   2.0000      -1.721392       -46.8415
  45   2.0000      -1.703162       -46.3454
  46   2.0000      -1.695860       -46.1467
  47   2.0000      -1.331454       -36.2307
  48   2.0000      -1.317229       -35.8436
  49   2.0000      -1.306361       -35.5479
  50   2.0000      -1.293982       -35.2110
  51   2.0000      -1.291128       -35.1334
  52   2.0000      -1.255819       -34.1726
  53   2.0000      -1.230204       -33.4756
  54   2.0000      -1.207559       -32.8594
  55   2.0000      -1.178634       -32.0723
  56   2.0000      -1.164063       -31.6758
  57   2.0000      -1.157716       -31.5031
  58   2.0000      -1.146180       -31.1891
  59   2.0000      -1.123302       -30.5666
  60   2.0000      -1.082230       -29.4490
  61   2.0000      -1.074972       -29.2515
  62   2.0000      -1.053759       -28.6743
  63   2.0000      -1.051013       -28.5995
  64   2.0000      -1.001633       -27.2558
  65   2.0000      -0.998099       -27.1597
  66   2.0000      -0.993058       -27.0225
  67   2.0000      -0.985072       -26.8052
  68   2.0000      -0.976875       -26.5821
  69   2.0000      -0.971451       -26.4345
  70   2.0000      -0.965729       -26.2788
  71   2.0000      -0.958267       -26.0758
  72   2.0000      -0.923878       -25.1400
  73   2.0000      -0.898464       -24.4484
  74   2.0000      -0.884731       -24.0748
  75   2.0000      -0.881851       -23.9964
  76   2.0000      -0.878449       -23.9038
  77   2.0000      -0.873810       -23.7776
  78   2.0000      -0.865200       -23.5433
  79   2.0000      -0.847314       -23.0566
  80   2.0000      -0.845422       -23.0051
  81   2.0000      -0.844852       -22.9896
  82   2.0000      -0.843901       -22.9637
  83   2.0000      -0.833730       -22.6869
  84   2.0000      -0.828636       -22.5483
  85   2.0000      -0.826265       -22.4838
  86   2.0000      -0.826050       -22.4780
  87   2.0000      -0.818815       -22.2811
  88   2.0000      -0.817005       -22.2318
  89   2.0000      -0.795005       -21.6332
  90   2.0000      -0.793942       -21.6042
  91   2.0000      -0.791955       -21.5502
  92   2.0000      -0.783620       -21.3234
  93   2.0000      -0.777351       -21.1528
  94   2.0000      -0.755178       -20.5494
  95   2.0000      -0.691765       -18.8239
  96   2.0000      -0.679564       -18.4919
  97   2.0000      -0.645216       -17.5572
  98   2.0000      -0.642864       -17.4932
  99   2.0000      -0.641365       -17.4524
 100   2.0000      -0.633350       -17.2343
 101   0.0000      -0.318346        -8.6626
 102   0.0000      -0.313631        -8.5343
 103   0.0000      -0.271425        -7.3858
 104   0.0000      -0.241198        -6.5633
 105   0.0000      -0.234692        -6.3863

MULLIKEN ATOMIC CHARGES
-----------------------
   0 C :   -0.316603
   1 C :   -0.057462
   2 O :   -0.307828
   3 P :    0.614030
   4 S :   -0.400233
   5 O :   -0.275305
   6 C :   -0.059508
   7 C :   -0.312306
   8 S :   -0.151285
   9 C :   -0.201026
  10 S :   -0.074818
  11 P :    0.586535
  12 S :   -0.404405
  13 O :   -0.298938
  14 C :   -0.069853
  15 C :   -0.304150
  16 O :   -0.316962
  17 C :   -0.045819
  18 C :   -0.330466
  19 H :    0.113435
  20 H :    0.125279
  21 H :    0.115263
  22 H :    0.112653
  23 H :    0.125208
  24 H :    0.115492
  25 H :    0.115922
  26 H :    0.128506
  27 H :    0.129188
  28 H :    0.100125
  29 H :    0.152361
  30 H :    0.180752
  31 H :    0.108593
  32 H :    0.135090
  33 H :    0.126669
  34 H :    0.116825
  35 H :    0.118295
  36 H :    0.128931
  37 H :    0.108972
  38 H :    0.115469
  39 H :    0.135480
  40 H :    0.117893
Sum of atomic charges:    0.0000000

LOEWDIN ATOMIC CHARGES
----------------------
   0 C :   -0.303591
   1 C :   -0.319705
   2 O :    0.027405
   3 P :   -0.039565
   4 S :   -0.110887
   5 O :    0.040346
   6 C :   -0.319133
   7 C :   -0.304480
   8 S :    0.336710
   9 C :   -0.698592
  10 S :    0.377099
  11 P :   -0.054073
  12 S :   -0.116034
  13 O :    0.028325
  14 C :   -0.318488
  15 C :   -0.308966
  16 O :    0.023625
  17 C :   -0.320451
  18 C :   -0.307115
  19 H :    0.126114
  20 H :    0.124237
  21 H :    0.121026
  22 H :    0.118502
  23 H :    0.122764
  24 H :    0.114468
  25 H :    0.121055
  26 H :    0.124008
  27 H :    0.124750
  28 H :    0.122428
  29 H :    0.114472
  30 H :    0.117317
  31 H :    0.124177
  32 H :    0.123279
  33 H :    0.121974
  34 H :    0.122989
  35 H :    0.127081
  36 H :    0.124037
  37 H :    0.121764
  38 H :    0.120848
  39 H :    0.123813
  40 H :    0.126466

  Mayer bond orders larger than 0.100000
B(  0-C ,  1-C ) :   1.0090 B(  0-C , 19-H ) :   0.9688 B(  0-C , 20-H ) :   0.9756
B(  0-C , 21-H ) :   0.9750 B(  1-C ,  2-O ) :   0.8887 B(  1-C , 22-H ) :   0.9662
B(  1-C , 23-H ) :   0.9589 B(  2-O ,  3-P ) :   1.1600 B(  3-P ,  4-S ) :   1.8763
B(  3-P ,  5-O ) :   1.2421 B(  3-P ,  8-S ) :   1.0457 B(  5-O ,  6-C ) :   0.8867
B(  6-C ,  7-C ) :   1.0076 B(  6-C , 24-H ) :   0.9600 B(  6-C , 25-H ) :   0.9676
B(  7-C , 26-H ) :   0.9710 B(  7-C , 27-H ) :   0.9735 B(  7-C , 28-H ) :   0.9705
B(  8-S ,  9-C ) :   1.0140 B(  9-C , 10-S ) :   1.0177 B(  9-C , 29-H ) :   0.9426
B(  9-C , 30-H ) :   0.9347 B( 10-S , 11-P ) :   1.1150 B( 11-P , 12-S ) :   1.8282
B( 11-P , 13-O ) :   1.1913 B( 11-P , 16-O ) :   1.1550 B( 13-O , 14-C ) :   0.8708
B( 14-C , 15-C ) :   1.0073 B( 14-C , 31-H ) :   0.9633 B( 14-C , 32-H ) :   0.9723
B( 15-C , 33-H ) :   0.9707 B( 15-C , 34-H ) :   0.9706 B( 15-C , 35-H ) :   0.9676
B( 16-O , 17-C ) :   0.8606 B( 17-C , 18-C ) :   1.0166 B( 17-C , 36-H ) :   0.9621
B( 17-C , 37-H ) :   0.9633 B( 18-C , 38-H ) :   0.9733 B( 18-C , 39-H ) :   0.9703
B( 18-C , 40-H ) :   0.9690

FINAL SINGLE POINT ENERGY     -2932.534734648795

DIPOLE MOMENT
-------------

Method             : SCF
Type of density    : Electron Density
Multiplicity       :   1
Irrep              :   0
Energy             : -2932.5646676498950001 Eh
Relativity type    :
Basis              : AO
                                X                 Y                 Z
Electronic contribution:      2.967857808       6.619737035     -18.514354518
Nuclear contribution   :     -3.042562346      -8.425244003      20.210199458
                        -----------------------------------------
Total Dipole Moment    :     -0.074704538      -1.805506968       1.695844940
                        -----------------------------------------
Magnitude (a.u.)       :      2.478169938
Magnitude (Debye)      :      6.299007391

Rotational constants in cm-1:             0.013131             0.004338             0.004078
Rotational constants in MHz :           393.649672           130.051011           122.246804

                             ****ORCA TERMINATED NORMALLY****
TOTAL RUN TIME: 0 days 0 hours 14 minutes 48 seconds 500 msec
