                         Program Version 6.0.0  -   RELEASE  -
|  1> ! wb97x-v def2-tzvp def2/J RIJCOSX DEFGRID2 scfconv7 GCP(DFT/TZ) printgap
|  2> %output
|  3>     printlevel normal
|  4> end
|  5> %cpcm
|  6>     smd true
|  7>     smdsolvent "water"
|  8> end
|  9> * xyz 0 1
| 10> C 5.9019821841385385 -1.3472047238187181 0.4668404837125259
| 11> C 4.588083219596239 -1.4760535167035653 -0.25814394191781864
| 12> O 3.7695017754806064 -0.3103510861572031 0.10996838005006328
| 13> P 2.4974068168055927 0.1329823520194742 -0.770386710019255
| 14> S 2.7318912692918946 0.38212837887879697 -2.6839513176706604
| 15> O 2.085745166904234 1.5041920962560427 -0.05230552133222112
| 16> C 1.8759206120574592 1.5904061280749173 1.4040803275475449
| 17> C 1.0418120480587043 2.8174635182591476 1.6636878839880127
| 18> S 1.1027832523295484 -1.3656873448053855 -0.2023554642118926
| 19> C -0.21541739158466988 -1.1015033800896048 -1.453446934541142
| 20> S -1.0589025153359641 0.5362103801222718 -1.4769737494100739
| 21> P -2.36499714479828 0.4304352674067067 0.1729338584738971
| 22> S -3.565760516130725 1.962814098895912 0.13244689206670204
| 23> O -1.3911589028937874 0.278647155344332 1.4357345766872118
| 24> C -1.8167943241084685 0.656446497643758 2.7940803732540878
| 25> C -2.825501392557377 -0.3121734752240874 3.360034961245409
| 26> O -3.023362635234484 -1.0400718897432695 0.147100820253418
| 27> C -4.056663254466859 -1.3742192475004673 -0.8462073386774247
| 28> C -5.379220496698404 -1.5504521021342548 -0.14425902539986538
| 29> H 6.522520793215936 -2.21696719992663 0.23024992586067736
| 30> H 6.435064083942369 -0.4456312866431729 0.1525013414465975
| 31> H 5.750945338224826 -1.3159865797559551 1.54954049018576
| 32> H 4.044731579320161 -2.3773425183630645 0.04165513104730407
| 33> H 4.722493391596187 -1.477286853516446 -1.3444306484229622
| 34> H 1.3709991529799843 0.6799005185615626 1.743170774545675
| 35> H 2.8608057374114266 1.6549852600720123 1.8749524021013595
| 36> H 1.5511996969624564 3.718502603356804 1.310060557848253
| 37> H 0.06753581696431814 2.741729676563533 1.1715088971506757
| 38> H 0.8795654972509681 2.9143037088367603 2.7417204262390102
| 39> H -0.9490190026109748 -1.8945126214409926 -1.2820108410633893
| 40> H 0.20980861888910685 -1.2169120412522072 -2.4545542614657223
| 41> H -0.8841379815028417 0.645137048814562 3.3616931064143394
| 42> H -2.2026894361120224 1.6798294063230337 2.7588948102837074
| 43> H -3.7720130887252914 -0.27684223312922335 2.811900719530568
| 44> H -2.439919369834656 -1.3354874655805038 3.3408352040743585
| 45> H -3.025153723993555 -0.03747868263010927 4.401095199323703
| 46> H -4.103069539946372 -0.5886039285771797 -1.6071801747302603
| 47> H -3.7148032856970734 -2.2994611781632757 -1.3167742664343138
| 48> H -5.313018984538386 -2.3276515699691114 0.6225462252736073
| 49> H -5.701543751282093 -0.6148213747714566 0.3213083364451798
| 50> H -6.134594576480076 -1.8521297806720023 -0.8770971202011509
| 51> *
| 52>
| 53>                          ****END OF INPUT****

CARTESIAN COORDINATES (ANGSTROEM)
---------------------------------
  C      5.901982   -1.347205    0.466840
  C      4.588083   -1.476054   -0.258144
  O      3.769502   -0.310351    0.109968
  P      2.497407    0.132982   -0.770387
  S      2.731891    0.382128   -2.683951
  O      2.085745    1.504192   -0.052306
  C      1.875921    1.590406    1.404080
  C      1.041812    2.817464    1.663688
  S      1.102783   -1.365687   -0.202355
  C     -0.215417   -1.101503   -1.453447
  S     -1.058903    0.536210   -1.476974
  P     -2.364997    0.430435    0.172934
  S     -3.565761    1.962814    0.132447
  O     -1.391159    0.278647    1.435735
  C     -1.816794    0.656446    2.794080
  C     -2.825501   -0.312173    3.360035
  O     -3.023363   -1.040072    0.147101
  C     -4.056663   -1.374219   -0.846207
  C     -5.379220   -1.550452   -0.144259
  H      6.522521   -2.216967    0.230250
  H      6.435064   -0.445631    0.152501
  H      5.750945   -1.315987    1.549540
  H      4.044732   -2.377343    0.041655
  H      4.722493   -1.477287   -1.344431
  H      1.370999    0.679901    1.743171
  H      2.860806    1.654985    1.874952
  H      1.551200    3.718503    1.310061
  H      0.067536    2.741730    1.171509
  H      0.879565    2.914304    2.741720
  H     -0.949019   -1.894513   -1.282011
  H      0.209809   -1.216912   -2.454554
  H     -0.884138    0.645137    3.361693
  H     -2.202689    1.679829    2.758895
  H     -3.772013   -0.276842    2.811901
  H     -2.439919   -1.335487    3.340835
  H     -3.025154   -0.037479    4.401095
  H     -4.103070   -0.588604   -1.607180
  H     -3.714803   -2.299461   -1.316774
  H     -5.313019   -2.327652    0.622546
  H     -5.701544   -0.614821    0.321308
  H     -6.134595   -1.852130   -0.877097

 Total Charge           Charge          ....    0
 Multiplicity           Mult            ....    1
 Number of Electrons    NEL             ....  202
 Basis Dimension        Dim             ....  757

ORBITAL ENERGIES
----------------

  NO   OCC          E(Eh)            E(eV)
   0   2.0000     -94.148980     -2561.9240
   1   2.0000     -94.147531     -2561.8846
   2   2.0000     -94.091378     -2560.3566
   3   2.0000     -94.090430     -2560.3308
   4   2.0000     -82.126029     -2234.7629
   5   2.0000     -82.125422     -2234.7463
   6   2.0000     -21.714914      -590.8929
   7   2.0000     -21.713011      -590.8411
   8   2.0000     -21.712722      -590.8332
   9   2.0000     -21.711169      -590.7909
  10   2.0000     -12.124387      -329.9214
  11   2.0000     -12.107615      -329.4650
  12   2.0000     -12.106788      -329.4425
  13   2.0000     -12.106615      -329.4378
  14   2.0000     -12.105645      -329.4114
  15   2.0000     -12.035746      -327.5093
  16   2.0000     -12.035218      -327.4949
  17   2.0000     -12.034561      -327.4771
  18   2.0000     -12.034465      -327.4744
  19   2.0000      -9.660225      -262.8681
  20   2.0000      -9.658954      -262.8335
  21   2.0000      -9.604503      -261.3518
  22   2.0000      -9.603536      -261.3255
  23   2.0000      -8.239236      -224.2010
  24   2.0000      -8.238693      -224.1862
  25   2.0000      -7.637940      -207.8389
  26   2.0000      -7.636950      -207.8120
  27   2.0000      -7.636475      -207.7991
  28   2.0000      -7.636065      -207.7879
  29   2.0000      -7.635014      -207.7593
  30   2.0000      -7.634182      -207.7367
  31   2.0000      -7.582094      -206.3193
  32   2.0000      -7.581183      -206.2945
  33   2.0000      -7.580514      -206.2763
  34   2.0000      -7.580347      -206.2717
  35   2.0000      -7.579592      -206.2512
  36   2.0000      -7.579369      -206.2451
  37   2.0000      -6.403581      -174.2503
  38   2.0000      -6.403277      -174.2420
  39   2.0000      -6.402906      -174.2319
  40   2.0000      -6.402735      -174.2273
  41   2.0000      -6.402670      -174.2255
  42   2.0000      -6.402421      -174.2187
  43   2.0000      -1.725544       -46.9544
  44   2.0000      -1.723616       -46.9020
  45   2.0000      -1.700891       -46.2836
  46   2.0000      -1.699601       -46.2485
  47   2.0000      -1.330548       -36.2060
  48   2.0000      -1.312452       -35.7136
  49   2.0000      -1.299700       -35.3666
  50   2.0000      -1.283994       -34.9392
  51   2.0000      -1.279908       -34.8281
  52   2.0000      -1.254611       -34.1397
  53   2.0000      -1.232853       -33.5476
  54   2.0000      -1.212818       -33.0024
  55   2.0000      -1.172990       -31.9187
  56   2.0000      -1.161881       -31.6164
  57   2.0000      -1.146262       -31.1914
  58   2.0000      -1.144083       -31.1321
  59   2.0000      -1.121206       -30.5096
  60   2.0000      -1.078778       -29.3550
  61   2.0000      -1.067388       -29.0451
  62   2.0000      -1.054071       -28.6827
  63   2.0000      -1.043613       -28.3982
  64   2.0000      -0.996992       -27.1295
  65   2.0000      -0.993418       -27.0323
  66   2.0000      -0.990928       -26.9645
  67   2.0000      -0.984750       -26.7964
  68   2.0000      -0.972316       -26.4581
  69   2.0000      -0.970161       -26.3994
  70   2.0000      -0.960514       -26.1369
  71   2.0000      -0.959279       -26.1033
  72   2.0000      -0.922551       -25.1039
  73   2.0000      -0.895062       -24.3559
  74   2.0000      -0.875937       -23.8354
  75   2.0000      -0.869649       -23.6644
  76   2.0000      -0.867497       -23.6058
  77   2.0000      -0.865840       -23.5607
  78   2.0000      -0.861019       -23.4295
  79   2.0000      -0.840763       -22.8783
  80   2.0000      -0.834519       -22.7084
  81   2.0000      -0.833483       -22.6802
  82   2.0000      -0.832211       -22.6456
  83   2.0000      -0.829960       -22.5844
  84   2.0000      -0.820836       -22.3361
  85   2.0000      -0.811499       -22.0820
  86   2.0000      -0.810776       -22.0623
  87   2.0000      -0.810216       -22.0471
  88   2.0000      -0.809213       -22.0198
  89   2.0000      -0.786325       -21.3970
  90   2.0000      -0.778154       -21.1746
  91   2.0000      -0.777894       -21.1676
  92   2.0000      -0.776083       -21.1183
  93   2.0000      -0.775782       -21.1101
  94   2.0000      -0.758625       -20.6432
  95   2.0000      -0.695051       -18.9133
  96   2.0000      -0.683358       -18.5951
  97   2.0000      -0.656050       -17.8520
  98   2.0000      -0.652505       -17.7556
  99   2.0000      -0.650882       -17.7114
 100   2.0000      -0.647267       -17.6130
 101   0.0000      -0.322434        -8.7739
 102   0.0000      -0.317174        -8.6307
 103   0.0000      -0.272912        -7.4263
 104   0.0000      -0.242405        -6.5962
 105   0.0000      -0.236893        -6.4462

MULLIKEN ATOMIC CHARGES
-----------------------
   0 C :   -0.365668
   1 C :   -0.046926
   2 O :   -0.327001
   3 P :    0.628498
   4 S :   -0.459488
   5 O :   -0.325518
   6 C :   -0.063791
   7 C :   -0.352810
   8 S :   -0.147143
   9 C :   -0.209186
  10 S :   -0.128906
  11 P :    0.638259
  12 S :   -0.472858
  13 O :   -0.322981
  14 C :   -0.067428
  15 C :   -0.353527
  16 O :   -0.337172
  17 C :   -0.040603
  18 C :   -0.366348
  19 H :    0.137583
  20 H :    0.133082
  21 H :    0.134029
  22 H :    0.137520
  23 H :    0.128467
  24 H :    0.137864
  25 H :    0.141332
  26 H :    0.141031
  27 H :    0.118358
  28 H :    0.136172
  29 H :    0.206313
  30 H :    0.200720
  31 H :    0.145501
  32 H :    0.137474
  33 H :    0.132363
  34 H :    0.131371
  35 H :    0.144502
  36 H :    0.130419
  37 H :    0.143959
  38 H :    0.132866
  39 H :    0.128016
  40 H :    0.141655
Sum of atomic charges:    0.0000000

LOEWDIN ATOMIC CHARGES
----------------------
   0 C :   -0.305630
   1 C :   -0.313737
   2 O :    0.020448
   3 P :   -0.038288
   4 S :   -0.155086
   5 O :    0.017008
   6 C :   -0.312356
   7 C :   -0.308483
   8 S :    0.344955
   9 C :   -0.685261
  10 S :    0.350190
  11 P :   -0.042665
  12 S :   -0.158037
  13 O :    0.021023
  14 C :   -0.311477
  15 C :   -0.312628
  16 O :    0.018458
  17 C :   -0.311994
  18 C :   -0.309983
  19 H :    0.133497
  20 H :    0.124741
  21 H :    0.124954
  22 H :    0.126435
  23 H :    0.124021
  24 H :    0.119997
  25 H :    0.129325
  26 H :    0.124807
  27 H :    0.120684
  28 H :    0.133775
  29 H :    0.130750
  30 H :    0.123634
  31 H :    0.135457
  32 H :    0.124382
  33 H :    0.120986
  34 H :    0.125271
  35 H :    0.134636
  36 H :    0.124984
  37 H :    0.133452
  38 H :    0.124713
  39 H :    0.120118
  40 H :    0.132926

  Mayer bond orders larger than 0.100000
B(  0-C ,  1-C ) :   1.0144 B(  0-C , 19-H ) :   0.9646 B(  0-C , 20-H ) :   0.9728
B(  0-C , 21-H ) :   0.9716 B(  1-C ,  2-O ) :   0.8596 B(  1-C , 22-H ) :   0.9613
B(  1-C , 23-H ) :   0.9572 B(  2-O ,  3-P ) :   1.1761 B(  3-P ,  4-S ) :   1.8399
B(  3-P ,  5-O ) :   1.2359 B(  3-P ,  8-S ) :   1.0687 B(  5-O ,  6-C ) :   0.8481
B(  6-C ,  7-C ) :   1.0117 B(  6-C , 24-H ) :   0.9606 B(  6-C , 25-H ) :   0.9629
B(  7-C , 26-H ) :   0.9673 B(  7-C , 27-H ) :   0.9724 B(  7-C , 28-H ) :   0.9663
B(  8-S ,  9-C ) :   1.0048 B(  9-C , 10-S ) :   0.9984 B(  9-C , 29-H ) :   0.9316
B(  9-C , 30-H ) :   0.9287 B( 10-S , 11-P ) :   1.1101 B( 11-P , 12-S ) :   1.7722
B( 11-P , 13-O ) :   1.2060 B( 11-P , 16-O ) :   1.1748 B( 13-O , 14-C ) :   0.8433
B( 14-C , 15-C ) :   1.0004 B( 14-C , 31-H ) :   0.9579 B( 14-C , 32-H ) :   0.9731
B( 15-C , 33-H ) :   0.9689 B( 15-C , 34-H ) :   0.9682 B( 15-C , 35-H ) :   0.9646
B( 16-O , 17-C ) :   0.8342 B( 17-C , 18-C ) :   1.0148 B( 17-C , 36-H ) :   0.9609
B( 17-C , 37-H ) :   0.9589 B( 18-C , 38-H ) :   0.9706 B( 18-C , 39-H ) :   0.9700
B( 18-C , 40-H ) :   0.9663

FINAL SINGLE POINT ENERGY     -2932.550645684525

DIPOLE MOMENT
-------------

Method             : SCF
Type of density    : Electron Density
Multiplicity       :   1
Irrep              :   0
Energy             : -2932.5805786856249142 Eh
Relativity type    :
Basis              : AO
                                X                 Y                 Z
Electronic contribution:      2.969543834       5.696601806     -17.895618709
Nuclear contribution   :     -3.042562346      -8.425244003      20.210199458
                        -----------------------------------------
Total Dipole Moment    :     -0.073018512      -2.728642197       2.314580749
                        -----------------------------------------
Magnitude (a.u.)       :      3.578841151
Magnitude (Debye)      :      9.096691281

Rotational constants in cm-1:             0.013131             0.004338             0.004078
Rotational constants in MHz :           393.649672           130.051011           122.246804

                             ****ORCA TERMINATED NORMALLY****
TOTAL RUN TIME: 0 days 0 hours 15 minutes 13 seconds 60 msec
