                         Program Version 6.0.0  -   RELEASE  -
|  1> ! pbe def2-sv(p) def2/J RI DEFGRID1 loosescf d4 GCP(DFT/SV(P)) printgap
|  2> %output
|  3>     printlevel normal
|  4> end
|  5> * xyz 0 1
|  6> C 3.4391064094 -2.3804553854 1.8893723824
|  7> C 3.5237806906 -0.8740738624 1.7503110144
|  8> O 3.5984438595 -0.4881124839 0.3530318292
|  9> P 2.3517893506 0.0120157482 -0.4834443644
| 10> S 2.8663969275 0.5704653604 -2.2825688004
| 11> O 1.6332275645 1.1310219866 0.4219544096
| 12> C 1.8178858986 2.5351065362 0.177911072
| 13> C 3.1858128606 2.9961945084 0.6373349887
| 14> S 0.9230155108 -1.5320715449 -0.3244382773
| 15> C -0.1454979237 -0.9898793909 -1.6808422144
| 16> S -0.8229407625 0.6888728495 -1.478994889
| 17> P -2.3821661934 0.2616815061 -0.1156310915
| 18> S -3.3472010253 1.8197467659 0.5728301608
| 19> O -1.7474588919 -0.6804862232 0.9977357306
| 20> C -1.093955738 -0.1578012707 2.1691101192
| 21> C -0.7898264043 -1.3296422275 3.0798353672
| 22> O -3.2032860681 -0.779778489 -0.9816022338
| 23> C -4.5898298527 -1.0689903166 -0.7002656693
| 24> C -4.7587257643 -1.7813888506 0.624615154
| 25> H 3.4620896085 -2.640062766 2.9430336046
| 26> H 2.517880042 -2.754648076 1.4480671735
| 27> H 4.2810474879 -2.8473599593 1.386130867
| 28> H 4.4480369753 -0.4894303807 2.1848463743
| 29> H 2.6643461901 -0.3816338136 2.2112389592
| 30> H 1.680916693 2.7235923897 -0.8918990452
| 31> H 1.0127638393 3.0167574483 0.7361080078
| 32> H 3.9561228534 2.4748195698 0.069239671
| 33> H 3.2820567186 4.0634267413 0.4651594907
| 34> H 3.3218084478 2.7877088074 1.6953194017
| 35> H -0.959576844 -1.7058507409 -1.7519600907
| 36> H 0.4398248225 -0.9554484194 -2.599139256
| 37> H -0.1778484639 0.3545614766 1.8611719399
| 38> H -1.7608811391 0.5707056462 2.6415675623
| 39> H -0.1577197471 -2.0428963107 2.5579206042
| 40> H -0.2781953391 -0.9697168861 3.9662110977
| 41> H -1.7113140344 -1.8234720062 3.3731827756
| 42> H -5.1466373103 -0.1268792408 -0.7071510084
| 43> H -4.90047405 -1.690550269 -1.5410524411
| 44> H -5.7974631627 -2.0723407562 0.7461399679
| 45> H -4.1271521613 -2.6650661964 0.6605842737
| 46> H -4.48108817 -1.1135139802 1.4388792519
| 47> *
| 48>
| 49>                          ****END OF INPUT****

CARTESIAN COORDINATES (ANGSTROEM)
---------------------------------
  C      3.439106   -2.380455    1.889372
  C      3.523781   -0.874074    1.750311
  O      3.598444   -0.488112    0.353032
  P      2.351789    0.012016   -0.483444
  S      2.866397    0.570465   -2.282569
  O      1.633228    1.131022    0.421954
  C      1.817886    2.535107    0.177911
  C      3.185813    2.996195    0.637335
  S      0.923016   -1.532072   -0.324438
  C     -0.145498   -0.989879   -1.680842
  S     -0.822941    0.688873   -1.478995
  P     -2.382166    0.261682   -0.115631
  S     -3.347201    1.819747    0.572830
  O     -1.747459   -0.680486    0.997736
  C     -1.093956   -0.157801    2.169110
  C     -0.789826   -1.329642    3.079835
  O     -3.203286   -0.779778   -0.981602
  C     -4.589830   -1.068990   -0.700266
  C     -4.758726   -1.781389    0.624615
  H      3.462090   -2.640063    2.943034
  H      2.517880   -2.754648    1.448067
  H      4.281047   -2.847360    1.386131
  H      4.448037   -0.489430    2.184846
  H      2.664346   -0.381634    2.211239
  H      1.680917    2.723592   -0.891899
  H      1.012764    3.016757    0.736108
  H      3.956123    2.474820    0.069240
  H      3.282057    4.063427    0.465159
  H      3.321808    2.787709    1.695319
  H     -0.959577   -1.705851   -1.751960
  H      0.439825   -0.955448   -2.599139
  H     -0.177848    0.354561    1.861172
  H     -1.760881    0.570706    2.641568
  H     -0.157720   -2.042896    2.557921
  H     -0.278195   -0.969717    3.966211
  H     -1.711314   -1.823472    3.373183
  H     -5.146637   -0.126879   -0.707151
  H     -4.900474   -1.690550   -1.541052
  H     -5.797463   -2.072341    0.746140
  H     -4.127152   -2.665066    0.660584
  H     -4.481088   -1.113514    1.438879

 Total Charge           Charge          ....    0
 Multiplicity           Mult            ....    1
 Number of Electrons    NEL             ....  202
 Basis Dimension        Dim             ....  334

ORBITAL ENERGIES
----------------

  NO   OCC          E(Eh)            E(eV)
   0   2.0000     -88.046538     -2395.8681
   1   2.0000     -88.040749     -2395.7106
   2   2.0000     -87.990527     -2394.3440
   3   2.0000     -87.987245     -2394.2547
   4   2.0000     -76.430552     -2079.7811
   5   2.0000     -76.425503     -2079.6437
   6   2.0000     -18.801029      -511.6020
   7   2.0000     -18.793851      -511.4067
   8   2.0000     -18.793828      -511.4060
   9   2.0000     -18.791735      -511.3491
  10   2.0000      -9.966404      -271.1996
  11   2.0000      -9.959161      -271.0025
  12   2.0000      -9.954965      -270.8884
  13   2.0000      -9.949173      -270.7308
  14   2.0000      -9.948604      -270.7153
  15   2.0000      -9.896404      -269.2948
  16   2.0000      -9.888575      -269.0818
  17   2.0000      -9.886694      -269.0306
  18   2.0000      -9.885498      -268.9981
  19   2.0000      -7.691596      -209.2990
  20   2.0000      -7.685786      -209.1409
  21   2.0000      -7.635753      -207.7794
  22   2.0000      -7.632456      -207.6897
  23   2.0000      -6.428227      -174.9209
  24   2.0000      -6.423482      -174.7918
  25   2.0000      -5.719400      -155.6328
  26   2.0000      -5.716180      -155.5452
  27   2.0000      -5.714063      -155.4875
  28   2.0000      -5.710128      -155.3805
  29   2.0000      -5.708503      -155.3363
  30   2.0000      -5.702513      -155.1733
  31   2.0000      -5.664873      -154.1490
  32   2.0000      -5.661368      -154.0536
  33   2.0000      -5.656316      -153.9162
  34   2.0000      -5.655730      -153.9002
  35   2.0000      -5.653059      -153.8276
  36   2.0000      -5.652658      -153.8166
  37   2.0000      -4.651135      -126.5638
  38   2.0000      -4.649614      -126.5224
  39   2.0000      -4.648761      -126.4992
  40   2.0000      -4.645854      -126.4201
  41   2.0000      -4.645478      -126.4099
  42   2.0000      -4.643876      -126.3663
  43   2.0000      -0.990159       -26.9436
  44   2.0000      -0.988067       -26.8867
  45   2.0000      -0.948378       -25.8067
  46   2.0000      -0.946493       -25.7554
  47   2.0000      -0.766281       -20.8516
  48   2.0000      -0.726351       -19.7650
  49   2.0000      -0.714232       -19.4353
  50   2.0000      -0.693888       -18.8817
  51   2.0000      -0.690174       -18.7806
  52   2.0000      -0.675200       -18.3731
  53   2.0000      -0.655946       -17.8492
  54   2.0000      -0.640420       -17.4267
  55   2.0000      -0.599709       -16.3189
  56   2.0000      -0.593084       -16.1386
  57   2.0000      -0.584245       -15.8981
  58   2.0000      -0.566639       -15.4190
  59   2.0000      -0.565146       -15.3784
  60   2.0000      -0.507164       -13.8006
  61   2.0000      -0.502433       -13.6719
  62   2.0000      -0.482535       -13.1305
  63   2.0000      -0.478089       -13.0095
  64   2.0000      -0.461963       -12.5706
  65   2.0000      -0.454578       -12.3697
  66   2.0000      -0.440447       -11.9852
  67   2.0000      -0.436669       -11.8824
  68   2.0000      -0.427708       -11.6385
  69   2.0000      -0.417245       -11.3538
  70   2.0000      -0.413614       -11.2550
  71   2.0000      -0.401381       -10.9221
  72   2.0000      -0.400125       -10.8879
  73   2.0000      -0.382068       -10.3966
  74   2.0000      -0.380998       -10.3675
  75   2.0000      -0.377604       -10.2751
  76   2.0000      -0.366123        -9.9627
  77   2.0000      -0.365541        -9.9469
  78   2.0000      -0.363827        -9.9002
  79   2.0000      -0.359376        -9.7791
  80   2.0000      -0.353082        -9.6079
  81   2.0000      -0.348648        -9.4872
  82   2.0000      -0.348000        -9.4696
  83   2.0000      -0.343088        -9.3359
  84   2.0000      -0.334912        -9.1134
  85   2.0000      -0.320525        -8.7219
  86   2.0000      -0.318361        -8.6630
  87   2.0000      -0.308551        -8.3961
  88   2.0000      -0.299855        -8.1595
  89   2.0000      -0.289873        -7.8878
  90   2.0000      -0.283917        -7.7258
  91   2.0000      -0.279106        -7.5949
  92   2.0000      -0.276736        -7.5304
  93   2.0000      -0.271614        -7.3910
  94   2.0000      -0.258313        -7.0291
  95   2.0000      -0.231690        -6.3046
  96   2.0000      -0.218581        -5.9479
  97   2.0000      -0.210667        -5.7325
  98   2.0000      -0.207804        -5.6546
  99   2.0000      -0.205067        -5.5802
 100   2.0000      -0.202853        -5.5199
 101   0.0000      -0.043789        -1.1916
 102   0.0000      -0.019290        -0.5249
 103   0.0000      -0.010586        -0.2881
 104   0.0000      -0.003317        -0.0902
 105   0.0000       0.006894         0.1876

MULLIKEN ATOMIC CHARGES
-----------------------
   0 C :   -0.301821
   1 C :   -0.036432
   2 O :   -0.364523
   3 P :    0.617714
   4 S :   -0.304210
   5 O :   -0.382513
   6 C :   -0.007564
   7 C :   -0.308468
   8 S :   -0.107120
   9 C :   -0.342760
  10 S :   -0.062992
  11 P :    0.609973
  12 S :   -0.329406
  13 O :   -0.381368
  14 C :   -0.033689
  15 C :   -0.287734
  16 O :   -0.379995
  17 C :   -0.003987
  18 C :   -0.309469
  19 H :    0.113667
  20 H :    0.138867
  21 H :    0.126578
  22 H :    0.114713
  23 H :    0.114818
  24 H :    0.118202
  25 H :    0.107807
  26 H :    0.127339
  27 H :    0.115541
  28 H :    0.107600
  29 H :    0.188793
  30 H :    0.196342
  31 H :    0.126157
  32 H :    0.106394
  33 H :    0.117334
  34 H :    0.106283
  35 H :    0.114186
  36 H :    0.115432
  37 H :    0.106511
  38 H :    0.113315
  39 H :    0.115754
  40 H :    0.124729
Sum of atomic charges:    0.0000000

LOEWDIN ATOMIC CHARGES
----------------------
   0 C :   -0.361008
   1 C :   -0.117094
   2 O :   -0.241377
   3 P :    0.569278
   4 S :   -0.302280
   5 O :   -0.251823
   6 C :   -0.124220
   7 C :   -0.364716
   8 S :    0.092864
   9 C :   -0.475115
  10 S :    0.099375
  11 P :    0.564733
  12 S :   -0.326126
  13 O :   -0.246230
  14 C :   -0.131395
  15 C :   -0.353305
  16 O :   -0.247554
  17 C :   -0.114551
  18 C :   -0.366167
  19 H :    0.132066
  20 H :    0.118885
  21 H :    0.132605
  22 H :    0.123330
  23 H :    0.109537
  24 H :    0.110269
  25 H :    0.118439
  26 H :    0.124585
  27 H :    0.132398
  28 H :    0.120789
  29 H :    0.136040
  30 H :    0.135857
  31 H :    0.107730
  32 H :    0.107713
  33 H :    0.120425
  34 H :    0.127500
  35 H :    0.125959
  36 H :    0.113783
  37 H :    0.119410
  38 H :    0.131062
  39 H :    0.125645
  40 H :    0.122685

  Mayer bond orders larger than 0.100000
B(  0-C ,  1-C ) :   1.1681 B(  0-C , 19-H ) :   0.9383 B(  0-C , 20-H ) :   0.9314
B(  0-C , 21-H ) :   0.9444 B(  1-C ,  2-O ) :   0.8975 B(  1-C , 22-H ) :   0.9330
B(  1-C , 23-H ) :   0.9142 B(  2-O ,  3-P ) :   1.1277 B(  3-P ,  4-S ) :   1.6406
B(  3-P ,  5-O ) :   1.0507 B(  3-P ,  8-S ) :   0.9665 B(  4-S ,  8-S ) :   0.1027
B(  5-O ,  6-C ) :   0.8971 B(  6-C ,  7-C ) :   1.1613 B(  6-C , 24-H ) :   0.9122
B(  6-C , 25-H ) :   0.9320 B(  7-C , 26-H ) :   0.9359 B(  7-C , 27-H ) :   0.9407
B(  7-C , 28-H ) :   0.9475 B(  8-S ,  9-C ) :   0.9952 B(  9-C , 10-S ) :   0.9899
B(  9-C , 29-H ) :   0.8962 B(  9-C , 30-H ) :   0.8861 B( 10-S , 11-P ) :   0.9789
B( 11-P , 12-S ) :   1.6465 B( 11-P , 13-O ) :   1.0906 B( 11-P , 16-O ) :   1.1031
B( 13-O , 14-C ) :   0.8891 B( 14-C , 15-C ) :   1.1622 B( 14-C , 31-H ) :   0.9026
B( 14-C , 32-H ) :   0.9142 B( 15-C , 33-H ) :   0.9446 B( 15-C , 34-H ) :   0.9424
B( 15-C , 35-H ) :   0.9497 B( 16-O , 17-C ) :   0.9045 B( 17-C , 18-C ) :   1.1636
B( 17-C , 36-H ) :   0.9186 B( 17-C , 37-H ) :   0.9357 B( 18-C , 38-H ) :   0.9375
B( 18-C , 39-H ) :   0.9457 B( 18-C , 40-H ) :   0.9346

Dispersion correction           -0.066022523
FINAL SINGLE POINT ENERGY     -2929.521675788630

DIPOLE MOMENT
-------------

Method             : SCF
Type of density    : Electron Density
Multiplicity       :   1
Irrep              :   0
Energy             : -2929.6423407295451398 Eh
Relativity type    :
Basis              : AO
                                X                 Y                 Z
Electronic contribution:     -1.438777862       7.067866212     -20.634459160
Nuclear contribution   :      1.513886535      -8.076345782      22.126819493
                        -----------------------------------------
Total Dipole Moment    :      0.075108673      -1.008479570       1.492360333
                        -----------------------------------------
Magnitude (a.u.)       :      1.802723417
Magnitude (Debye)      :      4.582158777

Rotational constants in cm-1:             0.012283             0.005124             0.004776
Rotational constants in MHz :           368.237943           153.619825           143.189713

                             ****ORCA TERMINATED NORMALLY****
TOTAL RUN TIME: 0 days 0 hours 0 minutes 21 seconds 998 msec
