                         Program Version 6.0.0  -   RELEASE  -
|  1> ! pbe def2-sv(p) def2/J RI DEFGRID1 loosescf d4 GCP(DFT/SV(P)) printgap
|  2> %output
|  3>     printlevel normal
|  4> end
|  5> * xyz 0 1
|  6> C 1.5129546715 -3.1659463362 -0.8200543078
|  7> C 2.6333961168 -2.3151087205 -1.3856790933
|  8> O 3.0778422979 -1.3255942656 -0.4417636491
|  9> P 2.356685088 0.0839406564 -0.2764098268
| 10> S 1.8828374152 0.9816944455 -1.9466306266
| 11> O 3.4247334335 0.921663764 0.5265355332
| 12> C 4.0983799933 0.4433263169 1.7214059617
| 13> C 3.5678947537 1.1540596662 2.9507584643
| 14> S 0.8017795371 -0.3330617057 1.1203368243
| 15> C 0.1220997839 1.3360858698 1.2325695527
| 16> S -1.1253349828 1.7741768225 -0.0357629146
| 17> P -2.3056899883 0.00446542 -0.0862035702
| 18> S -4.150938851 0.2389454688 -0.696671173
| 19> O -2.1337669861 -0.6585432156 1.3459109617
| 20> C -3.1563214366 -0.5476575238 2.3550884248
| 21> C -3.1168230141 0.7948599302 3.0582113745
| 22> O -1.4372534996 -1.0344866363 -0.927452191
| 23> C -1.7446878508 -1.317753185 -2.3047983074
| 24> C -1.461786433 -0.1365620755 -3.2110680051
| 25> H 1.2814051116 -3.9607653846 -1.5221887096
| 26> H 1.8162893452 -3.6033448516 0.1274005109
| 27> H 0.6195594773 -2.5665057151 -0.655174005
| 28> H 2.320959584 -1.8064331234 -2.3040365092
| 29> H 3.524391035 -2.9134132077 -1.5838190219
| 30> H 3.9694704995 -0.6374590597 1.7960702181
| 31> H 5.1507258057 0.6766933792 1.5527062855
| 32> H 2.5383782435 0.8661109262 3.1470495104
| 33> H 4.1793777557 0.8808809058 3.8049675286
| 34> H 3.6167445103 2.2303200487 2.8092325155
| 35> H 0.9173243409 2.0694595895 1.1050416179
| 36> H -0.3359800387 1.4228372369 2.2138867128
| 37> H -4.130986916 -0.7009807762 1.8808189211
| 38> H -2.9419648345 -1.3694113269 3.0391712395
| 39> H -3.2575355886 1.5965700588 2.3333993127
| 40> H -3.9205162623 0.8380835232 3.786520602
| 41> H -2.1684875339 0.9334339795 3.5701963733
| 42> H -1.1109350323 -2.1714364272 -2.5489086659
| 43> H -2.7988484113 -1.6044635398 -2.3716068616
| 44> H -0.4309882319 0.1949473812 -3.1056531868
| 45> H -1.6416108128 -0.4219200507 -4.2423357824
| 46> H -2.1192847426 0.6943080319 -2.9546173691
| 47> *
| 48>
| 49>                          ****END OF INPUT****

CARTESIAN COORDINATES (ANGSTROEM)
---------------------------------
  C      1.512955   -3.165946   -0.820054
  C      2.633396   -2.315109   -1.385679
  O      3.077842   -1.325594   -0.441764
  P      2.356685    0.083941   -0.276410
  S      1.882837    0.981694   -1.946631
  O      3.424733    0.921664    0.526536
  C      4.098380    0.443326    1.721406
  C      3.567895    1.154060    2.950758
  S      0.801780   -0.333062    1.120337
  C      0.122100    1.336086    1.232570
  S     -1.125335    1.774177   -0.035763
  P     -2.305690    0.004465   -0.086204
  S     -4.150939    0.238945   -0.696671
  O     -2.133767   -0.658543    1.345911
  C     -3.156321   -0.547658    2.355088
  C     -3.116823    0.794860    3.058211
  O     -1.437253   -1.034487   -0.927452
  C     -1.744688   -1.317753   -2.304798
  C     -1.461786   -0.136562   -3.211068
  H      1.281405   -3.960765   -1.522189
  H      1.816289   -3.603345    0.127401
  H      0.619559   -2.566506   -0.655174
  H      2.320960   -1.806433   -2.304037
  H      3.524391   -2.913413   -1.583819
  H      3.969470   -0.637459    1.796070
  H      5.150726    0.676693    1.552706
  H      2.538378    0.866111    3.147050
  H      4.179378    0.880881    3.804968
  H      3.616745    2.230320    2.809233
  H      0.917324    2.069460    1.105042
  H     -0.335980    1.422837    2.213887
  H     -4.130987   -0.700981    1.880819
  H     -2.941965   -1.369411    3.039171
  H     -3.257536    1.596570    2.333399
  H     -3.920516    0.838084    3.786521
  H     -2.168488    0.933434    3.570196
  H     -1.110935   -2.171436   -2.548909
  H     -2.798848   -1.604464   -2.371607
  H     -0.430988    0.194947   -3.105653
  H     -1.641611   -0.421920   -4.242336
  H     -2.119285    0.694308   -2.954617

 Total Charge           Charge          ....    0
 Multiplicity           Mult            ....    1
 Number of Electrons    NEL             ....  202
 Basis Dimension        Dim             ....  334

ORBITAL ENERGIES
----------------

  NO   OCC          E(Eh)            E(eV)
   0   2.0000     -88.046727     -2395.8733
   1   2.0000     -88.038020     -2395.6363
   2   2.0000     -87.987038     -2394.2490
   3   2.0000     -87.985662     -2394.2116
   4   2.0000     -76.428387     -2079.7221
   5   2.0000     -76.425799     -2079.6517
   6   2.0000     -18.798608      -511.5361
   7   2.0000     -18.796780      -511.4864
   8   2.0000     -18.793546      -511.3984
   9   2.0000     -18.783072      -511.1134
  10   2.0000      -9.963558      -271.1222
  11   2.0000      -9.961709      -271.0719
  12   2.0000      -9.955847      -270.9124
  13   2.0000      -9.955529      -270.9037
  14   2.0000      -9.943681      -270.5813
  15   2.0000      -9.893979      -269.2289
  16   2.0000      -9.890850      -269.1437
  17   2.0000      -9.886300      -269.0199
  18   2.0000      -9.866715      -268.4870
  19   2.0000      -7.691145      -209.2867
  20   2.0000      -7.683054      -209.0665
  21   2.0000      -7.632154      -207.6815
  22   2.0000      -7.630671      -207.6411
  23   2.0000      -6.426044      -174.8615
  24   2.0000      -6.423183      -174.7837
  25   2.0000      -5.718955      -155.6207
  26   2.0000      -5.715728      -155.5329
  27   2.0000      -5.711409      -155.4153
  28   2.0000      -5.708124      -155.3259
  29   2.0000      -5.707461      -155.3079
  30   2.0000      -5.699700      -155.0967
  31   2.0000      -5.661048      -154.0449
  32   2.0000      -5.659667      -154.0074
  33   2.0000      -5.652806      -153.8207
  34   2.0000      -5.652311      -153.8072
  35   2.0000      -5.651354      -153.7812
  36   2.0000      -5.650665      -153.7624
  37   2.0000      -4.649078      -126.5078
  38   2.0000      -4.647820      -126.4736
  39   2.0000      -4.646049      -126.4254
  40   2.0000      -4.645680      -126.4154
  41   2.0000      -4.645185      -126.4019
  42   2.0000      -4.643499      -126.3560
  43   2.0000      -0.992411       -27.0049
  44   2.0000      -0.985321       -26.8119
  45   2.0000      -0.949722       -25.8432
  46   2.0000      -0.942715       -25.6526
  47   2.0000      -0.763214       -20.7681
  48   2.0000      -0.722325       -19.6555
  49   2.0000      -0.711710       -19.3666
  50   2.0000      -0.693875       -18.8813
  51   2.0000      -0.683149       -18.5894
  52   2.0000      -0.674189       -18.3456
  53   2.0000      -0.654909       -17.8210
  54   2.0000      -0.638243       -17.3675
  55   2.0000      -0.599252       -16.3065
  56   2.0000      -0.593614       -16.1531
  57   2.0000      -0.582198       -15.8424
  58   2.0000      -0.569781       -15.5045
  59   2.0000      -0.560598       -15.2546
  60   2.0000      -0.507840       -13.8190
  61   2.0000      -0.493941       -13.4408
  62   2.0000      -0.480547       -13.0764
  63   2.0000      -0.467846       -12.7307
  64   2.0000      -0.462512       -12.5856
  65   2.0000      -0.449100       -12.2206
  66   2.0000      -0.444236       -12.0883
  67   2.0000      -0.438412       -11.9298
  68   2.0000      -0.423286       -11.5182
  69   2.0000      -0.420483       -11.4419
  70   2.0000      -0.414558       -11.2807
  71   2.0000      -0.398883       -10.8542
  72   2.0000      -0.397092       -10.8054
  73   2.0000      -0.388605       -10.5745
  74   2.0000      -0.380096       -10.3429
  75   2.0000      -0.372987       -10.1495
  76   2.0000      -0.371259       -10.1025
  77   2.0000      -0.364058        -9.9065
  78   2.0000      -0.359222        -9.7749
  79   2.0000      -0.354891        -9.6571
  80   2.0000      -0.351620        -9.5681
  81   2.0000      -0.346573        -9.4307
  82   2.0000      -0.342130        -9.3098
  83   2.0000      -0.333729        -9.0812
  84   2.0000      -0.326164        -8.8754
  85   2.0000      -0.324245        -8.8232
  86   2.0000      -0.313226        -8.5233
  87   2.0000      -0.306757        -8.3473
  88   2.0000      -0.299509        -8.1501
  89   2.0000      -0.294690        -8.0189
  90   2.0000      -0.285448        -7.7674
  91   2.0000      -0.277064        -7.5393
  92   2.0000      -0.267210        -7.2712
  93   2.0000      -0.262594        -7.1456
  94   2.0000      -0.259225        -7.0539
  95   2.0000      -0.229678        -6.2499
  96   2.0000      -0.217951        -5.9307
  97   2.0000      -0.209275        -5.6947
  98   2.0000      -0.208038        -5.6610
  99   2.0000      -0.200915        -5.4672
 100   2.0000      -0.191634        -5.2146
 101   0.0000      -0.044237        -1.2037
 102   0.0000      -0.024456        -0.6655
 103   0.0000      -0.022769        -0.6196
 104   0.0000      -0.002388        -0.0650
 105   0.0000       0.012023         0.3272

MULLIKEN ATOMIC CHARGES
-----------------------
   0 C :   -0.350962
   1 C :   -0.006640
   2 O :   -0.381499
   3 P :    0.594402
   4 S :   -0.292134
   5 O :   -0.364506
   6 C :   -0.010037
   7 C :   -0.297780
   8 S :   -0.087830
   9 C :   -0.357809
  10 S :   -0.061420
  11 P :    0.598480
  12 S :   -0.318672
  13 O :   -0.371600
  14 C :   -0.007457
  15 C :   -0.325069
  16 O :   -0.361850
  17 C :   -0.004737
  18 C :   -0.326462
  19 H :    0.113579
  20 H :    0.113364
  21 H :    0.170182
  22 H :    0.108533
  23 H :    0.106564
  24 H :    0.109598
  25 H :    0.113867
  26 H :    0.119159
  27 H :    0.113079
  28 H :    0.121143
  29 H :    0.188850
  30 H :    0.191174
  31 H :    0.117530
  32 H :    0.107798
  33 H :    0.132106
  34 H :    0.116156
  35 H :    0.121137
  36 H :    0.097834
  37 H :    0.110146
  38 H :    0.142016
  39 H :    0.103481
  40 H :    0.116287
Sum of atomic charges:   -0.0000000

LOEWDIN ATOMIC CHARGES
----------------------
   0 C :   -0.374780
   1 C :   -0.117560
   2 O :   -0.247917
   3 P :    0.562136
   4 S :   -0.288431
   5 O :   -0.243264
   6 C :   -0.111697
   7 C :   -0.362013
   8 S :    0.096921
   9 C :   -0.475252
  10 S :    0.083186
  11 P :    0.572455
  12 S :   -0.313189
  13 O :   -0.244182
  14 C :   -0.119886
  15 C :   -0.365542
  16 O :   -0.242472
  17 C :   -0.118390
  18 C :   -0.376907
  19 H :    0.131048
  20 H :    0.125049
  21 H :    0.128174
  22 H :    0.108830
  23 H :    0.118986
  24 H :    0.111539
  25 H :    0.123442
  26 H :    0.118529
  27 H :    0.131645
  28 H :    0.128443
  29 H :    0.135857
  30 H :    0.129234
  31 H :    0.111244
  32 H :    0.119606
  33 H :    0.126318
  34 H :    0.133795
  35 H :    0.119765
  36 H :    0.113073
  37 H :    0.107911
  38 H :    0.118615
  39 H :    0.127625
  40 H :    0.118057

  Mayer bond orders larger than 0.100000
B(  0-C ,  1-C ) :   1.1676 B(  0-C , 19-H ) :   0.9376 B(  0-C , 20-H ) :   0.9446
B(  0-C , 21-H ) :   0.9162 B(  1-C ,  2-O ) :   0.9063 B(  1-C , 22-H ) :   0.9088
B(  1-C , 23-H ) :   0.9340 B(  2-O ,  3-P ) :   1.0864 B(  3-P ,  4-S ) :   1.6697
B(  3-P ,  5-O ) :   1.1178 B(  3-P ,  8-S ) :   0.9496 B(  4-S ,  8-S ) :   0.1121
B(  5-O ,  6-C ) :   0.8921 B(  6-C ,  7-C ) :   1.1660 B(  6-C , 24-H ) :   0.9179
B(  6-C , 25-H ) :   0.9346 B(  7-C , 26-H ) :   0.9357 B(  7-C , 27-H ) :   0.9396
B(  7-C , 28-H ) :   0.9453 B(  8-S ,  9-C ) :   1.0007 B(  9-C , 10-S ) :   0.9880
B(  9-C , 29-H ) :   0.8932 B(  9-C , 30-H ) :   0.8931 B( 10-S , 11-P ) :   0.9874
B( 11-P , 12-S ) :   1.6210 B( 11-P , 13-O ) :   1.0843 B( 11-P , 16-O ) :   1.0901
B( 13-O , 14-C ) :   0.9090 B( 14-C , 15-C ) :   1.1615 B( 14-C , 31-H ) :   0.9092
B( 14-C , 32-H ) :   0.9331 B( 15-C , 33-H ) :   0.9373 B( 15-C , 34-H ) :   0.9370
B( 15-C , 35-H ) :   0.9349 B( 16-O , 17-C ) :   0.9039 B( 17-C , 18-C ) :   1.1647
B( 17-C , 36-H ) :   0.9284 B( 17-C , 37-H ) :   0.9178 B( 18-C , 38-H ) :   0.9211
B( 18-C , 39-H ) :   0.9371 B( 18-C , 40-H ) :   0.9345

Dispersion correction           -0.067301061
FINAL SINGLE POINT ENERGY     -2929.515456186192

DIPOLE MOMENT
-------------

Method             : SCF
Type of density    : Electron Density
Multiplicity       :   1
Irrep              :   0
Energy             : -2929.6339409844349575 Eh
Relativity type    :
Basis              : AO
                                X                 Y                 Z
Electronic contribution:     -3.800790711       7.914137621      -8.034177831
Nuclear contribution   :      4.836429145      -8.961339080       9.643945480
                        -----------------------------------------
Total Dipole Moment    :      1.035638433      -1.047201459       1.609767648
                        -----------------------------------------
Magnitude (a.u.)       :      2.181863823
Magnitude (Debye)      :      5.545857101

Rotational constants in cm-1:             0.011473             0.005776             0.004876
Rotational constants in MHz :           343.950380           173.172890           146.167189

                             ****ORCA TERMINATED NORMALLY****
TOTAL RUN TIME: 0 days 0 hours 0 minutes 22 seconds 8 msec
