                         Program Version 6.0.1  -  RELEASE   -
|  1> ! pbe def2-sv(p) def2/J RI DEFGRID1 loosescf d4 GCP(DFT/SV(P)) printgap
|  2> %output
|  3>     printlevel normal
|  4> end
|  5> * xyz 0 1
|  6> C 5.4259495068 -2.0172967063 -0.4400993694
|  7> C 4.2778028644 -2.3879304492 0.4850452833
|  8> O 3.0149202155 -2.3102740408 -0.2076508461
|  9> C 2.3942612292 -1.1542515654 -0.2582742705
| 10> O 2.8001128834 -0.1258565821 0.2475354378
| 11> C 1.0788158001 -1.2525602639 -0.9951593573
| 12> C 0.5777977755 0.1427094249 -1.342657077
| 13> H 1.0722036557 0.5486946389 -2.2260578784
| 14> C 0.7389683119 1.1138815021 -0.1896647551
| 15> O 0.2018884046 0.9317139796 0.8871004431
| 16> O 1.3890951342 2.1915998088 -0.5381761744
| 17> C 1.5233829897 3.250248666 0.4330661376
| 18> C 0.3203816334 4.1782656125 0.3740782612
| 19> S -1.2087580425 0.1654489501 -1.723232192
| 20> P -2.1152031357 -0.1529149478 0.1562467248
| 21> S -1.5401208428 -1.5852961715 1.3795042459
| 22> O -2.3888800407 1.3064919974 0.7322230998
| 23> C -2.4993990335 1.5487540009 2.142280992
| 24> O -3.6072880618 -0.4371291524 -0.3662348721
| 25> C -3.9854148324 -1.6990445532 -0.9244370152
| 26> H 5.3389468332 -0.9772302098 -0.7461021872
| 27> H 6.3657725767 -2.1525907003 0.0847732323
| 28> H 5.4133422908 -2.6503345021 -1.3228196252
| 29> H 4.2429508679 -1.7203878221 1.3506404762
| 30> H 4.3444340073 -3.4266403306 0.8084799975
| 31> H 0.3836556189 -1.7507839349 -0.3088838864
| 32> H 1.1802832481 -1.8746233879 -1.8825967222
| 33> H 1.6292255226 2.7982077284 1.4228344889
| 34> H 2.4425372289 3.7627268346 0.1505010992
| 35> H -0.5889756393 3.6245131005 0.5997284381
| 36> H 0.44208873 4.9718501541 1.1036086609
| 37> H 0.2298470622 4.6104699599 -0.618552851
| 38> H -1.5722011089 1.2582837787 2.6375336039
| 39> H -3.3351205028 0.9876416856 2.5587723369
| 40> H -2.6690885555 2.6182095976 2.2385714333
| 41> H -3.5813602399 -2.5113417042 -0.3169859957
| 42> H -3.6171864924 -1.7774898904 -1.9467464008
| 43> H -5.072096506 -1.7151130686 -0.9060781754
| 44> *
| 45>
| 46>                          ****END OF INPUT****

CARTESIAN COORDINATES (ANGSTROEM)
---------------------------------
  C      5.425950   -2.017297   -0.440099
  C      4.277803   -2.387930    0.485045
  O      3.014920   -2.310274   -0.207651
  C      2.394261   -1.154252   -0.258274
  O      2.800113   -0.125857    0.247535
  C      1.078816   -1.252560   -0.995159
  C      0.577798    0.142709   -1.342657
  H      1.072204    0.548695   -2.226058
  C      0.738968    1.113882   -0.189665
  O      0.201888    0.931714    0.887100
  O      1.389095    2.191600   -0.538176
  C      1.523383    3.250249    0.433066
  C      0.320382    4.178266    0.374078
  S     -1.208758    0.165449   -1.723232
  P     -2.115203   -0.152915    0.156247
  S     -1.540121   -1.585296    1.379504
  O     -2.388880    1.306492    0.732223
  C     -2.499399    1.548754    2.142281
  O     -3.607288   -0.437129   -0.366235
  C     -3.985415   -1.699045   -0.924437
  H      5.338947   -0.977230   -0.746102
  H      6.365773   -2.152591    0.084773
  H      5.413342   -2.650335   -1.322820
  H      4.242951   -1.720388    1.350640
  H      4.344434   -3.426640    0.808480
  H      0.383656   -1.750784   -0.308884
  H      1.180283   -1.874623   -1.882597
  H      1.629226    2.798208    1.422834
  H      2.442537    3.762727    0.150501
  H     -0.588976    3.624513    0.599728
  H      0.442089    4.971850    1.103609
  H      0.229847    4.610470   -0.618553
  H     -1.572201    1.258284    2.637534
  H     -3.335121    0.987642    2.558772
  H     -2.669089    2.618210    2.238571
  H     -3.581360   -2.511342   -0.316986
  H     -3.617186   -1.777490   -1.946746
  H     -5.072097   -1.715113   -0.906078

 Total Charge           Charge          ....    0
 Multiplicity           Mult            ....    1
 Number of Electrons    NEL             ....  174
 Basis Dimension        Dim             ....  316

ORBITAL ENERGIES
----------------

  NO   OCC          E(Eh)            E(eV)
   0   2.0000     -88.040551     -2395.7052
   1   2.0000     -87.972440     -2393.8518
   2   2.0000     -76.419367     -2079.4767
   3   2.0000     -18.808106      -511.7946
   4   2.0000     -18.802740      -511.6486
   5   2.0000     -18.780894      -511.0541
   6   2.0000     -18.778073      -510.9773
   7   2.0000     -18.747511      -510.1457
   8   2.0000     -18.734009      -509.7783
   9   2.0000     -10.016124      -272.5526
  10   2.0000     -10.014645      -272.5123
  11   2.0000      -9.952409      -270.8188
  12   2.0000      -9.945788      -270.6387
  13   2.0000      -9.945693      -270.6361
  14   2.0000      -9.933750      -270.3111
  15   2.0000      -9.933167      -270.2952
  16   2.0000      -9.905855      -269.5520
  17   2.0000      -9.891646      -269.1654
  18   2.0000      -9.884720      -268.9769
  19   2.0000      -7.685521      -209.1337
  20   2.0000      -7.617536      -207.2837
  21   2.0000      -6.415545      -174.5758
  22   2.0000      -5.713483      -155.4718
  23   2.0000      -5.709979      -155.3764
  24   2.0000      -5.702446      -155.1714
  25   2.0000      -5.646653      -153.6532
  26   2.0000      -5.638480      -153.4309
  27   2.0000      -5.637137      -153.3943
  28   2.0000      -4.637933      -126.2046
  29   2.0000      -4.637445      -126.1913
  30   2.0000      -4.636340      -126.1612
  31   2.0000      -1.018242       -27.7078
  32   2.0000      -1.011874       -27.5345
  33   2.0000      -0.972610       -26.4661
  34   2.0000      -0.930091       -25.3091
  35   2.0000      -0.924585       -25.1592
  36   2.0000      -0.914687       -24.8899
  37   2.0000      -0.763138       -20.7660
  38   2.0000      -0.715775       -19.4772
  39   2.0000      -0.703206       -19.1352
  40   2.0000      -0.687223       -18.7003
  41   2.0000      -0.655804       -17.8453
  42   2.0000      -0.623603       -16.9691
  43   2.0000      -0.618099       -16.8193
  44   2.0000      -0.613327       -16.6895
  45   2.0000      -0.599683       -16.3182
  46   2.0000      -0.559957       -15.2372
  47   2.0000      -0.507290       -13.8041
  48   2.0000      -0.503647       -13.7049
  49   2.0000      -0.493470       -13.4280
  50   2.0000      -0.480074       -13.0635
  51   2.0000      -0.460986       -12.5441
  52   2.0000      -0.456883       -12.4324
  53   2.0000      -0.442491       -12.0408
  54   2.0000      -0.435960       -11.8631
  55   2.0000      -0.426991       -11.6190
  56   2.0000      -0.425776       -11.5860
  57   2.0000      -0.419986       -11.4284
  58   2.0000      -0.414746       -11.2858
  59   2.0000      -0.404033       -10.9943
  60   2.0000      -0.398529       -10.8445
  61   2.0000      -0.397583       -10.8188
  62   2.0000      -0.387588       -10.5468
  63   2.0000      -0.382189       -10.3999
  64   2.0000      -0.373162       -10.1542
  65   2.0000      -0.368940       -10.0394
  66   2.0000      -0.359851        -9.7921
  67   2.0000      -0.353096        -9.6082
  68   2.0000      -0.349922        -9.5219
  69   2.0000      -0.337467        -9.1830
  70   2.0000      -0.333163        -9.0658
  71   2.0000      -0.327529        -8.9125
  72   2.0000      -0.324596        -8.8327
  73   2.0000      -0.304211        -8.2780
  74   2.0000      -0.296985        -8.0814
  75   2.0000      -0.294797        -8.0218
  76   2.0000      -0.290377        -7.9016
  77   2.0000      -0.279715        -7.6114
  78   2.0000      -0.271161        -7.3787
  79   2.0000      -0.265457        -7.2235
  80   2.0000      -0.252913        -6.8821
  81   2.0000      -0.246304        -6.7023
  82   2.0000      -0.237418        -6.4605
  83   2.0000      -0.232990        -6.3400
  84   2.0000      -0.221325        -6.0226
  85   2.0000      -0.192514        -5.2386
  86   2.0000      -0.181355        -4.9349
  87   0.0000      -0.047614        -1.2956
  88   0.0000      -0.027237        -0.7412
  89   0.0000      -0.014263        -0.3881
  90   0.0000       0.016299         0.4435
  91   0.0000       0.033628         0.9151

MULLIKEN ATOMIC CHARGES
-----------------------
   0 C :   -0.306310
   1 C :   -0.012989
   2 O :   -0.223810
   3 C :    0.133352
   4 O :   -0.211055
   5 C :   -0.066256
   6 C :   -0.298712
   7 H :    0.127552
   8 C :    0.207832
   9 O :   -0.210981
  10 O :   -0.212896
  11 C :   -0.009137
  12 C :   -0.317285
  13 S :   -0.078337
  14 P :    0.615771
  15 S :   -0.328854
  16 O :   -0.374063
  17 C :   -0.097260
  18 O :   -0.379592
  19 C :   -0.099824
  20 H :    0.126167
  21 H :    0.115597
  22 H :    0.115603
  23 H :    0.114056
  24 H :    0.107987
  25 H :    0.146541
  26 H :    0.116117
  27 H :    0.114685
  28 H :    0.103864
  29 H :    0.138866
  30 H :    0.110559
  31 H :    0.114228
  32 H :    0.137790
  33 H :    0.118202
  34 H :    0.118963
  35 H :    0.113496
  36 H :    0.109247
  37 H :    0.120885
Sum of atomic charges:   -0.0000000

LOEWDIN ATOMIC CHARGES
----------------------
   0 C :   -0.356050
   1 C :   -0.108460
   2 O :   -0.051722
   3 C :    0.046862
   4 O :   -0.156730
   5 C :   -0.264943
   6 C :   -0.257159
   7 H :    0.139936
   8 C :    0.011135
   9 O :   -0.174032
  10 O :   -0.039228
  11 C :   -0.105185
  12 C :   -0.358095
  13 S :    0.119667
  14 P :    0.584050
  15 S :   -0.317308
  16 O :   -0.246531
  17 C :   -0.209499
  18 O :   -0.263735
  19 C :   -0.220669
  20 H :    0.129968
  21 H :    0.131967
  22 H :    0.125563
  23 H :    0.122442
  24 H :    0.120551
  25 H :    0.143545
  26 H :    0.142036
  27 H :    0.123234
  28 H :    0.118970
  29 H :    0.132173
  30 H :    0.129322
  31 H :    0.125695
  32 H :    0.119295
  33 H :    0.112066
  34 H :    0.117258
  35 H :    0.106443
  36 H :    0.106965
  37 H :    0.120205

  Mayer bond orders larger than 0.100000
B(  0-C ,  1-C ) :   1.1736 B(  0-C , 20-H ) :   0.9467 B(  0-C , 21-H ) :   0.9441
B(  0-C , 22-H ) :   0.9485 B(  1-C ,  2-O ) :   0.9098 B(  1-C , 23-H ) :   0.9156
B(  1-C , 24-H ) :   0.9369 B(  2-O ,  3-C ) :   1.2548 B(  3-C ,  4-O ) :   1.9627
B(  3-C ,  5-C ) :   1.0168 B(  4-O ,  8-C ) :   0.1161 B(  5-C ,  6-C ) :   1.0072
B(  5-C , 25-H ) :   0.8282 B(  5-C , 26-H ) :   0.9014 B(  6-C ,  7-H ) :   0.8832
B(  6-C ,  8-C ) :   0.8991 B(  6-C , 13-S ) :   1.0120 B(  8-C ,  9-O ) :   1.9249
B(  8-C , 10-O ) :   1.2724 B(  9-O , 14-P ) :   0.1002 B( 10-O , 11-C ) :   0.9091
B( 11-C , 12-C ) :   1.1714 B( 11-C , 27-H ) :   0.9149 B( 11-C , 28-H ) :   0.9378
B( 12-C , 29-H ) :   0.9375 B( 12-C , 30-H ) :   0.9437 B( 12-C , 31-H ) :   0.9473
B( 13-S , 14-P ) :   0.9668 B( 13-S , 15-S ) :   0.1182 B( 14-P , 15-S ) :   1.5758
B( 14-P , 16-O ) :   1.1090 B( 14-P , 18-O ) :   1.0799 B( 15-S , 25-H ) :   0.1096
B( 16-O , 17-C ) :   0.9140 B( 17-C , 32-H ) :   0.9394 B( 17-C , 33-H ) :   0.9512
B( 17-C , 34-H ) :   0.9541 B( 18-O , 19-C ) :   0.9385 B( 19-C , 35-H ) :   0.9277
B( 19-C , 36-H ) :   0.9497 B( 19-C , 37-H ) :   0.9596

Dispersion correction           -0.052005211
FINAL SINGLE POINT ENERGY     -1979.014683517088

DIPOLE MOMENT
-------------

Method             : SCF
Type of density    : Electron Density
Multiplicity       :   1
Irrep              :   0
Energy             : -1979.1464611410738144 Eh
Relativity type    :
Basis              : AO
                                X                 Y                 Z
Electronic contribution:    -12.938367792      -4.301204636      -2.836893002
Nuclear contribution   :     13.857575870       4.538948280       2.396402421
                        -----------------------------------------
Total Dipole Moment    :      0.919208078       0.237743644      -0.440490580
                        -----------------------------------------
Magnitude (a.u.)       :      1.046660156
Magnitude (Debye)      :      2.660398692

Rotational constants in cm-1:             0.013156             0.006957             0.005526
Rotational constants in MHz :           394.393761           208.575163           165.651088

                             ****ORCA TERMINATED NORMALLY****
TOTAL RUN TIME: 0 days 0 hours 0 minutes 42 seconds 853 msec
