                         Program Version 6.0.0  -   RELEASE  -
|  1> ! r2scan-3c def2/J RI DEFGRID2 scfconv6 printgap
|  2> %output
|  3>     printlevel normal
|  4> end
|  5> * xyz 0 1
|  6> C -0.6651711849 -2.1761696119 -3.9909e-06
|  7> C 0.2171880088 -0.969358881 -1.883e-06
|  8> C 1.6024910685 -1.0831346234 4.9383e-06
|  9> C 2.4186466999 0.034276064 3.6989e-06
| 10> C 1.8601567606 1.3005976719 -9.755e-07
| 11> C 0.4832831116 1.444765129 -4.3979e-06
| 12> C -0.316006567 0.3159894886 -5.6536e-06
| 13> Cl -2.0497963355 0.5254318439 2.8667e-06
| 14> H -1.3089347543 -2.1712171932 0.8783273841
| 15> H -1.3090727053 -2.1711055968 -0.8782319331
| 16> H -0.0723281074 -3.0855676628 -0.0001051114
| 17> H 2.0426982258 -2.0686287485 2.1212e-06
| 18> H 3.4908571757 -0.0839071507 1.45644e-05
| 19> H 2.4883038431 2.1770851745 -2.19765e-05
| 20> H 0.0300210489 2.4233648622 1.25878e-05
| 21> *
| 22>
| 23>                          ****END OF INPUT****

CARTESIAN COORDINATES (ANGSTROEM)
---------------------------------
  C     -0.665171   -2.176170   -0.000004
  C      0.217188   -0.969359   -0.000002
  C      1.602491   -1.083135    0.000005
  C      2.418647    0.034276    0.000004
  C      1.860157    1.300598   -0.000001
  C      0.483283    1.444765   -0.000004
  C     -0.316007    0.315989   -0.000006
  Cl    -2.049796    0.525432    0.000003
  H     -1.308935   -2.171217    0.878327
  H     -1.309073   -2.171106   -0.878232
  H     -0.072328   -3.085568   -0.000105
  H      2.042698   -2.068629    0.000002
  H      3.490857   -0.083907    0.000015
  H      2.488304    2.177085   -0.000022
  H      0.030021    2.423365    0.000013

 Total Charge           Charge          ....    0
 Multiplicity           Mult            ....    1
 Number of Electrons    NEL             ....   66
 Basis Dimension        Dim             ....  195

ORBITAL ENERGIES
----------------

  NO   OCC          E(Eh)            E(eV)
   0   2.0000    -101.218024     -2754.2825
   1   2.0000     -10.097051      -274.7547
   2   2.0000     -10.057557      -273.6800
   3   2.0000     -10.046642      -273.3830
   4   2.0000     -10.043400      -273.2948
   5   2.0000     -10.043034      -273.2848
   6   2.0000     -10.041119      -273.2327
   7   2.0000     -10.033535      -273.0264
   8   2.0000      -9.373896      -255.0767
   9   2.0000      -7.119998      -193.7450
  10   2.0000      -7.110316      -193.4815
  11   2.0000      -7.109684      -193.4643
  12   2.0000      -0.863964       -23.5096
  13   2.0000      -0.804815       -21.9001
  14   2.0000      -0.753317       -20.4988
  15   2.0000      -0.707092       -19.2409
  16   2.0000      -0.662295       -18.0220
  17   2.0000      -0.584147       -15.8954
  18   2.0000      -0.560765       -15.2592
  19   2.0000      -0.487348       -13.2614
  20   2.0000      -0.452164       -12.3040
  21   2.0000      -0.432338       -11.7645
  22   2.0000      -0.406082       -11.0501
  23   2.0000      -0.402658       -10.9569
  24   2.0000      -0.390132       -10.6160
  25   2.0000      -0.366532        -9.9738
  26   2.0000      -0.354013        -9.6332
  27   2.0000      -0.330051        -8.9811
  28   2.0000      -0.326171        -8.8756
  29   2.0000      -0.311475        -8.4757
  30   2.0000      -0.283279        -7.7084
  31   2.0000      -0.241274        -6.5654
  32   2.0000      -0.226618        -6.1666
  33   0.0000      -0.041431        -1.1274
  34   0.0000      -0.037434        -1.0186
  35   0.0000       0.011281         0.3070
  36   0.0000       0.086436         2.3520
  37   0.0000       0.107763         2.9324

MULLIKEN ATOMIC CHARGES
-----------------------
   0 C :   -0.494880
   1 C :    0.104764
   2 C :   -0.193949
   3 C :   -0.154101
   4 C :   -0.133241
   5 C :   -0.209964
   6 C :    0.136662
   7 Cl:   -0.152314
   8 H :    0.170890
   9 H :    0.170885
  10 H :    0.147944
  11 H :    0.149245
  12 H :    0.147360
  13 H :    0.149854
  14 H :    0.160845
Sum of atomic charges:    0.0000000

LOEWDIN ATOMIC CHARGES
----------------------
   0 C :   -0.392247
   1 C :   -0.107575
   2 C :   -0.156072
   3 C :   -0.163580
   4 C :   -0.162715
   5 C :   -0.169945
   6 C :   -0.156735
   7 Cl:    0.122960
   8 H :    0.170313
   9 H :    0.170312
  10 H :    0.158808
  11 H :    0.170472
  12 H :    0.168656
  13 H :    0.169851
  14 H :    0.177497

  Mayer bond orders larger than 0.100000
B(  0-C ,  1-C ) :   0.8374 B(  0-C ,  8-H ) :   0.9676 B(  0-C ,  9-H ) :   0.9676
B(  0-C , 10-H ) :   0.9883 B(  1-C ,  2-C ) :   1.3895 B(  1-C ,  6-C ) :   1.4118
B(  2-C ,  3-C ) :   1.4423 B(  2-C , 11-H ) :   0.9376 B(  3-C ,  4-C ) :   1.4222
B(  3-C , 12-H ) :   0.9447 B(  4-C ,  5-C ) :   1.3893 B(  4-C , 13-H ) :   0.9489
B(  5-C ,  6-C ) :   1.3825 B(  5-C , 14-H ) :   0.9421 B(  6-C ,  7-Cl) :   0.9808

Dispersion correction           -0.005282824
FINAL SINGLE POINT ENERGY      -731.064653599163

DIPOLE MOMENT
-------------

Method             : SCF
Type of density    : Electron Density
Multiplicity       :   1
Irrep              :   0
Energy             :  -731.0649542175451643 Eh
Relativity type    :
Basis              : AO
                                X                 Y                 Z
Electronic contribution:     -7.244427814       5.142895205       0.000010245
Nuclear contribution   :      7.781257840      -5.377311690      -0.000006065
                        -----------------------------------------
Total Dipole Moment    :      0.536830026      -0.234416485       0.000004180
                        -----------------------------------------
Magnitude (a.u.)       :      0.585779451
Magnitude (Debye)      :      1.488933037

Rotational constants in cm-1:             0.096705             0.051199             0.033684
Rotational constants in MHz :          2899.136566          1534.892635          1009.807763

                             ****ORCA TERMINATED NORMALLY****
TOTAL RUN TIME: 0 days 0 hours 0 minutes 18 seconds 960 msec
