                         Program Version 6.0.0  -   RELEASE  -
|  1> ! r2scan-3c def2/J RI DEFGRID2 scfconv6 printgap
|  2> %output
|  3>     printlevel normal
|  4> end
|  5> %cpcm
|  6>     smd true
|  7>     smdsolvent "water"
|  8> end
|  9> * xyz 0 1
| 10> C -0.6651711849 -2.1761696119 -3.9909e-06
| 11> C 0.2171880088 -0.969358881 -1.883e-06
| 12> C 1.6024910685 -1.0831346234 4.9383e-06
| 13> C 2.4186466999 0.034276064 3.6989e-06
| 14> C 1.8601567606 1.3005976719 -9.755e-07
| 15> C 0.4832831116 1.444765129 -4.3979e-06
| 16> C -0.316006567 0.3159894886 -5.6536e-06
| 17> Cl -2.0497963355 0.5254318439 2.8667e-06
| 18> H -1.3089347543 -2.1712171932 0.8783273841
| 19> H -1.3090727053 -2.1711055968 -0.8782319331
| 20> H -0.0723281074 -3.0855676628 -0.0001051114
| 21> H 2.0426982258 -2.0686287485 2.1212e-06
| 22> H 3.4908571757 -0.0839071507 1.45644e-05
| 23> H 2.4883038431 2.1770851745 -2.19765e-05
| 24> H 0.0300210489 2.4233648622 1.25878e-05
| 25> *
| 26>
| 27>                          ****END OF INPUT****

CARTESIAN COORDINATES (ANGSTROEM)
---------------------------------
  C     -0.665171   -2.176170   -0.000004
  C      0.217188   -0.969359   -0.000002
  C      1.602491   -1.083135    0.000005
  C      2.418647    0.034276    0.000004
  C      1.860157    1.300598   -0.000001
  C      0.483283    1.444765   -0.000004
  C     -0.316007    0.315989   -0.000006
  Cl    -2.049796    0.525432    0.000003
  H     -1.308935   -2.171217    0.878327
  H     -1.309073   -2.171106   -0.878232
  H     -0.072328   -3.085568   -0.000105
  H      2.042698   -2.068629    0.000002
  H      3.490857   -0.083907    0.000015
  H      2.488304    2.177085   -0.000022
  H      0.030021    2.423365    0.000013

 Total Charge           Charge          ....    0
 Multiplicity           Mult            ....    1
 Number of Electrons    NEL             ....   66
 Basis Dimension        Dim             ....  195

ORBITAL ENERGIES
----------------

  NO   OCC          E(Eh)            E(eV)
   0   2.0000    -101.220878     -2754.3601
   1   2.0000     -10.095840      -274.7218
   2   2.0000     -10.054331      -273.5923
   3   2.0000     -10.042960      -273.2828
   4   2.0000     -10.037799      -273.1424
   5   2.0000     -10.036936      -273.1189
   6   2.0000     -10.035439      -273.0782
   7   2.0000     -10.023093      -272.7422
   8   2.0000      -9.376919      -255.1589
   9   2.0000      -7.122893      -193.8238
  10   2.0000      -7.113411      -193.5658
  11   2.0000      -7.112728      -193.5472
  12   2.0000      -0.863521       -23.4976
  13   2.0000      -0.804275       -21.8854
  14   2.0000      -0.748042       -20.3553
  15   2.0000      -0.704131       -19.1604
  16   2.0000      -0.655562       -17.8387
  17   2.0000      -0.579023       -15.7560
  18   2.0000      -0.555737       -15.1224
  19   2.0000      -0.481604       -13.1051
  20   2.0000      -0.447275       -12.1710
  21   2.0000      -0.426457       -11.6045
  22   2.0000      -0.400943       -10.9102
  23   2.0000      -0.397935       -10.8284
  24   2.0000      -0.382904       -10.4193
  25   2.0000      -0.356636        -9.7046
  26   2.0000      -0.351051        -9.5526
  27   2.0000      -0.323866        -8.8128
  28   2.0000      -0.319338        -8.6896
  29   2.0000      -0.313323        -8.5260
  30   2.0000      -0.285169        -7.7599
  31   2.0000      -0.239388        -6.5141
  32   2.0000      -0.226616        -6.1665
  33   0.0000      -0.039825        -1.0837
  34   0.0000      -0.035023        -0.9530
  35   0.0000       0.010922         0.2972
  36   0.0000       0.095858         2.6084
  37   0.0000       0.111336         3.0296

MULLIKEN ATOMIC CHARGES
-----------------------
   0 C :   -0.529088
   1 C :    0.099171
   2 C :   -0.221073
   3 C :   -0.184494
   4 C :   -0.174177
   5 C :   -0.232948
   6 C :    0.127328
   7 Cl:   -0.168290
   8 H :    0.183525
   9 H :    0.183516
  10 H :    0.174029
  11 H :    0.184644
  12 H :    0.181141
  13 H :    0.185177
  14 H :    0.191540
Sum of atomic charges:    0.0000000

LOEWDIN ATOMIC CHARGES
----------------------
   0 C :   -0.397072
   1 C :   -0.110329
   2 C :   -0.160948
   3 C :   -0.170103
   4 C :   -0.170441
   5 C :   -0.178039
   6 C :   -0.169414
   7 Cl:    0.108691
   8 H :    0.173638
   9 H :    0.173636
  10 H :    0.168343
  11 H :    0.183291
  12 H :    0.179943
  13 H :    0.181559
  14 H :    0.187244

  Mayer bond orders larger than 0.100000
B(  0-C ,  1-C ) :   0.8367 B(  0-C ,  8-H ) :   0.9658 B(  0-C ,  9-H ) :   0.9658
B(  0-C , 10-H ) :   0.9779 B(  1-C ,  2-C ) :   1.3739 B(  1-C ,  6-C ) :   1.3660
B(  2-C ,  3-C ) :   1.4081 B(  2-C , 11-H ) :   0.9480 B(  3-C ,  4-C ) :   1.3859
B(  3-C , 12-H ) :   0.9537 B(  4-C ,  5-C ) :   1.3751 B(  4-C , 13-H ) :   0.9540
B(  5-C ,  6-C ) :   1.3408 B(  5-C , 14-H ) :   0.9476 B(  6-C ,  7-Cl) :   0.9695

Dispersion correction           -0.005282824
FINAL SINGLE POINT ENERGY      -731.066200656264

DIPOLE MOMENT
-------------

Method             : SCF
Type of density    : Electron Density
Multiplicity       :   1
Irrep              :   0
Energy             :  -731.0665012746461571 Eh
Relativity type    :
Basis              : AO
                                X                 Y                 Z
Electronic contribution:     -7.034878799       5.040018092       0.000012880
Nuclear contribution   :      7.781257840      -5.377311690      -0.000006065
                        -----------------------------------------
Total Dipole Moment    :      0.746379041      -0.337293598       0.000006815
                        -----------------------------------------
Magnitude (a.u.)       :      0.819053506
Magnitude (Debye)      :      2.081868562

Rotational constants in cm-1:             0.096705             0.051199             0.033684
Rotational constants in MHz :          2899.136566          1534.892635          1009.807763

                             ****ORCA TERMINATED NORMALLY****
TOTAL RUN TIME: 0 days 0 hours 0 minutes 22 seconds 875 msec
