                         Program Version 6.0.0  -   RELEASE  -
|  1> ! pbe def2-sv(p) def2/J RI DEFGRID1 loosescf d4 GCP(DFT/SV(P)) printgap
|  2> %output
|  3>     printlevel normal
|  4> end
|  5> * xyz 0 1
|  6> C 3.8597050646 -1.9436668236 -2.4059272239
|  7> C 4.4858813791 -1.7019290425 -1.0482686148
|  8> O 3.5065558172 -1.3896110789 -0.0391513509
|  9> P 2.6215359063 -0.0695696233 -0.0731274928
| 10> S 3.5183701665 1.5676184032 -0.6497768369
| 11> O 2.1221365972 0.0215059534 1.4185062175
| 12> C 1.5349808612 -1.1008591155 2.1249433547
| 13> C 0.600724827 -0.5523074348 3.1830530936
| 14> S 0.9100511077 -0.6414265406 -1.21923399
| 15> C 0.2784211805 1.0353841282 -1.4540900138
| 16> S -0.4011012416 1.7427695793 0.0717848298
| 17> P -2.1787720831 0.5973986327 0.0600881496
| 18> S -3.0520787027 0.4233132726 -1.6903816215
| 19> O -2.8833597764 1.4196454427 1.2156514766
| 20> C -4.0446684382 0.9420625496 1.9305769871
| 21> C -5.3177209772 1.1285245261 1.1291151594
| 22> O -1.8382349005 -0.7953880085 0.75558811
| 23> C -1.9907221208 -2.0772560615 0.1181648985
| 24> C -3.3153143314 -2.7016207941 0.5091639675
| 25> H 4.6214592487 -2.2998098299 -3.0919952872
| 26> H 3.0650094951 -2.6817621305 -2.3321533891
| 27> H 3.4431575517 -1.0156846524 -2.7947848264
| 28> H 5.2033961613 -0.8775143447 -1.0969688976
| 29> H 4.9738043525 -2.5985882354 -0.6635175779
| 30> H 1.0037245439 -1.7284528829 1.4032380183
| 31> H 2.3533768325 -1.6729689301 2.565752683
| 32> H 0.1878688398 -1.3757609041 3.756767378
| 33> H 1.1431787549 0.1158941222 3.8456106064
| 34> H -0.2101009551 0.0043760213 2.7184795805
| 35> H -0.5037102071 0.9827382934 -2.2129161332
| 36> H 1.0960260545 1.6843746024 -1.7689610472
| 37> H -3.8912743447 -0.1086995155 2.1891304801
| 38> H -4.0557550656 1.54713044 2.8388952477
| 39> H -5.4406858884 2.1738511963 0.8580608199
| 40> H -5.2829924374 0.5395594869 0.2144364077
| 41> H -6.1671599909 0.8098281506 1.7250392856
| 42> H -1.9267394225 -1.9513078971 -0.9665793572
| 43> H -1.1461537248 -2.6733797899 0.4658436261
| 44> H -3.3842628385 -3.6920038564 0.071229817
| 45> H -3.3930314676 -2.7817583387 1.5899650254
| 46> H -4.1365712231 -2.0938346831 0.1341263131
| 47> *
| 48>
| 49>                          ****END OF INPUT****

CARTESIAN COORDINATES (ANGSTROEM)
---------------------------------
  C      3.859705   -1.943667   -2.405927
  C      4.485881   -1.701929   -1.048269
  O      3.506556   -1.389611   -0.039151
  P      2.621536   -0.069570   -0.073127
  S      3.518370    1.567618   -0.649777
  O      2.122137    0.021506    1.418506
  C      1.534981   -1.100859    2.124943
  C      0.600725   -0.552307    3.183053
  S      0.910051   -0.641427   -1.219234
  C      0.278421    1.035384   -1.454090
  S     -0.401101    1.742770    0.071785
  P     -2.178772    0.597399    0.060088
  S     -3.052079    0.423313   -1.690382
  O     -2.883360    1.419645    1.215651
  C     -4.044668    0.942063    1.930577
  C     -5.317721    1.128525    1.129115
  O     -1.838235   -0.795388    0.755588
  C     -1.990722   -2.077256    0.118165
  C     -3.315314   -2.701621    0.509164
  H      4.621459   -2.299810   -3.091995
  H      3.065009   -2.681762   -2.332153
  H      3.443158   -1.015685   -2.794785
  H      5.203396   -0.877514   -1.096969
  H      4.973804   -2.598588   -0.663518
  H      1.003725   -1.728453    1.403238
  H      2.353377   -1.672969    2.565753
  H      0.187869   -1.375761    3.756767
  H      1.143179    0.115894    3.845611
  H     -0.210101    0.004376    2.718480
  H     -0.503710    0.982738   -2.212916
  H      1.096026    1.684375   -1.768961
  H     -3.891274   -0.108700    2.189130
  H     -4.055755    1.547130    2.838895
  H     -5.440686    2.173851    0.858061
  H     -5.282992    0.539559    0.214436
  H     -6.167160    0.809828    1.725039
  H     -1.926739   -1.951308   -0.966579
  H     -1.146154   -2.673380    0.465844
  H     -3.384263   -3.692004    0.071230
  H     -3.393031   -2.781758    1.589965
  H     -4.136571   -2.093835    0.134126

 Total Charge           Charge          ....    0
 Multiplicity           Mult            ....    1
 Number of Electrons    NEL             ....  202
 Basis Dimension        Dim             ....  334

ORBITAL ENERGIES
----------------

  NO   OCC          E(Eh)            E(eV)
   0   2.0000     -88.042715     -2395.7641
   1   2.0000     -88.038833     -2395.6584
   2   2.0000     -87.992810     -2394.4061
   3   2.0000     -87.987330     -2394.2570
   4   2.0000     -76.430503     -2079.7797
   5   2.0000     -76.426866     -2079.6807
   6   2.0000     -18.799161      -511.5512
   7   2.0000     -18.798726      -511.5393
   8   2.0000     -18.796796      -511.4868
   9   2.0000     -18.790004      -511.3020
  10   2.0000      -9.962438      -271.0917
  11   2.0000      -9.956702      -270.9356
  12   2.0000      -9.956212      -270.9223
  13   2.0000      -9.954349      -270.8716
  14   2.0000      -9.949915      -270.7510
  15   2.0000      -9.892437      -269.1869
  16   2.0000      -9.887827      -269.0615
  17   2.0000      -9.886210      -269.0174
  18   2.0000      -9.882993      -268.9299
  19   2.0000      -7.687336      -209.1830
  20   2.0000      -7.684134      -209.0959
  21   2.0000      -7.637677      -207.8317
  22   2.0000      -7.632625      -207.6943
  23   2.0000      -6.428062      -174.9165
  24   2.0000      -6.424389      -174.8165
  25   2.0000      -5.714980      -155.5125
  26   2.0000      -5.712012      -155.4318
  27   2.0000      -5.711945      -155.4299
  28   2.0000      -5.708892      -155.3468
  29   2.0000      -5.704510      -155.2276
  30   2.0000      -5.700818      -155.1272
  31   2.0000      -5.666475      -154.1926
  32   2.0000      -5.661564      -154.0590
  33   2.0000      -5.658632      -153.9792
  34   2.0000      -5.657620      -153.9517
  35   2.0000      -5.653152      -153.8301
  36   2.0000      -5.652820      -153.8211
  37   2.0000      -4.650955      -126.5589
  38   2.0000      -4.649476      -126.5187
  39   2.0000      -4.648542      -126.4933
  40   2.0000      -4.647314      -126.4598
  41   2.0000      -4.646029      -126.4249
  42   2.0000      -4.644661      -126.3876
  43   2.0000      -0.992773       -27.0147
  44   2.0000      -0.989444       -26.9241
  45   2.0000      -0.950828       -25.8733
  46   2.0000      -0.945353       -25.7244
  47   2.0000      -0.764442       -20.8015
  48   2.0000      -0.726068       -19.7573
  49   2.0000      -0.712332       -19.3835
  50   2.0000      -0.694297       -18.8928
  51   2.0000      -0.690341       -18.7851
  52   2.0000      -0.676250       -18.4017
  53   2.0000      -0.653233       -17.7754
  54   2.0000      -0.638933       -17.3862
  55   2.0000      -0.601820       -16.3764
  56   2.0000      -0.592734       -16.1291
  57   2.0000      -0.583316       -15.8728
  58   2.0000      -0.570880       -15.5344
  59   2.0000      -0.558257       -15.1909
  60   2.0000      -0.508707       -13.8426
  61   2.0000      -0.502443       -13.6722
  62   2.0000      -0.483003       -13.1432
  63   2.0000      -0.475670       -12.9436
  64   2.0000      -0.462940       -12.5972
  65   2.0000      -0.448651       -12.2084
  66   2.0000      -0.442269       -12.0347
  67   2.0000      -0.439945       -11.9715
  68   2.0000      -0.432560       -11.7706
  69   2.0000      -0.418808       -11.3964
  70   2.0000      -0.412138       -11.2148
  71   2.0000      -0.399018       -10.8578
  72   2.0000      -0.391264       -10.6468
  73   2.0000      -0.384443       -10.4612
  74   2.0000      -0.380581       -10.3561
  75   2.0000      -0.375485       -10.2175
  76   2.0000      -0.365784        -9.9535
  77   2.0000      -0.363066        -9.8795
  78   2.0000      -0.357631        -9.7316
  79   2.0000      -0.356366        -9.6972
  80   2.0000      -0.353126        -9.6090
  81   2.0000      -0.346486        -9.4284
  82   2.0000      -0.344647        -9.3783
  83   2.0000      -0.340452        -9.2642
  84   2.0000      -0.337424        -9.1818
  85   2.0000      -0.324440        -8.8285
  86   2.0000      -0.310834        -8.4582
  87   2.0000      -0.302855        -8.2411
  88   2.0000      -0.299233        -8.1426
  89   2.0000      -0.297599        -8.0981
  90   2.0000      -0.296438        -8.0665
  91   2.0000      -0.283395        -7.7116
  92   2.0000      -0.273869        -7.4524
  93   2.0000      -0.266338        -7.2474
  94   2.0000      -0.259117        -7.0509
  95   2.0000      -0.234560        -6.3827
  96   2.0000      -0.219727        -5.9791
  97   2.0000      -0.214859        -5.8466
  98   2.0000      -0.206417        -5.6169
  99   2.0000      -0.202908        -5.5214
 100   2.0000      -0.200375        -5.4525
 101   0.0000      -0.046505        -1.2655
 102   0.0000      -0.024105        -0.6559
 103   0.0000      -0.002586        -0.0704
 104   0.0000      -0.000530        -0.0144
 105   0.0000       0.012991         0.3535

MULLIKEN ATOMIC CHARGES
-----------------------
   0 C :   -0.318663
   1 C :    0.000605
   2 O :   -0.385688
   3 P :    0.603528
   4 S :   -0.307874
   5 O :   -0.350887
   6 C :   -0.017588
   7 C :   -0.283377
   8 S :   -0.108088
   9 C :   -0.384308
  10 S :   -0.050409
  11 P :    0.638704
  12 S :   -0.325203
  13 O :   -0.376912
  14 C :   -0.018399
  15 C :   -0.310806
  16 O :   -0.382470
  17 C :   -0.018086
  18 C :   -0.296207
  19 H :    0.114846
  20 H :    0.116264
  21 H :    0.130669
  22 H :    0.114008
  23 H :    0.105066
  24 H :    0.105552
  25 H :    0.106094
  26 H :    0.100712
  27 H :    0.118134
  28 H :    0.129776
  29 H :    0.193298
  30 H :    0.195808
  31 H :    0.107972
  32 H :    0.112809
  33 H :    0.123616
  34 H :    0.135693
  35 H :    0.110084
  36 H :    0.112102
  37 H :    0.109709
  38 H :    0.114053
  39 H :    0.116461
  40 H :    0.119402
Sum of atomic charges:   -0.0000000

LOEWDIN ATOMIC CHARGES
----------------------
   0 C :   -0.371089
   1 C :   -0.114873
   2 O :   -0.250230
   3 P :    0.572136
   4 S :   -0.305347
   5 O :   -0.233736
   6 C :   -0.112790
   7 C :   -0.353999
   8 S :    0.072888
   9 C :   -0.492530
  10 S :    0.105497
  11 P :    0.572068
  12 S :   -0.310855
  13 O :   -0.243215
  14 C :   -0.111762
  15 C :   -0.365393
  16 O :   -0.242159
  17 C :   -0.126173
  18 C :   -0.360829
  19 H :    0.132017
  20 H :    0.122651
  21 H :    0.122723
  22 H :    0.114230
  23 H :    0.118787
  24 H :    0.101478
  25 H :    0.114845
  26 H :    0.126102
  27 H :    0.128803
  28 H :    0.122117
  29 H :    0.127647
  30 H :    0.129277
  31 H :    0.109501
  32 H :    0.122847
  33 H :    0.131324
  34 H :    0.122587
  35 H :    0.129762
  36 H :    0.105218
  37 H :    0.112084
  38 H :    0.132447
  39 H :    0.122518
  40 H :    0.123426

  Mayer bond orders larger than 0.100000
B(  0-C ,  1-C ) :   1.1664 B(  0-C , 19-H ) :   0.9366 B(  0-C , 20-H ) :   0.9437
B(  0-C , 21-H ) :   0.9344 B(  1-C ,  2-O ) :   0.9057 B(  1-C , 22-H ) :   0.9198
B(  1-C , 23-H ) :   0.9346 B(  2-O ,  3-P ) :   1.0877 B(  3-P ,  4-S ) :   1.6420
B(  3-P ,  5-O ) :   1.1447 B(  3-P ,  8-S ) :   0.9387 B(  4-S ,  8-S ) :   0.1073
B(  5-O ,  6-C ) :   0.8879 B(  6-C ,  7-C ) :   1.1687 B(  6-C , 24-H ) :   0.9062
B(  6-C , 25-H ) :   0.9317 B(  7-C , 26-H ) :   0.9404 B(  7-C , 27-H ) :   0.9471
B(  7-C , 28-H ) :   0.9367 B(  8-S ,  9-C ) :   0.9966 B(  9-C , 10-S ) :   1.0077
B(  9-C , 29-H ) :   0.8689 B(  9-C , 30-H ) :   0.8717 B( 10-S , 11-P ) :   0.9710
B( 10-S , 12-S ) :   0.1073 B( 11-P , 12-S ) :   1.6034 B( 11-P , 13-O ) :   1.1201
B( 11-P , 16-O ) :   1.0683 B( 13-O , 14-C ) :   0.9064 B( 14-C , 15-C ) :   1.1671
B( 14-C , 31-H ) :   0.9202 B( 14-C , 32-H ) :   0.9349 B( 15-C , 33-H ) :   0.9453
B( 15-C , 34-H ) :   0.9325 B( 15-C , 35-H ) :   0.9381 B( 16-O , 17-C ) :   0.9044
B( 17-C , 18-C ) :   1.1663 B( 17-C , 36-H ) :   0.9019 B( 17-C , 37-H ) :   0.9240
B( 18-C , 38-H ) :   0.9391 B( 18-C , 39-H ) :   0.9431 B( 18-C , 40-H ) :   0.9383

Dispersion correction           -0.065950592
FINAL SINGLE POINT ENERGY     -2929.524008695741

DIPOLE MOMENT
-------------

Method             : SCF
Type of density    : Electron Density
Multiplicity       :   1
Irrep              :   0
Energy             : -2929.6438124731344033 Eh
Relativity type    :
Basis              : AO
                                X                 Y                 Z
Electronic contribution:     11.512497573      17.133762264      -8.108671104
Nuclear contribution   :    -12.088241183     -19.048290509       9.026733022
                        -----------------------------------------
Total Dipole Moment    :     -0.575743610      -1.914528245       0.918061919
                        -----------------------------------------
Magnitude (a.u.)       :      2.199940179
Magnitude (Debye)      :      5.591803546

Rotational constants in cm-1:             0.013872             0.004594             0.004563
Rotational constants in MHz :           415.874920           137.730665           136.797240

                             ****ORCA TERMINATED NORMALLY****
TOTAL RUN TIME: 0 days 0 hours 0 minutes 21 seconds 732 msec
