                         Program Version 6.0.0  -   RELEASE  -
|  1> ! pbe def2-sv(p) def2/J RI DEFGRID1 loosescf d4 GCP(DFT/SV(P)) printgap
|  2> %output
|  3>     printlevel normal
|  4> end
|  5> * xyz 0 1
|  6> C 1.0541783707 -2.2537033072 1.7548940019
|  7> C 2.1322161031 -2.2269442956 0.6884404946
|  8> O 2.8389711406 -0.9755103823 0.7263832951
|  9> P 2.723811982 0.1436677575 -0.4014070553
| 10> S 2.9204122853 -0.5431549177 -2.2246781397
| 11> O 3.8903656094 1.1194790423 -0.0090179553
| 12> C 3.8786843384 2.0904438349 1.0677063397
| 13> C 3.5415000702 1.4756983072 2.4082347522
| 14> S 0.9374767537 1.263633819 -0.0352808444
| 15> C -0.0332858911 0.6795446866 -1.4393903252
| 16> S -0.8281262051 -0.9245559746 -1.1415035924
| 17> P -2.4131843934 -0.1593994582 0.0192445024
| 18> S -3.3144089916 1.4540459081 -0.6521667761
| 19> O -1.6847161758 -0.04125376 1.4197216377
| 20> C -2.2330319558 0.7309972815 2.5147864581
| 21> C -1.6024526643 2.1084396545 2.5606895702
| 22> O -3.3843208168 -1.3906744531 0.2790144374
| 23> C -4.4770534098 -1.7131825211 -0.5975404742
| 24> C -3.9937109435 -2.2286519998 -1.9378045934
| 25> H 0.5660412837 -3.2228401616 1.7406294563
| 26> H 1.4958072387 -2.0864242599 2.7331121281
| 27> H 0.3081695978 -1.4846039897 1.5692437746
| 28> H 1.7131097709 -2.3799619461 -0.3120237411
| 29> H 2.8896029772 -2.9908357383 0.8768710541
| 30> H 4.8934821623 2.4905210666 1.049608975
| 31> H 3.1644957517 2.8756850393 0.8072394619
| 32> H 3.6381675849 2.2330347838 3.1800519738
| 33> H 2.5187159801 1.1041665814 2.402045156
| 34> H 4.2149604425 0.650608744 2.6244107326
| 35> H 0.6248782576 0.5479517013 -2.2994993419
| 36> H -0.8022255398 1.4279664939 -1.633227379
| 37> H -3.3180996687 0.7991170509 2.400287254
| 38> H -1.9936295726 0.1499561239 3.4064860052
| 39> H -1.8688576501 2.6740580665 1.67045399
| 40> H -1.9615118568 2.6375503503 3.4373910289
| 41> H -0.5203315811 2.0243762766 2.6036996884
| 42> H -5.0371223026 -2.4729763109 -0.0508739175
| 43> H -5.0929282113 -0.8174646136 -0.728744346
| 44> H -3.2973307737 -3.0515786645 -1.7972218041
| 45> H -4.8430943479 -2.5697527823 -2.5209146229
| 46> H -3.4881663924 -1.432828636 -2.4837795765
| 47> *
| 48>
| 49>                          ****END OF INPUT****

CARTESIAN COORDINATES (ANGSTROEM)
---------------------------------
  C      1.054178   -2.253703    1.754894
  C      2.132216   -2.226944    0.688440
  O      2.838971   -0.975510    0.726383
  P      2.723812    0.143668   -0.401407
  S      2.920412   -0.543155   -2.224678
  O      3.890366    1.119479   -0.009018
  C      3.878684    2.090444    1.067706
  C      3.541500    1.475698    2.408235
  S      0.937477    1.263634   -0.035281
  C     -0.033286    0.679545   -1.439390
  S     -0.828126   -0.924556   -1.141504
  P     -2.413184   -0.159399    0.019245
  S     -3.314409    1.454046   -0.652167
  O     -1.684716   -0.041254    1.419722
  C     -2.233032    0.730997    2.514786
  C     -1.602453    2.108440    2.560690
  O     -3.384321   -1.390674    0.279014
  C     -4.477053   -1.713183   -0.597540
  C     -3.993711   -2.228652   -1.937805
  H      0.566041   -3.222840    1.740629
  H      1.495807   -2.086424    2.733112
  H      0.308170   -1.484604    1.569244
  H      1.713110   -2.379962   -0.312024
  H      2.889603   -2.990836    0.876871
  H      4.893482    2.490521    1.049609
  H      3.164496    2.875685    0.807239
  H      3.638168    2.233035    3.180052
  H      2.518716    1.104167    2.402045
  H      4.214960    0.650609    2.624411
  H      0.624878    0.547952   -2.299499
  H     -0.802226    1.427966   -1.633227
  H     -3.318100    0.799117    2.400287
  H     -1.993630    0.149956    3.406486
  H     -1.868858    2.674058    1.670454
  H     -1.961512    2.637550    3.437391
  H     -0.520332    2.024376    2.603700
  H     -5.037122   -2.472976   -0.050874
  H     -5.092928   -0.817465   -0.728744
  H     -3.297331   -3.051579   -1.797222
  H     -4.843094   -2.569753   -2.520915
  H     -3.488166   -1.432829   -2.483780

 Total Charge           Charge          ....    0
 Multiplicity           Mult            ....    1
 Number of Electrons    NEL             ....  202
 Basis Dimension        Dim             ....  334

ORBITAL ENERGIES
----------------

  NO   OCC          E(Eh)            E(eV)
   0   2.0000     -88.048130     -2395.9114
   1   2.0000     -88.043983     -2395.7986
   2   2.0000     -87.994578     -2394.4542
   3   2.0000     -87.984478     -2394.1794
   4   2.0000     -76.432382     -2079.8308
   5   2.0000     -76.426617     -2079.6740
   6   2.0000     -18.799017      -511.5473
   7   2.0000     -18.796315      -511.4737
   8   2.0000     -18.794747      -511.4311
   9   2.0000     -18.787655      -511.2381
  10   2.0000      -9.961869      -271.0762
  11   2.0000      -9.958719      -270.9905
  12   2.0000      -9.956711      -270.9359
  13   2.0000      -9.953915      -270.8598
  14   2.0000      -9.946751      -270.6649
  15   2.0000      -9.892878      -269.1989
  16   2.0000      -9.887819      -269.0612
  17   2.0000      -9.884670      -268.9755
  18   2.0000      -9.876702      -268.7587
  19   2.0000      -7.693115      -209.3403
  20   2.0000      -7.688755      -209.2217
  21   2.0000      -7.639421      -207.8792
  22   2.0000      -7.629719      -207.6152
  23   2.0000      -6.430123      -174.9726
  24   2.0000      -6.424061      -174.8076
  25   2.0000      -5.720878      -155.6730
  26   2.0000      -5.717806      -155.5894
  27   2.0000      -5.716564      -155.5556
  28   2.0000      -5.713213      -155.4644
  29   2.0000      -5.710004      -155.3771
  30   2.0000      -5.705895      -155.2653
  31   2.0000      -5.668216      -154.2400
  32   2.0000      -5.660165      -154.0209
  33   2.0000      -5.659617      -154.0060
  34   2.0000      -5.658728      -153.9818
  35   2.0000      -5.650361      -153.7541
  36   2.0000      -5.649714      -153.7365
  37   2.0000      -4.652689      -126.6061
  38   2.0000      -4.651804      -126.5820
  39   2.0000      -4.650626      -126.5500
  40   2.0000      -4.646753      -126.4446
  41   2.0000      -4.645818      -126.4191
  42   2.0000      -4.644428      -126.3813
  43   2.0000      -0.993091       -27.0234
  44   2.0000      -0.986935       -26.8559
  45   2.0000      -0.951513       -25.8920
  46   2.0000      -0.944060       -25.6892
  47   2.0000      -0.767206       -20.8767
  48   2.0000      -0.725212       -19.7340
  49   2.0000      -0.714094       -19.4315
  50   2.0000      -0.691524       -18.8173
  51   2.0000      -0.689222       -18.7547
  52   2.0000      -0.678330       -18.4583
  53   2.0000      -0.652554       -17.7569
  54   2.0000      -0.639558       -17.4033
  55   2.0000      -0.603879       -16.4324
  56   2.0000      -0.596817       -16.2402
  57   2.0000      -0.579156       -15.7596
  58   2.0000      -0.571501       -15.5513
  59   2.0000      -0.560013       -15.2387
  60   2.0000      -0.506204       -13.7745
  61   2.0000      -0.497773       -13.5451
  62   2.0000      -0.477788       -13.0013
  63   2.0000      -0.475228       -12.9316
  64   2.0000      -0.464867       -12.6497
  65   2.0000      -0.448285       -12.1984
  66   2.0000      -0.445113       -12.1122
  67   2.0000      -0.438726       -11.9384
  68   2.0000      -0.430926       -11.7261
  69   2.0000      -0.421883       -11.4800
  70   2.0000      -0.407405       -11.0860
  71   2.0000      -0.402460       -10.9515
  72   2.0000      -0.398358       -10.8399
  73   2.0000      -0.384909       -10.4739
  74   2.0000      -0.383845       -10.4450
  75   2.0000      -0.379803       -10.3350
  76   2.0000      -0.366300        -9.9675
  77   2.0000      -0.360285        -9.8038
  78   2.0000      -0.357853        -9.7377
  79   2.0000      -0.354619        -9.6497
  80   2.0000      -0.353273        -9.6130
  81   2.0000      -0.348108        -9.4725
  82   2.0000      -0.344683        -9.3793
  83   2.0000      -0.340931        -9.2772
  84   2.0000      -0.330154        -8.9840
  85   2.0000      -0.321607        -8.7514
  86   2.0000      -0.313932        -8.5425
  87   2.0000      -0.301330        -8.1996
  88   2.0000      -0.293742        -7.9931
  89   2.0000      -0.292761        -7.9664
  90   2.0000      -0.288188        -7.8420
  91   2.0000      -0.283471        -7.7136
  92   2.0000      -0.276992        -7.5373
  93   2.0000      -0.269522        -7.3341
  94   2.0000      -0.256814        -6.9883
  95   2.0000      -0.237790        -6.4706
  96   2.0000      -0.221688        -6.0324
  97   2.0000      -0.215391        -5.8611
  98   2.0000      -0.207054        -5.6342
  99   2.0000      -0.204478        -5.5641
 100   2.0000      -0.199144        -5.4190
 101   0.0000      -0.047802        -1.3008
 102   0.0000      -0.031281        -0.8512
 103   0.0000      -0.011829        -0.3219
 104   0.0000      -0.001704        -0.0464
 105   0.0000       0.010375         0.2823

MULLIKEN ATOMIC CHARGES
-----------------------
   0 C :   -0.319518
   1 C :   -0.005081
   2 O :   -0.373210
   3 P :    0.599621
   4 S :   -0.308782
   5 O :   -0.359257
   6 C :   -0.008840
   7 C :   -0.323246
   8 S :   -0.117473
   9 C :   -0.358934
  10 S :   -0.069600
  11 P :    0.608218
  12 S :   -0.331887
  13 O :   -0.358473
  14 C :    0.002655
  15 C :   -0.302796
  16 O :   -0.370875
  17 C :   -0.004994
  18 C :   -0.320176
  19 H :    0.104471
  20 H :    0.104662
  21 H :    0.148492
  22 H :    0.104482
  23 H :    0.104236
  24 H :    0.115844
  25 H :    0.117191
  26 H :    0.115709
  27 H :    0.134291
  28 H :    0.127577
  29 H :    0.199462
  30 H :    0.190079
  31 H :    0.104556
  32 H :    0.108645
  33 H :    0.124991
  34 H :    0.108660
  35 H :    0.124208
  36 H :    0.106843
  37 H :    0.112624
  38 H :    0.119285
  39 H :    0.116138
  40 H :    0.130199
Sum of atomic charges:   -0.0000000

LOEWDIN ATOMIC CHARGES
----------------------
   0 C :   -0.369236
   1 C :   -0.118308
   2 O :   -0.245419
   3 P :    0.569832
   4 S :   -0.304953
   5 O :   -0.233588
   6 C :   -0.112042
   7 C :   -0.368170
   8 S :    0.073492
   9 C :   -0.488225
  10 S :    0.107763
  11 P :    0.573077
  12 S :   -0.322042
  13 O :   -0.236442
  14 C :   -0.110470
  15 C :   -0.364617
  16 O :   -0.243857
  17 C :   -0.119558
  18 C :   -0.369302
  19 H :    0.128094
  20 H :    0.120834
  21 H :    0.119621
  22 H :    0.101147
  23 H :    0.117242
  24 H :    0.125337
  25 H :    0.111373
  26 H :    0.132291
  27 H :    0.119363
  28 H :    0.131635
  29 H :    0.129777
  30 H :    0.128523
  31 H :    0.110663
  32 H :    0.119850
  33 H :    0.124275
  34 H :    0.128875
  35 H :    0.122052
  36 H :    0.119462
  37 H :    0.110994
  38 H :    0.125288
  39 H :    0.132709
  40 H :    0.122659

  Mayer bond orders larger than 0.100000
B(  0-C ,  1-C ) :   1.1646 B(  0-C , 19-H ) :   0.9408 B(  0-C , 20-H ) :   0.9455
B(  0-C , 21-H ) :   0.9206 B(  1-C ,  2-O ) :   0.9038 B(  1-C , 22-H ) :   0.9021
B(  1-C , 23-H ) :   0.9349 B(  2-O ,  3-P ) :   1.0910 B(  3-P ,  4-S ) :   1.6399
B(  3-P ,  5-O ) :   1.1541 B(  3-P ,  8-S ) :   0.9290 B(  4-S ,  8-S ) :   0.1112
B(  4-S , 29-H ) :   0.1010 B(  5-O ,  6-C ) :   0.9013 B(  6-C ,  7-C ) :   1.1682
B(  6-C , 24-H ) :   0.9340 B(  6-C , 25-H ) :   0.9219 B(  7-C , 26-H ) :   0.9345
B(  7-C , 27-H ) :   0.9343 B(  7-C , 28-H ) :   0.9416 B(  8-S ,  9-C ) :   1.0204
B(  9-C , 10-S ) :   0.9995 B(  9-C , 29-H ) :   0.8589 B(  9-C , 30-H ) :   0.8672
B( 10-S , 11-P ) :   0.9666 B( 10-S , 12-S ) :   0.1068 B( 11-P , 12-S ) :   1.5856
B( 11-P , 13-O ) :   1.1219 B( 11-P , 16-O ) :   1.1177 B( 13-O , 14-C ) :   0.8842
B( 14-C , 15-C ) :   1.1715 B( 14-C , 31-H ) :   0.9156 B( 14-C , 32-H ) :   0.9336
B( 15-C , 33-H ) :   0.9361 B( 15-C , 34-H ) :   0.9387 B( 15-C , 35-H ) :   0.9421
B( 16-O , 17-C ) :   0.9067 B( 17-C , 18-C ) :   1.1643 B( 17-C , 36-H ) :   0.9334
B( 17-C , 37-H ) :   0.9153 B( 18-C , 38-H ) :   0.9452 B( 18-C , 39-H ) :   0.9380
B( 18-C , 40-H ) :   0.9352

Dispersion correction           -0.065689554
FINAL SINGLE POINT ENERGY     -2929.521224941778

DIPOLE MOMENT
-------------

Method             : SCF
Type of density    : Electron Density
Multiplicity       :   1
Irrep              :   0
Energy             : -2929.6411698675647131 Eh
Relativity type    :
Basis              : AO
                                X                 Y                 Z
Electronic contribution:      5.416755295       2.556122926     -16.324002386
Nuclear contribution   :     -6.057505919      -2.756528753      18.015177672
                        -----------------------------------------
Total Dipole Moment    :     -0.640750624      -0.200405826       1.691175287
                        -----------------------------------------
Magnitude (a.u.)       :      1.819559756
Magnitude (Debye)      :      4.624953350

Rotational constants in cm-1:             0.012321             0.005042             0.004529
Rotational constants in MHz :           369.383302           151.157965           135.762303

                             ****ORCA TERMINATED NORMALLY****
TOTAL RUN TIME: 0 days 0 hours 0 minutes 21 seconds 688 msec
