                         Program Version 6.0.0  -   RELEASE  -
|  1> ! pbe def2-sv(p) def2/J RI DEFGRID1 loosescf d4 GCP(DFT/SV(P)) printgap
|  2> %output
|  3>     printlevel normal
|  4> end
|  5> * xyz 0 1
|  6> C 1.8233715196 -3.8036832694 -0.1411309007
|  7> C 1.3451689361 -2.4149071593 0.2333063549
|  8> O 2.4365404211 -1.5017866635 0.0385948498
|  9> P 2.2771887285 0.0261809818 -0.3809787958
| 10> S 0.9624239631 0.3436556434 -1.7983435901
| 11> O 3.727690672 0.397478784 -0.8498431902
| 12> C 4.8659582957 0.6781582845 0.0040497861
| 13> C 5.1803526111 -0.4579999979 0.9517254046
| 14> S 1.995751203 1.1306331833 1.4219926614
| 15> C 0.2356076902 1.484391448 1.295306219
| 16> S -0.7998574738 -0.0010303902 1.5733671666
| 17> P -2.176239961 0.1926966254 -0.0142302145
| 18> S -2.2686863752 1.9209729812 -0.9420621708
| 19> O -3.5542851106 -0.281447028 0.6249749078
| 20> C -4.4772739171 0.6289608154 1.2451760496
| 21> C -3.9174454288 1.2409247918 2.5133783372
| 22> O -1.7955452575 -1.0940357652 -0.8566181918
| 23> C -2.1602604416 -1.2479390406 -2.2418124261
| 24> C -3.6604758797 -1.2994381021 -2.4358692367
| 25> H 1.0166689729 -4.5117601627 0.0176044473
| 26> H 2.1216157655 -3.8262246477 -1.1858782878
| 27> H 2.6734968178 -4.0813279144 0.4748607548
| 28> H 1.0452666426 -2.3655776521 1.2840005871
| 29> H 0.5006034512 -2.1041692592 -0.3916199773
| 30> H 5.6728446842 0.8445768458 -0.7111743995
| 31> H 4.6588210385 1.5994520313 0.5538534346
| 32> H 4.3711111869 -0.5838719746 1.6678988568
| 33> H 5.3118472497 -1.3841300762 0.3986963588
| 34> H 6.0944356864 -0.2264439219 1.4896315075
| 35> H 0.0013343645 1.8900621209 0.3076956743
| 36> H 0.0236623296 2.2065760339 2.0796679564
| 37> H -4.7274466715 1.4116873331 0.5218264194
| 38> H -5.3547287671 0.013369366 1.4473269115
| 39> H -4.693948234 1.8163614998 3.0070288974
| 40> H -3.5602683851 0.4633570549 3.1838748744
| 41> H -3.0892315461 1.9050167818 2.2684220945
| 42> H -1.7147641311 -0.4214038654 -2.8059331564
| 43> H -1.6803132397 -2.1832167305 -2.5338978325
| 44> H -4.0932243053 -2.0701253273 -1.8032386779
| 45> H -4.1011867348 -0.3377900682 -2.1748049179
| 46> H -3.8796039597 -1.5159366915 -3.4767310757
| 47> *
| 48>
| 49>                          ****END OF INPUT****

CARTESIAN COORDINATES (ANGSTROEM)
---------------------------------
  C      1.823372   -3.803683   -0.141131
  C      1.345169   -2.414907    0.233306
  O      2.436540   -1.501787    0.038595
  P      2.277189    0.026181   -0.380979
  S      0.962424    0.343656   -1.798344
  O      3.727691    0.397479   -0.849843
  C      4.865958    0.678158    0.004050
  C      5.180353   -0.458000    0.951725
  S      1.995751    1.130633    1.421993
  C      0.235608    1.484391    1.295306
  S     -0.799857   -0.001030    1.573367
  P     -2.176240    0.192697   -0.014230
  S     -2.268686    1.920973   -0.942062
  O     -3.554285   -0.281447    0.624975
  C     -4.477274    0.628961    1.245176
  C     -3.917445    1.240925    2.513378
  O     -1.795545   -1.094036   -0.856618
  C     -2.160260   -1.247939   -2.241812
  C     -3.660476   -1.299438   -2.435869
  H      1.016669   -4.511760    0.017604
  H      2.121616   -3.826225   -1.185878
  H      2.673497   -4.081328    0.474861
  H      1.045267   -2.365578    1.284001
  H      0.500603   -2.104169   -0.391620
  H      5.672845    0.844577   -0.711174
  H      4.658821    1.599452    0.553853
  H      4.371111   -0.583872    1.667899
  H      5.311847   -1.384130    0.398696
  H      6.094436   -0.226444    1.489632
  H      0.001334    1.890062    0.307696
  H      0.023662    2.206576    2.079668
  H     -4.727447    1.411687    0.521826
  H     -5.354729    0.013369    1.447327
  H     -4.693948    1.816361    3.007029
  H     -3.560268    0.463357    3.183875
  H     -3.089232    1.905017    2.268422
  H     -1.714764   -0.421404   -2.805933
  H     -1.680313   -2.183217   -2.533898
  H     -4.093224   -2.070125   -1.803239
  H     -4.101187   -0.337790   -2.174805
  H     -3.879604   -1.515937   -3.476731

 Total Charge           Charge          ....    0
 Multiplicity           Mult            ....    1
 Number of Electrons    NEL             ....  202
 Basis Dimension        Dim             ....  334

ORBITAL ENERGIES
----------------

  NO   OCC          E(Eh)            E(eV)
   0   2.0000     -88.044688     -2395.8178
   1   2.0000     -88.041794     -2395.7390
   2   2.0000     -87.987919     -2394.2730
   3   2.0000     -87.977884     -2393.9999
   4   2.0000     -76.425370     -2079.6400
   5   2.0000     -76.423017     -2079.5760
   6   2.0000     -18.792434      -511.3681
   7   2.0000     -18.789365      -511.2846
   8   2.0000     -18.786280      -511.2007
   9   2.0000     -18.784621      -511.1555
  10   2.0000      -9.959916      -271.0231
  11   2.0000      -9.955272      -270.8967
  12   2.0000      -9.951306      -270.7888
  13   2.0000      -9.946616      -270.6612
  14   2.0000      -9.942088      -270.5380
  15   2.0000      -9.890099      -269.1233
  16   2.0000      -9.884006      -268.9575
  17   2.0000      -9.881937      -268.9012
  18   2.0000      -9.880164      -268.8529
  19   2.0000      -7.689844      -209.2513
  20   2.0000      -7.686658      -209.1646
  21   2.0000      -7.632772      -207.6983
  22   2.0000      -7.622776      -207.4263
  23   2.0000      -6.422716      -174.7710
  24   2.0000      -6.420441      -174.7091
  25   2.0000      -5.717786      -155.5889
  26   2.0000      -5.714512      -155.4998
  27   2.0000      -5.714078      -155.4880
  28   2.0000      -5.711346      -155.4136
  29   2.0000      -5.707040      -155.2965
  30   2.0000      -5.703442      -155.1985
  31   2.0000      -5.661634      -154.0609
  32   2.0000      -5.653575      -153.8416
  33   2.0000      -5.652830      -153.8213
  34   2.0000      -5.651815      -153.7937
  35   2.0000      -5.643384      -153.5643
  36   2.0000      -5.642802      -153.5484
  37   2.0000      -4.644913      -126.3945
  38   2.0000      -4.644398      -126.3805
  39   2.0000      -4.643630      -126.3596
  40   2.0000      -4.643127      -126.3459
  41   2.0000      -4.642267      -126.3225
  42   2.0000      -4.640745      -126.2811
  43   2.0000      -0.984477       -26.7890
  44   2.0000      -0.984197       -26.7814
  45   2.0000      -0.942151       -25.6372
  46   2.0000      -0.941461       -25.6185
  47   2.0000      -0.761715       -20.7273
  48   2.0000      -0.720781       -19.6134
  49   2.0000      -0.710233       -19.3264
  50   2.0000      -0.690361       -18.7857
  51   2.0000      -0.684983       -18.6393
  52   2.0000      -0.674007       -18.3407
  53   2.0000      -0.648802       -17.6548
  54   2.0000      -0.634088       -17.2544
  55   2.0000      -0.601512       -16.3680
  56   2.0000      -0.592258       -16.1162
  57   2.0000      -0.570251       -15.5173
  58   2.0000      -0.567089       -15.4313
  59   2.0000      -0.562153       -15.2970
  60   2.0000      -0.498891       -13.5755
  61   2.0000      -0.488392       -13.2898
  62   2.0000      -0.478000       -13.0070
  63   2.0000      -0.469219       -12.7681
  64   2.0000      -0.452532       -12.3140
  65   2.0000      -0.447676       -12.1819
  66   2.0000      -0.438362       -11.9284
  67   2.0000      -0.435543       -11.8517
  68   2.0000      -0.428132       -11.6501
  69   2.0000      -0.417825       -11.3696
  70   2.0000      -0.407407       -11.0861
  71   2.0000      -0.398991       -10.8571
  72   2.0000      -0.391770       -10.6606
  73   2.0000      -0.388913       -10.5829
  74   2.0000      -0.381226       -10.3737
  75   2.0000      -0.376734       -10.2515
  76   2.0000      -0.361493        -9.8367
  77   2.0000      -0.354659        -9.6508
  78   2.0000      -0.352372        -9.5885
  79   2.0000      -0.350931        -9.5493
  80   2.0000      -0.347720        -9.4619
  81   2.0000      -0.344707        -9.3799
  82   2.0000      -0.340217        -9.2578
  83   2.0000      -0.337585        -9.1861
  84   2.0000      -0.335001        -9.1158
  85   2.0000      -0.312875        -8.5138
  86   2.0000      -0.309920        -8.4333
  87   2.0000      -0.294431        -8.0119
  88   2.0000      -0.291448        -7.9307
  89   2.0000      -0.289854        -7.8873
  90   2.0000      -0.280615        -7.6359
  91   2.0000      -0.276573        -7.5259
  92   2.0000      -0.268825        -7.3151
  93   2.0000      -0.264194        -7.1891
  94   2.0000      -0.254277        -6.9192
  95   2.0000      -0.234932        -6.3928
  96   2.0000      -0.218681        -5.9506
  97   2.0000      -0.214017        -5.8237
  98   2.0000      -0.202401        -5.5076
  99   2.0000      -0.193787        -5.2732
 100   2.0000      -0.188246        -5.1224
 101   0.0000      -0.043845        -1.1931
 102   0.0000      -0.034504        -0.9389
 103   0.0000      -0.009929        -0.2702
 104   0.0000       0.010178         0.2769
 105   0.0000       0.017590         0.4786

MULLIKEN ATOMIC CHARGES
-----------------------
   0 C :   -0.272398
   1 C :   -0.040279
   2 O :   -0.377811
   3 P :    0.605460
   4 S :   -0.309509
   5 O :   -0.356726
   6 C :   -0.013620
   7 C :   -0.311712
   8 S :   -0.133776
   9 C :   -0.341815
  10 S :   -0.102951
  11 P :    0.619968
  12 S :   -0.315193
  13 O :   -0.371853
  14 C :   -0.002628
  15 C :   -0.310235
  16 O :   -0.361263
  17 C :   -0.001826
  18 C :   -0.304625
  19 H :    0.108484
  20 H :    0.115103
  21 H :    0.109617
  22 H :    0.102516
  23 H :    0.132745
  24 H :    0.115310
  25 H :    0.117967
  26 H :    0.126325
  27 H :    0.125816
  28 H :    0.114950
  29 H :    0.215328
  30 H :    0.181253
  31 H :    0.109425
  32 H :    0.104349
  33 H :    0.111963
  34 H :    0.118855
  35 H :    0.118306
  36 H :    0.123028
  37 H :    0.102631
  38 H :    0.114436
  39 H :    0.122621
  40 H :    0.111761
Sum of atomic charges:    0.0000000

LOEWDIN ATOMIC CHARGES
----------------------
   0 C :   -0.351417
   1 C :   -0.127759
   2 O :   -0.246871
   3 P :    0.563692
   4 S :   -0.297126
   5 O :   -0.232470
   6 C :   -0.113214
   7 C :   -0.367236
   8 S :    0.061865
   9 C :   -0.476889
  10 S :    0.085401
  11 P :    0.576167
  12 S :   -0.303868
  13 O :   -0.245821
  14 C :   -0.119376
  15 C :   -0.369062
  16 O :   -0.235406
  17 C :   -0.115594
  18 C :   -0.366933
  19 H :    0.129129
  20 H :    0.126578
  21 H :    0.123072
  22 H :    0.105399
  23 H :    0.109508
  24 H :    0.125031
  25 H :    0.110987
  26 H :    0.120105
  27 H :    0.130755
  28 H :    0.132119
  29 H :    0.126880
  30 H :    0.134520
  31 H :    0.109640
  32 H :    0.118331
  33 H :    0.130061
  34 H :    0.124292
  35 H :    0.118623
  36 H :    0.112184
  37 H :    0.117596
  38 H :    0.125230
  39 H :    0.121345
  40 H :    0.130531

  Mayer bond orders larger than 0.100000
B(  0-C ,  1-C ) :   1.1546 B(  0-C , 19-H ) :   0.9427 B(  0-C , 20-H ) :   0.9501
B(  0-C , 21-H ) :   0.9508 B(  1-C ,  2-O ) :   0.9016 B(  1-C , 22-H ) :   0.9268
B(  1-C , 23-H ) :   0.8999 B(  2-O ,  3-P ) :   1.0864 B(  3-P ,  4-S ) :   1.6575
B(  3-P ,  5-O ) :   1.1549 B(  3-P ,  8-S ) :   0.9189 B(  4-S ,  8-S ) :   0.1068
B(  5-O ,  6-C ) :   0.9007 B(  6-C ,  7-C ) :   1.1682 B(  6-C , 24-H ) :   0.9343
B(  6-C , 25-H ) :   0.9216 B(  7-C , 26-H ) :   0.9371 B(  7-C , 27-H ) :   0.9427
B(  7-C , 28-H ) :   0.9347 B(  8-S ,  9-C ) :   1.0202 B(  9-C , 10-S ) :   0.9849
B(  9-C , 29-H ) :   0.8470 B(  9-C , 30-H ) :   0.9081 B( 10-S , 11-P ) :   0.9558
B( 10-S , 12-S ) :   0.1160 B( 11-P , 12-S ) :   1.5925 B( 11-P , 13-O ) :   1.1001
B( 11-P , 16-O ) :   1.1287 B( 13-O , 14-C ) :   0.9147 B( 14-C , 15-C ) :   1.1664
B( 14-C , 31-H ) :   0.9158 B( 14-C , 32-H ) :   0.9341 B( 15-C , 33-H ) :   0.9378
B( 15-C , 34-H ) :   0.9430 B( 15-C , 35-H ) :   0.9375 B( 16-O , 17-C ) :   0.9000
B( 17-C , 18-C ) :   1.1629 B( 17-C , 36-H ) :   0.9177 B( 17-C , 37-H ) :   0.9350
B( 18-C , 38-H ) :   0.9446 B( 18-C , 39-H ) :   0.9346 B( 18-C , 40-H ) :   0.9385

Dispersion correction           -0.066661230
FINAL SINGLE POINT ENERGY     -2929.517443622242

DIPOLE MOMENT
-------------

Method             : SCF
Type of density    : Electron Density
Multiplicity       :   1
Irrep              :   0
Energy             : -2929.6364610713881120 Eh
Relativity type    :
Basis              : AO
                                X                 Y                 Z
Electronic contribution:      3.362739825      12.211494741      -2.705961885
Nuclear contribution   :     -3.267547865     -12.959765775       3.725643076
                        -----------------------------------------
Total Dipole Moment    :      0.095191959      -0.748271034       1.019681191
                        -----------------------------------------
Magnitude (a.u.)       :      1.268353571
Magnitude (Debye)      :      3.223898570

Rotational constants in cm-1:             0.013092             0.005036             0.004621
Rotational constants in MHz :           392.485856           150.962017           138.524945

                             ****ORCA TERMINATED NORMALLY****
TOTAL RUN TIME: 0 days 0 hours 0 minutes 21 seconds 248 msec
