                         Program Version 6.0.0  -   RELEASE  -
|  1> ! r2scan-3c def2/J RI DEFGRID2 scfconv6 printgap
|  2> %output
|  3>     printlevel normal
|  4> end
|  5> * xyz 0 1
|  6> C 1.589354211 -2.8515672809 1.0977766175
|  7> C 1.5322680289 -1.4663126061 1.7094111992
|  8> O 2.5614002781 -0.6007454526 1.2049816766
|  9> P 2.616407744 0.0451330283 -0.2512026653
| 10> S 2.9307327012 -1.1300427078 -1.7863499743
| 11> O 3.8271158864 1.0364248724 -0.0903256897
| 12> C 4.1591044123 1.7969810915 1.09766036
| 13> C 3.0686328148 2.7712800363 1.4880787318
| 14> S 0.8520198192 1.25015398 -0.4084934827
| 15> C -0.0067099797 0.331163929 -1.7012998057
| 16> S -0.8673857344 -1.1444960847 -1.0845892691
| 17> P -2.3690388984 -0.108623091 -0.0304379909
| 18> S -3.0918631755 1.5293104308 -0.8405065592
| 19> O -1.6468369298 0.0631074721 1.3687069456
| 20> C -2.1123620653 0.9868679949 2.3813896727
| 21> C -0.9439525496 1.8270939376 2.8565592193
| 22> O -3.465481223 -1.2054632656 0.3230846519
| 23> C -4.5834461108 -1.4864718952 -0.5363113015
| 24> C -4.1529437238 -2.1399188193 -1.833649094
| 25> H 1.367471807 -2.809344308 0.0330802732
| 26> H 2.5798238582 -3.2798649551 1.2284739042
| 27> H 0.8544513198 -3.4860216337 1.5827869964
| 28> H 1.7311026558 -1.5026305539 2.7826969696
| 29> H 0.5561687491 -1.0036485165 1.5346527866
| 30> H 4.365426681 1.0929134561 1.9056097322
| 31> H 5.0762603578 2.3136700129 0.8109575198
| 32> H 3.4104592197 3.3707148152 2.3260665176
| 33> H 2.8267023539 3.4255685187 0.6543674129
| 34> H 2.168444269 2.2343980062 1.7819055095
| 35> H 0.7167623181 -0.019529148 -2.4382905932
| 36> H -0.7338184546 1.0133712419 -2.1409470743
| 37> H -2.8987108621 1.6168465021 1.953446243
| 38> H -2.5291907077 0.3804038961 3.1875301086
| 39> H -0.5496598103 2.4154479327 2.0311235993
| 40> H -1.2826658488 2.4948634831 3.6419134903
| 41> H -0.1563093509 1.1869874672 3.2439371244
| 42> H -5.2127744684 -2.1484572966 0.0598488003
| 43> H -5.1110275612 -0.5479156777 -0.7346632217
| 44> H -5.0318569219 -2.4405392104 -2.3948831554
| 45> H -3.576572792 -1.4356329856 -2.4325631584
| 46> H -3.5365165055 -3.0123375497 -1.6315322386
| 47> *
| 48>
| 49>                          ****END OF INPUT****

CARTESIAN COORDINATES (ANGSTROEM)
---------------------------------
  C      1.589354   -2.851567    1.097777
  C      1.532268   -1.466313    1.709411
  O      2.561400   -0.600745    1.204982
  P      2.616408    0.045133   -0.251203
  S      2.930733   -1.130043   -1.786350
  O      3.827116    1.036425   -0.090326
  C      4.159104    1.796981    1.097660
  C      3.068633    2.771280    1.488079
  S      0.852020    1.250154   -0.408493
  C     -0.006710    0.331164   -1.701300
  S     -0.867386   -1.144496   -1.084589
  P     -2.369039   -0.108623   -0.030438
  S     -3.091863    1.529310   -0.840507
  O     -1.646837    0.063107    1.368707
  C     -2.112362    0.986868    2.381390
  C     -0.943953    1.827094    2.856559
  O     -3.465481   -1.205463    0.323085
  C     -4.583446   -1.486472   -0.536311
  C     -4.152944   -2.139919   -1.833649
  H      1.367472   -2.809344    0.033080
  H      2.579824   -3.279865    1.228474
  H      0.854451   -3.486022    1.582787
  H      1.731103   -1.502631    2.782697
  H      0.556169   -1.003649    1.534653
  H      4.365427    1.092913    1.905610
  H      5.076260    2.313670    0.810958
  H      3.410459    3.370715    2.326067
  H      2.826702    3.425569    0.654367
  H      2.168444    2.234398    1.781906
  H      0.716762   -0.019529   -2.438291
  H     -0.733818    1.013371   -2.140947
  H     -2.898711    1.616847    1.953446
  H     -2.529191    0.380404    3.187530
  H     -0.549660    2.415448    2.031124
  H     -1.282666    2.494863    3.641913
  H     -0.156309    1.186987    3.243937
  H     -5.212774   -2.148457    0.059849
  H     -5.111028   -0.547916   -0.734663
  H     -5.031857   -2.440539   -2.394883
  H     -3.576573   -1.435633   -2.432563
  H     -3.536517   -3.012338   -1.631532

 Total Charge           Charge          ....    0
 Multiplicity           Mult            ....    1
 Number of Electrons    NEL             ....  202
 Basis Dimension        Dim             ....  539

ORBITAL ENERGIES
----------------

  NO   OCC          E(Eh)            E(eV)
   0   2.0000     -88.579072     -2410.3591
   1   2.0000     -88.573935     -2410.2193
   2   2.0000     -88.525561     -2408.9030
   3   2.0000     -88.517065     -2408.6718
   4   2.0000     -76.917979     -2093.0446
   5   2.0000     -76.914615     -2092.9531
   6   2.0000     -18.996742      -516.9276
   7   2.0000     -18.994190      -516.8582
   8   2.0000     -18.992110      -516.8016
   9   2.0000     -18.991209      -516.7771
  10   2.0000     -10.105701      -274.9901
  11   2.0000     -10.102944      -274.9151
  12   2.0000     -10.102664      -274.9075
  13   2.0000     -10.101225      -274.8683
  14   2.0000     -10.095817      -274.7212
  15   2.0000     -10.038732      -273.1678
  16   2.0000     -10.035308      -273.0746
  17   2.0000     -10.030941      -272.9558
  18   2.0000     -10.020651      -272.6758
  19   2.0000      -7.873401      -214.2461
  20   2.0000      -7.868228      -214.1054
  21   2.0000      -7.820275      -212.8005
  22   2.0000      -7.811916      -212.5730
  23   2.0000      -6.596605      -179.5028
  24   2.0000      -6.592587      -179.3934
  25   2.0000      -5.820245      -158.3769
  26   2.0000      -5.817288      -158.2964
  27   2.0000      -5.815230      -158.2405
  28   2.0000      -5.811916      -158.1503
  29   2.0000      -5.810516      -158.1122
  30   2.0000      -5.805381      -157.9725
  31   2.0000      -5.767837      -156.9508
  32   2.0000      -5.760609      -156.7542
  33   2.0000      -5.760319      -156.7463
  34   2.0000      -5.759706      -156.7296
  35   2.0000      -5.752020      -156.5204
  36   2.0000      -5.751945      -156.5184
  37   2.0000      -4.742101      -129.0391
  38   2.0000      -4.741493      -129.0226
  39   2.0000      -4.740345      -128.9913
  40   2.0000      -4.738423      -128.9390
  41   2.0000      -4.737580      -128.9161
  42   2.0000      -4.736037      -128.8741
  43   2.0000      -1.053837       -28.6764
  44   2.0000      -1.051204       -28.6047
  45   2.0000      -1.014545       -27.6072
  46   2.0000      -1.008585       -27.4450
  47   2.0000      -0.802452       -21.8358
  48   2.0000      -0.762274       -20.7425
  49   2.0000      -0.754292       -20.5253
  50   2.0000      -0.734919       -19.9982
  51   2.0000      -0.733623       -19.9629
  52   2.0000      -0.713842       -19.4246
  53   2.0000      -0.687640       -18.7116
  54   2.0000      -0.670243       -18.2382
  55   2.0000      -0.634125       -17.2554
  56   2.0000      -0.622781       -16.9467
  57   2.0000      -0.612608       -16.6699
  58   2.0000      -0.610296       -16.6070
  59   2.0000      -0.590062       -16.0564
  60   2.0000      -0.533053       -14.5051
  61   2.0000      -0.521163       -14.1816
  62   2.0000      -0.496275       -13.5043
  63   2.0000      -0.492207       -13.3936
  64   2.0000      -0.476619       -12.9695
  65   2.0000      -0.467276       -12.7152
  66   2.0000      -0.464636       -12.6434
  67   2.0000      -0.453578       -12.3425
  68   2.0000      -0.443775       -12.0757
  69   2.0000      -0.443362       -12.0645
  70   2.0000      -0.429233       -11.6800
  71   2.0000      -0.419984       -11.4283
  72   2.0000      -0.411497       -11.1974
  73   2.0000      -0.409535       -11.1440
  74   2.0000      -0.401859       -10.9352
  75   2.0000      -0.390053       -10.6139
  76   2.0000      -0.380107       -10.3432
  77   2.0000      -0.376281       -10.2391
  78   2.0000      -0.371828       -10.1179
  79   2.0000      -0.369216       -10.0469
  80   2.0000      -0.366921        -9.9844
  81   2.0000      -0.362335        -9.8596
  82   2.0000      -0.356412        -9.6985
  83   2.0000      -0.355408        -9.6712
  84   2.0000      -0.348056        -9.4711
  85   2.0000      -0.336968        -9.1694
  86   2.0000      -0.324624        -8.8335
  87   2.0000      -0.313624        -8.5341
  88   2.0000      -0.312100        -8.4927
  89   2.0000      -0.309984        -8.4351
  90   2.0000      -0.302162        -8.2223
  91   2.0000      -0.295628        -8.0445
  92   2.0000      -0.290837        -7.9141
  93   2.0000      -0.282477        -7.6866
  94   2.0000      -0.272508        -7.4153
  95   2.0000      -0.249338        -6.7848
  96   2.0000      -0.231622        -6.3028
  97   2.0000      -0.227290        -6.1849
  98   2.0000      -0.219808        -5.9813
  99   2.0000      -0.214281        -5.8309
 100   2.0000      -0.211762        -5.7623
 101   0.0000      -0.047942        -1.3046
 102   0.0000      -0.029397        -0.7999
 103   0.0000      -0.005811        -0.1581
 104   0.0000      -0.004338        -0.1180
 105   0.0000       0.011109         0.3023

MULLIKEN ATOMIC CHARGES
-----------------------
   0 C :   -0.422487
   1 C :   -0.182785
   2 O :   -0.272140
   3 P :    0.658002
   4 S :   -0.444363
   5 O :   -0.277391
   6 C :   -0.113204
   7 C :   -0.485048
   8 S :   -0.140148
   9 C :   -0.254416
  10 S :   -0.120454
  11 P :    0.676569
  12 S :   -0.480273
  13 O :   -0.269275
  14 C :   -0.125648
  15 C :   -0.471095
  16 O :   -0.305605
  17 C :   -0.152527
  18 C :   -0.450743
  19 H :    0.174419
  20 H :    0.150842
  21 H :    0.143675
  22 H :    0.144576
  23 H :    0.182101
  24 H :    0.162596
  25 H :    0.152216
  26 H :    0.154096
  27 H :    0.175303
  28 H :    0.158282
  29 H :    0.220287
  30 H :    0.221499
  31 H :    0.167493
  32 H :    0.150565
  33 H :    0.173160
  34 H :    0.146718
  35 H :    0.152525
  36 H :    0.147977
  37 H :    0.172730
  38 H :    0.149023
  39 H :    0.176417
  40 H :    0.156535
Sum of atomic charges:    0.0000000

LOEWDIN ATOMIC CHARGES
----------------------
   0 C :   -0.408940
   1 C :    0.016605
   2 O :   -0.674289
   3 P :    0.394725
   4 S :   -0.101974
   5 O :   -0.647362
   6 C :    0.033792
   7 C :   -0.405633
   8 S :    0.142995
   9 C :   -0.427491
  10 S :    0.170260
  11 P :    0.373512
  12 S :   -0.135732
  13 O :   -0.692114
  14 C :    0.024640
  15 C :   -0.397552
  16 O :   -0.658822
  17 C :    0.020084
  18 C :   -0.405879
  19 H :    0.167699
  20 H :    0.160221
  21 H :    0.159202
  22 H :    0.177381
  23 H :    0.192245
  24 H :    0.177340
  25 H :    0.183580
  26 H :    0.161396
  27 H :    0.165828
  28 H :    0.161983
  29 H :    0.196469
  30 H :    0.192252
  31 H :    0.182101
  32 H :    0.173699
  33 H :    0.165356
  34 H :    0.159015
  35 H :    0.157768
  36 H :    0.179642
  37 H :    0.179845
  38 H :    0.159970
  39 H :    0.165601
  40 H :    0.160584

  Mayer bond orders larger than 0.100000
B(  0-C ,  1-C ) :   0.9369 B(  0-C , 19-H ) :   0.9505 B(  0-C , 20-H ) :   0.9691
B(  0-C , 21-H ) :   0.9650 B(  1-C ,  2-O ) :   0.7958 B(  1-C , 22-H ) :   0.9656
B(  1-C , 23-H ) :   0.9463 B(  2-O ,  3-P ) :   1.0414 B(  3-P ,  4-S ) :   1.8179
B(  3-P ,  5-O ) :   1.1722 B(  3-P ,  8-S ) :   0.9873 B(  5-O ,  6-C ) :   0.7991
B(  6-C ,  7-C ) :   0.9138 B(  6-C , 24-H ) :   0.9759 B(  6-C , 25-H ) :   0.9529
B(  7-C , 26-H ) :   0.9573 B(  7-C , 27-H ) :   0.9661 B(  7-C , 28-H ) :   0.9628
B(  8-S ,  9-C ) :   0.9139 B(  9-C , 10-S ) :   0.8950 B(  9-C , 29-H ) :   0.8989
B(  9-C , 30-H ) :   0.9115 B( 10-S , 11-P ) :   1.1039 B( 11-P , 12-S ) :   1.7528
B( 11-P , 13-O ) :   1.1483 B( 11-P , 16-O ) :   1.0625 B( 13-O , 14-C ) :   0.7607
B( 14-C , 15-C ) :   0.9532 B( 14-C , 31-H ) :   0.9570 B( 14-C , 32-H ) :   0.9521
B( 15-C , 33-H ) :   0.9688 B( 15-C , 34-H ) :   0.9633 B( 15-C , 35-H ) :   0.9690
B( 16-O , 17-C ) :   0.8171 B( 17-C , 18-C ) :   0.9223 B( 17-C , 36-H ) :   0.9581
B( 17-C , 37-H ) :   0.9671 B( 18-C , 38-H ) :   0.9585 B( 18-C , 39-H ) :   0.9616
B( 18-C , 40-H ) :   0.9685

Dispersion correction           -0.022033773
FINAL SINGLE POINT ENERGY     -2932.460760843115

DIPOLE MOMENT
-------------

Method             : SCF
Type of density    : Electron Density
Multiplicity       :   1
Irrep              :   0
Energy             : -2932.4855270488883434 Eh
Relativity type    :
Basis              : AO
                                X                 Y                 Z
Electronic contribution:      4.170208506       0.203731088     -14.514632990
Nuclear contribution   :     -4.856004639      -0.100388546      16.347805921
                        -----------------------------------------
Total Dipole Moment    :     -0.685796132       0.103342542       1.833172931
                        -----------------------------------------
Magnitude (a.u.)       :      1.959979339
Magnitude (Debye)      :      4.981871565

Rotational constants in cm-1:             0.012326             0.005228             0.004655
Rotational constants in MHz :           369.535626           156.719912           139.562291

                             ****ORCA TERMINATED NORMALLY****
TOTAL RUN TIME: 0 days 0 hours 1 minutes 25 seconds 105 msec
