                         Program Version 6.0.0  -   RELEASE  -
|  1> ! r2scan-3c def2/J RI DEFGRID2 scfconv6 printgap
|  2> %output
|  3>     printlevel normal
|  4> end
|  5> %cpcm
|  6>     smd true
|  7>     smdsolvent "water"
|  8> end
|  9> * xyz 0 1
| 10> C 1.589354211 -2.8515672809 1.0977766175
| 11> C 1.5322680289 -1.4663126061 1.7094111992
| 12> O 2.5614002781 -0.6007454526 1.2049816766
| 13> P 2.616407744 0.0451330283 -0.2512026653
| 14> S 2.9307327012 -1.1300427078 -1.7863499743
| 15> O 3.8271158864 1.0364248724 -0.0903256897
| 16> C 4.1591044123 1.7969810915 1.09766036
| 17> C 3.0686328148 2.7712800363 1.4880787318
| 18> S 0.8520198192 1.25015398 -0.4084934827
| 19> C -0.0067099797 0.331163929 -1.7012998057
| 20> S -0.8673857344 -1.1444960847 -1.0845892691
| 21> P -2.3690388984 -0.108623091 -0.0304379909
| 22> S -3.0918631755 1.5293104308 -0.8405065592
| 23> O -1.6468369298 0.0631074721 1.3687069456
| 24> C -2.1123620653 0.9868679949 2.3813896727
| 25> C -0.9439525496 1.8270939376 2.8565592193
| 26> O -3.465481223 -1.2054632656 0.3230846519
| 27> C -4.5834461108 -1.4864718952 -0.5363113015
| 28> C -4.1529437238 -2.1399188193 -1.833649094
| 29> H 1.367471807 -2.809344308 0.0330802732
| 30> H 2.5798238582 -3.2798649551 1.2284739042
| 31> H 0.8544513198 -3.4860216337 1.5827869964
| 32> H 1.7311026558 -1.5026305539 2.7826969696
| 33> H 0.5561687491 -1.0036485165 1.5346527866
| 34> H 4.365426681 1.0929134561 1.9056097322
| 35> H 5.0762603578 2.3136700129 0.8109575198
| 36> H 3.4104592197 3.3707148152 2.3260665176
| 37> H 2.8267023539 3.4255685187 0.6543674129
| 38> H 2.168444269 2.2343980062 1.7819055095
| 39> H 0.7167623181 -0.019529148 -2.4382905932
| 40> H -0.7338184546 1.0133712419 -2.1409470743
| 41> H -2.8987108621 1.6168465021 1.953446243
| 42> H -2.5291907077 0.3804038961 3.1875301086
| 43> H -0.5496598103 2.4154479327 2.0311235993
| 44> H -1.2826658488 2.4948634831 3.6419134903
| 45> H -0.1563093509 1.1869874672 3.2439371244
| 46> H -5.2127744684 -2.1484572966 0.0598488003
| 47> H -5.1110275612 -0.5479156777 -0.7346632217
| 48> H -5.0318569219 -2.4405392104 -2.3948831554
| 49> H -3.576572792 -1.4356329856 -2.4325631584
| 50> H -3.5365165055 -3.0123375497 -1.6315322386
| 51> *
| 52>
| 53>                          ****END OF INPUT****

CARTESIAN COORDINATES (ANGSTROEM)
---------------------------------
  C      1.589354   -2.851567    1.097777
  C      1.532268   -1.466313    1.709411
  O      2.561400   -0.600745    1.204982
  P      2.616408    0.045133   -0.251203
  S      2.930733   -1.130043   -1.786350
  O      3.827116    1.036425   -0.090326
  C      4.159104    1.796981    1.097660
  C      3.068633    2.771280    1.488079
  S      0.852020    1.250154   -0.408493
  C     -0.006710    0.331164   -1.701300
  S     -0.867386   -1.144496   -1.084589
  P     -2.369039   -0.108623   -0.030438
  S     -3.091863    1.529310   -0.840507
  O     -1.646837    0.063107    1.368707
  C     -2.112362    0.986868    2.381390
  C     -0.943953    1.827094    2.856559
  O     -3.465481   -1.205463    0.323085
  C     -4.583446   -1.486472   -0.536311
  C     -4.152944   -2.139919   -1.833649
  H      1.367472   -2.809344    0.033080
  H      2.579824   -3.279865    1.228474
  H      0.854451   -3.486022    1.582787
  H      1.731103   -1.502631    2.782697
  H      0.556169   -1.003649    1.534653
  H      4.365427    1.092913    1.905610
  H      5.076260    2.313670    0.810958
  H      3.410459    3.370715    2.326067
  H      2.826702    3.425569    0.654367
  H      2.168444    2.234398    1.781906
  H      0.716762   -0.019529   -2.438291
  H     -0.733818    1.013371   -2.140947
  H     -2.898711    1.616847    1.953446
  H     -2.529191    0.380404    3.187530
  H     -0.549660    2.415448    2.031124
  H     -1.282666    2.494863    3.641913
  H     -0.156309    1.186987    3.243937
  H     -5.212774   -2.148457    0.059849
  H     -5.111028   -0.547916   -0.734663
  H     -5.031857   -2.440539   -2.394883
  H     -3.576573   -1.435633   -2.432563
  H     -3.536517   -3.012338   -1.631532

 Total Charge           Charge          ....    0
 Multiplicity           Mult            ....    1
 Number of Electrons    NEL             ....  202
 Basis Dimension        Dim             ....  539

ORBITAL ENERGIES
----------------

  NO   OCC          E(Eh)            E(eV)
   0   2.0000     -88.580632     -2410.4015
   1   2.0000     -88.577822     -2410.3251
   2   2.0000     -88.529505     -2409.0103
   3   2.0000     -88.529025     -2408.9972
   4   2.0000     -76.921736     -2093.1469
   5   2.0000     -76.919510     -2093.0863
   6   2.0000     -18.996167      -516.9120
   7   2.0000     -18.995172      -516.8849
   8   2.0000     -18.994820      -516.8753
   9   2.0000     -18.991434      -516.7832
  10   2.0000     -10.102856      -274.9127
  11   2.0000     -10.092906      -274.6419
  12   2.0000     -10.089627      -274.5527
  13   2.0000     -10.088981      -274.5351
  14   2.0000     -10.088661      -274.5264
  15   2.0000     -10.022424      -272.7240
  16   2.0000     -10.018860      -272.6270
  17   2.0000     -10.017934      -272.6018
  18   2.0000     -10.015563      -272.5373
  19   2.0000      -7.875032      -214.2905
  20   2.0000      -7.872051      -214.2094
  21   2.0000      -7.824507      -212.9157
  22   2.0000      -7.824261      -212.9090
  23   2.0000      -6.599791      -179.5894
  24   2.0000      -6.598149      -179.5448
  25   2.0000      -5.821868      -158.4211
  26   2.0000      -5.819069      -158.3449
  27   2.0000      -5.818926      -158.3410
  28   2.0000      -5.815732      -158.2541
  29   2.0000      -5.812137      -158.1563
  30   2.0000      -5.809205      -158.0765
  31   2.0000      -5.772006      -157.0643
  32   2.0000      -5.771911      -157.0617
  33   2.0000      -5.764824      -156.8688
  34   2.0000      -5.764579      -156.8622
  35   2.0000      -5.764376      -156.8567
  36   2.0000      -5.764344      -156.8558
  37   2.0000      -4.745577      -129.1337
  38   2.0000      -4.744721      -129.1104
  39   2.0000      -4.743580      -129.0794
  40   2.0000      -4.743390      -129.0742
  41   2.0000      -4.743028      -129.0644
  42   2.0000      -4.741997      -129.0363
  43   2.0000      -1.054181       -28.6857
  44   2.0000      -1.051922       -28.6242
  45   2.0000      -1.011746       -27.5310
  46   2.0000      -1.010813       -27.5056
  47   2.0000      -0.804021       -21.8785
  48   2.0000      -0.757648       -20.6167
  49   2.0000      -0.746054       -20.3012
  50   2.0000      -0.726447       -19.7676
  51   2.0000      -0.722763       -19.6674
  52   2.0000      -0.711375       -19.3575
  53   2.0000      -0.689671       -18.7669
  54   2.0000      -0.675018       -18.3682
  55   2.0000      -0.631142       -17.1742
  56   2.0000      -0.619538       -16.8585
  57   2.0000      -0.607304       -16.5256
  58   2.0000      -0.599934       -16.3250
  59   2.0000      -0.586771       -15.9668
  60   2.0000      -0.525950       -14.3118
  61   2.0000      -0.516564       -14.0564
  62   2.0000      -0.489928       -13.3316
  63   2.0000      -0.487896       -13.2763
  64   2.0000      -0.476096       -12.9552
  65   2.0000      -0.462291       -12.5796
  66   2.0000      -0.456730       -12.4283
  67   2.0000      -0.447976       -12.1901
  68   2.0000      -0.437629       -11.9085
  69   2.0000      -0.435713       -11.8563
  70   2.0000      -0.425010       -11.5651
  71   2.0000      -0.418334       -11.3834
  72   2.0000      -0.406469       -11.0606
  73   2.0000      -0.401996       -10.9389
  74   2.0000      -0.397398       -10.8137
  75   2.0000      -0.388269       -10.5653
  76   2.0000      -0.375782       -10.2255
  77   2.0000      -0.365805        -9.9541
  78   2.0000      -0.364463        -9.9175
  79   2.0000      -0.361642        -9.8408
  80   2.0000      -0.357931        -9.7398
  81   2.0000      -0.353870        -9.6293
  82   2.0000      -0.349230        -9.5030
  83   2.0000      -0.346600        -9.4315
  84   2.0000      -0.343918        -9.3585
  85   2.0000      -0.333510        -9.0753
  86   2.0000      -0.318500        -8.6668
  87   2.0000      -0.308596        -8.3973
  88   2.0000      -0.305918        -8.3244
  89   2.0000      -0.305205        -8.3050
  90   2.0000      -0.298667        -8.1272
  91   2.0000      -0.290755        -7.9118
  92   2.0000      -0.288621        -7.8538
  93   2.0000      -0.280271        -7.6266
  94   2.0000      -0.274926        -7.4811
  95   2.0000      -0.250944        -6.8285
  96   2.0000      -0.237620        -6.4660
  97   2.0000      -0.233794        -6.3619
  98   2.0000      -0.225406        -6.1336
  99   2.0000      -0.224598        -6.1116
 100   2.0000      -0.221286        -6.0215
 101   0.0000      -0.052177        -1.4198
 102   0.0000      -0.034632        -0.9424
 103   0.0000      -0.010147        -0.2761
 104   0.0000      -0.006289        -0.1711
 105   0.0000       0.011166         0.3038

MULLIKEN ATOMIC CHARGES
-----------------------
   0 C :   -0.470504
   1 C :   -0.162151
   2 O :   -0.288501
   3 P :    0.668392
   4 S :   -0.504593
   5 O :   -0.312295
   6 C :   -0.109642
   7 C :   -0.516691
   8 S :   -0.141459
   9 C :   -0.264388
  10 S :   -0.127837
  11 P :    0.714474
  12 S :   -0.529506
  13 O :   -0.288861
  14 C :   -0.121389
  15 C :   -0.502781
  16 O :   -0.331083
  17 C :   -0.151684
  18 C :   -0.487539
  19 H :    0.165730
  20 H :    0.164782
  21 H :    0.170499
  22 H :    0.176505
  23 H :    0.177765
  24 H :    0.178519
  25 H :    0.175119
  26 H :    0.180434
  27 H :    0.180922
  28 H :    0.165528
  29 H :    0.231724
  30 H :    0.240922
  31 H :    0.169148
  32 H :    0.173855
  33 H :    0.169585
  34 H :    0.168724
  35 H :    0.170446
  36 H :    0.174799
  37 H :    0.177859
  38 H :    0.173157
  39 H :    0.172046
  40 H :    0.169971
Sum of atomic charges:    0.0000000

LOEWDIN ATOMIC CHARGES
----------------------
   0 C :   -0.414545
   1 C :    0.023698
   2 O :   -0.677066
   3 P :    0.394765
   4 S :   -0.149195
   5 O :   -0.670122
   6 C :    0.040361
   7 C :   -0.405207
   8 S :    0.147116
   9 C :   -0.424308
  10 S :    0.165500
  11 P :    0.379501
  12 S :   -0.166464
  13 O :   -0.698128
  14 C :    0.030118
  15 C :   -0.399424
  16 O :   -0.669565
  17 C :    0.025222
  18 C :   -0.409470
  19 H :    0.161442
  20 H :    0.162261
  21 H :    0.168686
  22 H :    0.190954
  23 H :    0.191726
  24 H :    0.184684
  25 H :    0.193170
  26 H :    0.172256
  27 H :    0.165804
  28 H :    0.163332
  29 H :    0.199293
  30 H :    0.197775
  31 H :    0.182646
  32 H :    0.183769
  33 H :    0.162798
  34 H :    0.167168
  35 H :    0.163272
  36 H :    0.190934
  37 H :    0.181406
  38 H :    0.168658
  39 H :    0.161463
  40 H :    0.163717

  Mayer bond orders larger than 0.100000
B(  0-C ,  1-C ) :   0.9175 B(  0-C , 19-H ) :   0.9540 B(  0-C , 20-H ) :   0.9698
B(  0-C , 21-H ) :   0.9599 B(  1-C ,  2-O ) :   0.7880 B(  1-C , 22-H ) :   0.9560
B(  1-C , 23-H ) :   0.9466 B(  2-O ,  3-P ) :   1.0515 B(  3-P ,  4-S ) :   1.7907
B(  3-P ,  5-O ) :   1.1780 B(  3-P ,  8-S ) :   1.0073 B(  5-O ,  6-C ) :   0.7866
B(  6-C ,  7-C ) :   0.9028 B(  6-C , 24-H ) :   0.9662 B(  6-C , 25-H ) :   0.9446
B(  7-C , 26-H ) :   0.9498 B(  7-C , 27-H ) :   0.9659 B(  7-C , 28-H ) :   0.9577
B(  8-S ,  9-C ) :   0.9015 B(  9-C , 10-S ) :   0.8907 B(  9-C , 29-H ) :   0.8973
B(  9-C , 30-H ) :   0.9060 B( 10-S , 11-P ) :   1.1098 B( 11-P , 12-S ) :   1.7089
B( 11-P , 13-O ) :   1.1632 B( 11-P , 16-O ) :   1.0699 B( 13-O , 14-C ) :   0.7488
B( 14-C , 15-C ) :   0.9477 B( 14-C , 31-H ) :   0.9550 B( 14-C , 32-H ) :   0.9420
B( 15-C , 33-H ) :   0.9674 B( 15-C , 34-H ) :   0.9588 B( 15-C , 35-H ) :   0.9657
B( 16-O , 17-C ) :   0.8061 B( 17-C , 18-C ) :   0.9095 B( 17-C , 36-H ) :   0.9486
B( 17-C , 37-H ) :   0.9657 B( 18-C , 38-H ) :   0.9532 B( 18-C , 39-H ) :   0.9630
B( 18-C , 40-H ) :   0.9659

Dispersion correction           -0.022033773
FINAL SINGLE POINT ENERGY     -2932.469524501999

DIPOLE MOMENT
-------------

Method             : SCF
Type of density    : Electron Density
Multiplicity       :   1
Irrep              :   0
Energy             : -2932.4942907077720520 Eh
Relativity type    :
Basis              : AO
                                X                 Y                 Z
Electronic contribution:      3.820304087       0.275441763     -13.730997493
Nuclear contribution   :     -4.856004639      -0.100388546      16.347805921
                        -----------------------------------------
Total Dipole Moment    :     -1.035700552       0.175053217       2.616808428
                        -----------------------------------------
Magnitude (a.u.)       :      2.819752757
Magnitude (Debye)      :      7.167241918

Rotational constants in cm-1:             0.012326             0.005228             0.004655
Rotational constants in MHz :           369.535626           156.719912           139.562291

                             ****ORCA TERMINATED NORMALLY****
TOTAL RUN TIME: 0 days 0 hours 1 minutes 52 seconds 34 msec
