                         Program Version 6.0.0  -   RELEASE  -
|  1> ! r2scan-3c def2/J RI DEFGRID2 scfconv6 printgap
|  2> %output
|  3>     printlevel normal
|  4> end
|  5> * xyz 0 1
|  6> C 1.8272119027 0.3001584148 0.1312494887
|  7> C 0.5813344025 -0.4808176568 -0.2754732373
|  8> C -0.6622931525 0.0717962501 0.3314509286
|  9> O -1.7525680217 0.0865773046 -0.1893598262
| 10> H 1.9241869201 0.3291480606 1.2133734651
| 11> H 1.7750158744 1.3205425794 -0.2393968258
| 12> H 2.7128156738 -0.1715606671 -0.2835588506
| 13> H 0.4683323098 -0.5264751031 -1.359538794
| 14> H 0.6624744281 -1.5083996132 0.0931043226
| 15> H -0.5322345561 0.4796958605 1.3507728606
| 16> *
| 17>
| 18>                          ****END OF INPUT****

CARTESIAN COORDINATES (ANGSTROEM)
---------------------------------
  C      1.827212    0.300158    0.131249
  C      0.581334   -0.480818   -0.275473
  C     -0.662293    0.071796    0.331451
  O     -1.752568    0.086577   -0.189360
  H      1.924187    0.329148    1.213373
  H      1.775016    1.320543   -0.239397
  H      2.712816   -0.171561   -0.283559
  H      0.468332   -0.526475   -1.359539
  H      0.662474   -1.508400    0.093104
  H     -0.532235    0.479696    1.350773

 Total Charge           Charge          ....    0
 Multiplicity           Mult            ....    1
 Number of Electrons    NEL             ....   32
 Basis Dimension        Dim             ....  111

ORBITAL ENERGIES
----------------

  NO   OCC          E(Eh)            E(eV)
   0   2.0000     -18.951082      -515.6852
   1   2.0000     -10.120270      -275.3866
   2   2.0000     -10.047618      -273.4096
   3   2.0000     -10.039622      -273.1920
   4   2.0000      -1.013488       -27.5784
   5   2.0000      -0.765472       -20.8296
   6   2.0000      -0.634267       -17.2593
   7   2.0000      -0.548700       -14.9309
   8   2.0000      -0.450978       -12.2717
   9   2.0000      -0.425623       -11.5818
  10   2.0000      -0.419227       -11.4077
  11   2.0000      -0.374777       -10.1982
  12   2.0000      -0.358421        -9.7531
  13   2.0000      -0.344857        -9.3840
  14   2.0000      -0.325271        -8.8511
  15   2.0000      -0.222502        -6.0546
  16   0.0000      -0.060914        -1.6576
  17   0.0000       0.096302         2.6205
  18   0.0000       0.108653         2.9566
  19   0.0000       0.121490         3.3059
  20   0.0000       0.144124         3.9218

MULLIKEN ATOMIC CHARGES
-----------------------
   0 C :   -0.466054
   1 C :   -0.200241
   2 C :    0.133252
   3 O :   -0.337292
   4 H :    0.145406
   5 H :    0.150463
   6 H :    0.153850
   7 H :    0.167083
   8 H :    0.158253
   9 H :    0.095280
Sum of atomic charges:    0.0000000

LOEWDIN ATOMIC CHARGES
----------------------
   0 C :   -0.415785
   1 C :   -0.305849
   2 C :    0.200555
   3 O :   -0.448032
   4 H :    0.153417
   5 H :    0.155437
   6 H :    0.156641
   7 H :    0.174710
   8 H :    0.179764
   9 H :    0.149141

  Mayer bond orders larger than 0.100000
B(  0-C ,  1-C ) :   0.8919 B(  0-C ,  4-H ) :   0.9730 B(  0-C ,  5-H ) :   0.9770
B(  0-C ,  6-H ) :   0.9676 B(  1-C ,  2-C ) :   0.9178 B(  1-C ,  7-H ) :   0.9564
B(  1-C ,  8-H ) :   0.9323 B(  2-C ,  3-O ) :   1.9141 B(  2-C ,  9-H ) :   0.9652

Dispersion correction           -0.001696242
FINAL SINGLE POINT ENERGY      -193.091794108587

DIPOLE MOMENT
-------------

Method             : SCF
Type of density    : Electron Density
Multiplicity       :   1
Irrep              :   0
Energy             :  -193.0947769447862470 Eh
Relativity type    :
Basis              : AO
                                X                 Y                 Z
Electronic contribution:     -5.422779593      -0.056283307      -0.428264733
Nuclear contribution   :      6.551097424      -0.070998383       0.724040759
                        -----------------------------------------
Total Dipole Moment    :      1.128317831      -0.127281691       0.295776026
                        -----------------------------------------
Magnitude (a.u.)       :      1.173364911
Magnitude (Debye)      :      2.982456584

Rotational constants in cm-1:             0.994219             0.141619             0.133925
Rotational constants in MHz :         29805.929487          4245.623080          4014.965767

                             ****ORCA TERMINATED NORMALLY****
TOTAL RUN TIME: 0 days 0 hours 0 minutes 10 seconds 103 msec
