                         Program Version 6.0.0  -   RELEASE  -
|  1> ! r2scan-3c def2/J RI DEFGRID2 scfconv6 printgap
|  2> %output
|  3>     printlevel normal
|  4> end
|  5> %cpcm
|  6>     smd true
|  7>     smdsolvent "water"
|  8> end
|  9> * xyz 0 1
| 10> C 1.8272119027 0.3001584148 0.1312494887
| 11> C 0.5813344025 -0.4808176568 -0.2754732373
| 12> C -0.6622931525 0.0717962501 0.3314509286
| 13> O -1.7525680217 0.0865773046 -0.1893598262
| 14> H 1.9241869201 0.3291480606 1.2133734651
| 15> H 1.7750158744 1.3205425794 -0.2393968258
| 16> H 2.7128156738 -0.1715606671 -0.2835588506
| 17> H 0.4683323098 -0.5264751031 -1.359538794
| 18> H 0.6624744281 -1.5083996132 0.0931043226
| 19> H -0.5322345561 0.4796958605 1.3507728606
| 20> *
| 21>
| 22>                          ****END OF INPUT****

CARTESIAN COORDINATES (ANGSTROEM)
---------------------------------
  C      1.827212    0.300158    0.131249
  C      0.581334   -0.480818   -0.275473
  C     -0.662293    0.071796    0.331451
  O     -1.752568    0.086577   -0.189360
  H      1.924187    0.329148    1.213373
  H      1.775016    1.320543   -0.239397
  H      2.712816   -0.171561   -0.283559
  H      0.468332   -0.526475   -1.359539
  H      0.662474   -1.508400    0.093104
  H     -0.532235    0.479696    1.350773

 Total Charge           Charge          ....    0
 Multiplicity           Mult            ....    1
 Number of Electrons    NEL             ....   32
 Basis Dimension        Dim             ....  111

ORBITAL ENERGIES
----------------

  NO   OCC          E(Eh)            E(eV)
   0   2.0000     -18.956910      -515.8437
   1   2.0000     -10.122431      -275.4454
   2   2.0000     -10.033259      -273.0189
   3   2.0000     -10.019513      -272.6448
   4   2.0000      -1.022437       -27.8219
   5   2.0000      -0.750357       -20.4182
   6   2.0000      -0.619872       -16.8676
   7   2.0000      -0.540699       -14.7132
   8   2.0000      -0.442898       -12.0519
   9   2.0000      -0.424288       -11.5455
  10   2.0000      -0.414758       -11.2861
  11   2.0000      -0.369867       -10.0646
  12   2.0000      -0.347060        -9.4440
  13   2.0000      -0.330693        -8.9986
  14   2.0000      -0.312990        -8.5169
  15   2.0000      -0.229036        -6.2324
  16   0.0000      -0.059760        -1.6261
  17   0.0000       0.112438         3.0596
  18   0.0000       0.119702         3.2572
  19   0.0000       0.136791         3.7223
  20   0.0000       0.155352         4.2273

MULLIKEN ATOMIC CHARGES
-----------------------
   0 C :   -0.499095
   1 C :   -0.217027
   2 C :    0.180903
   3 O :   -0.442660
   4 H :    0.162271
   5 H :    0.160540
   6 H :    0.166696
   7 H :    0.173036
   8 H :    0.188086
   9 H :    0.127250
Sum of atomic charges:    0.0000000

LOEWDIN ATOMIC CHARGES
----------------------
   0 C :   -0.416769
   1 C :   -0.301252
   2 C :    0.226879
   3 O :   -0.525418
   4 H :    0.159349
   5 H :    0.158285
   6 H :    0.160842
   7 H :    0.177280
   8 H :    0.194150
   9 H :    0.166654

  Mayer bond orders larger than 0.100000
B(  0-C ,  1-C ) :   0.8861 B(  0-C ,  4-H ) :   0.9703 B(  0-C ,  5-H ) :   0.9744
B(  0-C ,  6-H ) :   0.9642 B(  1-C ,  2-C ) :   0.9460 B(  1-C ,  7-H ) :   0.9578
B(  1-C ,  8-H ) :   0.9179 B(  2-C ,  3-O ) :   1.8491 B(  2-C ,  9-H ) :   0.9506

Dispersion correction           -0.001696242
FINAL SINGLE POINT ENERGY      -193.097352765955

DIPOLE MOMENT
-------------

Method             : SCF
Type of density    : Electron Density
Multiplicity       :   1
Irrep              :   0
Energy             :  -193.1003356021541606 Eh
Relativity type    :
Basis              : AO
                                X                 Y                 Z
Electronic contribution:     -5.026983693      -0.098555167      -0.250482074
Nuclear contribution   :      6.551097424      -0.070998383       0.724040759
                        -----------------------------------------
Total Dipole Moment    :      1.524113731      -0.169553550       0.473558685
                        -----------------------------------------
Magnitude (a.u.)       :      1.604970061
Magnitude (Debye)      :      4.079509692

Rotational constants in cm-1:             0.994219             0.141619             0.133925
Rotational constants in MHz :         29805.929487          4245.623080          4014.965767

                             ****ORCA TERMINATED NORMALLY****
TOTAL RUN TIME: 0 days 0 hours 0 minutes 10 seconds 349 msec
