                         Program Version 6.0.0  -   RELEASE  -
|  1> ! pbe def2-sv(p) def2/J RI DEFGRID1 loosescf d4 GCP(DFT/SV(P)) printgap
|  2> %output
|  3>     printlevel normal
|  4> end
|  5> * xyz 0 1
|  6> C 2.728916582 1.4680903107 -2.0541243199
|  7> C 2.5188234387 -0.0221955383 -2.2113353028
|  8> O 1.6894817651 -0.5774649573 -1.164117829
|  9> P 1.9537744051 -0.4173009874 0.3836346046
| 10> S 1.2091437611 1.1508145182 1.3088375592
| 11> O 3.5281449712 -0.5945897534 0.4710779083
| 12> C 4.2459344138 -0.4678723472 1.7166493462
| 13> C 4.8482563814 0.9174322612 1.8478149113
| 14> S 1.2102269435 -2.2445047804 1.1375035588
| 15> C -0.4791631998 -1.7259236606 1.5313118411
| 16> S -1.6065115708 -1.783754746 0.1033233442
| 17> P -2.0212387233 0.2477850648 -0.3418262252
| 18> S -0.9369601404 1.2886339204 -1.6042692032
| 19> O -2.1635677523 0.8025125788 1.1328801048
| 20> C -2.1441394786 2.2135970997 1.430310149
| 21> C -3.3610079489 2.9231165615 0.8780247009
| 22> O -3.5419960995 0.1505304882 -0.8082372309
| 23> C -3.9112789374 -0.0307186275 -2.1824333794
| 24> C -3.5420786289 -1.4122058032 -2.6835673822
| 25> H 3.2463409306 1.6769069998 -1.1182402825
| 26> H 3.3240682247 1.8388157738 -2.8824738651
| 27> H 1.769287171 1.9818208891 -2.0435423811
| 28> H 3.4698282508 -0.5587777394 -2.2028877366
| 29> H 1.9610625177 -0.2508662703 -3.1207776684
| 30> H 3.5682818129 -0.680260892 2.5475822143
| 31> H 5.018284236 -1.2373607666 1.6697177774
| 32> H 5.4918387385 1.1293369656 0.9984026041
| 33> H 4.0600774986 1.6664933148 1.8906519357
| 34> H 5.4316995949 0.9676327082 2.7613366166
| 35> H -0.4596465332 -0.7139471166 1.9387628183
| 36> H -0.8583030527 -2.4405946407 2.2565063533
| 37> H -2.1095713289 2.2468289831 2.5201518984
| 38> H -1.2204354525 2.6408926537 1.0260764897
| 39> H -4.2681061531 2.4294372177 1.2167260726
| 40> H -3.3579313646 3.9540355506 1.2175827055
| 41> H -3.3358118869 2.908654523 -0.2109266196
| 42> H -4.9901350177 0.1289489431 -2.1911218285
| 43> H -3.4137666624 0.7407052048 -2.7804853402
| 44> H -3.8988624978 -1.5377675917 -3.7007042469
| 45> H -2.4578377164 -1.529634833 -2.6702775086
| 46> H -3.9800799321 -2.1759201049 -2.0461684757
| 47> *
| 48>
| 49>                          ****END OF INPUT****

CARTESIAN COORDINATES (ANGSTROEM)
---------------------------------
  C      2.728917    1.468090   -2.054124
  C      2.518823   -0.022196   -2.211335
  O      1.689482   -0.577465   -1.164118
  P      1.953774   -0.417301    0.383635
  S      1.209144    1.150815    1.308838
  O      3.528145   -0.594590    0.471078
  C      4.245934   -0.467872    1.716649
  C      4.848256    0.917432    1.847815
  S      1.210227   -2.244505    1.137504
  C     -0.479163   -1.725924    1.531312
  S     -1.606512   -1.783755    0.103323
  P     -2.021239    0.247785   -0.341826
  S     -0.936960    1.288634   -1.604269
  O     -2.163568    0.802513    1.132880
  C     -2.144139    2.213597    1.430310
  C     -3.361008    2.923117    0.878025
  O     -3.541996    0.150530   -0.808237
  C     -3.911279   -0.030719   -2.182433
  C     -3.542079   -1.412206   -2.683567
  H      3.246341    1.676907   -1.118240
  H      3.324068    1.838816   -2.882474
  H      1.769287    1.981821   -2.043542
  H      3.469828   -0.558778   -2.202888
  H      1.961063   -0.250866   -3.120778
  H      3.568282   -0.680261    2.547582
  H      5.018284   -1.237361    1.669718
  H      5.491839    1.129337    0.998403
  H      4.060077    1.666493    1.890652
  H      5.431700    0.967633    2.761337
  H     -0.459647   -0.713947    1.938763
  H     -0.858303   -2.440595    2.256506
  H     -2.109571    2.246829    2.520152
  H     -1.220435    2.640893    1.026076
  H     -4.268106    2.429437    1.216726
  H     -3.357931    3.954036    1.217583
  H     -3.335812    2.908655   -0.210927
  H     -4.990135    0.128949   -2.191122
  H     -3.413767    0.740705   -2.780485
  H     -3.898862   -1.537768   -3.700704
  H     -2.457838   -1.529635   -2.670278
  H     -3.980080   -2.175920   -2.046168

 Total Charge           Charge          ....    0
 Multiplicity           Mult            ....    1
 Number of Electrons    NEL             ....  202
 Basis Dimension        Dim             ....  334

ORBITAL ENERGIES
----------------

  NO   OCC          E(Eh)            E(eV)
   0   2.0000     -88.037918     -2395.6335
   1   2.0000     -88.033513     -2395.5137
   2   2.0000     -87.984295     -2394.1744
   3   2.0000     -87.977070     -2393.9778
   4   2.0000     -76.425316     -2079.6386
   5   2.0000     -76.419446     -2079.4788
   6   2.0000     -18.796600      -511.4815
   7   2.0000     -18.786190      -511.1982
   8   2.0000     -18.783563      -511.1267
   9   2.0000     -18.782943      -511.1098
  10   2.0000      -9.957043      -270.9449
  11   2.0000      -9.952261      -270.8148
  12   2.0000      -9.948742      -270.7190
  13   2.0000      -9.945564      -270.6326
  14   2.0000      -9.943622      -270.5797
  15   2.0000      -9.884201      -268.9628
  16   2.0000      -9.880946      -268.8742
  17   2.0000      -9.877365      -268.7768
  18   2.0000      -9.875664      -268.7305
  19   2.0000      -7.683671      -209.0833
  20   2.0000      -7.679062      -208.9579
  21   2.0000      -7.629089      -207.5981
  22   2.0000      -7.621991      -207.4049
  23   2.0000      -6.422646      -174.7691
  24   2.0000      -6.416940      -174.6138
  25   2.0000      -5.711534      -155.4187
  26   2.0000      -5.708082      -155.3248
  27   2.0000      -5.707308      -155.3037
  28   2.0000      -5.703420      -155.1979
  29   2.0000      -5.700647      -155.1225
  30   2.0000      -5.695732      -154.9888
  31   2.0000      -5.657777      -153.9559
  32   2.0000      -5.650810      -153.7663
  33   2.0000      -5.649882      -153.7411
  34   2.0000      -5.649288      -153.7250
  35   2.0000      -5.642811      -153.5487
  36   2.0000      -5.642025      -153.5273
  37   2.0000      -4.645702      -126.4160
  38   2.0000      -4.644140      -126.3735
  39   2.0000      -4.642964      -126.3415
  40   2.0000      -4.639519      -126.2477
  41   2.0000      -4.638798      -126.2281
  42   2.0000      -4.637333      -126.1882
  43   2.0000      -0.987175       -26.8624
  44   2.0000      -0.980320       -26.6759
  45   2.0000      -0.941436       -25.6178
  46   2.0000      -0.940134       -25.5824
  47   2.0000      -0.757358       -20.6088
  48   2.0000      -0.717120       -19.5138
  49   2.0000      -0.703814       -19.1518
  50   2.0000      -0.686941       -18.6926
  51   2.0000      -0.681753       -18.5514
  52   2.0000      -0.668060       -18.1789
  53   2.0000      -0.650782       -17.7087
  54   2.0000      -0.631040       -17.1715
  55   2.0000      -0.595872       -16.2145
  56   2.0000      -0.588111       -16.0033
  57   2.0000      -0.573837       -15.6149
  58   2.0000      -0.567350       -15.4384
  59   2.0000      -0.557817       -15.1790
  60   2.0000      -0.501037       -13.6339
  61   2.0000      -0.486475       -13.2377
  62   2.0000      -0.469837       -12.7849
  63   2.0000      -0.467140       -12.7115
  64   2.0000      -0.450296       -12.2532
  65   2.0000      -0.445427       -12.1207
  66   2.0000      -0.434067       -11.8116
  67   2.0000      -0.432117       -11.7585
  68   2.0000      -0.421622       -11.4729
  69   2.0000      -0.413427       -11.2499
  70   2.0000      -0.410806       -11.1786
  71   2.0000      -0.397458       -10.8154
  72   2.0000      -0.389360       -10.5950
  73   2.0000      -0.386546       -10.5185
  74   2.0000      -0.381956       -10.3935
  75   2.0000      -0.373590       -10.1659
  76   2.0000      -0.362581        -9.8663
  77   2.0000      -0.352120        -9.5817
  78   2.0000      -0.350355        -9.5336
  79   2.0000      -0.344163        -9.3652
  80   2.0000      -0.343117        -9.3367
  81   2.0000      -0.338785        -9.2188
  82   2.0000      -0.333738        -9.0815
  83   2.0000      -0.333053        -9.0628
  84   2.0000      -0.325893        -8.8680
  85   2.0000      -0.316757        -8.6194
  86   2.0000      -0.305011        -8.2998
  87   2.0000      -0.299836        -8.1590
  88   2.0000      -0.290022        -7.8919
  89   2.0000      -0.284802        -7.7498
  90   2.0000      -0.277364        -7.5475
  91   2.0000      -0.275273        -7.4906
  92   2.0000      -0.267654        -7.2832
  93   2.0000      -0.257110        -6.9963
  94   2.0000      -0.254375        -6.9219
  95   2.0000      -0.235272        -6.4021
  96   2.0000      -0.218998        -5.9592
  97   2.0000      -0.207981        -5.6595
  98   2.0000      -0.200935        -5.4677
  99   2.0000      -0.190362        -5.1800
 100   2.0000      -0.179761        -4.8916
 101   0.0000      -0.038346        -1.0434
 102   0.0000      -0.027246        -0.7414
 103   0.0000      -0.017518        -0.4767
 104   0.0000       0.005601         0.1524
 105   0.0000       0.020815         0.5664

MULLIKEN ATOMIC CHARGES
-----------------------
   0 C :   -0.334204
   1 C :    0.016428
   2 O :   -0.357355
   3 P :    0.629217
   4 S :   -0.330303
   5 O :   -0.385010
   6 C :   -0.008014
   7 C :   -0.294349
   8 S :   -0.085493
   9 C :   -0.363488
  10 S :   -0.092031
  11 P :    0.620327
  12 S :   -0.327570
  13 O :   -0.371050
  14 C :   -0.009108
  15 C :   -0.301660
  16 O :   -0.372374
  17 C :   -0.003640
  18 C :   -0.324693
  19 H :    0.124688
  20 H :    0.106200
  21 H :    0.144237
  22 H :    0.104526
  23 H :    0.108211
  24 H :    0.102233
  25 H :    0.107818
  26 H :    0.114355
  27 H :    0.130725
  28 H :    0.109770
  29 H :    0.209470
  30 H :    0.182340
  31 H :    0.101869
  32 H :    0.126369
  33 H :    0.114820
  34 H :    0.109711
  35 H :    0.122013
  36 H :    0.102664
  37 H :    0.107366
  38 H :    0.113395
  39 H :    0.129779
  40 H :    0.121812
Sum of atomic charges:    0.0000000

LOEWDIN ATOMIC CHARGES
----------------------
   0 C :   -0.370976
   1 C :   -0.105051
   2 O :   -0.233982
   3 P :    0.572534
   4 S :   -0.303548
   5 O :   -0.247293
   6 C :   -0.114973
   7 C :   -0.362943
   8 S :    0.075206
   9 C :   -0.480575
  10 S :    0.078446
  11 P :    0.570400
  12 S :   -0.310053
  13 O :   -0.236759
  14 C :   -0.118852
  15 C :   -0.365182
  16 O :   -0.244810
  17 C :   -0.124147
  18 C :   -0.370974
  19 H :    0.120096
  20 H :    0.127991
  21 H :    0.128200
  22 H :    0.111328
  23 H :    0.122738
  24 H :    0.108993
  25 H :    0.118916
  26 H :    0.124657
  27 H :    0.125702
  28 H :    0.129876
  29 H :    0.128486
  30 H :    0.138704
  31 H :    0.117710
  32 H :    0.110414
  33 H :    0.125557
  34 H :    0.129577
  35 H :    0.122294
  36 H :    0.117627
  37 H :    0.106553
  38 H :    0.131279
  39 H :    0.121416
  40 H :    0.125419

  Mayer bond orders larger than 0.100000
B(  0-C ,  1-C ) :   1.1697 B(  0-C , 19-H ) :   0.9334 B(  0-C , 20-H ) :   0.9350
B(  0-C , 21-H ) :   0.9346 B(  1-C ,  2-O ) :   0.8955 B(  1-C , 22-H ) :   0.9328
B(  1-C , 23-H ) :   0.9313 B(  2-O ,  3-P ) :   1.1573 B(  3-P ,  4-S ) :   1.6029
B(  3-P ,  5-O ) :   1.0833 B(  3-P ,  8-S ) :   0.9585 B(  4-S ,  8-S ) :   0.1201
B(  5-O ,  6-C ) :   0.9019 B(  6-C ,  7-C ) :   1.1700 B(  6-C , 24-H ) :   0.9131
B(  6-C , 25-H ) :   0.9352 B(  7-C , 26-H ) :   0.9452 B(  7-C , 27-H ) :   0.9315
B(  7-C , 28-H ) :   0.9396 B(  8-S ,  9-C ) :   1.0097 B(  9-C , 10-S ) :   0.9959
B(  9-C , 29-H ) :   0.8540 B(  9-C , 30-H ) :   0.9102 B( 10-S , 11-P ) :   0.9614
B( 10-S , 12-S ) :   0.1083 B( 11-P , 12-S ) :   1.6095 B( 11-P , 13-O ) :   1.1241
B( 11-P , 16-O ) :   1.0850 B( 13-O , 14-C ) :   0.8955 B( 14-C , 15-C ) :   1.1641
B( 14-C , 31-H ) :   0.9360 B( 14-C , 32-H ) :   0.9106 B( 15-C , 33-H ) :   0.9450
B( 15-C , 34-H ) :   0.9391 B( 15-C , 35-H ) :   0.9356 B( 16-O , 17-C ) :   0.9169
B( 17-C , 18-C ) :   1.1642 B( 17-C , 36-H ) :   0.9320 B( 17-C , 37-H ) :   0.9096
B( 18-C , 38-H ) :   0.9388 B( 18-C , 39-H ) :   0.9319 B( 18-C , 40-H ) :   0.9435

Dispersion correction           -0.067693089
FINAL SINGLE POINT ENERGY     -2929.514343748556

DIPOLE MOMENT
-------------

Method             : SCF
Type of density    : Electron Density
Multiplicity       :   1
Irrep              :   0
Energy             : -2929.6324742949968822 Eh
Relativity type    :
Basis              : AO
                                X                 Y                 Z
Electronic contribution:     -2.473744646     -12.631980609       4.819549410
Nuclear contribution   :      2.862043436      12.564362904      -4.689838417
                        -----------------------------------------
Total Dipole Moment    :      0.388298790      -0.067617706       0.129710993
                        -----------------------------------------
Magnitude (a.u.)       :      0.414937400
Magnitude (Debye)      :      1.054687054

Rotational constants in cm-1:             0.012448             0.005280             0.005157
Rotational constants in MHz :           373.191628           158.299332           154.606303

                             ****ORCA TERMINATED NORMALLY****
TOTAL RUN TIME: 0 days 0 hours 0 minutes 21 seconds 367 msec
