                         Program Version 6.0.1  -  RELEASE   -
|  1> ! pbe def2-sv(p) def2/J RI DEFGRID1 loosescf d4 GCP(DFT/SV(P)) printgap
|  2> %output
|  3>     printlevel normal
|  4> end
|  5> * xyz 0 1
|  6> C 5.3313402564 -2.2894836779 -0.5776792202
|  7> C 4.6061022274 -1.1943832892 0.1882827926
|  8> O 3.1788576366 -1.386241365 0.138858706
|  9> C 2.5185106725 -0.9051790019 -0.8919085887
| 10> O 3.0169548566 -0.2873842999 -1.8073340449
| 11> C 1.0375435202 -1.2310869451 -0.8010999969
| 12> C 0.2332770912 -0.0558324457 -1.3403904078
| 13> H 0.6398349082 0.2332863518 -2.3171152545
| 14> C 0.3017185346 1.1699942891 -0.4498763862
| 15> O -0.578803195 2.0067605532 -0.4044856911
| 16> O 1.4269478261 1.2337973999 0.2107478082
| 17> C 1.6205007579 2.3477295652 1.1082534595
| 18> C 3.0487856767 2.2981713723 1.6102181413
| 19> S -1.5165009715 -0.4637685287 -1.6640521387
| 20> P -2.3601116052 -0.0498152014 0.2077234769
| 21> S -1.2281679586 -0.1253647177 1.8172445142
| 22> O -3.1994009297 1.2697080819 -0.046522876
| 23> C -3.904338249 1.9243468046 1.0204491478
| 24> O -3.5633040637 -1.1057387114 0.2873552095
| 25> C -3.337578741 -2.4825056654 0.6107043111
| 26> H 5.0814746437 -2.2345374505 -1.6347026063
| 27> H 6.4022096968 -2.15907091 -0.4618789878
| 28> H 5.0454700808 -3.2654757195 -0.1955375888
| 29> H 4.8390697159 -0.2108197189 -0.2287679734
| 30> H 4.8484311923 -1.2257852983 1.2505043592
| 31> H 0.7835886499 -1.4557831251 0.2353408717
| 32> H 0.8425793259 -2.1094116488 -1.4191412192
| 33> H 1.4027006917 3.2713943914 0.5637836651
| 34> H 0.8976159608 2.2416979116 1.9238267601
| 35> H 3.7393194767 2.3752482203 0.7752225976
| 36> H 3.21590078 3.1248486676 2.2922237406
| 37> H 3.2237790452 1.3610968118 2.130256896
| 38> H -4.8298876874 1.3890054142 1.2293597546
| 39> H -4.1074709076 2.9298518016 0.6610259077
| 40> H -3.2832168144 1.9602908003 1.9176656998
| 41> H -2.9194196653 -3.0003413944 -0.2515307846
| 42> H -4.3133199392 -2.8879319046 0.8655520113
| 43> H -2.6581823715 -2.5594736901 1.4615222207
| 44> *
| 45>
| 46>                          ****END OF INPUT****

CARTESIAN COORDINATES (ANGSTROEM)
---------------------------------
  C      5.331340   -2.289484   -0.577679
  C      4.606102   -1.194383    0.188283
  O      3.178858   -1.386241    0.138859
  C      2.518511   -0.905179   -0.891909
  O      3.016955   -0.287384   -1.807334
  C      1.037544   -1.231087   -0.801100
  C      0.233277   -0.055832   -1.340390
  H      0.639835    0.233286   -2.317115
  C      0.301719    1.169994   -0.449876
  O     -0.578803    2.006761   -0.404486
  O      1.426948    1.233797    0.210748
  C      1.620501    2.347730    1.108253
  C      3.048786    2.298171    1.610218
  S     -1.516501   -0.463769   -1.664052
  P     -2.360112   -0.049815    0.207723
  S     -1.228168   -0.125365    1.817245
  O     -3.199401    1.269708   -0.046523
  C     -3.904338    1.924347    1.020449
  O     -3.563304   -1.105739    0.287355
  C     -3.337579   -2.482506    0.610704
  H      5.081475   -2.234537   -1.634703
  H      6.402210   -2.159071   -0.461879
  H      5.045470   -3.265476   -0.195538
  H      4.839070   -0.210820   -0.228768
  H      4.848431   -1.225785    1.250504
  H      0.783589   -1.455783    0.235341
  H      0.842579   -2.109412   -1.419141
  H      1.402701    3.271394    0.563784
  H      0.897616    2.241698    1.923827
  H      3.739319    2.375248    0.775223
  H      3.215901    3.124849    2.292224
  H      3.223779    1.361097    2.130257
  H     -4.829888    1.389005    1.229360
  H     -4.107471    2.929852    0.661026
  H     -3.283217    1.960291    1.917666
  H     -2.919420   -3.000341   -0.251531
  H     -4.313320   -2.887932    0.865552
  H     -2.658182   -2.559474    1.461522

 Total Charge           Charge          ....    0
 Multiplicity           Mult            ....    1
 Number of Electrons    NEL             ....  174
 Basis Dimension        Dim             ....  316

ORBITAL ENERGIES
----------------

  NO   OCC          E(Eh)            E(eV)
   0   2.0000     -88.041165     -2395.7219
   1   2.0000     -87.984056     -2394.1679
   2   2.0000     -76.424251     -2079.6096
   3   2.0000     -18.809366      -511.8289
   4   2.0000     -18.801584      -511.6171
   5   2.0000     -18.787688      -511.2390
   6   2.0000     -18.783964      -511.1377
   7   2.0000     -18.738204      -509.8925
   8   2.0000     -18.733963      -509.7771
   9   2.0000     -10.015651      -272.5397
  10   2.0000     -10.009350      -272.3683
  11   2.0000      -9.949243      -270.7327
  12   2.0000      -9.948022      -270.6994
  13   2.0000      -9.946713      -270.6638
  14   2.0000      -9.941196      -270.5137
  15   2.0000      -9.940051      -270.4825
  16   2.0000      -9.904124      -269.5049
  17   2.0000      -9.889602      -269.1098
  18   2.0000      -9.888618      -269.0830
  19   2.0000      -7.686576      -209.1624
  20   2.0000      -7.628934      -207.5939
  21   2.0000      -6.421349      -174.7338
  22   2.0000      -5.714678      -155.5043
  23   2.0000      -5.711050      -155.4056
  24   2.0000      -5.703265      -155.1937
  25   2.0000      -5.657707      -153.9540
  26   2.0000      -5.649824      -153.7395
  27   2.0000      -5.648912      -153.7147
  28   2.0000      -4.643817      -126.3647
  29   2.0000      -4.643109      -126.3454
  30   2.0000      -4.642035      -126.3162
  31   2.0000      -1.018297       -27.7093
  32   2.0000      -1.009512       -27.4702
  33   2.0000      -0.980077       -26.6692
  34   2.0000      -0.936592       -25.4860
  35   2.0000      -0.916794       -24.9472
  36   2.0000      -0.915096       -24.9010
  37   2.0000      -0.764463       -20.8021
  38   2.0000      -0.713630       -19.4189
  39   2.0000      -0.709669       -19.3111
  40   2.0000      -0.690494       -18.7893
  41   2.0000      -0.654118       -17.7995
  42   2.0000      -0.629788       -17.1374
  43   2.0000      -0.627446       -17.0737
  44   2.0000      -0.617113       -16.7925
  45   2.0000      -0.593047       -16.1376
  46   2.0000      -0.560878       -15.2623
  47   2.0000      -0.513989       -13.9863
  48   2.0000      -0.505422       -13.7532
  49   2.0000      -0.500886       -13.6298
  50   2.0000      -0.476042       -12.9538
  51   2.0000      -0.466869       -12.7041
  52   2.0000      -0.464096       -12.6287
  53   2.0000      -0.443626       -12.0717
  54   2.0000      -0.435164       -11.8414
  55   2.0000      -0.432721       -11.7749
  56   2.0000      -0.423024       -11.5111
  57   2.0000      -0.418140       -11.3782
  58   2.0000      -0.408961       -11.1284
  59   2.0000      -0.403788       -10.9876
  60   2.0000      -0.401675       -10.9301
  61   2.0000      -0.397532       -10.8174
  62   2.0000      -0.387905       -10.5554
  63   2.0000      -0.382837       -10.4175
  64   2.0000      -0.376859       -10.2549
  65   2.0000      -0.363187        -9.8828
  66   2.0000      -0.358876        -9.7655
  67   2.0000      -0.358103        -9.7445
  68   2.0000      -0.353083        -9.6079
  69   2.0000      -0.342618        -9.3231
  70   2.0000      -0.332188        -9.0393
  71   2.0000      -0.325258        -8.8507
  72   2.0000      -0.320071        -8.7096
  73   2.0000      -0.310031        -8.4364
  74   2.0000      -0.303191        -8.2503
  75   2.0000      -0.297143        -8.0857
  76   2.0000      -0.293982        -7.9997
  77   2.0000      -0.286620        -7.7993
  78   2.0000      -0.272057        -7.4030
  79   2.0000      -0.261983        -7.1289
  80   2.0000      -0.259572        -7.0633
  81   2.0000      -0.255111        -6.9419
  82   2.0000      -0.234848        -6.3906
  83   2.0000      -0.225787        -6.1440
  84   2.0000      -0.215072        -5.8524
  85   2.0000      -0.202203        -5.5022
  86   2.0000      -0.198144        -5.3918
  87   0.0000      -0.043815        -1.1923
  88   0.0000      -0.026362        -0.7173
  89   0.0000      -0.014859        -0.4043
  90   0.0000       0.009744         0.2652
  91   0.0000       0.021413         0.5827

MULLIKEN ATOMIC CHARGES
-----------------------
   0 C :   -0.301579
   1 C :   -0.020555
   2 O :   -0.225563
   3 C :    0.117964
   4 O :   -0.216435
   5 C :   -0.045803
   6 C :   -0.311043
   7 H :    0.168073
   8 C :    0.173996
   9 O :   -0.193072
  10 O :   -0.218860
  11 C :   -0.022965
  12 C :   -0.288217
  13 S :   -0.055290
  14 P :    0.626100
  15 S :   -0.345064
  16 O :   -0.357104
  17 C :   -0.093008
  18 O :   -0.386111
  19 C :   -0.101276
  20 H :    0.127034
  21 H :    0.112722
  22 H :    0.114449
  23 H :    0.111287
  24 H :    0.104098
  25 H :    0.116082
  26 H :    0.114840
  27 H :    0.109741
  28 H :    0.114023
  29 H :    0.123586
  30 H :    0.112427
  31 H :    0.121579
  32 H :    0.115751
  33 H :    0.129538
  34 H :    0.117501
  35 H :    0.111358
  36 H :    0.123521
  37 H :    0.116270
Sum of atomic charges:   -0.0000000

LOEWDIN ATOMIC CHARGES
----------------------
   0 C :   -0.355895
   1 C :   -0.111189
   2 O :   -0.052827
   3 C :    0.028351
   4 O :   -0.177636
   5 C :   -0.258946
   6 C :   -0.264081
   7 H :    0.158718
   8 C :   -0.000733
   9 O :   -0.168428
  10 O :   -0.033749
  11 C :   -0.102944
  12 C :   -0.352229
  13 S :    0.130966
  14 P :    0.586740
  15 S :   -0.319140
  16 O :   -0.235317
  17 C :   -0.205633
  18 O :   -0.262710
  19 C :   -0.218182
  20 H :    0.130617
  21 H :    0.130678
  22 H :    0.125158
  23 H :    0.119476
  24 H :    0.117455
  25 H :    0.133220
  26 H :    0.143492
  27 H :    0.119242
  28 H :    0.119211
  29 H :    0.127635
  30 H :    0.131593
  31 H :    0.127559
  32 H :    0.113734
  33 H :    0.124919
  34 H :    0.111815
  35 H :    0.109319
  36 H :    0.121669
  37 H :    0.108072

  Mayer bond orders larger than 0.100000
B(  0-C ,  1-C ) :   1.1736 B(  0-C , 20-H ) :   0.9457 B(  0-C , 21-H ) :   0.9443
B(  0-C , 22-H ) :   0.9486 B(  1-C ,  2-O ) :   0.9160 B(  1-C , 23-H ) :   0.9123
B(  1-C , 24-H ) :   0.9360 B(  2-O ,  3-C ) :   1.2446 B(  3-C ,  4-O ) :   2.0249
B(  3-C ,  5-C ) :   0.9907 B(  5-C ,  6-C ) :   1.0309 B(  5-C , 25-H ) :   0.8893
B(  5-C , 26-H ) :   0.8788 B(  6-C ,  7-H ) :   0.8468 B(  6-C ,  8-C ) :   0.9102
B(  6-C , 13-S ) :   1.0120 B(  8-C ,  9-O ) :   2.0333 B(  8-C , 10-O ) :   1.2579
B( 10-O , 11-C ) :   0.8944 B( 11-C , 12-C ) :   1.1557 B( 11-C , 27-H ) :   0.9282
B( 11-C , 28-H ) :   0.9248 B( 12-C , 29-H ) :   0.9472 B( 12-C , 30-H ) :   0.9420
B( 12-C , 31-H ) :   0.9462 B( 13-S , 14-P ) :   0.9857 B( 13-S , 15-S ) :   0.1155
B( 14-P , 15-S ) :   1.5646 B( 14-P , 16-O ) :   1.1428 B( 14-P , 18-O ) :   1.0804
B( 16-O , 17-C ) :   0.9229 B( 17-C , 32-H ) :   0.9521 B( 17-C , 33-H ) :   0.9595
B( 17-C , 34-H ) :   0.9344 B( 18-O , 19-C ) :   0.9351 B( 19-C , 35-H ) :   0.9492
B( 19-C , 36-H ) :   0.9592 B( 19-C , 37-H ) :   0.9311

Dispersion correction           -0.052238667
FINAL SINGLE POINT ENERGY     -1979.019022600033

DIPOLE MOMENT
-------------

Method             : SCF
Type of density    : Electron Density
Multiplicity       :   1
Irrep              :   0
Energy             : -1979.1489150617089763 Eh
Relativity type    :
Basis              : AO
                                X                 Y                 Z
Electronic contribution:    -19.361808770       1.545375440      -7.332896581
Nuclear contribution   :     19.877371710      -1.997333076       8.039615711
                        -----------------------------------------
Total Dipole Moment    :      0.515562939      -0.451957636       0.706719130
                        -----------------------------------------
Magnitude (a.u.)       :      0.984643477
Magnitude (Debye)      :      2.502764821

Rotational constants in cm-1:             0.016671             0.006062             0.005377
Rotational constants in MHz :           499.781086           181.734683           161.194427

                             ****ORCA TERMINATED NORMALLY****
TOTAL RUN TIME: 0 days 0 hours 0 minutes 35 seconds 158 msec
