                         Program Version 6.0.0  -   RELEASE  -
|  1> ! pbe def2-sv(p) def2/J RI DEFGRID1 loosescf d4 GCP(DFT/SV(P)) printgap
|  2> %output
|  3>     printlevel normal
|  4> end
|  5> * xyz 0 1
|  6> C 2.2095947213 -1.1746059447 0.1343633919
|  7> C 1.3953519553 0.0896275406 -0.0074740281
|  8> O 1.9478902243 1.1948234271 -0.071102933
|  9> N 0.064951771 -0.0138379524 -0.0558210876
| 10> C -0.7393172025 -1.2256566569 0.0185901159
| 11> C -2.1698664438 -0.740326873 -0.2204470554
| 12> C -2.1448082559 0.6870023823 0.3209411185
| 13> C -0.7733417606 1.1764335153 -0.1256941346
| 14> H 1.6069909404 -2.0730397976 0.1447455145
| 15> H 2.7795351827 -1.1047492624 1.0584590356
| 16> H 2.9235667308 -1.214772507 -0.6851550401
| 17> H -0.4266283205 -1.9493113001 -0.7359006388
| 18> H -0.6421268385 -1.6758906211 1.0116509925
| 19> H -2.386425367 -0.7268820993 -1.2882855833
| 20> H -2.9016813125 -1.3693936024 0.2793297905
| 21> H -2.9475871023 1.3037277522 -0.0733589383
| 22> H -2.203951778 0.6806512152 1.4091113528
| 23> H -0.7935551543 1.5487472612 -1.155668746
| 24> H -0.347699172 1.9581739308 0.5061482806
| 25> *
| 26>
| 27>                          ****END OF INPUT****

CARTESIAN COORDINATES (ANGSTROEM)
---------------------------------
  C      2.209595   -1.174606    0.134363
  C      1.395352    0.089628   -0.007474
  O      1.947890    1.194823   -0.071103
  N      0.064952   -0.013838   -0.055821
  C     -0.739317   -1.225657    0.018590
  C     -2.169866   -0.740327   -0.220447
  C     -2.144808    0.687002    0.320941
  C     -0.773342    1.176434   -0.125694
  H      1.606991   -2.073040    0.144746
  H      2.779535   -1.104749    1.058459
  H      2.923567   -1.214773   -0.685155
  H     -0.426628   -1.949311   -0.735901
  H     -0.642127   -1.675891    1.011651
  H     -2.386425   -0.726882   -1.288286
  H     -2.901681   -1.369394    0.279330
  H     -2.947587    1.303728   -0.073359
  H     -2.203952    0.680651    1.409111
  H     -0.793555    1.548747   -1.155669
  H     -0.347699    1.958174    0.506148

 Total Charge           Charge          ....    0
 Multiplicity           Mult            ....    1
 Number of Electrons    NEL             ....   62
 Basis Dimension        Dim             ....  134

ORBITAL ENERGIES
----------------

  NO   OCC          E(Eh)            E(eV)
   0   2.0000     -18.693847      -508.6854
   1   2.0000     -14.016810      -381.4168
   2   2.0000      -9.968374      -271.2532
   3   2.0000      -9.932629      -270.2806
   4   2.0000      -9.917833      -269.8780
   5   2.0000      -9.903820      -269.4966
   6   2.0000      -9.899332      -269.3745
   7   2.0000      -9.883011      -268.9304
   8   2.0000      -0.919107       -25.0102
   9   2.0000      -0.850736       -23.1497
  10   2.0000      -0.725914       -19.7531
  11   2.0000      -0.677357       -18.4318
  12   2.0000      -0.649075       -17.6622
  13   2.0000      -0.577408       -15.7121
  14   2.0000      -0.539310       -14.6754
  15   2.0000      -0.497921       -13.5491
  16   2.0000      -0.464521       -12.6403
  17   2.0000      -0.424793       -11.5592
  18   2.0000      -0.401767       -10.9326
  19   2.0000      -0.392507       -10.6807
  20   2.0000      -0.385736       -10.4964
  21   2.0000      -0.377804       -10.2806
  22   2.0000      -0.361043        -9.8245
  23   2.0000      -0.347557        -9.4575
  24   2.0000      -0.319594        -8.6966
  25   2.0000      -0.318092        -8.6557
  26   2.0000      -0.315136        -8.5753
  27   2.0000      -0.304876        -8.2961
  28   2.0000      -0.290060        -7.8929
  29   2.0000      -0.195714        -5.3256
  30   2.0000      -0.181697        -4.9442
  31   0.0000      -0.002000        -0.0544
  32   0.0000       0.022021         0.5992
  33   0.0000       0.056311         1.5323
  34   0.0000       0.058526         1.5926
  35   0.0000       0.077672         2.1135

MULLIKEN ATOMIC CHARGES
-----------------------
   0 C :   -0.267397
   1 C :    0.045599
   2 O :   -0.263659
   3 N :   -0.257143
   4 C :   -0.035774
   5 C :   -0.188813
   6 C :   -0.188964
   7 C :   -0.015752
   8 H :    0.102732
   9 H :    0.126820
  10 H :    0.126670
  11 H :    0.108304
  12 H :    0.098694
  13 H :    0.097878
  14 H :    0.102071
  15 H :    0.102484
  16 H :    0.097870
  17 H :    0.095813
  18 H :    0.112567
Sum of atomic charges:    0.0000000

LOEWDIN ATOMIC CHARGES
----------------------
   0 C :   -0.363238
   1 C :    0.011375
   2 O :   -0.229135
   3 N :   -0.048388
   4 C :   -0.147184
   5 C :   -0.229384
   6 C :   -0.231864
   7 C :   -0.140968
   8 H :    0.119672
   9 H :    0.144589
  10 H :    0.144034
  11 H :    0.118651
  12 H :    0.113390
  13 H :    0.124151
  14 H :    0.124575
  15 H :    0.125413
  16 H :    0.122952
  17 H :    0.115224
  18 H :    0.126136

  Mayer bond orders larger than 0.100000
B(  0-C ,  1-C ) :   1.0805 B(  0-C ,  8-H ) :   0.9253 B(  0-C ,  9-H ) :   0.9302
B(  0-C , 10-H ) :   0.9321 B(  1-C ,  2-O ) :   2.0001 B(  1-C ,  3-N ) :   1.2082
B(  3-N ,  4-C ) :   0.9845 B(  3-N ,  7-C ) :   0.9787 B(  4-C ,  5-C ) :   1.1168
B(  4-C , 11-H ) :   0.9205 B(  4-C , 12-H ) :   0.9241 B(  5-C ,  6-C ) :   1.1284
B(  5-C , 13-H ) :   0.9195 B(  5-C , 14-H ) :   0.9263 B(  6-C ,  7-C ) :   1.1028
B(  6-C , 15-H ) :   0.9273 B(  6-C , 16-H ) :   0.9214 B(  7-C , 17-H ) :   0.9320
B(  7-C , 18-H ) :   0.9204

Dispersion correction           -0.016762603
FINAL SINGLE POINT ENERGY      -364.429133900544

DIPOLE MOMENT
-------------

Method             : SCF
Type of density    : Electron Density
Multiplicity       :   1
Irrep              :   0
Energy             :  -364.4972774542018783 Eh
Relativity type    :
Basis              : AO
                                X                 Y                 Z
Electronic contribution:      3.792854402       3.291880453      -0.369438205
Nuclear contribution   :     -4.980167518      -4.319264046       0.440588089
                        -----------------------------------------
Total Dipole Moment    :     -1.187313116      -1.027383593       0.071149884
                        -----------------------------------------
Magnitude (a.u.)       :      1.571716192
Magnitude (Debye)      :      3.994985073

Rotational constants in cm-1:             0.138240             0.051474             0.039422
Rotational constants in MHz :          4144.341810          1543.141268          1181.830242

                             ****ORCA TERMINATED NORMALLY****
TOTAL RUN TIME: 0 days 0 hours 0 minutes 22 seconds 774 msec
