                         Program Version 6.0.0  -   RELEASE  -
|  1> ! r2scan-3c def2/J RI DEFGRID2 scfconv6 printgap
|  2> %output
|  3>     printlevel normal
|  4> end
|  5> * xyz 0 1
|  6> C 5.4336847631 -0.0022044862 -0.9973713589
|  7> C 4.5152438422 -0.8453265575 -0.1336107798
|  8> O 3.52046477 -0.0307829338 0.5155052095
|  9> P 2.0807142012 0.2276905689 -0.1105587146
| 10> S 2.0376582594 0.9700513584 -1.927884044
| 11> O 1.4377418388 1.0957356003 1.0472153185
| 12> C 1.4690691535 2.5386048289 1.0147677175
| 13> C 2.8810886925 3.0722827137 1.1138249975
| 14> S 1.1666076568 -1.6621348426 0.1455360518
| 15> C 0.1412062536 -1.7519798 -1.3624589599
| 16> S -1.5910110231 -2.1445041097 -1.0143294769
| 17> P -2.0888854892 -0.42947476 0.0974753611
| 18> S -1.3617582476 1.2799234755 -0.5498228272
| 19> O -1.6881674175 -0.8847000122 1.5557435967
| 20> C -1.4689698836 0.0343284943 2.6456269216
| 21> C -2.7151021921 0.8279557172 2.9739424249
| 22> O -3.6726860689 -0.4876495466 0.158907227
| 23> C -4.4929347224 -0.0829431953 -0.9559630818
| 24> C -5.8934561272 0.1700614123 -0.4357465276
| 25> H 4.870202097 0.466790301 -1.8009832257
| 26> H 5.9029979854 0.7730662611 -0.3982215274
| 27> H 6.2011567317 -0.6371944756 -1.427822079
| 28> H 5.0612572669 -1.3142006351 0.6871462596
| 29> H 4.0175876896 -1.6179447831 -0.7271703606
| 30> H 0.9825097154 2.8727990817 0.0921658513
| 31> H 0.8606807061 2.8340537333 1.8709413364
| 32> H 3.445573968 2.7844467114 0.2276174281
| 33> H 2.8516614656 4.1554305341 1.1780687547
| 34> H 3.373847199 2.6660125915 1.9932959882
| 35> H 0.5093950005 -2.5671765328 -1.9800252971
| 36> H 0.2143464042 -0.7960977167 -1.8897244293
| 37> H -1.1674867748 -0.6145078301 3.4692209981
| 38> H -0.6397791883 0.6955800866 2.376103733
| 39> H -3.5465727939 0.1548697222 3.1660621776
| 40> H -2.5332637402 1.4413355951 3.8509575933
| 41> H -2.971429226 1.4742426557 2.1346592478
| 42> H -4.0585444133 0.8193807624 -1.3998531242
| 43> H -4.4806803091 -0.8868844788 -1.6966292639
| 44> H -6.2769376703 -0.7272028245 0.0409653968
| 45> H -5.8850094962 0.9788928474 0.2893320129
| 46> H -6.5373504662 0.4403938027 -1.2661128502
| 47> *
| 48>
| 49>                          ****END OF INPUT****

CARTESIAN COORDINATES (ANGSTROEM)
---------------------------------
  C      5.433685   -0.002204   -0.997371
  C      4.515244   -0.845327   -0.133611
  O      3.520465   -0.030783    0.515505
  P      2.080714    0.227691   -0.110559
  S      2.037658    0.970051   -1.927884
  O      1.437742    1.095736    1.047215
  C      1.469069    2.538605    1.014768
  C      2.881089    3.072283    1.113825
  S      1.166608   -1.662135    0.145536
  C      0.141206   -1.751980   -1.362459
  S     -1.591011   -2.144504   -1.014329
  P     -2.088885   -0.429475    0.097475
  S     -1.361758    1.279923   -0.549823
  O     -1.688167   -0.884700    1.555744
  C     -1.468970    0.034328    2.645627
  C     -2.715102    0.827956    2.973942
  O     -3.672686   -0.487650    0.158907
  C     -4.492935   -0.082943   -0.955963
  C     -5.893456    0.170061   -0.435747
  H      4.870202    0.466790   -1.800983
  H      5.902998    0.773066   -0.398222
  H      6.201157   -0.637194   -1.427822
  H      5.061257   -1.314201    0.687146
  H      4.017588   -1.617945   -0.727170
  H      0.982510    2.872799    0.092166
  H      0.860681    2.834054    1.870941
  H      3.445574    2.784447    0.227617
  H      2.851661    4.155431    1.178069
  H      3.373847    2.666013    1.993296
  H      0.509395   -2.567177   -1.980025
  H      0.214346   -0.796098   -1.889724
  H     -1.167487   -0.614508    3.469221
  H     -0.639779    0.695580    2.376104
  H     -3.546573    0.154870    3.166062
  H     -2.533264    1.441336    3.850958
  H     -2.971429    1.474243    2.134659
  H     -4.058544    0.819381   -1.399853
  H     -4.480680   -0.886884   -1.696629
  H     -6.276938   -0.727203    0.040965
  H     -5.885009    0.978893    0.289332
  H     -6.537350    0.440394   -1.266113

 Total Charge           Charge          ....    0
 Multiplicity           Mult            ....    1
 Number of Electrons    NEL             ....  202
 Basis Dimension        Dim             ....  539

ORBITAL ENERGIES
----------------

  NO   OCC          E(Eh)            E(eV)
   0   2.0000     -88.574759     -2410.2417
   1   2.0000     -88.573173     -2410.1986
   2   2.0000     -88.517015     -2408.6704
   3   2.0000     -88.514135     -2408.5921
   4   2.0000     -76.911270     -2092.8621
   5   2.0000     -76.910702     -2092.8466
   6   2.0000     -18.990321      -516.7529
   7   2.0000     -18.987625      -516.6795
   8   2.0000     -18.985671      -516.6264
   9   2.0000     -18.985265      -516.6153
  10   2.0000     -10.103619      -274.9334
  11   2.0000     -10.097299      -274.7615
  12   2.0000     -10.097270      -274.7607
  13   2.0000     -10.093534      -274.6590
  14   2.0000     -10.092814      -274.6394
  15   2.0000     -10.032550      -272.9996
  16   2.0000     -10.026039      -272.8224
  17   2.0000     -10.024517      -272.7810
  18   2.0000     -10.023546      -272.7546
  19   2.0000      -7.869262      -214.1335
  20   2.0000      -7.867374      -214.0821
  21   2.0000      -7.811848      -212.5712
  22   2.0000      -7.808953      -212.4924
  23   2.0000      -6.589562      -179.3111
  24   2.0000      -6.589178      -179.3007
  25   2.0000      -5.816218      -158.2673
  26   2.0000      -5.814198      -158.2124
  27   2.0000      -5.812966      -158.1788
  28   2.0000      -5.811244      -158.1320
  29   2.0000      -5.806412      -158.0005
  30   2.0000      -5.804528      -157.9492
  31   2.0000      -5.759509      -156.7242
  32   2.0000      -5.756640      -156.6461
  33   2.0000      -5.752294      -156.5279
  34   2.0000      -5.751664      -156.5107
  35   2.0000      -5.749233      -156.4446
  36   2.0000      -5.748922      -156.4361
  37   2.0000      -4.734922      -128.8438
  38   2.0000      -4.734545      -128.8335
  39   2.0000      -4.734456      -128.8311
  40   2.0000      -4.734185      -128.8237
  41   2.0000      -4.733481      -128.8046
  42   2.0000      -4.732959      -128.7904
  43   2.0000      -1.047469       -28.5031
  44   2.0000      -1.046219       -28.4691
  45   2.0000      -1.008364       -27.4390
  46   2.0000      -1.005793       -27.3690
  47   2.0000      -0.797792       -21.7090
  48   2.0000      -0.756841       -20.5947
  49   2.0000      -0.746652       -20.3174
  50   2.0000      -0.731010       -19.8918
  51   2.0000      -0.727387       -19.7932
  52   2.0000      -0.708538       -19.2803
  53   2.0000      -0.683700       -18.6044
  54   2.0000      -0.663574       -18.0568
  55   2.0000      -0.630095       -17.1458
  56   2.0000      -0.622983       -16.9522
  57   2.0000      -0.600273       -16.3343
  58   2.0000      -0.598040       -16.2735
  59   2.0000      -0.591605       -16.0984
  60   2.0000      -0.527567       -14.3558
  61   2.0000      -0.518886       -14.1196
  62   2.0000      -0.492263       -13.3952
  63   2.0000      -0.489605       -13.3228
  64   2.0000      -0.464836       -12.6488
  65   2.0000      -0.463411       -12.6101
  66   2.0000      -0.454113       -12.3570
  67   2.0000      -0.451758       -12.2930
  68   2.0000      -0.445066       -12.1109
  69   2.0000      -0.429690       -11.6925
  70   2.0000      -0.421215       -11.4619
  71   2.0000      -0.416188       -11.3251
  72   2.0000      -0.412243       -11.2177
  73   2.0000      -0.402458       -10.9514
  74   2.0000      -0.392624       -10.6838
  75   2.0000      -0.386862       -10.5271
  76   2.0000      -0.384532       -10.4637
  77   2.0000      -0.371444       -10.1075
  78   2.0000      -0.369013       -10.0414
  79   2.0000      -0.361503        -9.8370
  80   2.0000      -0.357988        -9.7414
  81   2.0000      -0.356813        -9.7094
  82   2.0000      -0.350976        -9.5506
  83   2.0000      -0.348457        -9.4820
  84   2.0000      -0.345050        -9.3893
  85   2.0000      -0.327019        -8.8986
  86   2.0000      -0.323706        -8.8085
  87   2.0000      -0.314071        -8.5463
  88   2.0000      -0.307556        -8.3690
  89   2.0000      -0.299806        -8.1581
  90   2.0000      -0.296912        -8.0794
  91   2.0000      -0.286886        -7.8066
  92   2.0000      -0.284850        -7.7512
  93   2.0000      -0.276177        -7.5152
  94   2.0000      -0.272620        -7.4184
  95   2.0000      -0.244907        -6.6643
  96   2.0000      -0.234711        -6.3868
  97   2.0000      -0.225454        -6.1349
  98   2.0000      -0.214893        -5.8475
  99   2.0000      -0.207896        -5.6571
 100   2.0000      -0.199874        -5.4388
 101   0.0000      -0.040378        -1.0987
 102   0.0000      -0.032306        -0.8791
 103   0.0000      -0.003169        -0.0862
 104   0.0000       0.016155         0.4396
 105   0.0000       0.021276         0.5790

MULLIKEN ATOMIC CHARGES
-----------------------
   0 C :   -0.458296
   1 C :   -0.133793
   2 O :   -0.281814
   3 P :    0.662835
   4 S :   -0.465826
   5 O :   -0.290648
   6 C :   -0.147155
   7 C :   -0.456949
   8 S :   -0.135335
   9 C :   -0.219563
  10 S :   -0.132923
  11 P :    0.720897
  12 S :   -0.451744
  13 O :   -0.288857
  14 C :   -0.142753
  15 C :   -0.461468
  16 O :   -0.288858
  17 C :   -0.163352
  18 C :   -0.440016
  19 H :    0.183970
  20 H :    0.150689
  21 H :    0.144080
  22 H :    0.149891
  23 H :    0.151971
  24 H :    0.181437
  25 H :    0.148234
  26 H :    0.172345
  27 H :    0.147054
  28 H :    0.156875
  29 H :    0.187731
  30 H :    0.218325
  31 H :    0.150262
  32 H :    0.176757
  33 H :    0.157038
  34 H :    0.145853
  35 H :    0.173663
  36 H :    0.173105
  37 H :    0.150399
  38 H :    0.154223
  39 H :    0.154703
  40 H :    0.147015
Sum of atomic charges:    0.0000000

LOEWDIN ATOMIC CHARGES
----------------------
   0 C :   -0.404008
   1 C :    0.019359
   2 O :   -0.667512
   3 P :    0.375564
   4 S :   -0.126610
   5 O :   -0.685025
   6 C :    0.007527
   7 C :   -0.401138
   8 S :    0.171642
   9 C :   -0.413851
  10 S :    0.160525
  11 P :    0.370969
  12 S :   -0.091581
  13 O :   -0.662972
  14 C :    0.025360
  15 C :   -0.403139
  16 O :   -0.666017
  17 C :    0.019383
  18 C :   -0.385920
  19 H :    0.169197
  20 H :    0.157350
  21 H :    0.157411
  22 H :    0.178576
  23 H :    0.175174
  24 H :    0.183949
  25 H :    0.179006
  26 H :    0.166727
  27 H :    0.159365
  28 H :    0.161047
  29 H :    0.178899
  30 H :    0.200787
  31 H :    0.181639
  32 H :    0.189469
  33 H :    0.161216
  34 H :    0.158561
  35 H :    0.166357
  36 H :    0.181150
  37 H :    0.171573
  38 H :    0.160081
  39 H :    0.159954
  40 H :    0.159959

  Mayer bond orders larger than 0.100000
B(  0-C ,  1-C ) :   0.9475 B(  0-C , 19-H ) :   0.9573 B(  0-C , 20-H ) :   0.9742
B(  0-C , 21-H ) :   0.9648 B(  1-C ,  2-O ) :   0.7891 B(  1-C , 22-H ) :   0.9650
B(  1-C , 23-H ) :   0.9647 B(  2-O ,  3-P ) :   1.0547 B(  3-P ,  4-S ) :   1.7370
B(  3-P ,  5-O ) :   1.1778 B(  3-P ,  8-S ) :   1.1201 B(  5-O ,  6-C ) :   0.8003
B(  6-C ,  7-C ) :   0.9155 B(  6-C , 24-H ) :   0.9615 B(  6-C , 25-H ) :   0.9591
B(  7-C , 26-H ) :   0.9597 B(  7-C , 27-H ) :   0.9607 B(  7-C , 28-H ) :   0.9716
B(  8-S ,  9-C ) :   0.8932 B(  9-C , 10-S ) :   0.9280 B(  9-C , 29-H ) :   0.9137
B(  9-C , 30-H ) :   0.9021 B( 10-S , 11-P ) :   1.0736 B( 11-P , 12-S ) :   1.7302
B( 11-P , 13-O ) :   1.1876 B( 11-P , 16-O ) :   1.0818 B( 13-O , 14-C ) :   0.8074
B( 14-C , 15-C ) :   0.9128 B( 14-C , 31-H ) :   0.9612 B( 14-C , 32-H ) :   0.9624
B( 15-C , 33-H ) :   0.9701 B( 15-C , 34-H ) :   0.9605 B( 15-C , 35-H ) :   0.9609
B( 16-O , 17-C ) :   0.7842 B( 17-C , 18-C ) :   0.9560 B( 17-C , 36-H ) :   0.9504
B( 17-C , 37-H ) :   0.9467 B( 18-C , 38-H ) :   0.9717 B( 18-C , 39-H ) :   0.9713
B( 18-C , 40-H ) :   0.9644

Dispersion correction           -0.021859994
FINAL SINGLE POINT ENERGY     -2932.461361194602

DIPOLE MOMENT
-------------

Method             : SCF
Type of density    : Electron Density
Multiplicity       :   1
Irrep              :   0
Energy             : -2932.4861043758364758 Eh
Relativity type    :
Basis              : AO
                                X                 Y                 Z
Electronic contribution:     -0.269968123     -12.862713234      -7.640430534
Nuclear contribution   :      0.176215112      12.788633296       8.403625561
                        -----------------------------------------
Total Dipole Moment    :     -0.093753011      -0.074079937       0.763195027
                        -----------------------------------------
Magnitude (a.u.)       :      0.772492145
Magnitude (Debye)      :      1.963518989

Rotational constants in cm-1:             0.013969             0.004934             0.004512
Rotational constants in MHz :           418.789927           147.921984           135.266089

                             ****ORCA TERMINATED NORMALLY****
TOTAL RUN TIME: 0 days 0 hours 1 minutes 19 seconds 654 msec
