                         Program Version 6.0.0  -   RELEASE  -
|  1> ! r2scan-3c def2/J RI DEFGRID2 scfconv6 printgap
|  2> %output
|  3>     printlevel normal
|  4> end
|  5> %cpcm
|  6>     smd true
|  7>     smdsolvent "water"
|  8> end
|  9> * xyz 0 1
| 10> C 5.4336847631 -0.0022044862 -0.9973713589
| 11> C 4.5152438422 -0.8453265575 -0.1336107798
| 12> O 3.52046477 -0.0307829338 0.5155052095
| 13> P 2.0807142012 0.2276905689 -0.1105587146
| 14> S 2.0376582594 0.9700513584 -1.927884044
| 15> O 1.4377418388 1.0957356003 1.0472153185
| 16> C 1.4690691535 2.5386048289 1.0147677175
| 17> C 2.8810886925 3.0722827137 1.1138249975
| 18> S 1.1666076568 -1.6621348426 0.1455360518
| 19> C 0.1412062536 -1.7519798 -1.3624589599
| 20> S -1.5910110231 -2.1445041097 -1.0143294769
| 21> P -2.0888854892 -0.42947476 0.0974753611
| 22> S -1.3617582476 1.2799234755 -0.5498228272
| 23> O -1.6881674175 -0.8847000122 1.5557435967
| 24> C -1.4689698836 0.0343284943 2.6456269216
| 25> C -2.7151021921 0.8279557172 2.9739424249
| 26> O -3.6726860689 -0.4876495466 0.158907227
| 27> C -4.4929347224 -0.0829431953 -0.9559630818
| 28> C -5.8934561272 0.1700614123 -0.4357465276
| 29> H 4.870202097 0.466790301 -1.8009832257
| 30> H 5.9029979854 0.7730662611 -0.3982215274
| 31> H 6.2011567317 -0.6371944756 -1.427822079
| 32> H 5.0612572669 -1.3142006351 0.6871462596
| 33> H 4.0175876896 -1.6179447831 -0.7271703606
| 34> H 0.9825097154 2.8727990817 0.0921658513
| 35> H 0.8606807061 2.8340537333 1.8709413364
| 36> H 3.445573968 2.7844467114 0.2276174281
| 37> H 2.8516614656 4.1554305341 1.1780687547
| 38> H 3.373847199 2.6660125915 1.9932959882
| 39> H 0.5093950005 -2.5671765328 -1.9800252971
| 40> H 0.2143464042 -0.7960977167 -1.8897244293
| 41> H -1.1674867748 -0.6145078301 3.4692209981
| 42> H -0.6397791883 0.6955800866 2.376103733
| 43> H -3.5465727939 0.1548697222 3.1660621776
| 44> H -2.5332637402 1.4413355951 3.8509575933
| 45> H -2.971429226 1.4742426557 2.1346592478
| 46> H -4.0585444133 0.8193807624 -1.3998531242
| 47> H -4.4806803091 -0.8868844788 -1.6966292639
| 48> H -6.2769376703 -0.7272028245 0.0409653968
| 49> H -5.8850094962 0.9788928474 0.2893320129
| 50> H -6.5373504662 0.4403938027 -1.2661128502
| 51> *
| 52>
| 53>                          ****END OF INPUT****

CARTESIAN COORDINATES (ANGSTROEM)
---------------------------------
  C      5.433685   -0.002204   -0.997371
  C      4.515244   -0.845327   -0.133611
  O      3.520465   -0.030783    0.515505
  P      2.080714    0.227691   -0.110559
  S      2.037658    0.970051   -1.927884
  O      1.437742    1.095736    1.047215
  C      1.469069    2.538605    1.014768
  C      2.881089    3.072283    1.113825
  S      1.166608   -1.662135    0.145536
  C      0.141206   -1.751980   -1.362459
  S     -1.591011   -2.144504   -1.014329
  P     -2.088885   -0.429475    0.097475
  S     -1.361758    1.279923   -0.549823
  O     -1.688167   -0.884700    1.555744
  C     -1.468970    0.034328    2.645627
  C     -2.715102    0.827956    2.973942
  O     -3.672686   -0.487650    0.158907
  C     -4.492935   -0.082943   -0.955963
  C     -5.893456    0.170061   -0.435747
  H      4.870202    0.466790   -1.800983
  H      5.902998    0.773066   -0.398222
  H      6.201157   -0.637194   -1.427822
  H      5.061257   -1.314201    0.687146
  H      4.017588   -1.617945   -0.727170
  H      0.982510    2.872799    0.092166
  H      0.860681    2.834054    1.870941
  H      3.445574    2.784447    0.227617
  H      2.851661    4.155431    1.178069
  H      3.373847    2.666013    1.993296
  H      0.509395   -2.567177   -1.980025
  H      0.214346   -0.796098   -1.889724
  H     -1.167487   -0.614508    3.469221
  H     -0.639779    0.695580    2.376104
  H     -3.546573    0.154870    3.166062
  H     -2.533264    1.441336    3.850958
  H     -2.971429    1.474243    2.134659
  H     -4.058544    0.819381   -1.399853
  H     -4.480680   -0.886884   -1.696629
  H     -6.276938   -0.727203    0.040965
  H     -5.885009    0.978893    0.289332
  H     -6.537350    0.440394   -1.266113

 Total Charge           Charge          ....    0
 Multiplicity           Mult            ....    1
 Number of Electrons    NEL             ....  202
 Basis Dimension        Dim             ....  539

ORBITAL ENERGIES
----------------

  NO   OCC          E(Eh)            E(eV)
   0   2.0000     -88.580995     -2410.4114
   1   2.0000     -88.578926     -2410.3551
   2   2.0000     -88.526039     -2408.9160
   3   2.0000     -88.522462     -2408.8186
   4   2.0000     -76.918228     -2093.0514
   5   2.0000     -76.917378     -2093.0283
   6   2.0000     -18.994226      -516.8592
   7   2.0000     -18.992202      -516.8041
   8   2.0000     -18.992068      -516.8005
   9   2.0000     -18.990002      -516.7442
  10   2.0000     -10.104781      -274.9651
  11   2.0000     -10.089722      -274.5553
  12   2.0000     -10.089550      -274.5506
  13   2.0000     -10.088589      -274.5245
  14   2.0000     -10.088014      -274.5088
  15   2.0000     -10.019515      -272.6449
  16   2.0000     -10.018268      -272.6109
  17   2.0000     -10.017892      -272.6007
  18   2.0000     -10.015791      -272.5435
  19   2.0000      -7.875473      -214.3025
  20   2.0000      -7.873157      -214.2395
  21   2.0000      -7.821170      -212.8249
  22   2.0000      -7.817506      -212.7251
  23   2.0000      -6.596563      -179.5016
  24   2.0000      -6.595947      -179.4848
  25   2.0000      -5.822382      -158.4351
  26   2.0000      -5.819976      -158.3696
  27   2.0000      -5.819143      -158.3469
  28   2.0000      -5.817048      -158.2899
  29   2.0000      -5.812718      -158.1721
  30   2.0000      -5.810307      -158.1065
  31   2.0000      -5.768770      -156.9762
  32   2.0000      -5.765152      -156.8778
  33   2.0000      -5.761610      -156.7814
  34   2.0000      -5.760996      -156.7647
  35   2.0000      -5.757790      -156.6774
  36   2.0000      -5.757467      -156.6686
  37   2.0000      -4.741888      -129.0333
  38   2.0000      -4.741445      -129.0213
  39   2.0000      -4.741271      -129.0165
  40   2.0000      -4.740959      -129.0081
  41   2.0000      -4.740559      -128.9972
  42   2.0000      -4.739775      -128.9758
  43   2.0000      -1.052366       -28.6363
  44   2.0000      -1.050635       -28.5892
  45   2.0000      -1.012722       -27.5576
  46   2.0000      -1.009449       -27.4685
  47   2.0000      -0.801725       -21.8160
  48   2.0000      -0.756067       -20.5736
  49   2.0000      -0.743032       -20.2189
  50   2.0000      -0.724366       -19.7110
  51   2.0000      -0.721913       -19.6442
  52   2.0000      -0.709834       -19.3156
  53   2.0000      -0.688608       -18.7380
  54   2.0000      -0.670753       -18.2521
  55   2.0000      -0.630766       -17.1640
  56   2.0000      -0.621750       -16.9187
  57   2.0000      -0.597216       -16.2511
  58   2.0000      -0.592722       -16.1288
  59   2.0000      -0.590781       -16.0760
  60   2.0000      -0.526510       -14.3271
  61   2.0000      -0.517753       -14.0888
  62   2.0000      -0.492156       -13.3923
  63   2.0000      -0.489121       -13.3096
  64   2.0000      -0.465535       -12.6678
  65   2.0000      -0.464022       -12.6267
  66   2.0000      -0.452316       -12.3081
  67   2.0000      -0.448711       -12.2100
  68   2.0000      -0.443993       -12.0817
  69   2.0000      -0.430225       -11.7070
  70   2.0000      -0.419600       -11.4179
  71   2.0000      -0.415479       -11.3058
  72   2.0000      -0.411053       -11.1853
  73   2.0000      -0.400285       -10.8923
  74   2.0000      -0.393513       -10.7080
  75   2.0000      -0.384712       -10.4685
  76   2.0000      -0.383756       -10.4425
  77   2.0000      -0.366008        -9.9596
  78   2.0000      -0.361977        -9.8499
  79   2.0000      -0.354829        -9.6554
  80   2.0000      -0.352513        -9.5924
  81   2.0000      -0.350917        -9.5489
  82   2.0000      -0.348538        -9.4842
  83   2.0000      -0.346605        -9.4316
  84   2.0000      -0.342717        -9.3258
  85   2.0000      -0.325973        -8.8702
  86   2.0000      -0.324213        -8.8223
  87   2.0000      -0.312362        -8.4998
  88   2.0000      -0.304589        -8.2883
  89   2.0000      -0.300063        -8.1651
  90   2.0000      -0.298489        -8.1223
  91   2.0000      -0.288604        -7.8533
  92   2.0000      -0.287084        -7.8119
  93   2.0000      -0.278754        -7.5853
  94   2.0000      -0.275317        -7.4918
  95   2.0000      -0.251063        -6.8318
  96   2.0000      -0.242234        -6.5915
  97   2.0000      -0.234304        -6.3757
  98   2.0000      -0.223479        -6.0812
  99   2.0000      -0.216481        -5.8908
 100   2.0000      -0.209078        -5.6893
 101   0.0000      -0.046037        -1.2527
 102   0.0000      -0.039874        -1.0850
 103   0.0000      -0.008420        -0.2291
 104   0.0000       0.009690         0.2637
 105   0.0000       0.016817         0.4576

MULLIKEN ATOMIC CHARGES
-----------------------
   0 C :   -0.494779
   1 C :   -0.130655
   2 O :   -0.311167
   3 P :    0.702552
   4 S :   -0.515582
   5 O :   -0.313216
   6 C :   -0.143092
   7 C :   -0.499342
   8 S :   -0.148756
   9 C :   -0.218529
  10 S :   -0.146076
  11 P :    0.738441
  12 S :   -0.494824
  13 O :   -0.318120
  14 C :   -0.138619
  15 C :   -0.497974
  16 O :   -0.314643
  17 C :   -0.154590
  18 C :   -0.482078
  19 H :    0.172940
  20 H :    0.166341
  21 H :    0.168877
  22 H :    0.175526
  23 H :    0.164192
  24 H :    0.178085
  25 H :    0.179581
  26 H :    0.170191
  27 H :    0.172483
  28 H :    0.171074
  29 H :    0.230587
  30 H :    0.214161
  31 H :    0.175566
  32 H :    0.182506
  33 H :    0.169455
  34 H :    0.172854
  35 H :    0.170847
  36 H :    0.173383
  37 H :    0.170826
  38 H :    0.165923
  39 H :    0.166085
  40 H :    0.169564
Sum of atomic charges:    0.0000000

LOEWDIN ATOMIC CHARGES
----------------------
   0 C :   -0.407570
   1 C :    0.024384
   2 O :   -0.680847
   3 P :    0.380583
   4 S :   -0.156806
   5 O :   -0.695015
   6 C :    0.011285
   7 C :   -0.404086
   8 S :    0.166234
   9 C :   -0.407593
  10 S :    0.155751
  11 P :    0.372013
  12 S :   -0.115564
  13 O :   -0.681556
  14 C :    0.028609
  15 C :   -0.404210
  16 O :   -0.680019
  17 C :    0.023582
  18 C :   -0.389382
  19 H :    0.163000
  20 H :    0.161676
  21 H :    0.166751
  22 H :    0.189474
  23 H :    0.179882
  24 H :    0.182390
  25 H :    0.190805
  26 H :    0.163321
  27 H :    0.168849
  28 H :    0.164604
  29 H :    0.195572
  30 H :    0.198817
  31 H :    0.191641
  32 H :    0.191111
  33 H :    0.164026
  34 H :    0.169055
  35 H :    0.163433
  36 H :    0.181545
  37 H :    0.179573
  38 H :    0.163272
  39 H :    0.162552
  40 H :    0.168857

  Mayer bond orders larger than 0.100000
B(  0-C ,  1-C ) :   0.9390 B(  0-C , 19-H ) :   0.9618 B(  0-C , 20-H ) :   0.9715
B(  0-C , 21-H ) :   0.9595 B(  1-C ,  2-O ) :   0.7766 B(  1-C , 22-H ) :   0.9547
B(  1-C , 23-H ) :   0.9576 B(  2-O ,  3-P ) :   1.0620 B(  3-P ,  4-S ) :   1.6925
B(  3-P ,  5-O ) :   1.1821 B(  3-P ,  8-S ) :   1.1324 B(  5-O ,  6-C ) :   0.7850
B(  6-C ,  7-C ) :   0.9065 B(  6-C , 24-H ) :   0.9592 B(  6-C , 25-H ) :   0.9483
B(  7-C , 26-H ) :   0.9603 B(  7-C , 27-H ) :   0.9544 B(  7-C , 28-H ) :   0.9701
B(  8-S ,  9-C ) :   0.8874 B(  9-C , 10-S ) :   0.9199 B(  9-C , 29-H ) :   0.8984
B(  9-C , 30-H ) :   0.9061 B( 10-S , 11-P ) :   1.0917 B( 11-P , 12-S ) :   1.7030
B( 11-P , 13-O ) :   1.1860 B( 11-P , 16-O ) :   1.0850 B( 13-O , 14-C ) :   0.7959
B( 14-C , 15-C ) :   0.9071 B( 14-C , 31-H ) :   0.9499 B( 14-C , 32-H ) :   0.9555
B( 15-C , 33-H ) :   0.9696 B( 15-C , 34-H ) :   0.9537 B( 15-C , 35-H ) :   0.9603
B( 16-O , 17-C ) :   0.7768 B( 17-C , 18-C ) :   0.9524 B( 17-C , 36-H ) :   0.9469
B( 17-C , 37-H ) :   0.9378 B( 18-C , 38-H ) :   0.9692 B( 18-C , 39-H ) :   0.9687
B( 18-C , 40-H ) :   0.9583

Dispersion correction           -0.021859994
FINAL SINGLE POINT ENERGY     -2932.469100885860

DIPOLE MOMENT
-------------

Method             : SCF
Type of density    : Electron Density
Multiplicity       :   1
Irrep              :   0
Energy             : -2932.4938440670944146 Eh
Relativity type    :
Basis              : AO
                                X                 Y                 Z
Electronic contribution:     -0.205110795     -12.958289016      -7.437624702
Nuclear contribution   :      0.176215112      12.788633296       8.403625561
                        -----------------------------------------
Total Dipole Moment    :     -0.028895683      -0.169655719       0.966000859
                        -----------------------------------------
Magnitude (a.u.)       :      0.981211335
Magnitude (Debye)      :      2.494041008

Rotational constants in cm-1:             0.013969             0.004934             0.004512
Rotational constants in MHz :           418.789927           147.921984           135.266089

                             ****ORCA TERMINATED NORMALLY****
TOTAL RUN TIME: 0 days 0 hours 1 minutes 55 seconds 593 msec
