                         Program Version 6.0.1  -  RELEASE   -
|  1> ! pbe def2-sv(p) def2/J RI DEFGRID1 loosescf d4 GCP(DFT/SV(P)) printgap
|  2> %output
|  3>     printlevel normal
|  4> end
|  5> * xyz 0 1
|  6> C 3.6093682054 -4.412413277 -1.0257283788
|  7> C 2.1795854706 -3.9325295255 -1.2165590304
|  8> O 1.9233969614 -2.7448455525 -0.4404142826
|  9> C 2.2573920571 -1.578199613 -0.9534342975
| 10> O 2.7288971964 -1.4179068423 -2.0570982544
| 11> C 1.9396525276 -0.4428006491 -0.0006761739
| 12> C 1.063320489 0.5859130952 -0.7075461744
| 13> H 1.5326427052 0.8499931067 -1.6634949854
| 14> C 0.9223157217 1.8658495553 0.0982149787
| 15> O 1.8369303495 2.3302587658 0.7346492001
| 16> O -0.2715477673 2.4124798669 -0.030053194
| 17> C -0.5186352901 3.6654652025 0.64031629
| 18> C -0.1021027978 4.8348226491 -0.2347240375
| 19> S -0.5477934158 -0.1124756805 -1.1866324574
| 20> P -1.6192164703 0.0560776285 0.6500511355
| 21> S -0.6197016305 0.2715701185 2.3223438626
| 22> O -2.7330666337 1.1583861675 0.4648389317
| 23> C -3.6443150163 1.1507778057 -0.6535787311
| 24> O -2.5151245759 -1.2714188793 0.6011454561
| 25> C -1.9261550873 -2.5620214442 0.7903730308
| 26> H 3.8129165698 -4.5730768805 0.029455875
| 27> H 3.7494884723 -5.3440486257 -1.5637828523
| 28> H 4.3071362451 -3.6732396729 -1.4126432418
| 29> H 1.4629497197 -4.662498316 -0.8403259422
| 30> H 1.9835203726 -3.7074845773 -2.268703172
| 31> H 2.868664233 0.0511648927 0.2942503966
| 32> H 1.4511650788 -0.8346930551 0.8924527849
| 33> H -1.5919927028 3.6622006976 0.8325592372
| 34> H 0.0312433868 3.6606499776 1.5858277784
| 35> H 0.9729402791 4.8149208619 -0.3983924616
| 36> H -0.6102939759 4.786183435 -1.1938100942
| 37> H -0.3649914275 5.7613785212 0.2644565901
| 38> H -4.2284909401 2.0614045897 -0.5506157733
| 39> H -4.2841466925 0.2722636679 -0.6031220641
| 40> H -3.083775725 1.1531508444 -1.5882305094
| 41> H -1.273619567 -2.8012257221 -0.0498255741
| 42> H -2.7583789154 -3.2591802403 0.8402892165
| 43> H -1.3544682567 -2.5811614717 1.7195300548
| 44> *
| 45>
| 46>                          ****END OF INPUT****

CARTESIAN COORDINATES (ANGSTROEM)
---------------------------------
  C      3.609368   -4.412413   -1.025728
  C      2.179585   -3.932530   -1.216559
  O      1.923397   -2.744846   -0.440414
  C      2.257392   -1.578200   -0.953434
  O      2.728897   -1.417907   -2.057098
  C      1.939653   -0.442801   -0.000676
  C      1.063320    0.585913   -0.707546
  H      1.532643    0.849993   -1.663495
  C      0.922316    1.865850    0.098215
  O      1.836930    2.330259    0.734649
  O     -0.271548    2.412480   -0.030053
  C     -0.518635    3.665465    0.640316
  C     -0.102103    4.834823   -0.234724
  S     -0.547793   -0.112476   -1.186632
  P     -1.619216    0.056078    0.650051
  S     -0.619702    0.271570    2.322344
  O     -2.733067    1.158386    0.464839
  C     -3.644315    1.150778   -0.653579
  O     -2.515125   -1.271419    0.601145
  C     -1.926155   -2.562021    0.790373
  H      3.812917   -4.573077    0.029456
  H      3.749488   -5.344049   -1.563783
  H      4.307136   -3.673240   -1.412643
  H      1.462950   -4.662498   -0.840326
  H      1.983520   -3.707485   -2.268703
  H      2.868664    0.051165    0.294250
  H      1.451165   -0.834693    0.892453
  H     -1.591993    3.662201    0.832559
  H      0.031243    3.660650    1.585828
  H      0.972940    4.814921   -0.398392
  H     -0.610294    4.786183   -1.193810
  H     -0.364991    5.761379    0.264457
  H     -4.228491    2.061405   -0.550616
  H     -4.284147    0.272264   -0.603122
  H     -3.083776    1.153151   -1.588231
  H     -1.273620   -2.801226   -0.049826
  H     -2.758379   -3.259180    0.840289
  H     -1.354468   -2.581161    1.719530

 Total Charge           Charge          ....    0
 Multiplicity           Mult            ....    1
 Number of Electrons    NEL             ....  174
 Basis Dimension        Dim             ....  316

ORBITAL ENERGIES
----------------

  NO   OCC          E(Eh)            E(eV)
   0   2.0000     -88.043474     -2395.7847
   1   2.0000     -87.987573     -2394.2636
   2   2.0000     -76.430317     -2079.7746
   3   2.0000     -18.809035      -511.8199
   4   2.0000     -18.805689      -511.7288
   5   2.0000     -18.799287      -511.5546
   6   2.0000     -18.795227      -511.4441
   7   2.0000     -18.738859      -509.9103
   8   2.0000     -18.738735      -509.9069
   9   2.0000     -10.017998      -272.6036
  10   2.0000     -10.009697      -272.3777
  11   2.0000      -9.954466      -270.8748
  12   2.0000      -9.950527      -270.7676
  13   2.0000      -9.950513      -270.7672
  14   2.0000      -9.946424      -270.6560
  15   2.0000      -9.944999      -270.6172
  16   2.0000      -9.900613      -269.4094
  17   2.0000      -9.888964      -269.0924
  18   2.0000      -9.886866      -269.0353
  19   2.0000      -7.687943      -209.1996
  20   2.0000      -7.632596      -207.6935
  21   2.0000      -6.427156      -174.8918
  22   2.0000      -5.715839      -155.5359
  23   2.0000      -5.712397      -155.4422
  24   2.0000      -5.705014      -155.2413
  25   2.0000      -5.661800      -154.0654
  26   2.0000      -5.653002      -153.8260
  27   2.0000      -5.652645      -153.8163
  28   2.0000      -4.649938      -126.5312
  29   2.0000      -4.649042      -126.5069
  30   2.0000      -4.647471      -126.4641
  31   2.0000      -1.015786       -27.6409
  32   2.0000      -1.012248       -27.5447
  33   2.0000      -0.991348       -26.9759
  34   2.0000      -0.947045       -25.7704
  35   2.0000      -0.920610       -25.0511
  36   2.0000      -0.916937       -24.9511
  37   2.0000      -0.766771       -20.8649
  38   2.0000      -0.713579       -19.4175
  39   2.0000      -0.702504       -19.1161
  40   2.0000      -0.695848       -18.9350
  41   2.0000      -0.658160       -17.9094
  42   2.0000      -0.640177       -17.4201
  43   2.0000      -0.627635       -17.0788
  44   2.0000      -0.618713       -16.8360
  45   2.0000      -0.600291       -16.3348
  46   2.0000      -0.564322       -15.3560
  47   2.0000      -0.519345       -14.1321
  48   2.0000      -0.501363       -13.6428
  49   2.0000      -0.498821       -13.5736
  50   2.0000      -0.485145       -13.2015
  51   2.0000      -0.479543       -13.0490
  52   2.0000      -0.454061       -12.3556
  53   2.0000      -0.444933       -12.1072
  54   2.0000      -0.437747       -11.9117
  55   2.0000      -0.436615       -11.8809
  56   2.0000      -0.427405       -11.6303
  57   2.0000      -0.419015       -11.4020
  58   2.0000      -0.414791       -11.2870
  59   2.0000      -0.408970       -11.1286
  60   2.0000      -0.406217       -11.0537
  61   2.0000      -0.399428       -10.8690
  62   2.0000      -0.396074       -10.7777
  63   2.0000      -0.388171       -10.5627
  64   2.0000      -0.380575       -10.3560
  65   2.0000      -0.366910        -9.9841
  66   2.0000      -0.358190        -9.7468
  67   2.0000      -0.355555        -9.6751
  68   2.0000      -0.346435        -9.4270
  69   2.0000      -0.339620        -9.2415
  70   2.0000      -0.334252        -9.0955
  71   2.0000      -0.331501        -9.0206
  72   2.0000      -0.325581        -8.8595
  73   2.0000      -0.312805        -8.5119
  74   2.0000      -0.308729        -8.4010
  75   2.0000      -0.300754        -8.1839
  76   2.0000      -0.299128        -8.1397
  77   2.0000      -0.294540        -8.0148
  78   2.0000      -0.275450        -7.4954
  79   2.0000      -0.265306        -7.2193
  80   2.0000      -0.262882        -7.1534
  81   2.0000      -0.261960        -7.1283
  82   2.0000      -0.240558        -6.5459
  83   2.0000      -0.226615        -6.1665
  84   2.0000      -0.215615        -5.8672
  85   2.0000      -0.205029        -5.5791
  86   2.0000      -0.202950        -5.5225
  87   0.0000      -0.043244        -1.1767
  88   0.0000      -0.032378        -0.8810
  89   0.0000      -0.016547        -0.4503
  90   0.0000       0.002087         0.0568
  91   0.0000       0.013076         0.3558

MULLIKEN ATOMIC CHARGES
-----------------------
   0 C :   -0.305885
   1 C :   -0.013394
   2 O :   -0.222073
   3 C :    0.122444
   4 O :   -0.208863
   5 C :   -0.073961
   6 C :   -0.318872
   7 H :    0.163814
   8 C :    0.204920
   9 O :   -0.183878
  10 O :   -0.232577
  11 C :   -0.009061
  12 C :   -0.303026
  13 S :   -0.099435
  14 P :    0.608260
  15 S :   -0.299353
  16 O :   -0.362424
  17 C :   -0.109786
  18 O :   -0.388087
  19 C :   -0.104898
  20 H :    0.116345
  21 H :    0.113568
  22 H :    0.129587
  23 H :    0.100934
  24 H :    0.109570
  25 H :    0.131378
  26 H :    0.114414
  27 H :    0.106339
  28 H :    0.116729
  29 H :    0.125683
  30 H :    0.111226
  31 H :    0.114817
  32 H :    0.130833
  33 H :    0.127803
  34 H :    0.124575
  35 H :    0.116548
  36 H :    0.124352
  37 H :    0.121431
Sum of atomic charges:    0.0000000

LOEWDIN ATOMIC CHARGES
----------------------
   0 C :   -0.356074
   1 C :   -0.111610
   2 O :   -0.053959
   3 C :    0.026684
   4 O :   -0.172132
   5 C :   -0.254423
   6 C :   -0.259754
   7 H :    0.157449
   8 C :    0.008817
   9 O :   -0.147870
  10 O :   -0.061978
  11 C :   -0.110295
  12 C :   -0.355679
  13 S :    0.097463
  14 P :    0.576452
  15 S :   -0.288444
  16 O :   -0.235760
  17 C :   -0.210624
  18 O :   -0.261068
  19 C :   -0.218049
  20 H :    0.125953
  21 H :    0.131078
  22 H :    0.131624
  23 H :    0.116370
  24 H :    0.120595
  25 H :    0.154268
  26 H :    0.126941
  27 H :    0.117719
  28 H :    0.123771
  29 H :    0.129958
  30 H :    0.123477
  31 H :    0.131659
  32 H :    0.125453
  33 H :    0.118063
  34 H :    0.111481
  35 H :    0.107143
  36 H :    0.122154
  37 H :    0.113147

  Mayer bond orders larger than 0.100000
B(  0-C ,  1-C ) :   1.1743 B(  0-C , 20-H ) :   0.9483 B(  0-C , 21-H ) :   0.9441
B(  0-C , 22-H ) :   0.9456 B(  1-C ,  2-O ) :   0.9169 B(  1-C , 23-H ) :   0.9363
B(  1-C , 24-H ) :   0.9145 B(  2-O ,  3-C ) :   1.2369 B(  3-C ,  4-O ) :   2.0358
B(  3-C ,  5-C ) :   0.9972 B(  5-C ,  6-C ) :   1.0775 B(  5-C , 25-H ) :   0.8626
B(  5-C , 26-H ) :   0.8862 B(  6-C ,  7-H ) :   0.8472 B(  6-C ,  8-C ) :   0.9184
B(  6-C , 13-S ) :   0.9978 B(  8-C ,  9-O ) :   2.0633 B(  8-C , 10-O ) :   1.2381
B( 10-O , 11-C ) :   0.8986 B( 11-C , 12-C ) :   1.1731 B( 11-C , 27-H ) :   0.9309
B( 11-C , 28-H ) :   0.9138 B( 12-C , 29-H ) :   0.9454 B( 12-C , 30-H ) :   0.9483
B( 12-C , 31-H ) :   0.9452 B( 13-S , 14-P ) :   0.9518 B( 13-S , 15-S ) :   0.1162
B( 14-P , 15-S ) :   1.6264 B( 14-P , 16-O ) :   1.1214 B( 14-P , 18-O ) :   1.0689
B( 16-O , 17-C ) :   0.9153 B( 17-C , 32-H ) :   0.9591 B( 17-C , 33-H ) :   0.9479
B( 17-C , 34-H ) :   0.9374 B( 18-O , 19-C ) :   0.9313 B( 19-C , 35-H ) :   0.9410
B( 19-C , 36-H ) :   0.9575 B( 19-C , 37-H ) :   0.9378

Dispersion correction           -0.052810600
FINAL SINGLE POINT ENERGY     -1979.024565342786

DIPOLE MOMENT
-------------

Method             : SCF
Type of density    : Electron Density
Multiplicity       :   1
Irrep              :   0
Energy             : -1979.1538246098257332 Eh
Relativity type    :
Basis              : AO
                                X                 Y                 Z
Electronic contribution:     -5.088867861       3.520990241       5.157423145
Nuclear contribution   :      3.955298466      -4.141316715      -5.947769339
                        -----------------------------------------
Total Dipole Moment    :     -1.133569395      -0.620326473      -0.790346194
                        -----------------------------------------
Magnitude (a.u.)       :      1.514738133
Magnitude (Debye)      :      3.850158358

Rotational constants in cm-1:             0.013704             0.007077             0.005627
Rotational constants in MHz :           410.844837           212.170015           168.705618

                             ****ORCA TERMINATED NORMALLY****
TOTAL RUN TIME: 0 days 0 hours 0 minutes 42 seconds 259 msec
