                         Program Version 6.0.0  -   RELEASE  -
|  1> ! r2scan-3c def2/J RI DEFGRID2 scfconv6 printgap
|  2> %output
|  3>     printlevel normal
|  4> end
|  5> * xyz 0 1
|  6> C 5.8085647719 -1.5773471144 -1.3647906674
|  7> C 4.5130975504 -0.8054463829 -1.5103909879
|  8> O 3.7905946099 -0.9151714926 -0.2655534914
|  9> P 2.5734663297 0.0512057594 0.0583556282
| 10> S 2.937432792 1.9668443335 -0.0788526349
| 11> O 2.1582323887 -0.3663608315 1.5160739815
| 12> C 1.8489141428 -1.727244633 1.9091517755
| 13> C 3.0629171213 -2.401753004 2.5132693292
| 14> S 1.048404442 -0.6761042776 -1.2470604701
| 15> C -0.037649892 0.7575741526 -1.08686687
| 16> S -0.8490034808 0.8532155573 0.5342594141
| 17> P -2.8441339141 0.2931701961 -0.0039604179
| 18> S -3.1977135606 0.1888221542 -1.9337037874
| 19> O -3.7266418777 1.321273836 0.8118092077
| 20> C -3.7520819961 2.7157925144 0.4457538917
| 21> C -4.8833777236 3.3723973021 1.2103995509
| 22> O -3.2331869807 -0.9748134172 0.8514416802
| 23> C -3.1361522587 -2.3136067696 0.3300806815
| 24> C -1.701851491 -2.8013131693 0.3001404185
| 25> H 5.5986084202 -2.6204953735 -1.147381902
| 26> H 6.3678753584 -1.5099786383 -2.2920502363
| 27> H 6.403260484 -1.1597668432 -0.5571896765
| 28> H 3.8867782281 -1.21912037 -2.3052609072
| 29> H 4.6968582571 0.2546607583 -1.713375097
| 30> H 1.0460074015 -1.6178788703 2.6408888601
| 31> H 1.4862643682 -2.2749903113 1.0345936824
| 32> H 2.7838912097 -3.3932655986 2.8559275973
| 33> H 3.8533058437 -2.485930087 1.7725024605
| 34> H 3.4315776008 -1.8212204091 3.3544393527
| 35> H -0.8005965071 0.6773740593 -1.8651633984
| 36> H 0.5632177595 1.6597206143 -1.2047905814
| 37> H -2.7858549443 3.1610171525 0.703047594
| 38> H -3.9034997708 2.7923521431 -0.63664753
| 39> H -4.917389962 4.4278911334 0.9612645324
| 40> H -5.8291243422 2.9084581318 0.9457744675
| 41> H -4.7223296215 3.2578175804 2.2782476843
| 42> H -3.7477516324 -2.9047889504 1.0131440795
| 43> H -3.5747861546 -2.3341162128 -0.6729401788
| 44> H -1.1269298221 -2.2322483214 -0.4300264438
| 45> H -1.2476688293 -2.6852791414 1.2809132502
| 46> H -1.6840432434 -3.8486897845 0.0167871202
| 47> *
| 48>
| 49>                          ****END OF INPUT****

CARTESIAN COORDINATES (ANGSTROEM)
---------------------------------
  C      5.808565   -1.577347   -1.364791
  C      4.513098   -0.805446   -1.510391
  O      3.790595   -0.915171   -0.265553
  P      2.573466    0.051206    0.058356
  S      2.937433    1.966844   -0.078853
  O      2.158232   -0.366361    1.516074
  C      1.848914   -1.727245    1.909152
  C      3.062917   -2.401753    2.513269
  S      1.048404   -0.676104   -1.247060
  C     -0.037650    0.757574   -1.086867
  S     -0.849003    0.853216    0.534259
  P     -2.844134    0.293170   -0.003960
  S     -3.197714    0.188822   -1.933704
  O     -3.726642    1.321274    0.811809
  C     -3.752082    2.715793    0.445754
  C     -4.883378    3.372397    1.210400
  O     -3.233187   -0.974813    0.851442
  C     -3.136152   -2.313607    0.330081
  C     -1.701851   -2.801313    0.300140
  H      5.598608   -2.620495   -1.147382
  H      6.367875   -1.509979   -2.292050
  H      6.403260   -1.159767   -0.557190
  H      3.886778   -1.219120   -2.305261
  H      4.696858    0.254661   -1.713375
  H      1.046007   -1.617879    2.640889
  H      1.486264   -2.274990    1.034594
  H      2.783891   -3.393266    2.855928
  H      3.853306   -2.485930    1.772502
  H      3.431578   -1.821220    3.354439
  H     -0.800597    0.677374   -1.865163
  H      0.563218    1.659721   -1.204791
  H     -2.785855    3.161017    0.703048
  H     -3.903500    2.792352   -0.636648
  H     -4.917390    4.427891    0.961265
  H     -5.829124    2.908458    0.945774
  H     -4.722330    3.257818    2.278248
  H     -3.747752   -2.904789    1.013144
  H     -3.574786   -2.334116   -0.672940
  H     -1.126930   -2.232248   -0.430026
  H     -1.247669   -2.685279    1.280913
  H     -1.684043   -3.848690    0.016787

 Total Charge           Charge          ....    0
 Multiplicity           Mult            ....    1
 Number of Electrons    NEL             ....  202
 Basis Dimension        Dim             ....  539

ORBITAL ENERGIES
----------------

  NO   OCC          E(Eh)            E(eV)
   0   2.0000     -88.576452     -2410.2878
   1   2.0000     -88.575671     -2410.2665
   2   2.0000     -88.526141     -2408.9188
   3   2.0000     -88.520567     -2408.7671
   4   2.0000     -76.915690     -2092.9823
   5   2.0000     -76.914923     -2092.9615
   6   2.0000     -18.998976      -516.9884
   7   2.0000     -18.996062      -516.9091
   8   2.0000     -18.993731      -516.8457
   9   2.0000     -18.991638      -516.7888
  10   2.0000     -10.105616      -274.9878
  11   2.0000     -10.103968      -274.9429
  12   2.0000     -10.101263      -274.8693
  13   2.0000     -10.099802      -274.8296
  14   2.0000     -10.097536      -274.7679
  15   2.0000     -10.038080      -273.1500
  16   2.0000     -10.034365      -273.0489
  17   2.0000     -10.031552      -272.9724
  18   2.0000     -10.031255      -272.9643
  19   2.0000      -7.870823      -214.1760
  20   2.0000      -7.869448      -214.1386
  21   2.0000      -7.820910      -212.8178
  22   2.0000      -7.815304      -212.6652
  23   2.0000      -6.594391      -179.4425
  24   2.0000      -6.593766      -179.4255
  25   2.0000      -5.817448      -158.3008
  26   2.0000      -5.816320      -158.2701
  27   2.0000      -5.814665      -158.2251
  28   2.0000      -5.813254      -158.1867
  29   2.0000      -5.808214      -158.0495
  30   2.0000      -5.806730      -158.0091
  31   2.0000      -5.768392      -156.9659
  32   2.0000      -5.763011      -156.8195
  33   2.0000      -5.761193      -156.7700
  34   2.0000      -5.761071      -156.7667
  35   2.0000      -5.755507      -156.6153
  36   2.0000      -5.755323      -156.6103
  37   2.0000      -4.740203      -128.9875
  38   2.0000      -4.739421      -128.9662
  39   2.0000      -4.738962      -128.9537
  40   2.0000      -4.738801      -128.9493
  41   2.0000      -4.737699      -128.9194
  42   2.0000      -4.737618      -128.9172
  43   2.0000      -1.056524       -28.7495
  44   2.0000      -1.054805       -28.7027
  45   2.0000      -1.016363       -27.6566
  46   2.0000      -1.012512       -27.5519
  47   2.0000      -0.799131       -21.7455
  48   2.0000      -0.762809       -20.7571
  49   2.0000      -0.755677       -20.5630
  50   2.0000      -0.741202       -20.1691
  51   2.0000      -0.731191       -19.8967
  52   2.0000      -0.712895       -19.3989
  53   2.0000      -0.685477       -18.6528
  54   2.0000      -0.669667       -18.2226
  55   2.0000      -0.633740       -17.2449
  56   2.0000      -0.624306       -16.9882
  57   2.0000      -0.607615       -16.5340
  58   2.0000      -0.598653       -16.2902
  59   2.0000      -0.594250       -16.1704
  60   2.0000      -0.538205       -14.6453
  61   2.0000      -0.528541       -14.3823
  62   2.0000      -0.505732       -13.7617
  63   2.0000      -0.493375       -13.4254
  64   2.0000      -0.476128       -12.9561
  65   2.0000      -0.468274       -12.7424
  66   2.0000      -0.460431       -12.5290
  67   2.0000      -0.458861       -12.4862
  68   2.0000      -0.450429       -12.2568
  69   2.0000      -0.441706       -12.0194
  70   2.0000      -0.424869       -11.5613
  71   2.0000      -0.415318       -11.3014
  72   2.0000      -0.411202       -11.1894
  73   2.0000      -0.401399       -10.9226
  74   2.0000      -0.399764       -10.8781
  75   2.0000      -0.390290       -10.6203
  76   2.0000      -0.383976       -10.4485
  77   2.0000      -0.375938       -10.2298
  78   2.0000      -0.371763       -10.1162
  79   2.0000      -0.370887       -10.0923
  80   2.0000      -0.367360        -9.9964
  81   2.0000      -0.362780        -9.8717
  82   2.0000      -0.359987        -9.7957
  83   2.0000      -0.356952        -9.7131
  84   2.0000      -0.351214        -9.5570
  85   2.0000      -0.335673        -9.1341
  86   2.0000      -0.325697        -8.8627
  87   2.0000      -0.321101        -8.7376
  88   2.0000      -0.320194        -8.7129
  89   2.0000      -0.311253        -8.4696
  90   2.0000      -0.310580        -8.4513
  91   2.0000      -0.293184        -7.9779
  92   2.0000      -0.285748        -7.7756
  93   2.0000      -0.280236        -7.6256
  94   2.0000      -0.271997        -7.4014
  95   2.0000      -0.245943        -6.6925
  96   2.0000      -0.237421        -6.4605
  97   2.0000      -0.228119        -6.2074
  98   2.0000      -0.222194        -6.0462
  99   2.0000      -0.218365        -5.9420
 100   2.0000      -0.213688        -5.8148
 101   0.0000      -0.045898        -1.2489
 102   0.0000      -0.031366        -0.8535
 103   0.0000      -0.010499        -0.2857
 104   0.0000       0.001331         0.0362
 105   0.0000       0.013223         0.3598

MULLIKEN ATOMIC CHARGES
-----------------------
   0 C :   -0.441702
   1 C :   -0.150977
   2 O :   -0.286502
   3 P :    0.659133
   4 S :   -0.441503
   5 O :   -0.263856
   6 C :   -0.113508
   7 C :   -0.459983
   8 S :   -0.182192
   9 C :   -0.249307
  10 S :   -0.119109
  11 P :    0.705155
  12 S :   -0.482929
  13 O :   -0.293263
  14 C :   -0.144342
  15 C :   -0.436373
  16 O :   -0.298201
  17 C :   -0.145013
  18 C :   -0.441888
  19 H :    0.150628
  20 H :    0.148763
  21 H :    0.160396
  22 H :    0.152563
  23 H :    0.171521
  24 H :    0.160655
  25 H :    0.161093
  26 H :    0.146229
  27 H :    0.165548
  28 H :    0.159188
  29 H :    0.218629
  30 H :    0.215825
  31 H :    0.158393
  32 H :    0.163408
  33 H :    0.146097
  34 H :    0.156562
  35 H :    0.154073
  36 H :    0.150036
  37 H :    0.173776
  38 H :    0.172488
  39 H :    0.152240
  40 H :    0.148248
Sum of atomic charges:   -0.0000000

LOEWDIN ATOMIC CHARGES
----------------------
   0 C :   -0.385853
   1 C :    0.020593
   2 O :   -0.674894
   3 P :    0.371335
   4 S :   -0.102621
   5 O :   -0.648117
   6 C :    0.019113
   7 C :   -0.392482
   8 S :    0.114158
   9 C :   -0.428934
  10 S :    0.156034
  11 P :    0.384241
  12 S :   -0.135472
  13 O :   -0.655155
  14 C :    0.019967
  15 C :   -0.384005
  16 O :   -0.646593
  17 C :    0.024145
  18 C :   -0.408640
  19 H :    0.158292
  20 H :    0.161327
  21 H :    0.162404
  22 H :    0.172733
  23 H :    0.181973
  24 H :    0.182669
  25 H :    0.176616
  26 H :    0.158833
  27 H :    0.166600
  28 H :    0.162495
  29 H :    0.196879
  30 H :    0.191982
  31 H :    0.174353
  32 H :    0.177924
  33 H :    0.159951
  34 H :    0.161222
  35 H :    0.160521
  36 H :    0.180357
  37 H :    0.180618
  38 H :    0.166213
  39 H :    0.159750
  40 H :    0.159469

  Mayer bond orders larger than 0.100000
B(  0-C ,  1-C ) :   0.9554 B(  0-C , 19-H ) :   0.9718 B(  0-C , 20-H ) :   0.9631
B(  0-C , 21-H ) :   0.9710 B(  1-C ,  2-O ) :   0.7869 B(  1-C , 22-H ) :   0.9416
B(  1-C , 23-H ) :   0.9499 B(  2-O ,  3-P ) :   1.0517 B(  3-P ,  4-S ) :   1.8503
B(  3-P ,  5-O ) :   1.1591 B(  3-P ,  8-S ) :   0.9826 B(  5-O ,  6-C ) :   0.7402
B(  6-C ,  7-C ) :   0.9415 B(  6-C , 24-H ) :   0.9604 B(  6-C , 25-H ) :   0.9650
B(  7-C , 26-H ) :   0.9653 B(  7-C , 27-H ) :   0.9660 B(  7-C , 28-H ) :   0.9714
B(  8-S ,  9-C ) :   0.9217 B(  9-C , 10-S ) :   0.9230 B(  9-C , 29-H ) :   0.8847
B(  9-C , 30-H ) :   0.9107 B( 10-S , 11-P ) :   1.0295 B( 11-P , 12-S ) :   1.7315
B( 11-P , 13-O ) :   1.1385 B( 11-P , 16-O ) :   1.1506 B( 13-O , 14-C ) :   0.7835
B( 14-C , 15-C ) :   0.9603 B( 14-C , 31-H ) :   0.9418 B( 14-C , 32-H ) :   0.9519
B( 15-C , 33-H ) :   0.9640 B( 15-C , 34-H ) :   0.9720 B( 15-C , 35-H ) :   0.9712
B( 16-O , 17-C ) :   0.7999 B( 17-C , 18-C ) :   0.9346 B( 17-C , 36-H ) :   0.9596
B( 17-C , 37-H ) :   0.9669 B( 18-C , 38-H ) :   0.9530 B( 18-C , 39-H ) :   0.9672
B( 18-C , 40-H ) :   0.9613

Dispersion correction           -0.020288460
FINAL SINGLE POINT ENERGY     -2932.464819737294

DIPOLE MOMENT
-------------

Method             : SCF
Type of density    : Electron Density
Multiplicity       :   1
Irrep              :   0
Energy             : -2932.4911848237552476 Eh
Relativity type    :
Basis              : AO
                                X                 Y                 Z
Electronic contribution:     -5.343589343      11.181121967      -5.392740370
Nuclear contribution   :      5.649079230     -12.555737576       5.733156093
                        -----------------------------------------
Total Dipole Moment    :      0.305489887      -1.374615608       0.340415723
                        -----------------------------------------
Magnitude (a.u.)       :      1.448714950
Magnitude (Debye)      :      3.682340762

Rotational constants in cm-1:             0.013062             0.004045             0.003778
Rotational constants in MHz :           391.583743           121.265800           113.276575

                             ****ORCA TERMINATED NORMALLY****
TOTAL RUN TIME: 0 days 0 hours 1 minutes 15 seconds 214 msec
