                         Program Version 6.0.0  -   RELEASE  -
|  1> ! r2scan-3c def2/J RI DEFGRID2 scfconv6 printgap
|  2> %output
|  3>     printlevel normal
|  4> end
|  5> %cpcm
|  6>     smd true
|  7>     smdsolvent "water"
|  8> end
|  9> * xyz 0 1
| 10> C 5.8085647719 -1.5773471144 -1.3647906674
| 11> C 4.5130975504 -0.8054463829 -1.5103909879
| 12> O 3.7905946099 -0.9151714926 -0.2655534914
| 13> P 2.5734663297 0.0512057594 0.0583556282
| 14> S 2.937432792 1.9668443335 -0.0788526349
| 15> O 2.1582323887 -0.3663608315 1.5160739815
| 16> C 1.8489141428 -1.727244633 1.9091517755
| 17> C 3.0629171213 -2.401753004 2.5132693292
| 18> S 1.048404442 -0.6761042776 -1.2470604701
| 19> C -0.037649892 0.7575741526 -1.08686687
| 20> S -0.8490034808 0.8532155573 0.5342594141
| 21> P -2.8441339141 0.2931701961 -0.0039604179
| 22> S -3.1977135606 0.1888221542 -1.9337037874
| 23> O -3.7266418777 1.321273836 0.8118092077
| 24> C -3.7520819961 2.7157925144 0.4457538917
| 25> C -4.8833777236 3.3723973021 1.2103995509
| 26> O -3.2331869807 -0.9748134172 0.8514416802
| 27> C -3.1361522587 -2.3136067696 0.3300806815
| 28> C -1.701851491 -2.8013131693 0.3001404185
| 29> H 5.5986084202 -2.6204953735 -1.147381902
| 30> H 6.3678753584 -1.5099786383 -2.2920502363
| 31> H 6.403260484 -1.1597668432 -0.5571896765
| 32> H 3.8867782281 -1.21912037 -2.3052609072
| 33> H 4.6968582571 0.2546607583 -1.713375097
| 34> H 1.0460074015 -1.6178788703 2.6408888601
| 35> H 1.4862643682 -2.2749903113 1.0345936824
| 36> H 2.7838912097 -3.3932655986 2.8559275973
| 37> H 3.8533058437 -2.485930087 1.7725024605
| 38> H 3.4315776008 -1.8212204091 3.3544393527
| 39> H -0.8005965071 0.6773740593 -1.8651633984
| 40> H 0.5632177595 1.6597206143 -1.2047905814
| 41> H -2.7858549443 3.1610171525 0.703047594
| 42> H -3.9034997708 2.7923521431 -0.63664753
| 43> H -4.917389962 4.4278911334 0.9612645324
| 44> H -5.8291243422 2.9084581318 0.9457744675
| 45> H -4.7223296215 3.2578175804 2.2782476843
| 46> H -3.7477516324 -2.9047889504 1.0131440795
| 47> H -3.5747861546 -2.3341162128 -0.6729401788
| 48> H -1.1269298221 -2.2322483214 -0.4300264438
| 49> H -1.2476688293 -2.6852791414 1.2809132502
| 50> H -1.6840432434 -3.8486897845 0.0167871202
| 51> *
| 52>
| 53>                          ****END OF INPUT****

CARTESIAN COORDINATES (ANGSTROEM)
---------------------------------
  C      5.808565   -1.577347   -1.364791
  C      4.513098   -0.805446   -1.510391
  O      3.790595   -0.915171   -0.265553
  P      2.573466    0.051206    0.058356
  S      2.937433    1.966844   -0.078853
  O      2.158232   -0.366361    1.516074
  C      1.848914   -1.727245    1.909152
  C      3.062917   -2.401753    2.513269
  S      1.048404   -0.676104   -1.247060
  C     -0.037650    0.757574   -1.086867
  S     -0.849003    0.853216    0.534259
  P     -2.844134    0.293170   -0.003960
  S     -3.197714    0.188822   -1.933704
  O     -3.726642    1.321274    0.811809
  C     -3.752082    2.715793    0.445754
  C     -4.883378    3.372397    1.210400
  O     -3.233187   -0.974813    0.851442
  C     -3.136152   -2.313607    0.330081
  C     -1.701851   -2.801313    0.300140
  H      5.598608   -2.620495   -1.147382
  H      6.367875   -1.509979   -2.292050
  H      6.403260   -1.159767   -0.557190
  H      3.886778   -1.219120   -2.305261
  H      4.696858    0.254661   -1.713375
  H      1.046007   -1.617879    2.640889
  H      1.486264   -2.274990    1.034594
  H      2.783891   -3.393266    2.855928
  H      3.853306   -2.485930    1.772502
  H      3.431578   -1.821220    3.354439
  H     -0.800597    0.677374   -1.865163
  H      0.563218    1.659721   -1.204791
  H     -2.785855    3.161017    0.703048
  H     -3.903500    2.792352   -0.636648
  H     -4.917390    4.427891    0.961265
  H     -5.829124    2.908458    0.945774
  H     -4.722330    3.257818    2.278248
  H     -3.747752   -2.904789    1.013144
  H     -3.574786   -2.334116   -0.672940
  H     -1.126930   -2.232248   -0.430026
  H     -1.247669   -2.685279    1.280913
  H     -1.684043   -3.848690    0.016787

 Total Charge           Charge          ....    0
 Multiplicity           Mult            ....    1
 Number of Electrons    NEL             ....  202
 Basis Dimension        Dim             ....  539

ORBITAL ENERGIES
----------------

  NO   OCC          E(Eh)            E(eV)
   0   2.0000     -88.581088     -2410.4140
   1   2.0000     -88.579612     -2410.3738
   2   2.0000     -88.534149     -2409.1367
   3   2.0000     -88.531289     -2409.0588
   4   2.0000     -76.921362     -2093.1367
   5   2.0000     -76.921303     -2093.1351
   6   2.0000     -18.998902      -516.9864
   7   2.0000     -18.998396      -516.9726
   8   2.0000     -18.997825      -516.9571
   9   2.0000     -18.997090      -516.9371
  10   2.0000     -10.102457      -274.9018
  11   2.0000     -10.093387      -274.6550
  12   2.0000     -10.092080      -274.6195
  13   2.0000     -10.091515      -274.6041
  14   2.0000     -10.091107      -274.5930
  15   2.0000     -10.020380      -272.6684
  16   2.0000     -10.019960      -272.6570
  17   2.0000     -10.018971      -272.6301
  18   2.0000     -10.018856      -272.6269
  19   2.0000      -7.874945      -214.2881
  20   2.0000      -7.873938      -214.2608
  21   2.0000      -7.829147      -213.0419
  22   2.0000      -7.826404      -212.9673
  23   2.0000      -6.600219      -179.6011
  24   2.0000      -6.600095      -179.5977
  25   2.0000      -5.821826      -158.4199
  26   2.0000      -5.820590      -158.3863
  27   2.0000      -5.818767      -158.3367
  28   2.0000      -5.817819      -158.3109
  29   2.0000      -5.812204      -158.1581
  30   2.0000      -5.811266      -158.1326
  31   2.0000      -5.776590      -157.1890
  32   2.0000      -5.773974      -157.1178
  33   2.0000      -5.769436      -156.9943
  34   2.0000      -5.769297      -156.9905
  35   2.0000      -5.766599      -156.9171
  36   2.0000      -5.766495      -156.9143
  37   2.0000      -4.745836      -129.1408
  38   2.0000      -4.745403      -129.1290
  39   2.0000      -4.745242      -129.1246
  40   2.0000      -4.745076      -129.1201
  41   2.0000      -4.744109      -129.0938
  42   2.0000      -4.743568      -129.0791
  43   2.0000      -1.059385       -28.8273
  44   2.0000      -1.057328       -28.7713
  45   2.0000      -1.016453       -27.6591
  46   2.0000      -1.016133       -27.6504
  47   2.0000      -0.802558       -21.8387
  48   2.0000      -0.758867       -20.6498
  49   2.0000      -0.749324       -20.3902
  50   2.0000      -0.728562       -19.8252
  51   2.0000      -0.722108       -19.6496
  52   2.0000      -0.713081       -19.4039
  53   2.0000      -0.689594       -18.7648
  54   2.0000      -0.676043       -18.3961
  55   2.0000      -0.630730       -17.1630
  56   2.0000      -0.618542       -16.8314
  57   2.0000      -0.599557       -16.3148
  58   2.0000      -0.594275       -16.1710
  59   2.0000      -0.589529       -16.0419
  60   2.0000      -0.534262       -14.5380
  61   2.0000      -0.525772       -14.3070
  62   2.0000      -0.500289       -13.6136
  63   2.0000      -0.491488       -13.3741
  64   2.0000      -0.477921       -13.0049
  65   2.0000      -0.461380       -12.5548
  66   2.0000      -0.457431       -12.4473
  67   2.0000      -0.455229       -12.3874
  68   2.0000      -0.444499       -12.0954
  69   2.0000      -0.437658       -11.9093
  70   2.0000      -0.422588       -11.4992
  71   2.0000      -0.412453       -11.2234
  72   2.0000      -0.405646       -11.0382
  73   2.0000      -0.398413       -10.8414
  74   2.0000      -0.393910       -10.7188
  75   2.0000      -0.388955       -10.5840
  76   2.0000      -0.381381       -10.3779
  77   2.0000      -0.366769        -9.9803
  78   2.0000      -0.362860        -9.8739
  79   2.0000      -0.361548        -9.8382
  80   2.0000      -0.358125        -9.7451
  81   2.0000      -0.352370        -9.5885
  82   2.0000      -0.350763        -9.5447
  83   2.0000      -0.349565        -9.5121
  84   2.0000      -0.346276        -9.4226
  85   2.0000      -0.329876        -8.9764
  86   2.0000      -0.324008        -8.8167
  87   2.0000      -0.317958        -8.6521
  88   2.0000      -0.316172        -8.6035
  89   2.0000      -0.307851        -8.3770
  90   2.0000      -0.303756        -8.2656
  91   2.0000      -0.290401        -7.9022
  92   2.0000      -0.285308        -7.7636
  93   2.0000      -0.280271        -7.6266
  94   2.0000      -0.274963        -7.4821
  95   2.0000      -0.249775        -6.7967
  96   2.0000      -0.244444        -6.6516
  97   2.0000      -0.237920        -6.4741
  98   2.0000      -0.230838        -6.2814
  99   2.0000      -0.229253        -6.2383
 100   2.0000      -0.222108        -6.0439
 101   0.0000      -0.052327        -1.4239
 102   0.0000      -0.037681        -1.0253
 103   0.0000      -0.014233        -0.3873
 104   0.0000      -0.004399        -0.1197
 105   0.0000       0.009325         0.2538

MULLIKEN ATOMIC CHARGES
-----------------------
   0 C :   -0.481702
   1 C :   -0.138279
   2 O :   -0.302445
   3 P :    0.672331
   4 S :   -0.501933
   5 O :   -0.296593
   6 C :   -0.097000
   7 C :   -0.503003
   8 S :   -0.173298
   9 C :   -0.250829
  10 S :   -0.135829
  11 P :    0.730588
  12 S :   -0.517179
  13 O :   -0.325275
  14 C :   -0.135015
  15 C :   -0.478630
  16 O :   -0.329252
  17 C :   -0.138844
  18 C :   -0.475060
  19 H :    0.166537
  20 H :    0.170055
  21 H :    0.167234
  22 H :    0.170441
  23 H :    0.172834
  24 H :    0.182164
  25 H :    0.174431
  26 H :    0.171868
  27 H :    0.169523
  28 H :    0.168297
  29 H :    0.227310
  30 H :    0.229643
  31 H :    0.171520
  32 H :    0.170599
  33 H :    0.169547
  34 H :    0.166096
  35 H :    0.165901
  36 H :    0.176234
  37 H :    0.176765
  38 H :    0.163107
  39 H :    0.173329
  40 H :    0.173809
Sum of atomic charges:   -0.0000000

LOEWDIN ATOMIC CHARGES
----------------------
   0 C :   -0.388635
   1 C :    0.025988
   2 O :   -0.678615
   3 P :    0.373780
   4 S :   -0.149649
   5 O :   -0.668869
   6 C :    0.027385
   7 C :   -0.394691
   8 S :    0.124187
   9 C :   -0.425143
  10 S :    0.146971
  11 P :    0.387174
  12 S :   -0.157989
  13 O :   -0.673638
  14 C :    0.024535
  15 C :   -0.387865
  16 O :   -0.662392
  17 C :    0.029226
  18 C :   -0.408350
  19 H :    0.163436
  20 H :    0.169542
  21 H :    0.163635
  22 H :    0.180291
  23 H :    0.182181
  24 H :    0.191636
  25 H :    0.183378
  26 H :    0.169392
  27 H :    0.166165
  28 H :    0.164028
  29 H :    0.199993
  30 H :    0.195327
  31 H :    0.180094
  32 H :    0.181127
  33 H :    0.169230
  34 H :    0.163092
  35 H :    0.163416
  36 H :    0.191697
  37 H :    0.182137
  38 H :    0.161421
  39 H :    0.165777
  40 H :    0.169593

  Mayer bond orders larger than 0.100000
B(  0-C ,  1-C ) :   0.9549 B(  0-C , 19-H ) :   0.9680 B(  0-C , 20-H ) :   0.9575
B(  0-C , 21-H ) :   0.9691 B(  1-C ,  2-O ) :   0.7776 B(  1-C , 22-H ) :   0.9323
B(  1-C , 23-H ) :   0.9473 B(  2-O ,  3-P ) :   1.0652 B(  3-P ,  4-S ) :   1.8185
B(  3-P ,  5-O ) :   1.1674 B(  3-P ,  8-S ) :   0.9975 B(  5-O ,  6-C ) :   0.7305
B(  6-C ,  7-C ) :   0.9344 B(  6-C , 24-H ) :   0.9498 B(  6-C , 25-H ) :   0.9548
B(  7-C , 26-H ) :   0.9585 B(  7-C , 27-H ) :   0.9657 B(  7-C , 28-H ) :   0.9702
B(  8-S ,  9-C ) :   0.9172 B(  9-C , 10-S ) :   0.9135 B(  9-C , 29-H ) :   0.8842
B(  9-C , 30-H ) :   0.9073 B( 10-S , 11-P ) :   1.0358 B( 11-P , 12-S ) :   1.7128
B( 11-P , 13-O ) :   1.1408 B( 11-P , 16-O ) :   1.1569 B( 13-O , 14-C ) :   0.7785
B( 14-C , 15-C ) :   0.9546 B( 14-C , 31-H ) :   0.9349 B( 14-C , 32-H ) :   0.9466
B( 15-C , 33-H ) :   0.9579 B( 15-C , 34-H ) :   0.9701 B( 15-C , 35-H ) :   0.9688
B( 16-O , 17-C ) :   0.7871 B( 17-C , 18-C ) :   0.9234 B( 17-C , 36-H ) :   0.9492
B( 17-C , 37-H ) :   0.9620 B( 18-C , 38-H ) :   0.9545 B( 18-C , 39-H ) :   0.9649
B( 18-C , 40-H ) :   0.9555

Dispersion correction           -0.020288460
FINAL SINGLE POINT ENERGY     -2932.473911772105

DIPOLE MOMENT
-------------

Method             : SCF
Type of density    : Electron Density
Multiplicity       :   1
Irrep              :   0
Energy             : -2932.5002768585668491 Eh
Relativity type    :
Basis              : AO
                                X                 Y                 Z
Electronic contribution:     -5.299901110      10.543772939      -5.495727882
Nuclear contribution   :      5.649079230     -12.555737576       5.733156093
                        -----------------------------------------
Total Dipole Moment    :      0.349178120      -2.011964636       0.237428211
                        -----------------------------------------
Magnitude (a.u.)       :      2.055796491
Magnitude (Debye)      :      5.225419410

Rotational constants in cm-1:             0.013062             0.004045             0.003778
Rotational constants in MHz :           391.583743           121.265800           113.276575

                             ****ORCA TERMINATED NORMALLY****
TOTAL RUN TIME: 0 days 0 hours 1 minutes 44 seconds 311 msec
