                         Program Version 6.0.1  -  RELEASE   -
|  1> ! pbe def2-sv(p) def2/J RI DEFGRID1 loosescf d4 GCP(DFT/SV(P)) printgap
|  2> %output
|  3>     printlevel normal
|  4> end
|  5> * xyz 0 1
|  6> C 4.0572519157 -3.3939077369 0.6701662585
|  7> C 2.9827933372 -2.3456386774 0.8770312994
|  8> O 2.8334367493 -1.615499083 -0.3590308432
|  9> C 1.8076101217 -0.8191441749 -0.4915348162
| 10> O 0.9779296026 -0.6264181698 0.3858728153
| 11> C 1.7299063092 -0.1549184196 -1.8397914249
| 12> C 0.6196733932 0.8817440702 -1.8327876543
| 13> H 0.5545867981 1.3855818915 -2.8018899095
| 14> C 0.8284836046 1.9522712522 -0.7703121508
| 15> O 1.8588067504 2.0700574682 -0.1457383013
| 16> O -0.2054012116 2.7589834413 -0.689047151
| 17> C -0.0967886726 3.9495494674 0.1192144824
| 18> C -0.3663506045 3.6845252268 1.5900094296
| 19> S -1.0535711935 0.1411432512 -1.709411296
| 20> P -1.4528533756 -0.7023571086 0.1958188573
| 21> S -1.0679837798 -2.5601050161 0.6931647559
| 22> O -1.2717489088 0.443842205 1.3078564201
| 23> C -0.5460678083 0.2543215098 2.5211909379
| 24> O -3.0508061339 -0.7030792846 0.0193738986
| 25> C -3.843441404 0.474553864 -0.2029904632
| 26> H 3.7580859875 -4.084311304 -0.1125124041
| 27> H 4.9902289242 -2.9177542585 0.3845221644
| 28> H 4.2006755561 -3.9434955139 1.5942391337
| 29> H 3.2578609012 -1.6319119363 1.6594732928
| 30> H 2.0165672606 -2.7918574271 1.1345013794
| 31> H 1.5391236679 -0.9142481929 -2.5999235883
| 32> H 2.6927549212 0.3139165579 -2.0495914029
| 33> H 0.9070299809 4.3624141186 -0.0163719063
| 34> H -0.8461519203 4.6167388906 -0.3071160541
| 35> H -1.3152205347 3.1692867035 1.7119835406
| 36> H 0.4248922532 3.0712194569 2.013671265
| 37> H -0.4007370491 4.6304388063 2.1205069087
| 38> H -1.0940679202 0.7908662686 3.2925630496
| 39> H 0.4605473108 0.6540196953 2.4057478692
| 40> H -0.4845317922 -0.8080172384 2.7634649638
| 41> H -3.4149184447 1.3275838573 0.3206381707
| 42> H -4.8287241675 0.2398550843 0.1931009032
| 43> H -3.8984522771 0.6774795772 -1.2715008728
| 44> *
| 45>
| 46>                          ****END OF INPUT****

CARTESIAN COORDINATES (ANGSTROEM)
---------------------------------
  C      4.057252   -3.393908    0.670166
  C      2.982793   -2.345639    0.877031
  O      2.833437   -1.615499   -0.359031
  C      1.807610   -0.819144   -0.491535
  O      0.977930   -0.626418    0.385873
  C      1.729906   -0.154918   -1.839791
  C      0.619673    0.881744   -1.832788
  H      0.554587    1.385582   -2.801890
  C      0.828484    1.952271   -0.770312
  O      1.858807    2.070057   -0.145738
  O     -0.205401    2.758983   -0.689047
  C     -0.096789    3.949549    0.119214
  C     -0.366351    3.684525    1.590009
  S     -1.053571    0.141143   -1.709411
  P     -1.452853   -0.702357    0.195819
  S     -1.067984   -2.560105    0.693165
  O     -1.271749    0.443842    1.307856
  C     -0.546068    0.254322    2.521191
  O     -3.050806   -0.703079    0.019374
  C     -3.843441    0.474554   -0.202990
  H      3.758086   -4.084311   -0.112512
  H      4.990229   -2.917754    0.384522
  H      4.200676   -3.943496    1.594239
  H      3.257861   -1.631912    1.659473
  H      2.016567   -2.791857    1.134501
  H      1.539124   -0.914248   -2.599924
  H      2.692755    0.313917   -2.049591
  H      0.907030    4.362414   -0.016372
  H     -0.846152    4.616739   -0.307116
  H     -1.315221    3.169287    1.711984
  H      0.424892    3.071219    2.013671
  H     -0.400737    4.630439    2.120507
  H     -1.094068    0.790866    3.292563
  H      0.460547    0.654020    2.405748
  H     -0.484532   -0.808017    2.763465
  H     -3.414918    1.327584    0.320638
  H     -4.828724    0.239855    0.193101
  H     -3.898452    0.677480   -1.271501

 Total Charge           Charge          ....    0
 Multiplicity           Mult            ....    1
 Number of Electrons    NEL             ....  174
 Basis Dimension        Dim             ....  316

ORBITAL ENERGIES
----------------

  NO   OCC          E(Eh)            E(eV)
   0   2.0000     -88.034130     -2395.5305
   1   2.0000     -87.960180     -2393.5182
   2   2.0000     -76.415571     -2079.3734
   3   2.0000     -18.812315      -511.9091
   4   2.0000     -18.809256      -511.8259
   5   2.0000     -18.780484      -511.0429
   6   2.0000     -18.768557      -510.7184
   7   2.0000     -18.754930      -510.3476
   8   2.0000     -18.749833      -510.2089
   9   2.0000     -10.022780      -272.7337
  10   2.0000     -10.021920      -272.7103
  11   2.0000      -9.955297      -270.8974
  12   2.0000      -9.954568      -270.8776
  13   2.0000      -9.948439      -270.7108
  14   2.0000      -9.932297      -270.2715
  15   2.0000      -9.929785      -270.2032
  16   2.0000      -9.918787      -269.9039
  17   2.0000      -9.889229      -269.0996
  18   2.0000      -9.888782      -269.0874
  19   2.0000      -7.678750      -208.9494
  20   2.0000      -7.605681      -206.9611
  21   2.0000      -6.410973      -174.4515
  22   2.0000      -5.707419      -155.3068
  23   2.0000      -5.702696      -155.1782
  24   2.0000      -5.695533      -154.9833
  25   2.0000      -5.635218      -153.3421
  26   2.0000      -5.626324      -153.1001
  27   2.0000      -5.625096      -153.0667
  28   2.0000      -4.634233      -126.1039
  29   2.0000      -4.632790      -126.0646
  30   2.0000      -4.631245      -126.0226
  31   2.0000      -1.023526       -27.8515
  32   2.0000      -1.018945       -27.7269
  33   2.0000      -0.966218       -26.2921
  34   2.0000      -0.931972       -25.3602
  35   2.0000      -0.925122       -25.1738
  36   2.0000      -0.921683       -25.0803
  37   2.0000      -0.765561       -20.8320
  38   2.0000      -0.719656       -19.5828
  39   2.0000      -0.705120       -19.1873
  40   2.0000      -0.689009       -18.7489
  41   2.0000      -0.656520       -17.8648
  42   2.0000      -0.626434       -17.0461
  43   2.0000      -0.618385       -16.8271
  44   2.0000      -0.599808       -16.3216
  45   2.0000      -0.598199       -16.2778
  46   2.0000      -0.566405       -15.4127
  47   2.0000      -0.515185       -14.0189
  48   2.0000      -0.508969       -13.8497
  49   2.0000      -0.497011       -13.5243
  50   2.0000      -0.488391       -13.2898
  51   2.0000      -0.469017       -12.7626
  52   2.0000      -0.459148       -12.4941
  53   2.0000      -0.452431       -12.3113
  54   2.0000      -0.440765       -11.9938
  55   2.0000      -0.432593       -11.7715
  56   2.0000      -0.428270       -11.6538
  57   2.0000      -0.414488       -11.2788
  58   2.0000      -0.412245       -11.2178
  59   2.0000      -0.407219       -11.0810
  60   2.0000      -0.401181       -10.9167
  61   2.0000      -0.394490       -10.7346
  62   2.0000      -0.391321       -10.6484
  63   2.0000      -0.384540       -10.4639
  64   2.0000      -0.380674       -10.3587
  65   2.0000      -0.363027        -9.8785
  66   2.0000      -0.359798        -9.7906
  67   2.0000      -0.353884        -9.6297
  68   2.0000      -0.350525        -9.5383
  69   2.0000      -0.344196        -9.3660
  70   2.0000      -0.331727        -9.0267
  71   2.0000      -0.329389        -8.9631
  72   2.0000      -0.320023        -8.7083
  73   2.0000      -0.305892        -8.3237
  74   2.0000      -0.304488        -8.2855
  75   2.0000      -0.301103        -8.1934
  76   2.0000      -0.291142        -7.9224
  77   2.0000      -0.280482        -7.6323
  78   2.0000      -0.272414        -7.4128
  79   2.0000      -0.267514        -7.2794
  80   2.0000      -0.255624        -6.9559
  81   2.0000      -0.248026        -6.7491
  82   2.0000      -0.243328        -6.6213
  83   2.0000      -0.233463        -6.3529
  84   2.0000      -0.213580        -5.8118
  85   2.0000      -0.180993        -4.9251
  86   2.0000      -0.169885        -4.6228
  87   0.0000      -0.045358        -1.2343
  88   0.0000      -0.044565        -1.2127
  89   0.0000      -0.017980        -0.4893
  90   0.0000       0.000121         0.0033
  91   0.0000       0.031295         0.8516

MULLIKEN ATOMIC CHARGES
-----------------------
   0 C :   -0.275676
   1 C :   -0.043565
   2 O :   -0.218818
   3 C :    0.158545
   4 O :   -0.229787
   5 C :   -0.048776
   6 C :   -0.314673
   7 H :    0.150602
   8 C :    0.207112
   9 O :   -0.198225
  10 O :   -0.217038
  11 C :   -0.011001
  12 C :   -0.318523
  13 S :   -0.103557
  14 P :    0.646578
  15 S :   -0.329444
  16 O :   -0.403161
  17 C :   -0.103218
  18 O :   -0.380387
  19 C :   -0.115381
  20 H :    0.119535
  21 H :    0.113973
  22 H :    0.114233
  23 H :    0.105481
  24 H :    0.133550
  25 H :    0.131309
  26 H :    0.126624
  27 H :    0.104014
  28 H :    0.103909
  29 H :    0.134360
  30 H :    0.131015
  31 H :    0.110189
  32 H :    0.111101
  33 H :    0.128846
  34 H :    0.119609
  35 H :    0.119020
  36 H :    0.121746
  37 H :    0.119878
Sum of atomic charges:    0.0000000

LOEWDIN ATOMIC CHARGES
----------------------
   0 C :   -0.350095
   1 C :   -0.107462
   2 O :   -0.041468
   3 C :    0.053810
   4 O :   -0.163493
   5 C :   -0.250154
   6 C :   -0.265722
   7 H :    0.153202
   8 C :    0.018473
   9 O :   -0.160572
  10 O :   -0.051093
  11 C :   -0.103984
  12 C :   -0.358290
  13 S :    0.107521
  14 P :    0.584674
  15 S :   -0.331640
  16 O :   -0.258720
  17 C :   -0.217298
  18 O :   -0.262893
  19 C :   -0.219191
  20 H :    0.128927
  21 H :    0.125797
  22 H :    0.132592
  23 H :    0.117428
  24 H :    0.123272
  25 H :    0.150366
  26 H :    0.151140
  27 H :    0.117815
  28 H :    0.119032
  29 H :    0.128347
  30 H :    0.129727
  31 H :    0.129915
  32 H :    0.112728
  33 H :    0.111059
  34 H :    0.109195
  35 H :    0.107790
  36 H :    0.120161
  37 H :    0.109102

  Mayer bond orders larger than 0.100000
B(  0-C ,  1-C ) :   1.1571 B(  0-C , 20-H ) :   0.9506 B(  0-C , 21-H ) :   0.9490
B(  0-C , 22-H ) :   0.9434 B(  1-C ,  2-O ) :   0.8885 B(  1-C , 23-H ) :   0.9325
B(  1-C , 24-H ) :   0.9171 B(  2-O ,  3-C ) :   1.2849 B(  3-C ,  4-O ) :   1.8449
B(  3-C ,  5-C ) :   1.0255 B(  4-O , 14-P ) :   0.1333 B(  5-C ,  6-C ) :   1.0332
B(  5-C , 25-H ) :   0.8807 B(  5-C , 26-H ) :   0.8766 B(  6-C ,  7-H ) :   0.8706
B(  6-C ,  8-C ) :   0.8876 B(  6-C , 13-S ) :   1.0216 B(  8-C ,  9-O ) :   2.0458
B(  8-C , 10-O ) :   1.2638 B( 10-O , 11-C ) :   0.9171 B( 11-C , 12-C ) :   1.1782
B( 11-C , 27-H ) :   0.9203 B( 11-C , 28-H ) :   0.9377 B( 12-C , 29-H ) :   0.9380
B( 12-C , 30-H ) :   0.9373 B( 12-C , 31-H ) :   0.9388 B( 13-S , 14-P ) :   0.9571
B( 14-P , 15-S ) :   1.5935 B( 14-P , 16-O ) :   1.0504 B( 14-P , 18-O ) :   1.0719
B( 16-O , 17-C ) :   0.9237 B( 17-C , 32-H ) :   0.9528 B( 17-C , 33-H ) :   0.9380
B( 17-C , 34-H ) :   0.9276 B( 18-O , 19-C ) :   0.9315 B( 19-C , 35-H ) :   0.9413
B( 19-C , 36-H ) :   0.9581 B( 19-C , 37-H ) :   0.9501

Dispersion correction           -0.054407250
FINAL SINGLE POINT ENERGY     -1979.004243127244

DIPOLE MOMENT
-------------

Method             : SCF
Type of density    : Electron Density
Multiplicity       :   1
Irrep              :   0
Energy             : -1979.1352852725599405 Eh
Relativity type    :
Basis              : AO
                                X                 Y                 Z
Electronic contribution:     -8.579476101      -6.827250201      -9.734512580
Nuclear contribution   :      9.369263602       8.376099894       9.652437293
                        -----------------------------------------
Total Dipole Moment    :      0.789787501       1.548849693      -0.082075287
                        -----------------------------------------
Magnitude (a.u.)       :      1.740527512
Magnitude (Debye)      :      4.424069349

Rotational constants in cm-1:             0.011987             0.008885             0.006810
Rotational constants in MHz :           359.353151           266.371579           204.146399

                             ****ORCA TERMINATED NORMALLY****
TOTAL RUN TIME: 0 days 0 hours 0 minutes 30 seconds 182 msec
