                         Program Version 6.0.0  -   RELEASE  -
|  1> ! pbe def2-sv(p) def2/J RI DEFGRID1 loosescf d4 GCP(DFT/SV(P)) printgap
|  2> %output
|  3>     printlevel normal
|  4> end
|  5> * xyz 0 1
|  6> C 4.3097479113 -1.0219231489 -2.2917075196
|  7> C 4.7976494704 -1.0532483296 -0.8581257333
|  8> O 3.7174990295 -1.1489854721 0.0886969169
|  9> P 2.6477324876 0.0098904529 0.2816199794
| 10> S 3.3338894281 1.837634165 0.2090603267
| 11> O 2.0187775936 -0.3131657815 1.6906799594
| 12> C 1.47491178 -1.6017385574 2.0653885974
| 13> C 2.5199127825 -2.4596276607 2.7487910527
| 14> S 1.1145353596 -0.4708438021 -1.1354208877
| 15> C 0.2901771778 1.1349749124 -1.0664688641
| 16> S -0.8223206055 1.2968483781 0.3476406013
| 17> P -2.4545265341 0.1989712839 -0.5054631632
| 18> S -2.6531376557 0.3816732991 -2.4407332263
| 19> O -3.6841032805 0.6867856754 0.3716469484
| 20> C -4.225746325 2.0149198823 0.2151873023
| 21> C -5.5799272314 2.0457264248 0.8940534954
| 22> O -2.273357891 -1.2999275561 -0.0650255935
| 23> C -2.2326333696 -1.7284725813 1.3197709475
| 24> C -3.6026499883 -2.1746491183 1.7871673176
| 25> H 3.6389958187 -1.855803026 -2.4840547703
| 26> H 3.7775490896 -0.091583598 -2.4850837259
| 27> H 5.1617552686 -1.0828104421 -2.9611880522
| 28> H 5.3756411712 -0.1528192675 -0.6295232252
| 29> H 5.3982278703 -1.9416148208 -0.6575605827
| 30> H 0.657332071 -1.3576106599 2.7464968462
| 31> H 1.0835582103 -2.0924235074 1.1691257081
| 32> H 2.939904255 -1.9262505272 3.5970470785
| 33> H 2.0529868282 -3.3757817327 3.0968365428
| 34> H 3.3207250075 -2.705249092 2.0570329681
| 35> H -0.2890212206 1.2392090792 -1.985446628
| 36> H 1.0430914818 1.9196291218 -0.9756352431
| 37> H -3.5305611866 2.7233812585 0.6738010936
| 38> H -4.3065956757 2.2339664311 -0.854464272
| 39> H -6.0047010296 3.0390402933 0.7937501364
| 40> H -6.2461452664 1.3234434492 0.4307742964
| 41> H -5.474201745 1.8058162665 1.9480507632
| 42> H -1.5237591883 -2.5584588146 1.3242953869
| 43> H -1.8522577981 -0.9056799131 1.9317864676
| 44> H -4.2977408907 -1.3398632273 1.7725652398
| 45> H -3.9805279538 -2.9565497784 1.1343769837
| 46> H -3.5236518474 -2.5590624012 2.7993032458
| 47> *
| 48>
| 49>                          ****END OF INPUT****

CARTESIAN COORDINATES (ANGSTROEM)
---------------------------------
  C      4.309748   -1.021923   -2.291708
  C      4.797649   -1.053248   -0.858126
  O      3.717499   -1.148985    0.088697
  P      2.647732    0.009890    0.281620
  S      3.333889    1.837634    0.209060
  O      2.018778   -0.313166    1.690680
  C      1.474912   -1.601739    2.065389
  C      2.519913   -2.459628    2.748791
  S      1.114535   -0.470844   -1.135421
  C      0.290177    1.134975   -1.066469
  S     -0.822321    1.296848    0.347641
  P     -2.454527    0.198971   -0.505463
  S     -2.653138    0.381673   -2.440733
  O     -3.684103    0.686786    0.371647
  C     -4.225746    2.014920    0.215187
  C     -5.579927    2.045726    0.894053
  O     -2.273358   -1.299928   -0.065026
  C     -2.232633   -1.728473    1.319771
  C     -3.602650   -2.174649    1.787167
  H      3.638996   -1.855803   -2.484055
  H      3.777549   -0.091584   -2.485084
  H      5.161755   -1.082810   -2.961188
  H      5.375641   -0.152819   -0.629523
  H      5.398228   -1.941615   -0.657561
  H      0.657332   -1.357611    2.746497
  H      1.083558   -2.092424    1.169126
  H      2.939904   -1.926251    3.597047
  H      2.052987   -3.375782    3.096837
  H      3.320725   -2.705249    2.057033
  H     -0.289021    1.239209   -1.985447
  H      1.043091    1.919629   -0.975635
  H     -3.530561    2.723381    0.673801
  H     -4.306596    2.233966   -0.854464
  H     -6.004701    3.039040    0.793750
  H     -6.246145    1.323443    0.430774
  H     -5.474202    1.805816    1.948051
  H     -1.523759   -2.558459    1.324295
  H     -1.852258   -0.905680    1.931786
  H     -4.297741   -1.339863    1.772565
  H     -3.980528   -2.956550    1.134377
  H     -3.523652   -2.559062    2.799303

 Total Charge           Charge          ....    0
 Multiplicity           Mult            ....    1
 Number of Electrons    NEL             ....  202
 Basis Dimension        Dim             ....  334

ORBITAL ENERGIES
----------------

  NO   OCC          E(Eh)            E(eV)
   0   2.0000     -88.040679     -2395.7087
   1   2.0000     -88.040423     -2395.7017
   2   2.0000     -87.987454     -2394.2603
   3   2.0000     -87.987008     -2394.2482
   4   2.0000     -76.427575     -2079.7000
   5   2.0000     -76.427420     -2079.6958
   6   2.0000     -18.799614      -511.5635
   7   2.0000     -18.798430      -511.5313
   8   2.0000     -18.796417      -511.4765
   9   2.0000     -18.793160      -511.3879
  10   2.0000      -9.962588      -271.0958
  11   2.0000      -9.959228      -271.0044
  12   2.0000      -9.957398      -270.9546
  13   2.0000      -9.956374      -270.9267
  14   2.0000      -9.947186      -270.6767
  15   2.0000      -9.892990      -269.2019
  16   2.0000      -9.891059      -269.1494
  17   2.0000      -9.889194      -269.0987
  18   2.0000      -9.885062      -268.9862
  19   2.0000      -7.685429      -209.1312
  20   2.0000      -7.685372      -209.1296
  21   2.0000      -7.632763      -207.6980
  22   2.0000      -7.632330      -207.6863
  23   2.0000      -6.425316      -174.8417
  24   2.0000      -6.425248      -174.8399
  25   2.0000      -5.713088      -155.4610
  26   2.0000      -5.712995      -155.4585
  27   2.0000      -5.710081      -155.3792
  28   2.0000      -5.709976      -155.3764
  29   2.0000      -5.702589      -155.1753
  30   2.0000      -5.702538      -155.1739
  31   2.0000      -5.661739      -154.0637
  32   2.0000      -5.661315      -154.0522
  33   2.0000      -5.653286      -153.8337
  34   2.0000      -5.652910      -153.8235
  35   2.0000      -5.652820      -153.8210
  36   2.0000      -5.652502      -153.8124
  37   2.0000      -4.648242      -126.4851
  38   2.0000      -4.648194      -126.4838
  39   2.0000      -4.647011      -126.4516
  40   2.0000      -4.646862      -126.4475
  41   2.0000      -4.645481      -126.4100
  42   2.0000      -4.645428      -126.4085
  43   2.0000      -0.994143       -27.0520
  44   2.0000      -0.991292       -26.9744
  45   2.0000      -0.951204       -25.8836
  46   2.0000      -0.948975       -25.8229
  47   2.0000      -0.761812       -20.7299
  48   2.0000      -0.724969       -19.7274
  49   2.0000      -0.714805       -19.4508
  50   2.0000      -0.697874       -18.9901
  51   2.0000      -0.693163       -18.8619
  52   2.0000      -0.676280       -18.4025
  53   2.0000      -0.650957       -17.7135
  54   2.0000      -0.638502       -17.3745
  55   2.0000      -0.597922       -16.2703
  56   2.0000      -0.592684       -16.1278
  57   2.0000      -0.579814       -15.7775
  58   2.0000      -0.574210       -15.6250
  59   2.0000      -0.561851       -15.2887
  60   2.0000      -0.512921       -13.9573
  61   2.0000      -0.500978       -13.6323
  62   2.0000      -0.487654       -13.2697
  63   2.0000      -0.477806       -13.0018
  64   2.0000      -0.457002       -12.4356
  65   2.0000      -0.450895       -12.2695
  66   2.0000      -0.450321       -12.2538
  67   2.0000      -0.440080       -11.9752
  68   2.0000      -0.432395       -11.7661
  69   2.0000      -0.423691       -11.5292
  70   2.0000      -0.408980       -11.1289
  71   2.0000      -0.397527       -10.8173
  72   2.0000      -0.394683       -10.7399
  73   2.0000      -0.387144       -10.5347
  74   2.0000      -0.378341       -10.2952
  75   2.0000      -0.372600       -10.1390
  76   2.0000      -0.368017       -10.0143
  77   2.0000      -0.363647        -9.8953
  78   2.0000      -0.358748        -9.7620
  79   2.0000      -0.356287        -9.6951
  80   2.0000      -0.352773        -9.5994
  81   2.0000      -0.352041        -9.5795
  82   2.0000      -0.348771        -9.4905
  83   2.0000      -0.344093        -9.3632
  84   2.0000      -0.337488        -9.1835
  85   2.0000      -0.322798        -8.7838
  86   2.0000      -0.316376        -8.6090
  87   2.0000      -0.304995        -8.2993
  88   2.0000      -0.299879        -8.1601
  89   2.0000      -0.298053        -8.1104
  90   2.0000      -0.294594        -8.0163
  91   2.0000      -0.280428        -7.6308
  92   2.0000      -0.272586        -7.4174
  93   2.0000      -0.265834        -7.2337
  94   2.0000      -0.257350        -7.0028
  95   2.0000      -0.236668        -6.4401
  96   2.0000      -0.219862        -5.9828
  97   2.0000      -0.212031        -5.7697
  98   2.0000      -0.204369        -5.5612
  99   2.0000      -0.203529        -5.5383
 100   2.0000      -0.199740        -5.4352
 101   0.0000      -0.041571        -1.1312
 102   0.0000      -0.025628        -0.6974
 103   0.0000      -0.004191        -0.1141
 104   0.0000       0.001431         0.0389
 105   0.0000       0.013192         0.3590

MULLIKEN ATOMIC CHARGES
-----------------------
   0 C :   -0.318845
   1 C :   -0.000911
   2 O :   -0.383322
   3 P :    0.602262
   4 S :   -0.311769
   5 O :   -0.349856
   6 C :   -0.032312
   7 C :   -0.285770
   8 S :   -0.084553
   9 C :   -0.380827
  10 S :   -0.096584
  11 P :    0.599139
  12 S :   -0.310042
  13 O :   -0.386576
  14 C :   -0.012276
  15 C :   -0.284165
  16 O :   -0.348873
  17 C :   -0.030901
  18 C :   -0.285999
  19 H :    0.119504
  20 H :    0.130803
  21 H :    0.114995
  22 H :    0.114707
  23 H :    0.105196
  24 H :    0.110867
  25 H :    0.113258
  26 H :    0.120191
  27 H :    0.106844
  28 H :    0.123790
  29 H :    0.197653
  30 H :    0.193849
  31 H :    0.107525
  32 H :    0.109065
  33 H :    0.115811
  34 H :    0.122728
  35 H :    0.116456
  36 H :    0.112828
  37 H :    0.110503
  38 H :    0.125825
  39 H :    0.121382
  40 H :    0.108400
Sum of atomic charges:    0.0000000

LOEWDIN ATOMIC CHARGES
----------------------
   0 C :   -0.370927
   1 C :   -0.115889
   2 O :   -0.246881
   3 P :    0.574004
   4 S :   -0.306222
   5 O :   -0.233928
   6 C :   -0.117118
   7 C :   -0.359746
   8 S :    0.079279
   9 C :   -0.495350
  10 S :    0.062656
  11 P :    0.567900
  12 S :   -0.303868
  13 O :   -0.248954
  14 C :   -0.119800
  15 C :   -0.350714
  16 O :   -0.232031
  17 C :   -0.114048
  18 C :   -0.359436
  19 H :    0.124258
  20 H :    0.122879
  21 H :    0.132185
  22 H :    0.114090
  23 H :    0.118455
  24 H :    0.117859
  25 H :    0.103678
  26 H :    0.129275
  27 H :    0.128321
  28 H :    0.126690
  29 H :    0.126957
  30 H :    0.126408
  31 H :    0.110345
  32 H :    0.111651
  33 H :    0.132832
  34 H :    0.129483
  35 H :    0.125756
  36 H :    0.118779
  37 H :    0.104995
  38 H :    0.127028
  39 H :    0.129969
  40 H :    0.129180

  Mayer bond orders larger than 0.100000
B(  0-C ,  1-C ) :   1.1664 B(  0-C , 19-H ) :   0.9434 B(  0-C , 20-H ) :   0.9344
B(  0-C , 21-H ) :   0.9366 B(  1-C ,  2-O ) :   0.9026 B(  1-C , 22-H ) :   0.9192
B(  1-C , 23-H ) :   0.9339 B(  2-O ,  3-P ) :   1.0855 B(  3-P ,  4-S ) :   1.6329
B(  3-P ,  5-O ) :   1.1420 B(  3-P ,  8-S ) :   0.9492 B(  4-S ,  8-S ) :   0.1108
B(  5-O ,  6-C ) :   0.8988 B(  6-C ,  7-C ) :   1.1596 B(  6-C , 24-H ) :   0.9319
B(  6-C , 25-H ) :   0.9061 B(  7-C , 26-H ) :   0.9462 B(  7-C , 27-H ) :   0.9397
B(  7-C , 28-H ) :   0.9403 B(  8-S ,  9-C ) :   1.0031 B(  9-C , 10-S ) :   1.0041
B(  9-C , 29-H ) :   0.8598 B(  9-C , 30-H ) :   0.8607 B( 10-S , 11-P ) :   0.9497
B( 10-S , 12-S ) :   0.1136 B( 11-P , 12-S ) :   1.6532 B( 11-P , 13-O ) :   1.0777
B( 11-P , 16-O ) :   1.1458 B( 13-O , 14-C ) :   0.9017 B( 14-C , 15-C ) :   1.1596
B( 14-C , 31-H ) :   0.9268 B( 14-C , 32-H ) :   0.9116 B( 15-C , 33-H ) :   0.9415
B( 15-C , 34-H ) :   0.9506 B( 15-C , 35-H ) :   0.9506 B( 16-O , 17-C ) :   0.8952
B( 17-C , 18-C ) :   1.1616 B( 17-C , 36-H ) :   0.9310 B( 17-C , 37-H ) :   0.9096
B( 18-C , 38-H ) :   0.9397 B( 18-C , 39-H ) :   0.9458 B( 18-C , 40-H ) :   0.9394

Dispersion correction           -0.062635832
FINAL SINGLE POINT ENERGY     -2929.520992341809

DIPOLE MOMENT
-------------

Method             : SCF
Type of density    : Electron Density
Multiplicity       :   1
Irrep              :   0
Energy             : -2929.6430127419939708 Eh
Relativity type    :
Basis              : AO
                                X                 Y                 Z
Electronic contribution:      6.022894659      11.059529988     -10.808148313
Nuclear contribution   :     -6.376675433     -12.142491822      11.991306028
                        -----------------------------------------
Total Dipole Moment    :     -0.353780774      -1.082961833       1.183157715
                        -----------------------------------------
Magnitude (a.u.)       :      1.642507031
Magnitude (Debye)      :      4.174921087

Rotational constants in cm-1:             0.012997             0.004335             0.003975
Rotational constants in MHz :           389.641296           129.947919           119.163942

                             ****ORCA TERMINATED NORMALLY****
TOTAL RUN TIME: 0 days 0 hours 0 minutes 21 seconds 15 msec
