                         Program Version 6.0.0  -   RELEASE  -
|  1> ! r2scan-3c def2/J RI DEFGRID2 scfconv6 printgap
|  2> %output
|  3>     printlevel normal
|  4> end
|  5> * xyz 0 1
|  6> C 1.3823070925 0.5384972065 -2.7592951471
|  7> C 2.4288736309 0.8805648105 -1.7172857198
|  8> O 2.7967138199 -0.2856572046 -0.9594212659
|  9> P 2.2206525986 -0.6417639231 0.4767587114
| 10> S 2.3197059534 0.7873679403 1.8242752088
| 11> O 3.0521795942 -1.9408437356 0.8325030509
| 12> C 4.3121389043 -1.8868719153 1.5312516566
| 13> C 5.4039793515 -1.2730454308 0.6806561428
| 14> S 0.3551207603 -1.5543150884 0.1216368539
| 15> C -0.4993918792 -1.0687545399 1.6636494199
| 16> S -2.2577765598 -0.7449223499 1.3949342087
| 17> P -2.0623503642 0.7556202448 -0.0859209549
| 18> S -0.5959652812 2.0405560943 0.0339357052
| 19> O -3.5312157421 1.3510460926 0.1058771169
| 20> C -3.8615865032 2.6954163629 -0.2917278052
| 21> C -3.9236528929 2.8331893531 -1.7999792013
| 22> O -2.0416218605 0.0202506064 -1.4954112469
| 23> C -3.058215576 -0.9381168864 -1.878258267
| 24> C -2.4824784973 -2.3396046358 -1.901190291
| 25> H 0.4382312002 0.279504896 -2.2839611954
| 26> H 1.2246215407 1.4023520743 -3.39704218
| 27> H 1.7185551855 -0.3018701052 -3.3598913588
| 28> H 2.0693901176 1.659340393 -1.0363295162
| 29> H 3.3578562343 1.2104658264 -2.1865369466
| 30> H 4.1713559097 -1.311956007 2.4522071881
| 31> H 4.5210997917 -2.9303326247 1.7701652377
| 32> H 6.3529584587 -1.3481172978 1.2023048003
| 33> H 5.4709239243 -1.788617506 -0.2736298537
| 34> H 5.1821595645 -0.2222811319 0.498164029
| 35> H -0.0121288211 -0.1705623311 2.0543184557
| 36> H -0.4486960144 -1.8857318847 2.3791794693
| 37> H -4.8306299959 2.8786213782 0.1745537759
| 38> H -3.1139761506 3.376784253 0.1266971196
| 39> H -2.9415424405 2.6322105479 -2.2274180189
| 40> H -4.6430613836 2.1320182865 -2.2148363362
| 41> H -4.2194576209 3.8456896489 -2.0562430651
| 42> H -3.8976273703 -0.8656525554 -1.1808851194
| 43> H -3.3763070936 -0.6262802229 -2.8746301777
| 44> H -1.6116960799 -2.375426835 -2.5493161746
| 45> H -2.1791793175 -2.6464779449 -0.9030868907
| 46> H -3.2371447648 -3.0256749426 -2.2718870999
| 47> *
| 48>
| 49>                          ****END OF INPUT****

CARTESIAN COORDINATES (ANGSTROEM)
---------------------------------
  C      1.382307    0.538497   -2.759295
  C      2.428874    0.880565   -1.717286
  O      2.796714   -0.285657   -0.959421
  P      2.220653   -0.641764    0.476759
  S      2.319706    0.787368    1.824275
  O      3.052180   -1.940844    0.832503
  C      4.312139   -1.886872    1.531252
  C      5.403979   -1.273045    0.680656
  S      0.355121   -1.554315    0.121637
  C     -0.499392   -1.068755    1.663649
  S     -2.257777   -0.744922    1.394934
  P     -2.062350    0.755620   -0.085921
  S     -0.595965    2.040556    0.033936
  O     -3.531216    1.351046    0.105877
  C     -3.861587    2.695416   -0.291728
  C     -3.923653    2.833189   -1.799979
  O     -2.041622    0.020251   -1.495411
  C     -3.058216   -0.938117   -1.878258
  C     -2.482478   -2.339605   -1.901190
  H      0.438231    0.279505   -2.283961
  H      1.224622    1.402352   -3.397042
  H      1.718555   -0.301870   -3.359891
  H      2.069390    1.659340   -1.036330
  H      3.357856    1.210466   -2.186537
  H      4.171356   -1.311956    2.452207
  H      4.521100   -2.930333    1.770165
  H      6.352958   -1.348117    1.202305
  H      5.470924   -1.788618   -0.273630
  H      5.182160   -0.222281    0.498164
  H     -0.012129   -0.170562    2.054318
  H     -0.448696   -1.885732    2.379179
  H     -4.830630    2.878621    0.174554
  H     -3.113976    3.376784    0.126697
  H     -2.941542    2.632211   -2.227418
  H     -4.643061    2.132018   -2.214836
  H     -4.219458    3.845690   -2.056243
  H     -3.897627   -0.865653   -1.180885
  H     -3.376307   -0.626280   -2.874630
  H     -1.611696   -2.375427   -2.549316
  H     -2.179179   -2.646478   -0.903087
  H     -3.237145   -3.025675   -2.271887

 Total Charge           Charge          ....    0
 Multiplicity           Mult            ....    1
 Number of Electrons    NEL             ....  202
 Basis Dimension        Dim             ....  539

ORBITAL ENERGIES
----------------

  NO   OCC          E(Eh)            E(eV)
   0   2.0000     -88.578935     -2410.3554
   1   2.0000     -88.571024     -2410.1401
   2   2.0000     -88.518352     -2408.7068
   3   2.0000     -88.514898     -2408.6128
   4   2.0000     -76.914101     -2092.9391
   5   2.0000     -76.908264     -2092.7803
   6   2.0000     -18.991714      -516.7908
   7   2.0000     -18.991264      -516.7786
   8   2.0000     -18.986623      -516.6523
   9   2.0000     -18.981728      -516.5191
  10   2.0000     -10.104612      -274.9605
  11   2.0000     -10.104011      -274.9441
  12   2.0000     -10.099463      -274.8204
  13   2.0000     -10.091480      -274.6031
  14   2.0000     -10.088790      -274.5299
  15   2.0000     -10.032618      -273.0014
  16   2.0000     -10.031645      -272.9749
  17   2.0000     -10.023506      -272.7535
  18   2.0000     -10.016240      -272.5558
  19   2.0000      -7.873239      -214.2417
  20   2.0000      -7.865530      -214.0320
  21   2.0000      -7.813105      -212.6054
  22   2.0000      -7.809521      -212.5079
  23   2.0000      -6.592463      -179.3900
  24   2.0000      -6.586717      -179.2337
  25   2.0000      -5.820209      -158.3759
  26   2.0000      -5.817047      -158.2899
  27   2.0000      -5.812322      -158.1613
  28   2.0000      -5.810298      -158.1062
  29   2.0000      -5.809529      -158.0853
  30   2.0000      -5.802516      -157.8945
  31   2.0000      -5.760932      -156.7629
  32   2.0000      -5.757133      -156.6596
  33   2.0000      -5.753441      -156.5591
  34   2.0000      -5.752859      -156.5433
  35   2.0000      -5.749932      -156.4636
  36   2.0000      -5.749453      -156.4506
  37   2.0000      -4.738267      -128.9348
  38   2.0000      -4.737255      -128.9073
  39   2.0000      -4.736050      -128.8745
  40   2.0000      -4.732025      -128.7649
  41   2.0000      -4.731655      -128.7549
  42   2.0000      -4.730608      -128.7264
  43   2.0000      -1.048617       -28.5343
  44   2.0000      -1.043302       -28.3897
  45   2.0000      -1.010425       -27.4951
  46   2.0000      -1.003931       -27.3184
  47   2.0000      -0.799472       -21.7547
  48   2.0000      -0.757870       -20.6227
  49   2.0000      -0.746147       -20.3037
  50   2.0000      -0.737280       -20.0624
  51   2.0000      -0.724116       -19.7042
  52   2.0000      -0.707315       -19.2470
  53   2.0000      -0.685431       -18.6515
  54   2.0000      -0.663504       -18.0549
  55   2.0000      -0.630102       -17.1459
  56   2.0000      -0.620261       -16.8782
  57   2.0000      -0.610127       -16.6024
  58   2.0000      -0.595637       -16.2081
  59   2.0000      -0.588880       -16.0242
  60   2.0000      -0.527304       -14.3487
  61   2.0000      -0.515237       -14.0203
  62   2.0000      -0.498869       -13.5749
  63   2.0000      -0.488709       -13.2984
  64   2.0000      -0.470204       -12.7949
  65   2.0000      -0.466221       -12.6865
  66   2.0000      -0.456266       -12.4156
  67   2.0000      -0.447350       -12.1730
  68   2.0000      -0.445235       -12.1155
  69   2.0000      -0.428378       -11.6568
  70   2.0000      -0.420962       -11.4550
  71   2.0000      -0.409937       -11.1550
  72   2.0000      -0.408350       -11.1118
  73   2.0000      -0.402180       -10.9439
  74   2.0000      -0.393489       -10.7074
  75   2.0000      -0.389935       -10.6107
  76   2.0000      -0.384739       -10.4693
  77   2.0000      -0.375556       -10.2194
  78   2.0000      -0.367736       -10.0066
  79   2.0000      -0.364631        -9.9221
  80   2.0000      -0.360792        -9.8177
  81   2.0000      -0.356024        -9.6879
  82   2.0000      -0.351657        -9.5691
  83   2.0000      -0.349895        -9.5211
  84   2.0000      -0.341508        -9.2929
  85   2.0000      -0.333142        -9.0653
  86   2.0000      -0.324462        -8.8291
  87   2.0000      -0.320014        -8.7080
  88   2.0000      -0.299670        -8.1544
  89   2.0000      -0.297296        -8.0898
  90   2.0000      -0.295058        -8.0289
  91   2.0000      -0.287638        -7.8270
  92   2.0000      -0.285672        -7.7735
  93   2.0000      -0.282787        -7.6950
  94   2.0000      -0.271592        -7.3904
  95   2.0000      -0.242376        -6.5954
  96   2.0000      -0.237380        -6.4594
  97   2.0000      -0.223012        -6.0685
  98   2.0000      -0.212092        -5.7713
  99   2.0000      -0.210163        -5.7188
 100   2.0000      -0.201718        -5.4890
 101   0.0000      -0.048150        -1.3102
 102   0.0000      -0.033747        -0.9183
 103   0.0000      -0.003066        -0.0834
 104   0.0000       0.011300         0.3075
 105   0.0000       0.018269         0.4971

MULLIKEN ATOMIC CHARGES
-----------------------
   0 C :   -0.445876
   1 C :   -0.152090
   2 O :   -0.275162
   3 P :    0.668237
   4 S :   -0.463545
   5 O :   -0.286932
   6 C :   -0.155082
   7 C :   -0.440666
   8 S :   -0.128502
   9 C :   -0.237440
  10 S :   -0.146042
  11 P :    0.659512
  12 S :   -0.408729
  13 O :   -0.325398
  14 C :   -0.160333
  15 C :   -0.445171
  16 O :   -0.266026
  17 C :   -0.115607
  18 C :   -0.457721
  19 H :    0.184557
  20 H :    0.143263
  21 H :    0.146090
  22 H :    0.173283
  23 H :    0.145380
  24 H :    0.171063
  25 H :    0.146444
  26 H :    0.145598
  27 H :    0.154809
  28 H :    0.168382
  29 H :    0.221630
  30 H :    0.188689
  31 H :    0.150010
  32 H :    0.178889
  33 H :    0.179531
  34 H :    0.147224
  35 H :    0.150607
  36 H :    0.161645
  37 H :    0.153682
  38 H :    0.161579
  39 H :    0.164340
  40 H :    0.145877
Sum of atomic charges:   -0.0000000

LOEWDIN ATOMIC CHARGES
----------------------
   0 C :   -0.407208
   1 C :    0.020688
   2 O :   -0.659118
   3 P :    0.379137
   4 S :   -0.125928
   5 O :   -0.670377
   6 C :    0.020007
   7 C :   -0.400580
   8 S :    0.169485
   9 C :   -0.407102
  10 S :    0.158810
  11 P :    0.378323
  12 S :   -0.075649
  13 O :   -0.691657
  14 C :    0.021649
  15 C :   -0.399481
  16 O :   -0.684737
  17 C :    0.018110
  18 C :   -0.401548
  19 H :    0.174623
  20 H :    0.160453
  21 H :    0.155841
  22 H :    0.183800
  23 H :    0.175545
  24 H :    0.179423
  25 H :    0.178670
  26 H :    0.158379
  27 H :    0.160710
  28 H :    0.165444
  29 H :    0.199083
  30 H :    0.178323
  31 H :    0.179486
  32 H :    0.181746
  33 H :    0.167634
  34 H :    0.156052
  35 H :    0.160761
  36 H :    0.177928
  37 H :    0.179254
  38 H :    0.162423
  39 H :    0.163052
  40 H :    0.158547

  Mayer bond orders larger than 0.100000
B(  0-C ,  1-C ) :   0.9452 B(  0-C , 19-H ) :   0.9500 B(  0-C , 20-H ) :   0.9642
B(  0-C , 21-H ) :   0.9755 B(  1-C ,  2-O ) :   0.7688 B(  1-C , 22-H ) :   0.9547
B(  1-C , 23-H ) :   0.9663 B(  2-O ,  3-P ) :   1.0979 B(  3-P ,  4-S ) :   1.7564
B(  3-P ,  5-O ) :   1.1769 B(  3-P ,  8-S ) :   1.0674 B(  5-O ,  6-C ) :   0.8139
B(  6-C ,  7-C ) :   0.9289 B(  6-C , 24-H ) :   0.9648 B(  6-C , 25-H ) :   0.9611
B(  7-C , 26-H ) :   0.9626 B(  7-C , 27-H ) :   0.9710 B(  7-C , 28-H ) :   0.9602
B(  8-S ,  9-C ) :   0.8998 B(  9-C , 10-S ) :   0.9248 B(  9-C , 29-H ) :   0.9031
B(  9-C , 30-H ) :   0.9141 B( 10-S , 11-P ) :   1.0394 B( 11-P , 12-S ) :   1.8468
B( 11-P , 13-O ) :   1.0924 B( 11-P , 16-O ) :   1.0504 B( 13-O , 14-C ) :   0.8169
B( 14-C , 15-C ) :   0.9121 B( 14-C , 31-H ) :   0.9608 B( 14-C , 32-H ) :   0.9689
B( 15-C , 33-H ) :   0.9633 B( 15-C , 34-H ) :   0.9689 B( 15-C , 35-H ) :   0.9611
B( 16-O , 17-C ) :   0.7448 B( 17-C , 18-C ) :   0.9480 B( 17-C , 36-H ) :   0.9709
B( 17-C , 37-H ) :   0.9563 B( 18-C , 38-H ) :   0.9694 B( 18-C , 39-H ) :   0.9642
B( 18-C , 40-H ) :   0.9621

Dispersion correction           -0.022063985
FINAL SINGLE POINT ENERGY     -2932.458453019387

DIPOLE MOMENT
-------------

Method             : SCF
Type of density    : Electron Density
Multiplicity       :   1
Irrep              :   0
Energy             : -2932.4830634445374926 Eh
Relativity type    :
Basis              : AO
                                X                 Y                 Z
Electronic contribution:     -0.648976477      -0.376956864      16.438270346
Nuclear contribution   :     -0.136205965      -0.206625458     -17.504786125
                        -----------------------------------------
Total Dipole Moment    :     -0.785182443      -0.583582322      -1.066515778
                        -----------------------------------------
Magnitude (a.u.)       :      1.447251084
Magnitude (Debye)      :      3.678619911

Rotational constants in cm-1:             0.013870             0.004833             0.004703
Rotational constants in MHz :           415.809922           144.897217           140.978703

                             ****ORCA TERMINATED NORMALLY****
TOTAL RUN TIME: 0 days 0 hours 1 minutes 21 seconds 458 msec
