                         Program Version 6.0.0  -   RELEASE  -
|  1> ! r2scan-3c def2/J RI DEFGRID2 scfconv6 printgap
|  2> %output
|  3>     printlevel normal
|  4> end
|  5> %cpcm
|  6>     smd true
|  7>     smdsolvent "water"
|  8> end
|  9> * xyz 0 1
| 10> C 1.3823070925 0.5384972065 -2.7592951471
| 11> C 2.4288736309 0.8805648105 -1.7172857198
| 12> O 2.7967138199 -0.2856572046 -0.9594212659
| 13> P 2.2206525986 -0.6417639231 0.4767587114
| 14> S 2.3197059534 0.7873679403 1.8242752088
| 15> O 3.0521795942 -1.9408437356 0.8325030509
| 16> C 4.3121389043 -1.8868719153 1.5312516566
| 17> C 5.4039793515 -1.2730454308 0.6806561428
| 18> S 0.3551207603 -1.5543150884 0.1216368539
| 19> C -0.4993918792 -1.0687545399 1.6636494199
| 20> S -2.2577765598 -0.7449223499 1.3949342087
| 21> P -2.0623503642 0.7556202448 -0.0859209549
| 22> S -0.5959652812 2.0405560943 0.0339357052
| 23> O -3.5312157421 1.3510460926 0.1058771169
| 24> C -3.8615865032 2.6954163629 -0.2917278052
| 25> C -3.9236528929 2.8331893531 -1.7999792013
| 26> O -2.0416218605 0.0202506064 -1.4954112469
| 27> C -3.058215576 -0.9381168864 -1.878258267
| 28> C -2.4824784973 -2.3396046358 -1.901190291
| 29> H 0.4382312002 0.279504896 -2.2839611954
| 30> H 1.2246215407 1.4023520743 -3.39704218
| 31> H 1.7185551855 -0.3018701052 -3.3598913588
| 32> H 2.0693901176 1.659340393 -1.0363295162
| 33> H 3.3578562343 1.2104658264 -2.1865369466
| 34> H 4.1713559097 -1.311956007 2.4522071881
| 35> H 4.5210997917 -2.9303326247 1.7701652377
| 36> H 6.3529584587 -1.3481172978 1.2023048003
| 37> H 5.4709239243 -1.788617506 -0.2736298537
| 38> H 5.1821595645 -0.2222811319 0.498164029
| 39> H -0.0121288211 -0.1705623311 2.0543184557
| 40> H -0.4486960144 -1.8857318847 2.3791794693
| 41> H -4.8306299959 2.8786213782 0.1745537759
| 42> H -3.1139761506 3.376784253 0.1266971196
| 43> H -2.9415424405 2.6322105479 -2.2274180189
| 44> H -4.6430613836 2.1320182865 -2.2148363362
| 45> H -4.2194576209 3.8456896489 -2.0562430651
| 46> H -3.8976273703 -0.8656525554 -1.1808851194
| 47> H -3.3763070936 -0.6262802229 -2.8746301777
| 48> H -1.6116960799 -2.375426835 -2.5493161746
| 49> H -2.1791793175 -2.6464779449 -0.9030868907
| 50> H -3.2371447648 -3.0256749426 -2.2718870999
| 51> *
| 52>
| 53>                          ****END OF INPUT****

CARTESIAN COORDINATES (ANGSTROEM)
---------------------------------
  C      1.382307    0.538497   -2.759295
  C      2.428874    0.880565   -1.717286
  O      2.796714   -0.285657   -0.959421
  P      2.220653   -0.641764    0.476759
  S      2.319706    0.787368    1.824275
  O      3.052180   -1.940844    0.832503
  C      4.312139   -1.886872    1.531252
  C      5.403979   -1.273045    0.680656
  S      0.355121   -1.554315    0.121637
  C     -0.499392   -1.068755    1.663649
  S     -2.257777   -0.744922    1.394934
  P     -2.062350    0.755620   -0.085921
  S     -0.595965    2.040556    0.033936
  O     -3.531216    1.351046    0.105877
  C     -3.861587    2.695416   -0.291728
  C     -3.923653    2.833189   -1.799979
  O     -2.041622    0.020251   -1.495411
  C     -3.058216   -0.938117   -1.878258
  C     -2.482478   -2.339605   -1.901190
  H      0.438231    0.279505   -2.283961
  H      1.224622    1.402352   -3.397042
  H      1.718555   -0.301870   -3.359891
  H      2.069390    1.659340   -1.036330
  H      3.357856    1.210466   -2.186537
  H      4.171356   -1.311956    2.452207
  H      4.521100   -2.930333    1.770165
  H      6.352958   -1.348117    1.202305
  H      5.470924   -1.788618   -0.273630
  H      5.182160   -0.222281    0.498164
  H     -0.012129   -0.170562    2.054318
  H     -0.448696   -1.885732    2.379179
  H     -4.830630    2.878621    0.174554
  H     -3.113976    3.376784    0.126697
  H     -2.941542    2.632211   -2.227418
  H     -4.643061    2.132018   -2.214836
  H     -4.219458    3.845690   -2.056243
  H     -3.897627   -0.865653   -1.180885
  H     -3.376307   -0.626280   -2.874630
  H     -1.611696   -2.375427   -2.549316
  H     -2.179179   -2.646478   -0.903087
  H     -3.237145   -3.025675   -2.271887

 Total Charge           Charge          ....    0
 Multiplicity           Mult            ....    1
 Number of Electrons    NEL             ....  202
 Basis Dimension        Dim             ....  539

ORBITAL ENERGIES
----------------

  NO   OCC          E(Eh)            E(eV)
   0   2.0000     -88.582498     -2410.4523
   1   2.0000     -88.577592     -2410.3188
   2   2.0000     -88.526564     -2408.9303
   3   2.0000     -88.525905     -2408.9123
   4   2.0000     -76.918029     -2093.0460
   5   2.0000     -76.917886     -2093.0421
   6   2.0000     -18.994920      -516.8781
   7   2.0000     -18.991460      -516.7839
   8   2.0000     -18.991379      -516.7817
   9   2.0000     -18.990283      -516.7519
  10   2.0000     -10.104637      -274.9611
  11   2.0000     -10.091139      -274.5939
  12   2.0000     -10.088882      -274.5324
  13   2.0000     -10.088270      -274.5158
  14   2.0000     -10.087727      -274.5010
  15   2.0000     -10.018575      -272.6193
  16   2.0000     -10.018340      -272.6129
  17   2.0000     -10.017919      -272.6014
  18   2.0000     -10.014682      -272.5134
  19   2.0000      -7.876788      -214.3383
  20   2.0000      -7.872050      -214.2094
  21   2.0000      -7.821504      -212.8340
  22   2.0000      -7.820980      -212.8197
  23   2.0000      -6.596415      -179.4976
  24   2.0000      -6.596403      -179.4973
  25   2.0000      -5.823736      -158.4719
  26   2.0000      -5.820598      -158.3865
  27   2.0000      -5.818833      -158.3385
  28   2.0000      -5.816025      -158.2621
  29   2.0000      -5.813880      -158.2037
  30   2.0000      -5.809082      -158.0732
  31   2.0000      -5.769048      -156.9838
  32   2.0000      -5.768710      -156.9746
  33   2.0000      -5.761907      -156.7895
  34   2.0000      -5.761456      -156.7772
  35   2.0000      -5.761259      -156.7718
  36   2.0000      -5.760825      -156.7600
  37   2.0000      -4.742143      -129.0403
  38   2.0000      -4.741717      -129.0287
  39   2.0000      -4.741324      -129.0180
  40   2.0000      -4.741196      -129.0145
  41   2.0000      -4.740361      -128.9918
  42   2.0000      -4.740096      -128.9846
  43   2.0000      -1.051501       -28.6128
  44   2.0000      -1.048088       -28.5199
  45   2.0000      -1.011560       -27.5260
  46   2.0000      -1.009399       -27.4672
  47   2.0000      -0.802475       -21.8365
  48   2.0000      -0.756477       -20.5848
  49   2.0000      -0.742795       -20.2125
  50   2.0000      -0.726835       -19.7782
  51   2.0000      -0.722737       -19.6667
  52   2.0000      -0.707871       -19.2621
  53   2.0000      -0.688850       -18.7446
  54   2.0000      -0.671809       -18.2809
  55   2.0000      -0.631689       -17.1891
  56   2.0000      -0.617664       -16.8075
  57   2.0000      -0.601455       -16.3664
  58   2.0000      -0.595560       -16.2060
  59   2.0000      -0.587831       -15.9957
  60   2.0000      -0.522595       -14.2205
  61   2.0000      -0.516835       -14.0638
  62   2.0000      -0.493277       -13.4228
  63   2.0000      -0.491214       -13.3666
  64   2.0000      -0.469804       -12.7840
  65   2.0000      -0.465641       -12.6707
  66   2.0000      -0.451132       -12.2759
  67   2.0000      -0.448522       -12.2049
  68   2.0000      -0.440496       -11.9865
  69   2.0000      -0.428360       -11.6563
  70   2.0000      -0.416067       -11.3217
  71   2.0000      -0.412664       -11.2292
  72   2.0000      -0.405227       -11.0268
  73   2.0000      -0.403674       -10.9845
  74   2.0000      -0.390186       -10.6175
  75   2.0000      -0.388475       -10.5709
  76   2.0000      -0.383129       -10.4255
  77   2.0000      -0.370205       -10.0738
  78   2.0000      -0.364570        -9.9205
  79   2.0000      -0.357166        -9.7190
  80   2.0000      -0.353234        -9.6120
  81   2.0000      -0.351807        -9.5732
  82   2.0000      -0.348764        -9.4903
  83   2.0000      -0.346571        -9.4307
  84   2.0000      -0.343031        -9.3343
  85   2.0000      -0.327824        -8.9205
  86   2.0000      -0.323132        -8.7929
  87   2.0000      -0.315478        -8.5846
  88   2.0000      -0.301594        -8.2068
  89   2.0000      -0.298805        -8.1309
  90   2.0000      -0.294415        -8.0115
  91   2.0000      -0.288607        -7.8534
  92   2.0000      -0.284533        -7.7425
  93   2.0000      -0.283871        -7.7245
  94   2.0000      -0.276669        -7.5285
  95   2.0000      -0.247999        -6.7484
  96   2.0000      -0.243527        -6.6267
  97   2.0000      -0.233346        -6.3497
  98   2.0000      -0.221268        -6.0210
  99   2.0000      -0.220418        -5.9979
 100   2.0000      -0.211325        -5.7504
 101   0.0000      -0.052788        -1.4364
 102   0.0000      -0.041521        -1.1298
 103   0.0000      -0.007839        -0.2133
 104   0.0000       0.010547         0.2870
 105   0.0000       0.012505         0.3403

MULLIKEN ATOMIC CHARGES
-----------------------
   0 C :   -0.487147
   1 C :   -0.140820
   2 O :   -0.298782
   3 P :    0.704889
   4 S :   -0.516369
   5 O :   -0.321792
   6 C :   -0.148576
   7 C :   -0.481174
   8 S :   -0.139115
   9 C :   -0.236196
  10 S :   -0.154113
  11 P :    0.669030
  12 S :   -0.458670
  13 O :   -0.343723
  14 C :   -0.155370
  15 C :   -0.475519
  16 O :   -0.288741
  17 C :   -0.105147
  18 C :   -0.497501
  19 H :    0.171607
  20 H :    0.169030
  21 H :    0.164349
  22 H :    0.167044
  23 H :    0.173818
  24 H :    0.174927
  25 H :    0.173173
  26 H :    0.171737
  27 H :    0.168641
  28 H :    0.167602
  29 H :    0.216454
  30 H :    0.230115
  31 H :    0.174676
  32 H :    0.178240
  33 H :    0.172136
  34 H :    0.167408
  35 H :    0.172715
  36 H :    0.176344
  37 H :    0.180297
  38 H :    0.171744
  39 H :    0.161588
  40 H :    0.171191
Sum of atomic charges:    0.0000000

LOEWDIN ATOMIC CHARGES
----------------------
   0 C :   -0.410974
   1 C :    0.024245
   2 O :   -0.670775
   3 P :    0.383568
   4 S :   -0.160230
   5 O :   -0.687440
   6 C :    0.024715
   7 C :   -0.403855
   8 S :    0.168290
   9 C :   -0.401335
  10 S :    0.158450
  11 P :    0.379662
  12 S :   -0.111444
  13 O :   -0.700742
  14 C :    0.025461
  15 C :   -0.401172
  16 O :   -0.696047
  17 C :    0.026444
  18 C :   -0.404218
  19 H :    0.168170
  20 H :    0.168555
  21 H :    0.162168
  22 H :    0.182011
  23 H :    0.187159
  24 H :    0.181063
  25 H :    0.189823
  26 H :    0.168318
  27 H :    0.163835
  28 H :    0.162577
  29 H :    0.196786
  30 H :    0.194142
  31 H :    0.189851
  32 H :    0.180947
  33 H :    0.163350
  34 H :    0.163281
  35 H :    0.168585
  36 H :    0.184026
  37 H :    0.190938
  38 H :    0.163777
  39 H :    0.159888
  40 H :    0.168149

  Mayer bond orders larger than 0.100000
B(  0-C ,  1-C ) :   0.9333 B(  0-C , 19-H ) :   0.9556 B(  0-C , 20-H ) :   0.9613
B(  0-C , 21-H ) :   0.9715 B(  1-C ,  2-O ) :   0.7597 B(  1-C , 22-H ) :   0.9531
B(  1-C , 23-H ) :   0.9565 B(  2-O ,  3-P ) :   1.1009 B(  3-P ,  4-S ) :   1.7130
B(  3-P ,  5-O ) :   1.1762 B(  3-P ,  8-S ) :   1.0844 B(  5-O ,  6-C ) :   0.8031
B(  6-C ,  7-C ) :   0.9152 B(  6-C , 24-H ) :   0.9606 B(  6-C , 25-H ) :   0.9515
B(  7-C , 26-H ) :   0.9563 B(  7-C , 27-H ) :   0.9702 B(  7-C , 28-H ) :   0.9596
B(  8-S ,  9-C ) :   0.8924 B(  9-C , 10-S ) :   0.9207 B(  9-C , 29-H ) :   0.9066
B(  9-C , 30-H ) :   0.8999 B( 10-S , 11-P ) :   1.0531 B( 11-P , 12-S ) :   1.8200
B( 11-P , 13-O ) :   1.1002 B( 11-P , 16-O ) :   1.0578 B( 13-O , 14-C ) :   0.8036
B( 14-C , 15-C ) :   0.9081 B( 14-C , 31-H ) :   0.9509 B( 14-C , 32-H ) :   0.9661
B( 15-C , 33-H ) :   0.9638 B( 15-C , 34-H ) :   0.9648 B( 15-C , 35-H ) :   0.9563
B( 16-O , 17-C ) :   0.7337 B( 17-C , 18-C ) :   0.9345 B( 17-C , 36-H ) :   0.9630
B( 17-C , 37-H ) :   0.9464 B( 18-C , 38-H ) :   0.9680 B( 18-C , 39-H ) :   0.9640
B( 18-C , 40-H ) :   0.9572

Dispersion correction           -0.022063985
FINAL SINGLE POINT ENERGY     -2932.466877642686

DIPOLE MOMENT
-------------

Method             : SCF
Type of density    : Electron Density
Multiplicity       :   1
Irrep              :   0
Energy             : -2932.4914880678361442 Eh
Relativity type    :
Basis              : AO
                                X                 Y                 Z
Electronic contribution:     -0.982940647      -0.721373998      16.107979434
Nuclear contribution   :     -0.136205965      -0.206625458     -17.504786125
                        -----------------------------------------
Total Dipole Moment    :     -1.119146612      -0.927999456      -1.396806691
                        -----------------------------------------
Magnitude (a.u.)       :      2.016120299
Magnitude (Debye)      :      5.124570545

Rotational constants in cm-1:             0.013870             0.004833             0.004703
Rotational constants in MHz :           415.809922           144.897217           140.978703

                             ****ORCA TERMINATED NORMALLY****
TOTAL RUN TIME: 0 days 0 hours 1 minutes 51 seconds 254 msec
