                         Program Version 6.0.0  -   RELEASE  -
|  1> ! r2scan-3c def2/J RI DEFGRID2 scfconv6 printgap
|  2> %output
|  3>     printlevel normal
|  4> end
|  5> %cpcm
|  6>     smd true
|  7>     smdsolvent "water"
|  8> end
|  9> * xyz 0 1
| 10> C 0.8678403553 1.3802370553 -0.5933225766
| 11> C 1.5893702245 0.1486342521 -0.0249921378
| 12> H 2.5539978701 0.0523929099 -0.5340029854
| 13> C 0.7599794115 -1.118632162 -0.3158393458
| 14> H 1.1907053558 -1.9410198071 0.2712208363
| 15> C -0.6945419056 -0.909693281 0.1471896305
| 16> H -1.3207664043 -1.745559394 -0.2017774139
| 17> C -1.2499270672 0.3829400828 -0.4745190966
| 18> H -1.251325644 0.2728651224 -1.5789877002
| 19> O -0.4600911928 1.4931350711 -0.1206448076
| 20> O -2.5261558342 0.5798841139 0.0230083756
| 21> O -0.713874928 -0.8344915713 1.5497220391
| 22> O 0.824688392 -1.3734412778 -1.6967163266
| 23> O 1.8791918368 0.2772219119 1.3411060149
| 24> H 0.8676287505 1.3120176339 -1.6889702308
| 25> H 1.3700438121 2.2908439814 -0.2679337823
| 26> H -2.8049546764 1.4914213846 -0.1547830534
| 27> H -1.5890355465 -0.5127129971 1.8204694098
| 28> H 0.5846430299 -2.2934717848 -1.8771180723
| 29> H 1.0465659056 0.2027037588 1.8393577353
| 30> *
| 31>
| 32>                          ****END OF INPUT****

CARTESIAN COORDINATES (ANGSTROEM)
---------------------------------
  C      0.867840    1.380237   -0.593323
  C      1.589370    0.148634   -0.024992
  H      2.553998    0.052393   -0.534003
  C      0.759979   -1.118632   -0.315839
  H      1.190705   -1.941020    0.271221
  C     -0.694542   -0.909693    0.147190
  H     -1.320766   -1.745559   -0.201777
  C     -1.249927    0.382940   -0.474519
  H     -1.251326    0.272865   -1.578988
  O     -0.460091    1.493135   -0.120645
  O     -2.526156    0.579884    0.023008
  O     -0.713875   -0.834492    1.549722
  O      0.824688   -1.373441   -1.696716
  O      1.879192    0.277222    1.341106
  H      0.867629    1.312018   -1.688970
  H      1.370044    2.290844   -0.267934
  H     -2.804955    1.491421   -0.154783
  H     -1.589036   -0.512713    1.820469
  H      0.584643   -2.293472   -1.877118
  H      1.046566    0.202704    1.839358

 Total Charge           Charge          ....    0
 Multiplicity           Mult            ....    1
 Number of Electrons    NEL             ....   80
 Basis Dimension        Dim             ....  265

ORBITAL ENERGIES
----------------

  NO   OCC          E(Eh)            E(eV)
   0   2.0000     -18.969784      -516.1941
   1   2.0000     -18.968540      -516.1602
   2   2.0000     -18.965570      -516.0794
   3   2.0000     -18.962652      -516.0000
   4   2.0000     -18.953517      -515.7514
   5   2.0000     -10.132689      -275.7245
   6   2.0000     -10.089186      -274.5407
   7   2.0000     -10.085378      -274.4371
   8   2.0000     -10.083848      -274.3955
   9   2.0000     -10.075439      -274.1666
  10   2.0000      -1.053132       -28.6572
  11   2.0000      -1.008630       -27.4462
  12   2.0000      -0.997909       -27.1545
  13   2.0000      -0.993316       -27.0295
  14   2.0000      -0.979447       -26.6521
  15   2.0000      -0.740142       -20.1403
  16   2.0000      -0.714606       -19.4454
  17   2.0000      -0.625717       -17.0266
  18   2.0000      -0.613276       -16.6881
  19   2.0000      -0.549095       -14.9416
  20   2.0000      -0.515251       -14.0207
  21   2.0000      -0.497169       -13.5287
  22   2.0000      -0.493761       -13.4359
  23   2.0000      -0.476115       -12.9557
  24   2.0000      -0.454446       -12.3661
  25   2.0000      -0.435048       -11.8383
  26   2.0000      -0.418685       -11.3930
  27   2.0000      -0.397790       -10.8244
  28   2.0000      -0.389784       -10.6066
  29   2.0000      -0.383445       -10.4341
  30   2.0000      -0.350636        -9.5413
  31   2.0000      -0.338035        -9.1984
  32   2.0000      -0.332958        -9.0602
  33   2.0000      -0.306022        -8.3273
  34   2.0000      -0.297380        -8.0921
  35   2.0000      -0.281650        -7.6641
  36   2.0000      -0.272590        -7.4175
  37   2.0000      -0.252459        -6.8698
  38   2.0000      -0.239554        -6.5186
  39   2.0000      -0.219657        -5.9772
  40   0.0000       0.041014         1.1160
  41   0.0000       0.068791         1.8719
  42   0.0000       0.090524         2.4633
  43   0.0000       0.102789         2.7970
  44   0.0000       0.106944         2.9101

MULLIKEN ATOMIC CHARGES
-----------------------
   0 C :   -0.267508
   1 C :   -0.017890
   2 H :    0.176808
   3 C :   -0.075251
   4 H :    0.173294
   5 C :    0.047122
   6 H :    0.174063
   7 C :   -0.016786
   8 H :    0.162174
   9 O :   -0.258777
  10 O :   -0.457994
  11 O :   -0.476585
  12 O :   -0.469440
  13 O :   -0.480825
  14 H :    0.178778
  15 H :    0.177194
  16 H :    0.358004
  17 H :    0.352160
  18 H :    0.355401
  19 H :    0.366059
Sum of atomic charges:   -0.0000000

LOEWDIN ATOMIC CHARGES
----------------------
   0 C :    0.046718
   1 C :    0.094306
   2 H :    0.204483
   3 C :    0.122048
   4 H :    0.193391
   5 C :    0.118880
   6 H :    0.192525
   7 C :    0.288493
   8 H :    0.195740
   9 O :   -0.708433
  10 O :   -0.521694
  11 O :   -0.590432
  12 O :   -0.602045
  13 O :   -0.606667
  14 H :    0.186923
  15 H :    0.198084
  16 H :    0.302162
  17 H :    0.298642
  18 H :    0.294982
  19 H :    0.291894

  Mayer bond orders larger than 0.100000
B(  0-C ,  1-C ) :   0.8868 B(  0-C ,  9-O ) :   0.9100 B(  0-C , 14-H ) :   0.9728
B(  0-C , 15-H ) :   0.9485 B(  1-C ,  2-H ) :   0.9566 B(  1-C ,  3-C ) :   0.9292
B(  1-C , 13-O ) :   0.9552 B(  3-C ,  4-H ) :   0.9768 B(  3-C ,  5-C ) :   0.8513
B(  3-C , 12-O ) :   0.9610 B(  5-C ,  6-H ) :   0.9363 B(  5-C ,  7-C ) :   0.8872
B(  5-C , 11-O ) :   0.9091 B(  7-C ,  8-H ) :   0.9831 B(  7-C ,  9-O ) :   0.9212
B(  7-C , 10-O ) :   1.0653 B( 10-O , 16-H ) :   0.8552 B( 11-O , 17-H ) :   0.8538
B( 12-O , 18-H ) :   0.8667 B( 13-O , 19-H ) :   0.8214

Dispersion correction           -0.006445847
FINAL SINGLE POINT ENERGY      -572.587563172159

DIPOLE MOMENT
-------------

Method             : SCF
Type of density    : Electron Density
Multiplicity       :   1
Irrep              :   0
Energy             :  -572.5981518178795113 Eh
Relativity type    :
Basis              : AO
                                X                 Y                 Z
Electronic contribution:     -1.636657753       0.285792166       1.208914844
Nuclear contribution   :      0.592708638      -0.814586869      -2.209588577
                        -----------------------------------------
Total Dipole Moment    :     -1.043949115      -0.528794703      -1.000673733
                        -----------------------------------------
Magnitude (a.u.)       :      1.539740729
Magnitude (Debye)      :      3.913709906

Rotational constants in cm-1:             0.058619             0.040481             0.038454
Rotational constants in MHz :          1757.345488          1213.574978          1152.814062

                             ****ORCA TERMINATED NORMALLY****
TOTAL RUN TIME: 0 days 0 hours 0 minutes 50 seconds 570 msec
