                         Program Version 6.0.0  -   RELEASE  -
|  1> ! wb97x-v def2-tzvp def2/J RIJCOSX DEFGRID2 scfconv7 GCP(DFT/TZ) printgap
|  2> %output
|  3>     printlevel normal
|  4> end
|  5> * xyz 0 1
|  6> C -1.6413405346042873 -0.4815723619132601 7.922482045578357e-07
|  7> C -0.6046375703535664 0.650211066930921 6.743739198140432e-05
|  8> C 0.7515761754233764 0.14019797536590303 0.000668681606581408
|  9> N 1.8279824819223358 -0.28832518925574285 -0.0006380318158314559
| 10> H -1.5323610849860383 -1.1077324093579322 0.8886198616670152
| 11> H -2.643016904420191 -0.04594084067176506 -0.00019673163354818452
| 12> H -1.532091561964401 -1.107899963196086 -0.8884647937123141
| 13> H -0.7207713769240454 1.2888240927610504 0.8824256848881743
| 14> H -0.7204087319840099 1.2886369198858145 -0.8824723863595045
| 15> *
| 16>
| 17>                          ****END OF INPUT****

CARTESIAN COORDINATES (ANGSTROEM)
---------------------------------
  C     -1.641341   -0.481572    0.000001
  C     -0.604638    0.650211    0.000067
  C      0.751576    0.140198    0.000669
  N      1.827982   -0.288325   -0.000638
  H     -1.532361   -1.107732    0.888620
  H     -2.643017   -0.045941   -0.000197
  H     -1.532092   -1.107900   -0.888465
  H     -0.720771    1.288824    0.882426
  H     -0.720409    1.288637   -0.882472

 Total Charge           Charge          ....    0
 Multiplicity           Mult            ....    1
 Number of Electrons    NEL             ....   30
 Basis Dimension        Dim             ....  154

ORBITAL ENERGIES
----------------

  NO   OCC          E(Eh)            E(eV)
   0   2.0000     -16.524708      -449.6602
   1   2.0000     -12.103480      -329.3524
   2   2.0000     -12.086333      -328.8858
   3   2.0000     -12.068879      -328.4109
   4   2.0000      -1.517926       -41.3049
   5   2.0000      -1.327167       -36.1141
   6   2.0000      -1.174310       -31.9546
   7   2.0000      -0.989270       -26.9194
   8   2.0000      -0.918966       -25.0063
   9   2.0000      -0.895234       -24.3605
  10   2.0000      -0.881347       -23.9827
  11   2.0000      -0.832221       -22.6459
  12   2.0000      -0.826418       -22.4880
  13   2.0000      -0.788263       -21.4497
  14   2.0000      -0.780102       -21.2276
  15   0.0000      -0.224990        -6.1223
  16   0.0000      -0.214537        -5.8378
  17   0.0000      -0.085143        -2.3169
  18   0.0000      -0.020809        -0.5663
  19   0.0000      -0.005021        -0.1366

MULLIKEN ATOMIC CHARGES
-----------------------
   0 C :   -0.333691
   1 C :   -0.055405
   2 C :   -0.249683
   3 N :   -0.020002
   4 H :    0.128370
   5 H :    0.125832
   6 H :    0.128380
   7 H :    0.138062
   8 H :    0.138136
Sum of atomic charges:   -0.0000000

LOEWDIN ATOMIC CHARGES
----------------------
   0 C :   -0.275326
   1 C :   -0.261571
   2 C :   -0.202456
   3 N :    0.046053
   4 H :    0.125575
   5 H :    0.122107
   6 H :    0.125577
   7 H :    0.160012
   8 H :    0.160028

  Mayer bond orders larger than 0.100000
B(  0-C ,  1-C ) :   0.9768 B(  0-C ,  4-H ) :   0.9735 B(  0-C ,  5-H ) :   0.9773
B(  0-C ,  6-H ) :   0.9735 B(  1-C ,  2-C ) :   0.9505 B(  1-C ,  7-H ) :   0.9546
B(  1-C ,  8-H ) :   0.9547 B(  2-C ,  3-N ) :   3.1444

FINAL SINGLE POINT ENERGY      -172.072960477579

DIPOLE MOMENT
-------------

Method             : SCF
Type of density    : Electron Density
Multiplicity       :   1
Irrep              :   0
Energy             :  -172.0780504166789058 Eh
Relativity type    :
Basis              : AO
                                X                 Y                 Z
Electronic contribution:      5.187738004       0.206968580       0.000546756
Nuclear contribution   :     -6.734950763       0.295684701      -0.000071499
                        -----------------------------------------
Total Dipole Moment    :     -1.547212760       0.502653282       0.000475257
                        -----------------------------------------
Magnitude (a.u.)       :      1.626815254
Magnitude (Debye)      :      4.135035760

Rotational constants in cm-1:             0.923769             0.158558             0.142567
Rotational constants in MHz :         27693.884547          4753.457536          4274.040149

                             ****ORCA TERMINATED NORMALLY****
TOTAL RUN TIME: 0 days 0 hours 0 minutes 38 seconds 625 msec
