                         Program Version 6.0.0  -   RELEASE  -
|  1> ! wb97x-v def2-tzvp def2/J RIJCOSX DEFGRID2 scfconv7 GCP(DFT/TZ) printgap
|  2> %output
|  3>     printlevel normal
|  4> end
|  5> %cpcm
|  6>     smd true
|  7>     smdsolvent "water"
|  8> end
|  9> * xyz 0 1
| 10> C -1.6413405346042873 -0.4815723619132601 7.922482045578357e-07
| 11> C -0.6046375703535664 0.650211066930921 6.743739198140432e-05
| 12> C 0.7515761754233764 0.14019797536590303 0.000668681606581408
| 13> N 1.8279824819223358 -0.28832518925574285 -0.0006380318158314559
| 14> H -1.5323610849860383 -1.1077324093579322 0.8886198616670152
| 15> H -2.643016904420191 -0.04594084067176506 -0.00019673163354818452
| 16> H -1.532091561964401 -1.107899963196086 -0.8884647937123141
| 17> H -0.7207713769240454 1.2888240927610504 0.8824256848881743
| 18> H -0.7204087319840099 1.2886369198858145 -0.8824723863595045
| 19> *
| 20>
| 21>                          ****END OF INPUT****

CARTESIAN COORDINATES (ANGSTROEM)
---------------------------------
  C     -1.641341   -0.481572    0.000001
  C     -0.604638    0.650211    0.000067
  C      0.751576    0.140198    0.000669
  N      1.827982   -0.288325   -0.000638
  H     -1.532361   -1.107732    0.888620
  H     -2.643017   -0.045941   -0.000197
  H     -1.532092   -1.107900   -0.888465
  H     -0.720771    1.288824    0.882426
  H     -0.720409    1.288637   -0.882472

 Total Charge           Charge          ....    0
 Multiplicity           Mult            ....    1
 Number of Electrons    NEL             ....   30
 Basis Dimension        Dim             ....  154

ORBITAL ENERGIES
----------------

  NO   OCC          E(Eh)            E(eV)
   0   2.0000     -16.528482      -449.7629
   1   2.0000     -12.096294      -329.1569
   2   2.0000     -12.080494      -328.7270
   3   2.0000     -12.043749      -327.7271
   4   2.0000      -1.526058       -41.5261
   5   2.0000      -1.307544       -35.5801
   6   2.0000      -1.153283       -31.3824
   7   2.0000      -0.972931       -26.4748
   8   2.0000      -0.903281       -24.5795
   9   2.0000      -0.897048       -24.4099
  10   2.0000      -0.864833       -23.5333
  11   2.0000      -0.814218       -22.1560
  12   2.0000      -0.808265       -21.9940
  13   2.0000      -0.790673       -21.5153
  14   2.0000      -0.772893       -21.0315
  15   0.0000      -0.225597        -6.1388
  16   0.0000      -0.215384        -5.8609
  17   0.0000      -0.074416        -2.0250
  18   0.0000       0.004259         0.1159
  19   0.0000       0.019929         0.5423

MULLIKEN ATOMIC CHARGES
-----------------------
   0 C :   -0.378833
   1 C :   -0.036761
   2 C :   -0.199955
   3 N :   -0.142656
   4 H :    0.139089
   5 H :    0.146696
   6 H :    0.139074
   7 H :    0.166632
   8 H :    0.166715
Sum of atomic charges:   -0.0000000

LOEWDIN ATOMIC CHARGES
----------------------
   0 C :   -0.275209
   1 C :   -0.245506
   2 C :   -0.176222
   3 N :   -0.031325
   4 H :    0.127087
   5 H :    0.128605
   6 H :    0.127082
   7 H :    0.172736
   8 H :    0.172753

  Mayer bond orders larger than 0.100000
B(  0-C ,  1-C ) :   0.9653 B(  0-C ,  4-H ) :   0.9719 B(  0-C ,  5-H ) :   0.9721
B(  0-C ,  6-H ) :   0.9719 B(  1-C ,  2-C ) :   0.9652 B(  1-C ,  7-H ) :   0.9387
B(  1-C ,  8-H ) :   0.9387 B(  2-C ,  3-N ) :   3.1342

FINAL SINGLE POINT ENERGY      -172.079263928640

DIPOLE MOMENT
-------------

Method             : SCF
Type of density    : Electron Density
Multiplicity       :   1
Irrep              :   0
Energy             :  -172.0843538677402478 Eh
Relativity type    :
Basis              : AO
                                X                 Y                 Z
Electronic contribution:      4.732406793       0.422024802       0.000836175
Nuclear contribution   :     -6.734950763       0.295684701      -0.000071499
                        -----------------------------------------
Total Dipole Moment    :     -2.002543971       0.717709503       0.000764676
                        -----------------------------------------
Magnitude (a.u.)       :      2.127272872
Magnitude (Debye)      :      5.407097930

Rotational constants in cm-1:             0.923769             0.158558             0.142567
Rotational constants in MHz :         27693.884547          4753.457536          4274.040149

                             ****ORCA TERMINATED NORMALLY****
TOTAL RUN TIME: 0 days 0 hours 0 minutes 39 seconds 307 msec
