                         Program Version 6.0.0  -   RELEASE  -
|  1> ! pbe def2-sv(p) def2/J RI DEFGRID1 loosescf d4 GCP(DFT/SV(P)) printgap
|  2> %output
|  3>     printlevel normal
|  4> end
|  5> * xyz 0 1
|  6> C 5.6418041019 -1.395985809 -1.1302056069
|  7> C 4.8054657251 -0.1469036614 -0.9429894932
|  8> O 3.5913571024 -0.5224583449 -0.2546380284
|  9> P 2.2524389603 0.3060566143 -0.4090489349
| 10> S 1.7812195773 0.7642755196 -2.2623752534
| 11> O 2.5696821098 1.5527744262 0.5294964809
| 12> C 1.7254118908 2.7090727247 0.6599441506
| 13> C 0.8805327264 2.6166859549 1.9151669396
| 14> S 0.9868856864 -0.9648570791 0.6770828151
| 15> C 0.0022037459 -1.6486483436 -0.7079885113
| 16> S -1.7071002522 -1.9515610615 -0.2289247965
| 17> P -2.2359156226 0.0474135067 0.2980444473
| 18> S -1.4453039479 1.4925480009 -0.7574702855
| 19> O -1.9045731379 0.1934110981 1.8317874483
| 20> C -2.4067947579 -0.7262204774 2.8393684093
| 21> C -1.2602076132 -1.5133837079 3.4401122759
| 22> O -3.8266234829 0.0010414171 0.319451744
| 23> C -4.6382378372 0.2545173526 -0.8408304559
| 24> C -4.4379084401 -0.7820131542 -1.9273590064
| 25> H 5.8479367836 -1.8500596239 -0.1654163588
| 26> H 5.1097878196 -2.1119863569 -1.7502770283
| 27> H 6.576872811 -1.1294696252 -1.6119693631
| 28> H 4.5360354462 0.3050625498 -1.9039228348
| 29> H 5.3208433706 0.5952703359 -0.3292038789
| 30> H 2.4153962887 3.5537082416 0.7094999911
| 31> H 1.0991859133 2.8040233637 -0.2336358438
| 32> H 1.5155893484 2.432900625 2.7771793321
| 33> H 0.3441784754 3.5505530463 2.0497625284
| 34> H 0.1553319338 1.8092205106 1.8303852189
| 35> H 0.412323971 -2.611620186 -1.0014771815
| 36> H 0.0379197635 -0.9331092533 -1.5345918123
| 37> H -2.8890859567 -0.0914711549 3.5840149412
| 38> H -3.1475865102 -1.3858145714 2.3828325313
| 39> H -0.5084274677 -0.8370942381 3.8365360217
| 40> H -1.6422143435 -2.1372400114 4.2416334956
| 41> H -0.7916238513 -2.1432177824 2.6874892169
| 42> H -5.6568317958 0.2373730581 -0.450431558
| 43> H -4.4002256109 1.2549311011 -1.2152084479
| 44> H -4.5583487663 -1.7841211569 -1.5236670472
| 45> H -5.1666863487 -0.619020688 -2.7149187075
| 46> H -3.4386866041 -0.690489711 -2.3509513705
| 47> *
| 48>
| 49>                          ****END OF INPUT****

CARTESIAN COORDINATES (ANGSTROEM)
---------------------------------
  C      5.641804   -1.395986   -1.130206
  C      4.805466   -0.146904   -0.942989
  O      3.591357   -0.522458   -0.254638
  P      2.252439    0.306057   -0.409049
  S      1.781220    0.764276   -2.262375
  O      2.569682    1.552774    0.529496
  C      1.725412    2.709073    0.659944
  C      0.880533    2.616686    1.915167
  S      0.986886   -0.964857    0.677083
  C      0.002204   -1.648648   -0.707989
  S     -1.707100   -1.951561   -0.228925
  P     -2.235916    0.047414    0.298044
  S     -1.445304    1.492548   -0.757470
  O     -1.904573    0.193411    1.831787
  C     -2.406795   -0.726220    2.839368
  C     -1.260208   -1.513384    3.440112
  O     -3.826623    0.001041    0.319452
  C     -4.638238    0.254517   -0.840830
  C     -4.437908   -0.782013   -1.927359
  H      5.847937   -1.850060   -0.165416
  H      5.109788   -2.111986   -1.750277
  H      6.576873   -1.129470   -1.611969
  H      4.536035    0.305063   -1.903923
  H      5.320843    0.595270   -0.329204
  H      2.415396    3.553708    0.709500
  H      1.099186    2.804023   -0.233636
  H      1.515589    2.432901    2.777179
  H      0.344178    3.550553    2.049763
  H      0.155332    1.809221    1.830385
  H      0.412324   -2.611620   -1.001477
  H      0.037920   -0.933109   -1.534592
  H     -2.889086   -0.091471    3.584015
  H     -3.147587   -1.385815    2.382833
  H     -0.508427   -0.837094    3.836536
  H     -1.642214   -2.137240    4.241633
  H     -0.791624   -2.143218    2.687489
  H     -5.656832    0.237373   -0.450432
  H     -4.400226    1.254931   -1.215208
  H     -4.558349   -1.784121   -1.523667
  H     -5.166686   -0.619021   -2.714919
  H     -3.438687   -0.690490   -2.350951

 Total Charge           Charge          ....    0
 Multiplicity           Mult            ....    1
 Number of Electrons    NEL             ....  202
 Basis Dimension        Dim             ....  334

ORBITAL ENERGIES
----------------

  NO   OCC          E(Eh)            E(eV)
   0   2.0000     -88.048192     -2395.9131
   1   2.0000     -88.040392     -2395.7009
   2   2.0000     -87.985236     -2394.2000
   3   2.0000     -87.980026     -2394.0582
   4   2.0000     -76.428166     -2079.7161
   5   2.0000     -76.418926     -2079.4647
   6   2.0000     -18.795316      -511.4465
   7   2.0000     -18.793086      -511.3859
   8   2.0000     -18.784028      -511.1394
   9   2.0000     -18.781556      -511.0721
  10   2.0000      -9.958343      -270.9803
  11   2.0000      -9.955280      -270.8970
  12   2.0000      -9.953699      -270.8539
  13   2.0000      -9.945424      -270.6288
  14   2.0000      -9.939101      -270.4567
  15   2.0000      -9.886222      -269.0178
  16   2.0000      -9.885527      -268.9989
  17   2.0000      -9.882805      -268.9248
  18   2.0000      -9.868584      -268.5378
  19   2.0000      -7.692958      -209.3360
  20   2.0000      -7.685317      -209.1281
  21   2.0000      -7.630102      -207.6256
  22   2.0000      -7.625002      -207.4868
  23   2.0000      -6.425327      -174.8420
  24   2.0000      -6.416874      -174.6120
  25   2.0000      -5.720847      -155.6722
  26   2.0000      -5.717343      -155.5768
  27   2.0000      -5.713224      -155.4647
  28   2.0000      -5.710096      -155.3796
  29   2.0000      -5.709905      -155.3744
  30   2.0000      -5.702130      -155.1629
  31   2.0000      -5.659128      -153.9927
  32   2.0000      -5.653855      -153.8492
  33   2.0000      -5.650457      -153.7568
  34   2.0000      -5.650403      -153.7553
  35   2.0000      -5.645706      -153.6275
  36   2.0000      -5.645125      -153.6117
  37   2.0000      -4.648152      -126.4826
  38   2.0000      -4.647099      -126.4540
  39   2.0000      -4.645604      -126.4133
  40   2.0000      -4.639301      -126.2418
  41   2.0000      -4.638537      -126.2210
  42   2.0000      -4.637491      -126.1925
  43   2.0000      -0.990223       -26.9453
  44   2.0000      -0.978362       -26.6226
  45   2.0000      -0.946476       -25.7549
  46   2.0000      -0.935471       -25.4555
  47   2.0000      -0.763257       -20.7693
  48   2.0000      -0.720864       -19.6157
  49   2.0000      -0.709394       -19.3036
  50   2.0000      -0.690806       -18.7978
  51   2.0000      -0.677864       -18.4456
  52   2.0000      -0.674028       -18.3412
  53   2.0000      -0.649583       -17.6761
  54   2.0000      -0.630456       -17.1556
  55   2.0000      -0.597679       -16.2637
  56   2.0000      -0.585315       -15.9272
  57   2.0000      -0.576960       -15.6999
  58   2.0000      -0.562408       -15.3039
  59   2.0000      -0.556731       -15.1494
  60   2.0000      -0.505135       -13.7454
  61   2.0000      -0.497189       -13.5292
  62   2.0000      -0.473887       -12.8951
  63   2.0000      -0.469619       -12.7790
  64   2.0000      -0.449039       -12.2190
  65   2.0000      -0.445421       -12.1205
  66   2.0000      -0.441143       -12.0041
  67   2.0000      -0.433535       -11.7971
  68   2.0000      -0.431705       -11.7473
  69   2.0000      -0.414417       -11.2768
  70   2.0000      -0.411460       -11.1964
  71   2.0000      -0.393292       -10.7020
  72   2.0000      -0.385908       -10.5011
  73   2.0000      -0.379298       -10.3212
  74   2.0000      -0.376998       -10.2586
  75   2.0000      -0.369658       -10.0589
  76   2.0000      -0.366053        -9.9608
  77   2.0000      -0.358615        -9.7584
  78   2.0000      -0.352545        -9.5932
  79   2.0000      -0.351449        -9.5634
  80   2.0000      -0.346057        -9.4167
  81   2.0000      -0.342014        -9.3067
  82   2.0000      -0.338604        -9.2139
  83   2.0000      -0.332414        -9.0454
  84   2.0000      -0.325924        -8.8688
  85   2.0000      -0.315505        -8.5853
  86   2.0000      -0.306230        -8.3330
  87   2.0000      -0.303834        -8.2678
  88   2.0000      -0.295184        -8.0324
  89   2.0000      -0.286635        -7.7997
  90   2.0000      -0.281255        -7.6533
  91   2.0000      -0.274385        -7.4664
  92   2.0000      -0.265887        -7.2352
  93   2.0000      -0.263958        -7.1827
  94   2.0000      -0.256405        -6.9771
  95   2.0000      -0.232405        -6.3241
  96   2.0000      -0.224384        -6.1058
  97   2.0000      -0.210781        -5.7356
  98   2.0000      -0.201915        -5.4944
  99   2.0000      -0.194675        -5.2974
 100   2.0000      -0.187050        -5.0899
 101   0.0000      -0.045452        -1.2368
 102   0.0000      -0.034418        -0.9366
 103   0.0000      -0.010311        -0.2806
 104   0.0000       0.008402         0.2286
 105   0.0000       0.017408         0.4737

MULLIKEN ATOMIC CHARGES
-----------------------
   0 C :   -0.277796
   1 C :   -0.007096
   2 O :   -0.372443
   3 P :    0.629928
   4 S :   -0.320611
   5 O :   -0.381131
   6 C :   -0.009946
   7 C :   -0.313737
   8 S :   -0.107285
   9 C :   -0.342679
  10 S :   -0.114368
  11 P :    0.595398
  12 S :   -0.296197
  13 O :   -0.350164
  14 C :   -0.013897
  15 C :   -0.284454
  16 O :   -0.379318
  17 C :    0.002661
  18 C :   -0.322113
  19 H :    0.115875
  20 H :    0.116122
  21 H :    0.109035
  22 H :    0.103086
  23 H :    0.101707
  24 H :    0.097644
  25 H :    0.119581
  26 H :    0.102178
  27 H :    0.104855
  28 H :    0.146158
  29 H :    0.181360
  30 H :    0.211065
  31 H :    0.112561
  32 H :    0.105657
  33 H :    0.122611
  34 H :    0.109045
  35 H :    0.122286
  36 H :    0.104961
  37 H :    0.113600
  38 H :    0.117226
  39 H :    0.115258
  40 H :    0.133379
Sum of atomic charges:   -0.0000000

LOEWDIN ATOMIC CHARGES
----------------------
   0 C :   -0.350829
   1 C :   -0.118032
   2 O :   -0.250555
   3 P :    0.566604
   4 S :   -0.306710
   5 O :   -0.246526
   6 C :   -0.117758
   7 C :   -0.368066
   8 S :    0.088209
   9 C :   -0.477452
  10 S :    0.077421
  11 P :    0.565948
  12 S :   -0.288532
  13 O :   -0.233348
  14 C :   -0.111981
  15 C :   -0.359170
  16 O :   -0.250349
  17 C :   -0.115268
  18 C :   -0.371496
  19 H :    0.126527
  20 H :    0.127274
  21 H :    0.129302
  22 H :    0.106358
  23 H :    0.112711
  24 H :    0.114502
  25 H :    0.107438
  26 H :    0.119589
  27 H :    0.128889
  28 H :    0.121105
  29 H :    0.135156
  30 H :    0.123783
  31 H :    0.122146
  32 H :    0.107986
  33 H :    0.129372
  34 H :    0.129181
  35 H :    0.115676
  36 H :    0.118779
  37 H :    0.113925
  38 H :    0.122472
  39 H :    0.132198
  40 H :    0.123521

  Mayer bond orders larger than 0.100000
B(  0-C ,  1-C ) :   1.1624 B(  0-C , 19-H ) :   0.9507 B(  0-C , 20-H ) :   0.9511
B(  0-C , 21-H ) :   0.9421 B(  1-C ,  2-O ) :   0.9034 B(  1-C , 22-H ) :   0.9068
B(  1-C , 23-H ) :   0.9318 B(  2-O ,  3-P ) :   1.1267 B(  3-P ,  4-S ) :   1.6248
B(  3-P ,  5-O ) :   1.1147 B(  3-P ,  8-S ) :   0.9625 B(  4-S ,  8-S ) :   0.1183
B(  5-O ,  6-C ) :   0.9016 B(  6-C ,  7-C ) :   1.1704 B(  6-C , 24-H ) :   0.9346
B(  6-C , 25-H ) :   0.9047 B(  7-C , 26-H ) :   0.9463 B(  7-C , 27-H ) :   0.9402
B(  7-C , 28-H ) :   0.9245 B(  8-S ,  9-C ) :   0.9919 B(  9-C , 10-S ) :   1.0107
B(  9-C , 29-H ) :   0.9086 B(  9-C , 30-H ) :   0.8483 B( 10-S , 11-P ) :   0.9309
B( 10-S , 12-S ) :   0.1082 B( 11-P , 12-S ) :   1.6477 B( 11-P , 13-O ) :   1.1228
B( 11-P , 16-O ) :   1.0904 B( 13-O , 14-C ) :   0.8862 B( 14-C , 15-C ) :   1.1655
B( 14-C , 31-H ) :   0.9339 B( 14-C , 32-H ) :   0.9168 B( 15-C , 33-H ) :   0.9463
B( 15-C , 34-H ) :   0.9388 B( 15-C , 35-H ) :   0.9335 B( 16-O , 17-C ) :   0.9054
B( 17-C , 18-C ) :   1.1664 B( 17-C , 36-H ) :   0.9346 B( 17-C , 37-H ) :   0.9190
B( 18-C , 38-H ) :   0.9432 B( 18-C , 39-H ) :   0.9368 B( 18-C , 40-H ) :   0.9349

Dispersion correction           -0.065792627
FINAL SINGLE POINT ENERGY     -2929.520997701434

DIPOLE MOMENT
-------------

Method             : SCF
Type of density    : Electron Density
Multiplicity       :   1
Irrep              :   0
Energy             : -2929.6395395542881488 Eh
Relativity type    :
Basis              : AO
                                X                 Y                 Z
Electronic contribution:     -1.604679804       1.302500087      -6.236941031
Nuclear contribution   :      1.101968149      -1.950108829       7.071028620
                        -----------------------------------------
Total Dipole Moment    :     -0.502711655      -0.647608742       0.834087589
                        -----------------------------------------
Magnitude (a.u.)       :      1.169537599
Magnitude (Debye)      :      2.972728331

Rotational constants in cm-1:             0.012648             0.004863             0.004745
Rotational constants in MHz :           379.190566           145.801597           142.261187

                             ****ORCA TERMINATED NORMALLY****
TOTAL RUN TIME: 0 days 0 hours 0 minutes 20 seconds 917 msec
