                         Program Version 6.0.0  -   RELEASE  -
|  1> ! pbe def2-sv(p) def2/J RI DEFGRID1 loosescf d4 GCP(DFT/SV(P)) printgap
|  2> %output
|  3>     printlevel normal
|  4> end
|  5> * xyz 0 1
|  6> C 3.1882205941 1.6995314523 -2.3220962014
|  7> C 3.3385601836 0.1965134399 -2.2063837483
|  8> O 2.2959710143 -0.3940789349 -1.4041024864
|  9> P 2.0766828392 -0.1267273601 0.1362326628
| 10> S 1.3201277529 1.5689164455 0.786367854
| 11> O 3.5584449463 -0.3742978759 0.6784460479
| 12> C 3.9778183672 0.0094894337 1.997062994
| 13> C 3.331216726 -0.8436254317 3.0694435129
| 14> S 0.9784242738 -1.8695250176 0.5858689871
| 15> C -0.371883134 -1.1618181445 1.5908150775
| 16> S -2.0161397436 -1.3847480932 0.8668381781
| 17> P -2.0254855199 0.2061836996 -0.5492108487
| 18> S -0.7267612163 0.1816038837 -2.0125764506
| 19> O -1.9283753751 1.5201794703 0.3119045115
| 20> C -2.8683118818 1.8535763445 1.368044608
| 21> C -2.1866436251 2.8337242781 2.2997488432
| 22> O -3.5466623303 0.2223428657 -1.0169614541
| 23> C -4.0330069099 -0.5677572335 -2.1159020923
| 24> C -3.9489419668 -2.053735788 -1.8342474529
| 25> H 2.1883590757 1.9446320937 -2.6759064729
| 26> H 3.3365543733 2.1710074076 -1.3511496566
| 27> H 3.922786904 2.0859679144 -3.0213357614
| 28> H 4.304357126 -0.0726605336 -1.7717465801
| 29> H 3.2136839299 -0.290460263 -3.1750796712
| 30> H 5.0606812549 -0.1203845802 1.9759348311
| 31> H 3.7302961927 1.0658212894 2.1447572009
| 32> H 3.47458192 -1.898524931 2.8500428909
| 33> H 3.7764392449 -0.6095880816 4.0309729744
| 34> H 2.2634584927 -0.6339311325 3.1135228443
| 35> H -0.1728425248 -0.0940563537 1.7290197016
| 36> H -0.3965740488 -1.6946444404 2.5374292199
| 37> H -3.749561357 2.2908807177 0.8956042655
| 38> H -3.1549475568 0.9337463355 1.8860885669
| 39> H -1.9108236375 3.7333169785 1.7569356729
| 40> H -2.8645352524 3.0897575122 3.1072469248
| 41> H -1.2801581486 2.3970110823 2.7112134427
| 42> H -5.0654178006 -0.2360654286 -2.2351011414
| 43> H -3.4526290104 -0.3112183557 -3.0076881693
| 44> H -4.437571079 -2.5990156871 -2.635270207
| 45> H -2.9056975728 -2.3634217165 -1.7837098242
| 46> H -4.4307021507 -2.2884143159 -0.8883482227
| 47> *
| 48>
| 49>                          ****END OF INPUT****

CARTESIAN COORDINATES (ANGSTROEM)
---------------------------------
  C      3.188221    1.699531   -2.322096
  C      3.338560    0.196513   -2.206384
  O      2.295971   -0.394079   -1.404102
  P      2.076683   -0.126727    0.136233
  S      1.320128    1.568916    0.786368
  O      3.558445   -0.374298    0.678446
  C      3.977818    0.009489    1.997063
  C      3.331217   -0.843625    3.069444
  S      0.978424   -1.869525    0.585869
  C     -0.371883   -1.161818    1.590815
  S     -2.016140   -1.384748    0.866838
  P     -2.025486    0.206184   -0.549211
  S     -0.726761    0.181604   -2.012576
  O     -1.928375    1.520179    0.311905
  C     -2.868312    1.853576    1.368045
  C     -2.186644    2.833724    2.299749
  O     -3.546662    0.222343   -1.016961
  C     -4.033007   -0.567757   -2.115902
  C     -3.948942   -2.053736   -1.834247
  H      2.188359    1.944632   -2.675906
  H      3.336554    2.171007   -1.351150
  H      3.922787    2.085968   -3.021336
  H      4.304357   -0.072661   -1.771747
  H      3.213684   -0.290460   -3.175080
  H      5.060681   -0.120385    1.975935
  H      3.730296    1.065821    2.144757
  H      3.474582   -1.898525    2.850043
  H      3.776439   -0.609588    4.030973
  H      2.263458   -0.633931    3.113523
  H     -0.172843   -0.094056    1.729020
  H     -0.396574   -1.694644    2.537429
  H     -3.749561    2.290881    0.895604
  H     -3.154948    0.933746    1.886089
  H     -1.910824    3.733317    1.756936
  H     -2.864535    3.089758    3.107247
  H     -1.280158    2.397011    2.711213
  H     -5.065418   -0.236065   -2.235101
  H     -3.452629   -0.311218   -3.007688
  H     -4.437571   -2.599016   -2.635270
  H     -2.905698   -2.363422   -1.783710
  H     -4.430702   -2.288414   -0.888348

 Total Charge           Charge          ....    0
 Multiplicity           Mult            ....    1
 Number of Electrons    NEL             ....  202
 Basis Dimension        Dim             ....  334

ORBITAL ENERGIES
----------------

  NO   OCC          E(Eh)            E(eV)
   0   2.0000     -88.039431     -2395.6747
   1   2.0000     -88.036172     -2395.5860
   2   2.0000     -87.983527     -2394.1535
   3   2.0000     -87.973809     -2393.8891
   4   2.0000     -76.421665     -2079.5392
   5   2.0000     -76.417656     -2079.4301
   6   2.0000     -18.786163      -511.1975
   7   2.0000     -18.784843      -511.1616
   8   2.0000     -18.783950      -511.1373
   9   2.0000     -18.783087      -511.1138
  10   2.0000      -9.953704      -270.8541
  11   2.0000      -9.949661      -270.7440
  12   2.0000      -9.948798      -270.7206
  13   2.0000      -9.948731      -270.7187
  14   2.0000      -9.948313      -270.7074
  15   2.0000      -9.884289      -268.9652
  16   2.0000      -9.883036      -268.9311
  17   2.0000      -9.881186      -268.8807
  18   2.0000      -9.875224      -268.7185
  19   2.0000      -7.684374      -209.1024
  20   2.0000      -7.681561      -209.0259
  21   2.0000      -7.628352      -207.5780
  22   2.0000      -7.618842      -207.3192
  23   2.0000      -6.418767      -174.6635
  24   2.0000      -6.415193      -174.5663
  25   2.0000      -5.712096      -155.4340
  26   2.0000      -5.709450      -155.3620
  27   2.0000      -5.708762      -155.3433
  28   2.0000      -5.706148      -155.2722
  29   2.0000      -5.701626      -155.1491
  30   2.0000      -5.698382      -155.0609
  31   2.0000      -5.657040      -153.9359
  32   2.0000      -5.649451      -153.7294
  33   2.0000      -5.648237      -153.6963
  34   2.0000      -5.647900      -153.6872
  35   2.0000      -5.639350      -153.4545
  36   2.0000      -5.638971      -153.4442
  37   2.0000      -4.641453      -126.3004
  38   2.0000      -4.640249      -126.2676
  39   2.0000      -4.639450      -126.2459
  40   2.0000      -4.638200      -126.2118
  41   2.0000      -4.637011      -126.1795
  42   2.0000      -4.635202      -126.1303
  43   2.0000      -0.981654       -26.7122
  44   2.0000      -0.981431       -26.7061
  45   2.0000      -0.938455       -25.5367
  46   2.0000      -0.936971       -25.4963
  47   2.0000      -0.757411       -20.6102
  48   2.0000      -0.716257       -19.4903
  49   2.0000      -0.706329       -19.2202
  50   2.0000      -0.685139       -18.6436
  51   2.0000      -0.684364       -18.6225
  52   2.0000      -0.671296       -18.2669
  53   2.0000      -0.647280       -17.6134
  54   2.0000      -0.630036       -17.1442
  55   2.0000      -0.595379       -16.2011
  56   2.0000      -0.584238       -15.8979
  57   2.0000      -0.573568       -15.6076
  58   2.0000      -0.566620       -15.4185
  59   2.0000      -0.555483       -15.1155
  60   2.0000      -0.500573       -13.6213
  61   2.0000      -0.491523       -13.3750
  62   2.0000      -0.469249       -12.7689
  63   2.0000      -0.464098       -12.6287
  64   2.0000      -0.453590       -12.3428
  65   2.0000      -0.447502       -12.1772
  66   2.0000      -0.432701       -11.7744
  67   2.0000      -0.428320       -11.6552
  68   2.0000      -0.426462       -11.6046
  69   2.0000      -0.414244       -11.2722
  70   2.0000      -0.407904       -11.0996
  71   2.0000      -0.405661       -11.0386
  72   2.0000      -0.387042       -10.5320
  73   2.0000      -0.380699       -10.3594
  74   2.0000      -0.377075       -10.2607
  75   2.0000      -0.367762       -10.0073
  76   2.0000      -0.358038        -9.7427
  77   2.0000      -0.354285        -9.6406
  78   2.0000      -0.350440        -9.5359
  79   2.0000      -0.349135        -9.5004
  80   2.0000      -0.341485        -9.2923
  81   2.0000      -0.339178        -9.2295
  82   2.0000      -0.336438        -9.1549
  83   2.0000      -0.331531        -9.0214
  84   2.0000      -0.329828        -8.9751
  85   2.0000      -0.311654        -8.4805
  86   2.0000      -0.307967        -8.3802
  87   2.0000      -0.295483        -8.0405
  88   2.0000      -0.292475        -7.9586
  89   2.0000      -0.288575        -7.8525
  90   2.0000      -0.282114        -7.6767
  91   2.0000      -0.269500        -7.3335
  92   2.0000      -0.263429        -7.1683
  93   2.0000      -0.257202        -6.9988
  94   2.0000      -0.255121        -6.9422
  95   2.0000      -0.235232        -6.4010
  96   2.0000      -0.216940        -5.9032
  97   2.0000      -0.203852        -5.5471
  98   2.0000      -0.200737        -5.4623
  99   2.0000      -0.185331        -5.0431
 100   2.0000      -0.182954        -4.9784
 101   0.0000      -0.033119        -0.9012
 102   0.0000      -0.027451        -0.7470
 103   0.0000      -0.010820        -0.2944
 104   0.0000       0.007804         0.2124
 105   0.0000       0.017748         0.4829

MULLIKEN ATOMIC CHARGES
-----------------------
   0 C :   -0.317859
   1 C :    0.000317
   2 O :   -0.358400
   3 P :    0.630147
   4 S :   -0.315705
   5 O :   -0.381804
   6 C :    0.000426
   7 C :   -0.313984
   8 S :   -0.066578
   9 C :   -0.379834
  10 S :   -0.101398
  11 P :    0.595743
  12 S :   -0.294770
  13 O :   -0.351294
  14 C :   -0.014679
  15 C :   -0.282657
  16 O :   -0.386523
  17 C :    0.003438
  18 C :   -0.328601
  19 H :    0.133912
  20 H :    0.124959
  21 H :    0.106755
  22 H :    0.105970
  23 H :    0.108204
  24 H :    0.101206
  25 H :    0.107096
  26 H :    0.119611
  27 H :    0.110889
  28 H :    0.117120
  29 H :    0.205424
  30 H :    0.181747
  31 H :    0.106863
  32 H :    0.098042
  33 H :    0.122454
  34 H :    0.106699
  35 H :    0.125783
  36 H :    0.102256
  37 H :    0.111149
  38 H :    0.114128
  39 H :    0.135777
  40 H :    0.117969
Sum of atomic charges:    0.0000000

LOEWDIN ATOMIC CHARGES
----------------------
   0 C :   -0.367554
   1 C :   -0.109146
   2 O :   -0.228774
   3 P :    0.571145
   4 S :   -0.294131
   5 O :   -0.252059
   6 C :   -0.121976
   7 C :   -0.367716
   8 S :    0.091015
   9 C :   -0.488640
  10 S :    0.075030
  11 P :    0.563366
  12 S :   -0.302091
  13 O :   -0.231567
  14 C :   -0.116792
  15 C :   -0.351569
  16 O :   -0.252014
  17 C :   -0.117677
  18 C :   -0.373606
  19 H :    0.133348
  20 H :    0.120954
  21 H :    0.127510
  22 H :    0.110880
  23 H :    0.121508
  24 H :    0.116675
  25 H :    0.106893
  26 H :    0.125834
  27 H :    0.129647
  28 H :    0.117733
  29 H :    0.119281
  30 H :    0.134855
  31 H :    0.115486
  32 H :    0.100336
  33 H :    0.130633
  34 H :    0.127957
  35 H :    0.126715
  36 H :    0.117410
  37 H :    0.112125
  38 H :    0.131810
  39 H :    0.124614
  40 H :    0.122549

  Mayer bond orders larger than 0.100000
B(  0-C ,  1-C ) :   1.1654 B(  0-C , 19-H ) :   0.9426 B(  0-C , 20-H ) :   0.9365
B(  0-C , 21-H ) :   0.9369 B(  1-C ,  2-O ) :   0.9075 B(  1-C , 22-H ) :   0.9282
B(  1-C , 23-H ) :   0.9344 B(  2-O ,  3-P ) :   1.1407 B(  3-P ,  4-S ) :   1.5866
B(  3-P ,  5-O ) :   1.0674 B(  3-P ,  8-S ) :   0.9663 B(  4-S ,  8-S ) :   0.1230
B(  4-S , 29-H ) :   0.1106 B(  5-O ,  6-C ) :   0.9225 B(  6-C ,  7-C ) :   1.1639
B(  6-C , 24-H ) :   0.9332 B(  6-C , 25-H ) :   0.9111 B(  7-C , 26-H ) :   0.9438
B(  7-C , 27-H ) :   0.9384 B(  7-C , 28-H ) :   0.9384 B(  8-S ,  9-C ) :   1.0030
B(  9-C , 10-S ) :   0.9952 B(  9-C , 29-H ) :   0.8404 B(  9-C , 30-H ) :   0.9094
B( 10-S , 11-P ) :   0.9456 B( 10-S , 12-S ) :   0.1109 B( 11-P , 12-S ) :   1.6742
B( 11-P , 13-O ) :   1.1310 B( 11-P , 16-O ) :   1.0745 B( 13-O , 14-C ) :   0.8939
B( 14-C , 15-C ) :   1.1610 B( 14-C , 31-H ) :   0.9309 B( 14-C , 32-H ) :   0.9094
B( 15-C , 33-H ) :   0.9485 B( 15-C , 34-H ) :   0.9407 B( 15-C , 35-H ) :   0.9480
B( 16-O , 17-C ) :   0.9103 B( 17-C , 18-C ) :   1.1652 B( 17-C , 36-H ) :   0.9339
B( 17-C , 37-H ) :   0.9167 B( 18-C , 38-H ) :   0.9374 B( 18-C , 39-H ) :   0.9327
B( 18-C , 40-H ) :   0.9426

Dispersion correction           -0.067165563
FINAL SINGLE POINT ENERGY     -2929.515710340480

DIPOLE MOMENT
-------------

Method             : SCF
Type of density    : Electron Density
Multiplicity       :   1
Irrep              :   0
Energy             : -2929.6332032480454473 Eh
Relativity type    :
Basis              : AO
                                X                 Y                 Z
Electronic contribution:     -1.400407341      -6.217138775      -5.372354351
Nuclear contribution   :      1.332839906       6.084849387       6.151756462
                        -----------------------------------------
Total Dipole Moment    :     -0.067567435      -0.132289388       0.779402111
                        -----------------------------------------
Magnitude (a.u.)       :      0.793431466
Magnitude (Debye)      :      2.016742514

Rotational constants in cm-1:             0.011536             0.005470             0.005102
Rotational constants in MHz :           345.855158           163.984546           152.954867

                             ****ORCA TERMINATED NORMALLY****
TOTAL RUN TIME: 0 days 0 hours 0 minutes 21 seconds 183 msec
