                         Program Version 6.0.0  -   RELEASE  -
|  1> ! pbe def2-sv(p) def2/J RI DEFGRID1 loosescf d4 GCP(DFT/SV(P)) printgap
|  2> %output
|  3>     printlevel normal
|  4> end
|  5> * xyz 0 1
|  6> C 5.192257685 1.2791244211 0.028236893
|  7> C 4.1222091858 0.9182814825 -0.9843307151
|  8> O 3.2663707389 -0.1247660506 -0.4856342102
|  9> P 1.8953237313 0.1987322596 0.2733305483
| 10> S 2.0371303007 1.325163063 1.8686830221
| 11> O 1.3669554088 -1.2784866595 0.4738735012
| 12> C 1.4841109829 -1.9638287572 1.7328531053
| 13> C 2.9142817641 -2.3865007514 1.9918217939
| 14> S 0.6707157874 0.9583144494 -1.2793306603
| 15> C 0.2530594663 -0.5755883265 -2.130990353
| 16> S -0.9664673188 -1.6597861688 -1.2786120747
| 17> P -2.1188157231 -0.3366149014 -0.1255225646
| 18> S -3.7506944037 -1.1343592907 0.6047928897
| 19> O -2.3467344616 0.9814909772 -0.9908187924
| 20> C -3.495358648 1.1463576836 -1.839984466
| 21> C -3.3165856307 0.4382875057 -3.1682239506
| 22> O -1.0606741665 0.1452213713 0.9674476577
| 23> C -1.5066434928 0.7202711052 2.2148715044
| 24> C -2.1489862335 2.0762039141 2.0187424804
| 25> H 4.7382705268 1.6811570561 0.9313974305
| 26> H 5.7711792793 0.3977117544 0.2896040029
| 27> H 5.8513647686 2.0278983109 -0.3989937438
| 28> H 4.5631498292 0.5042685757 -1.8932118923
| 29> H 3.512761175 1.7920516152 -1.2394117879
| 30> H 1.123374334 -1.3043421162 2.5289874576
| 31> H 0.8134081385 -2.819186969 1.6321921916
| 32> H 3.2833418013 -2.9864788546 1.1644981969
| 33> H 3.5421321857 -1.5022920893 2.09570552
| 34> H 2.9595854991 -2.9643194816 2.9094821441
| 35> H 1.1424276878 -1.1894102274 -2.255522149
| 36> H -0.1617949475 -0.2809205814 -3.0915769348
| 37> H -4.3758945982 0.7645582106 -1.3119483378
| 38> H -3.5779564911 2.2264029345 -1.9687139774
| 39> H -4.186266092 0.6245736579 -3.7902423308
| 40> H -2.429771634 0.8091774872 -3.6751893071
| 41> H -3.2205621948 -0.6352740063 -3.0105661883
| 42> H -2.2044306076 0.0193974214 2.684142756
| 43> H -0.5948359669 0.7971238961 2.8106204733
| 44> H -1.4779642122 2.7293756587 1.4656386314
| 45> H -3.0823808304 1.971726698 1.4677557285
| 46> H -2.3567544293 2.5136639166 2.9901842342
| 47> *
| 48>
| 49>                          ****END OF INPUT****

CARTESIAN COORDINATES (ANGSTROEM)
---------------------------------
  C      5.192258    1.279124    0.028237
  C      4.122209    0.918281   -0.984331
  O      3.266371   -0.124766   -0.485634
  P      1.895324    0.198732    0.273331
  S      2.037130    1.325163    1.868683
  O      1.366955   -1.278487    0.473874
  C      1.484111   -1.963829    1.732853
  C      2.914282   -2.386501    1.991822
  S      0.670716    0.958314   -1.279331
  C      0.253059   -0.575588   -2.130990
  S     -0.966467   -1.659786   -1.278612
  P     -2.118816   -0.336615   -0.125523
  S     -3.750694   -1.134359    0.604793
  O     -2.346734    0.981491   -0.990819
  C     -3.495359    1.146358   -1.839984
  C     -3.316586    0.438288   -3.168224
  O     -1.060674    0.145221    0.967448
  C     -1.506643    0.720271    2.214872
  C     -2.148986    2.076204    2.018742
  H      4.738271    1.681157    0.931397
  H      5.771179    0.397712    0.289604
  H      5.851365    2.027898   -0.398994
  H      4.563150    0.504269   -1.893212
  H      3.512761    1.792052   -1.239412
  H      1.123374   -1.304342    2.528987
  H      0.813408   -2.819187    1.632192
  H      3.283342   -2.986479    1.164498
  H      3.542132   -1.502292    2.095706
  H      2.959585   -2.964319    2.909482
  H      1.142428   -1.189410   -2.255522
  H     -0.161795   -0.280921   -3.091577
  H     -4.375895    0.764558   -1.311948
  H     -3.577956    2.226403   -1.968714
  H     -4.186266    0.624574   -3.790242
  H     -2.429772    0.809177   -3.675189
  H     -3.220562   -0.635274   -3.010566
  H     -2.204431    0.019397    2.684143
  H     -0.594836    0.797124    2.810620
  H     -1.477964    2.729376    1.465639
  H     -3.082381    1.971727    1.467756
  H     -2.356754    2.513664    2.990184

 Total Charge           Charge          ....    0
 Multiplicity           Mult            ....    1
 Number of Electrons    NEL             ....  202
 Basis Dimension        Dim             ....  334

ORBITAL ENERGIES
----------------

  NO   OCC          E(Eh)            E(eV)
   0   2.0000     -88.046841     -2395.8763
   1   2.0000     -88.040510     -2395.7041
   2   2.0000     -87.993217     -2394.4172
   3   2.0000     -87.983408     -2394.1502
   4   2.0000     -76.430506     -2079.7798
   5   2.0000     -76.424059     -2079.6044
   6   2.0000     -18.792594      -511.3725
   7   2.0000     -18.792416      -511.3676
   8   2.0000     -18.791673      -511.3474
   9   2.0000     -18.783445      -511.1235
  10   2.0000      -9.965258      -271.1684
  11   2.0000      -9.955923      -270.9144
  12   2.0000      -9.951765      -270.8013
  13   2.0000      -9.951706      -270.7997
  14   2.0000      -9.938221      -270.4327
  15   2.0000      -9.888147      -269.0702
  16   2.0000      -9.883449      -268.9423
  17   2.0000      -9.882570      -268.9184
  18   2.0000      -9.873516      -268.6720
  19   2.0000      -7.691912      -209.3076
  20   2.0000      -7.685566      -209.1349
  21   2.0000      -7.638172      -207.8452
  22   2.0000      -7.628581      -207.5843
  23   2.0000      -6.427786      -174.9089
  24   2.0000      -6.421547      -174.7392
  25   2.0000      -5.720281      -155.6568
  26   2.0000      -5.716324      -155.5491
  27   2.0000      -5.714123      -155.4892
  28   2.0000      -5.709797      -155.3715
  29   2.0000      -5.708345      -155.3320
  30   2.0000      -5.702110      -155.1623
  31   2.0000      -5.667055      -154.2084
  32   2.0000      -5.659075      -153.9912
  33   2.0000      -5.658068      -153.9639
  34   2.0000      -5.657475      -153.9477
  35   2.0000      -5.649142      -153.7210
  36   2.0000      -5.648810      -153.7119
  37   2.0000      -4.650216      -126.5388
  38   2.0000      -4.649791      -126.5272
  39   2.0000      -4.648245      -126.4852
  40   2.0000      -4.643877      -126.3663
  41   2.0000      -4.643522      -126.3567
  42   2.0000      -4.642062      -126.3169
  43   2.0000      -0.989345       -26.9214
  44   2.0000      -0.981416       -26.7057
  45   2.0000      -0.946739       -25.7621
  46   2.0000      -0.940573       -25.5943
  47   2.0000      -0.765070       -20.8186
  48   2.0000      -0.720560       -19.6074
  49   2.0000      -0.706345       -19.2206
  50   2.0000      -0.686362       -18.6769
  51   2.0000      -0.684978       -18.6392
  52   2.0000      -0.673607       -18.3298
  53   2.0000      -0.657643       -17.8954
  54   2.0000      -0.638168       -17.3654
  55   2.0000      -0.598833       -16.2951
  56   2.0000      -0.595665       -16.2089
  57   2.0000      -0.574515       -15.6333
  58   2.0000      -0.567201       -15.4343
  59   2.0000      -0.562719       -15.3123
  60   2.0000      -0.503757       -13.7079
  61   2.0000      -0.490208       -13.3392
  62   2.0000      -0.478045       -13.0083
  63   2.0000      -0.469477       -12.7751
  64   2.0000      -0.458911       -12.4876
  65   2.0000      -0.442487       -12.0407
  66   2.0000      -0.440854       -11.9962
  67   2.0000      -0.434442       -11.8218
  68   2.0000      -0.425833       -11.5875
  69   2.0000      -0.414120       -11.2688
  70   2.0000      -0.410559       -11.1719
  71   2.0000      -0.401517       -10.9258
  72   2.0000      -0.396238       -10.7822
  73   2.0000      -0.390636       -10.6297
  74   2.0000      -0.383524       -10.4362
  75   2.0000      -0.368706       -10.0330
  76   2.0000      -0.367329        -9.9955
  77   2.0000      -0.359350        -9.7784
  78   2.0000      -0.353203        -9.6111
  79   2.0000      -0.349489        -9.5101
  80   2.0000      -0.348008        -9.4698
  81   2.0000      -0.345330        -9.3969
  82   2.0000      -0.337921        -9.1953
  83   2.0000      -0.335532        -9.1303
  84   2.0000      -0.330961        -9.0059
  85   2.0000      -0.321433        -8.7466
  86   2.0000      -0.313666        -8.5353
  87   2.0000      -0.297733        -8.1017
  88   2.0000      -0.295242        -8.0340
  89   2.0000      -0.291509        -7.9324
  90   2.0000      -0.285008        -7.7555
  91   2.0000      -0.271095        -7.3769
  92   2.0000      -0.268857        -7.3160
  93   2.0000      -0.263079        -7.1587
  94   2.0000      -0.258696        -7.0395
  95   2.0000      -0.227394        -6.1877
  96   2.0000      -0.215810        -5.8725
  97   2.0000      -0.214187        -5.8283
  98   2.0000      -0.205984        -5.6051
  99   2.0000      -0.201844        -5.4924
 100   2.0000      -0.197815        -5.3828
 101   0.0000      -0.043879        -1.1940
 102   0.0000      -0.030991        -0.8433
 103   0.0000      -0.019559        -0.5322
 104   0.0000      -0.000532        -0.0145
 105   0.0000       0.016729         0.4552

MULLIKEN ATOMIC CHARGES
-----------------------
   0 C :   -0.291881
   1 C :   -0.012641
   2 O :   -0.372908
   3 P :    0.629883
   4 S :   -0.322791
   5 O :   -0.368328
   6 C :   -0.008072
   7 C :   -0.303328
   8 S :   -0.078284
   9 C :   -0.329126
  10 S :   -0.085458
  11 P :    0.629272
  12 S :   -0.326614
  13 O :   -0.375458
  14 C :   -0.010339
  15 C :   -0.318641
  16 O :   -0.379015
  17 C :   -0.017747
  18 C :   -0.300187
  19 H :    0.129335
  20 H :    0.113400
  21 H :    0.107160
  22 H :    0.103896
  23 H :    0.097579
  24 H :    0.116471
  25 H :    0.109196
  26 H :    0.115141
  27 H :    0.122638
  28 H :    0.112376
  29 H :    0.183580
  30 H :    0.188785
  31 H :    0.112699
  32 H :    0.106319
  33 H :    0.114421
  34 H :    0.113690
  35 H :    0.129586
  36 H :    0.107648
  37 H :    0.116754
  38 H :    0.118300
  39 H :    0.114889
  40 H :    0.107805
Sum of atomic charges:    0.0000000

LOEWDIN ATOMIC CHARGES
----------------------
   0 C :   -0.364228
   1 C :   -0.120115
   2 O :   -0.253644
   3 P :    0.580907
   4 S :   -0.304004
   5 O :   -0.231674
   6 C :   -0.114951
   7 C :   -0.363603
   8 S :    0.108312
   9 C :   -0.469005
  10 S :    0.087647
  11 P :    0.564937
  12 S :   -0.323623
  13 O :   -0.244001
  14 C :   -0.122516
  15 C :   -0.366082
  16 O :   -0.246695
  17 C :   -0.127186
  18 C :   -0.363797
  19 H :    0.123846
  20 H :    0.125101
  21 H :    0.128428
  22 H :    0.117019
  23 H :    0.103405
  24 H :    0.111317
  25 H :    0.120343
  26 H :    0.125966
  27 H :    0.122265
  28 H :    0.130650
  29 H :    0.135672
  30 H :    0.133893
  31 H :    0.109118
  32 H :    0.118776
  33 H :    0.132290
  34 H :    0.120152
  35 H :    0.123270
  36 H :    0.107238
  37 H :    0.109694
  38 H :    0.127259
  39 H :    0.118395
  40 H :    0.129224

  Mayer bond orders larger than 0.100000
B(  0-C ,  1-C ) :   1.1661 B(  0-C , 19-H ) :   0.9315 B(  0-C , 20-H ) :   0.9467
B(  0-C , 21-H ) :   0.9397 B(  1-C ,  2-O ) :   0.9123 B(  1-C , 22-H ) :   0.9363
B(  1-C , 23-H ) :   0.9132 B(  2-O ,  3-P ) :   1.0777 B(  3-P ,  4-S ) :   1.6225
B(  3-P ,  5-O ) :   1.1224 B(  3-P ,  8-S ) :   0.9567 B(  5-O ,  6-C ) :   0.8955
B(  6-C ,  7-C ) :   1.1640 B(  6-C , 24-H ) :   0.9155 B(  6-C , 25-H ) :   0.9312
B(  7-C , 26-H ) :   0.9463 B(  7-C , 27-H ) :   0.9358 B(  7-C , 28-H ) :   0.9395
B(  8-S ,  9-C ) :   1.0210 B(  9-C , 10-S ) :   0.9520 B(  9-C , 29-H ) :   0.9037
B(  9-C , 30-H ) :   0.9022 B( 10-S , 11-P ) :   1.0026 B( 11-P , 12-S ) :   1.6307
B( 11-P , 13-O ) :   1.0682 B( 11-P , 16-O ) :   1.0932 B( 13-O , 14-C ) :   0.9131
B( 14-C , 15-C ) :   1.1646 B( 14-C , 31-H ) :   0.9069 B( 14-C , 32-H ) :   0.9331
B( 15-C , 33-H ) :   0.9385 B( 15-C , 34-H ) :   0.9420 B( 15-C , 35-H ) :   0.9364
B( 16-O , 17-C ) :   0.9006 B( 17-C , 18-C ) :   1.1695 B( 17-C , 36-H ) :   0.9163
B( 17-C , 37-H ) :   0.9093 B( 18-C , 38-H ) :   0.9441 B( 18-C , 39-H ) :   0.9373
B( 18-C , 40-H ) :   0.9385

Dispersion correction           -0.069053669
FINAL SINGLE POINT ENERGY     -2929.514677951115

DIPOLE MOMENT
-------------

Method             : SCF
Type of density    : Electron Density
Multiplicity       :   1
Irrep              :   0
Energy             : -2929.6328278785103976 Eh
Relativity type    :
Basis              : AO
                                X                 Y                 Z
Electronic contribution:     -8.372948259      -4.724670218      -1.200177207
Nuclear contribution   :      9.312841664       4.990672470       0.183987690
                        -----------------------------------------
Total Dipole Moment    :      0.939893405       0.266002252      -1.016189517
                        -----------------------------------------
Magnitude (a.u.)       :      1.409538203
Magnitude (Debye)      :      3.582761386

Rotational constants in cm-1:             0.012919             0.005523             0.005161
Rotational constants in MHz :           387.310233           165.582980           154.737749

                             ****ORCA TERMINATED NORMALLY****
TOTAL RUN TIME: 0 days 0 hours 0 minutes 22 seconds 226 msec
