                         Program Version 6.0.0  -   RELEASE  -
|  1> ! r2scan-3c def2/J RI DEFGRID2 scfconv6 printgap
|  2> %output
|  3>     printlevel normal
|  4> end
|  5> * xyz 0 1
|  6> C -2.9253036374 -0.0005496723 -0.0004189802
|  7> C -1.4261061677 -0.0089696826 -0.0003497152
|  8> C -0.7090163736 -1.1960431411 0.0004255895
|  9> C 0.675241841 -1.1977840382 0.0004124854
| 10> C 1.3718909401 0.0029302775 0.0006628701
| 11> C 0.6634107245 1.2012587804 0.0006612313
| 12> C -0.7162055457 1.1879121738 -3.7428e-05
| 13> O 2.7346735389 0.060688184 -0.0007165376
| 14> H -3.3010418822 0.5298280374 -0.8737930781
| 15> H -3.3180662673 -1.0134799961 -0.0120939034
| 16> H -3.300741214 0.5090540211 0.88555356
| 17> H -1.2354620247 -2.1394147002 0.000419868
| 18> H 1.2118198529 -2.1358299095 -0.0021460338
| 19> H 1.2148895576 2.1286280913 0.0003754127
| 20> H -1.2544616314 2.1242765064 -0.0011879286
| 21> H 3.1104637761 -0.8323870596 -0.0019129183
| 22> *
| 23>
| 24>                          ****END OF INPUT****

CARTESIAN COORDINATES (ANGSTROEM)
---------------------------------
  C     -2.925304   -0.000550   -0.000419
  C     -1.426106   -0.008970   -0.000350
  C     -0.709016   -1.196043    0.000426
  C      0.675242   -1.197784    0.000412
  C      1.371891    0.002930    0.000663
  C      0.663411    1.201259    0.000661
  C     -0.716206    1.187912   -0.000037
  O      2.734674    0.060688   -0.000717
  H     -3.301042    0.529828   -0.873793
  H     -3.318066   -1.013480   -0.012094
  H     -3.300741    0.509054    0.885554
  H     -1.235462   -2.139415    0.000420
  H      1.211820   -2.135830   -0.002146
  H      1.214890    2.128628    0.000375
  H     -1.254462    2.124277   -0.001188
  H      3.110464   -0.832387   -0.001913

 Total Charge           Charge          ....    0
 Multiplicity           Mult            ....    1
 Number of Electrons    NEL             ....   58
 Basis Dimension        Dim             ....  197

ORBITAL ENERGIES
----------------

  NO   OCC          E(Eh)            E(eV)
   0   2.0000     -18.982888      -516.5506
   1   2.0000     -10.092979      -274.6439
   2   2.0000     -10.034853      -273.0622
   3   2.0000     -10.032753      -273.0051
   4   2.0000     -10.032224      -272.9907
   5   2.0000     -10.031215      -272.9632
   6   2.0000     -10.028574      -272.8914
   7   2.0000     -10.024783      -272.7882
   8   2.0000      -1.025667       -27.9098
   9   2.0000      -0.824004       -22.4223
  10   2.0000      -0.735478       -20.0134
  11   2.0000      -0.717605       -19.5270
  12   2.0000      -0.650207       -17.6930
  13   2.0000      -0.590478       -16.0677
  14   2.0000      -0.558981       -15.2107
  15   2.0000      -0.515433       -14.0256
  16   2.0000      -0.454098       -12.3566
  17   2.0000      -0.434586       -11.8257
  18   2.0000      -0.405485       -11.0338
  19   2.0000      -0.393451       -10.7064
  20   2.0000      -0.390735       -10.6324
  21   2.0000      -0.373231       -10.1561
  22   2.0000      -0.369595       -10.0572
  23   2.0000      -0.340469        -9.2646
  24   2.0000      -0.322732        -8.7820
  25   2.0000      -0.303646        -8.2626
  26   2.0000      -0.300105        -8.1663
  27   2.0000      -0.236657        -6.4398
  28   2.0000      -0.197501        -5.3743
  29   0.0000      -0.032434        -0.8826
  30   0.0000      -0.011450        -0.3116
  31   0.0000       0.058155         1.5825
  32   0.0000       0.077110         2.0983
  33   0.0000       0.108823         2.9612

MULLIKEN ATOMIC CHARGES
-----------------------
   0 C :   -0.522385
   1 C :    0.157405
   2 C :   -0.196857
   3 C :   -0.339576
   4 C :    0.427059
   5 C :   -0.308458
   6 C :   -0.158709
   7 O :   -0.417411
   8 H :    0.158020
   9 H :    0.147868
  10 H :    0.158633
  11 H :    0.146219
  12 H :    0.136124
  13 H :    0.155546
  14 H :    0.147311
  15 H :    0.309210
Sum of atomic charges:   -0.0000000

LOEWDIN ATOMIC CHARGES
----------------------
   0 C :   -0.390659
   1 C :   -0.121206
   2 C :   -0.155742
   3 C :   -0.171686
   4 C :    0.177046
   5 C :   -0.138979
   6 C :   -0.149584
   7 O :   -0.500558
   8 H :    0.162348
   9 H :    0.157803
  10 H :    0.162448
  11 H :    0.168143
  12 H :    0.167882
  13 H :    0.179450
  14 H :    0.169937
  15 H :    0.283357

  Mayer bond orders larger than 0.100000
B(  0-C ,  1-C ) :   0.7948 B(  0-C ,  8-H ) :   0.9781 B(  0-C ,  9-H ) :   0.9969
B(  0-C , 10-H ) :   0.9774 B(  1-C ,  2-C ) :   1.4492 B(  1-C ,  6-C ) :   1.3868
B(  2-C ,  3-C ) :   1.4334 B(  2-C , 11-H ) :   0.9299 B(  3-C ,  4-C ) :   1.3613
B(  3-C , 12-H ) :   0.9350 B(  4-C ,  5-C ) :   1.4237 B(  4-C ,  7-O ) :   0.9134
B(  5-C ,  6-C ) :   1.4287 B(  5-C , 13-H ) :   0.9488 B(  6-C , 14-H ) :   0.9477
B(  7-O , 15-H ) :   0.8846

Dispersion correction           -0.004901872
FINAL SINGLE POINT ENERGY      -346.701401653109

DIPOLE MOMENT
-------------

Method             : SCF
Type of density    : Electron Density
Multiplicity       :   1
Irrep              :   0
Energy             :  -346.7019363581063089 Eh
Relativity type    :
Basis              : AO
                                X                 Y                 Z
Electronic contribution:      6.296585811       0.302597771       0.003159394
Nuclear contribution   :     -6.407105547      -0.777150297      -0.004499817
                        -----------------------------------------
Total Dipole Moment    :     -0.110519736      -0.474552526      -0.001340422
                        -----------------------------------------
Magnitude (a.u.)       :      0.487254049
Magnitude (Debye)      :      1.238501368

Rotational constants in cm-1:             0.185409             0.049163             0.039140
Rotational constants in MHz :          5558.419387          1473.861262          1173.402533

                             ****ORCA TERMINATED NORMALLY****
TOTAL RUN TIME: 0 days 0 hours 0 minutes 20 seconds 517 msec
