                         Program Version 6.0.0  -   RELEASE  -
|  1> ! r2scan-3c def2/J RI DEFGRID2 scfconv6 printgap
|  2> %output
|  3>     printlevel normal
|  4> end
|  5> %cpcm
|  6>     smd true
|  7>     smdsolvent "water"
|  8> end
|  9> * xyz 0 1
| 10> C -2.9253036374 -0.0005496723 -0.0004189802
| 11> C -1.4261061677 -0.0089696826 -0.0003497152
| 12> C -0.7090163736 -1.1960431411 0.0004255895
| 13> C 0.675241841 -1.1977840382 0.0004124854
| 14> C 1.3718909401 0.0029302775 0.0006628701
| 15> C 0.6634107245 1.2012587804 0.0006612313
| 16> C -0.7162055457 1.1879121738 -3.7428e-05
| 17> O 2.7346735389 0.060688184 -0.0007165376
| 18> H -3.3010418822 0.5298280374 -0.8737930781
| 19> H -3.3180662673 -1.0134799961 -0.0120939034
| 20> H -3.300741214 0.5090540211 0.88555356
| 21> H -1.2354620247 -2.1394147002 0.000419868
| 22> H 1.2118198529 -2.1358299095 -0.0021460338
| 23> H 1.2148895576 2.1286280913 0.0003754127
| 24> H -1.2544616314 2.1242765064 -0.0011879286
| 25> H 3.1104637761 -0.8323870596 -0.0019129183
| 26> *
| 27>
| 28>                          ****END OF INPUT****

CARTESIAN COORDINATES (ANGSTROEM)
---------------------------------
  C     -2.925304   -0.000550   -0.000419
  C     -1.426106   -0.008970   -0.000350
  C     -0.709016   -1.196043    0.000426
  C      0.675242   -1.197784    0.000412
  C      1.371891    0.002930    0.000663
  C      0.663411    1.201259    0.000661
  C     -0.716206    1.187912   -0.000037
  O      2.734674    0.060688   -0.000717
  H     -3.301042    0.529828   -0.873793
  H     -3.318066   -1.013480   -0.012094
  H     -3.300741    0.509054    0.885554
  H     -1.235462   -2.139415    0.000420
  H      1.211820   -2.135830   -0.002146
  H      1.214890    2.128628    0.000375
  H     -1.254462    2.124277   -0.001188
  H      3.110464   -0.832387   -0.001913

 Total Charge           Charge          ....    0
 Multiplicity           Mult            ....    1
 Number of Electrons    NEL             ....   58
 Basis Dimension        Dim             ....  197

ORBITAL ENERGIES
----------------

  NO   OCC          E(Eh)            E(eV)
   0   2.0000     -18.980711      -516.4914
   1   2.0000     -10.093079      -274.6466
   2   2.0000     -10.034221      -273.0450
   3   2.0000     -10.030141      -272.9340
   4   2.0000     -10.029844      -272.9259
   5   2.0000     -10.029008      -272.9032
   6   2.0000     -10.028865      -272.8993
   7   2.0000     -10.016268      -272.5565
   8   2.0000      -1.023467       -27.8499
   9   2.0000      -0.824291       -22.4301
  10   2.0000      -0.732964       -19.9450
  11   2.0000      -0.716593       -19.4995
  12   2.0000      -0.645936       -17.5768
  13   2.0000      -0.587194       -15.9784
  14   2.0000      -0.556081       -15.1317
  15   2.0000      -0.511272       -13.9124
  16   2.0000      -0.451481       -12.2854
  17   2.0000      -0.430463       -11.7135
  18   2.0000      -0.400896       -10.9089
  19   2.0000      -0.391458       -10.6521
  20   2.0000      -0.386668       -10.5218
  21   2.0000      -0.372330       -10.1316
  22   2.0000      -0.366507        -9.9732
  23   2.0000      -0.336385        -9.1535
  24   2.0000      -0.318886        -8.6773
  25   2.0000      -0.301589        -8.2067
  26   2.0000      -0.300103        -8.1662
  27   2.0000      -0.239409        -6.5146
  28   2.0000      -0.199503        -5.4288
  29   0.0000      -0.033817        -0.9202
  30   0.0000      -0.013243        -0.3603
  31   0.0000       0.080190         2.1821
  32   0.0000       0.090524         2.4633
  33   0.0000       0.115435         3.1411

MULLIKEN ATOMIC CHARGES
-----------------------
   0 C :   -0.540302
   1 C :    0.120978
   2 C :   -0.218579
   3 C :   -0.340683
   4 C :    0.378684
   5 C :   -0.350302
   6 C :   -0.191620
   7 O :   -0.464083
   8 H :    0.172089
   9 H :    0.168497
  10 H :    0.172558
  11 H :    0.179585
  12 H :    0.182692
  13 H :    0.182598
  14 H :    0.178963
  15 H :    0.368924
Sum of atomic charges:   -0.0000000

LOEWDIN ATOMIC CHARGES
----------------------
   0 C :   -0.396069
   1 C :   -0.129885
   2 C :   -0.166920
   3 C :   -0.169681
   4 C :    0.162556
   5 C :   -0.157606
   6 C :   -0.160461
   7 O :   -0.519615
   8 H :    0.167737
   9 H :    0.164027
  10 H :    0.167814
  11 H :    0.179706
  12 H :    0.185665
  13 H :    0.186939
  14 H :    0.180697
  15 H :    0.305096

  Mayer bond orders larger than 0.100000
B(  0-C ,  1-C ) :   0.8091 B(  0-C ,  8-H ) :   0.9716 B(  0-C ,  9-H ) :   0.9916
B(  0-C , 10-H ) :   0.9709 B(  1-C ,  2-C ) :   1.4052 B(  1-C ,  6-C ) :   1.3569
B(  2-C ,  3-C ) :   1.3818 B(  2-C , 11-H ) :   0.9466 B(  3-C ,  4-C ) :   1.3531
B(  3-C , 12-H ) :   0.9540 B(  4-C ,  5-C ) :   1.3641 B(  4-C ,  7-O ) :   0.9193
B(  5-C ,  6-C ) :   1.4131 B(  5-C , 13-H ) :   0.9580 B(  6-C , 14-H ) :   0.9543
B(  7-O , 15-H ) :   0.8530

Dispersion correction           -0.004901872
FINAL SINGLE POINT ENERGY      -346.710070829620

DIPOLE MOMENT
-------------

Method             : SCF
Type of density    : Electron Density
Multiplicity       :   1
Irrep              :   0
Energy             :  -346.7106055346171161 Eh
Relativity type    :
Basis              : AO
                                X                 Y                 Z
Electronic contribution:      6.243729430       0.048890048       0.002574324
Nuclear contribution   :     -6.407105547      -0.777150297      -0.004499817
                        -----------------------------------------
Total Dipole Moment    :     -0.163376117      -0.728260249      -0.001925493
                        -----------------------------------------
Magnitude (a.u.)       :      0.746363486
Magnitude (Debye)      :      1.897105217

Rotational constants in cm-1:             0.185409             0.049163             0.039140
Rotational constants in MHz :          5558.419387          1473.861262          1173.402533

                             ****ORCA TERMINATED NORMALLY****
TOTAL RUN TIME: 0 days 0 hours 0 minutes 24 seconds 7 msec
