                         Program Version 6.0.0  -   RELEASE  -
|  1> ! wb97x-v def2-tzvp def2/J RIJCOSX DEFGRID2 scfconv7 GCP(DFT/TZ) printgap
|  2> %output
|  3>     printlevel normal
|  4> end
|  5> * xyz 0 1
|  6> C -1.4109010944622518 -0.9760731801503015 0.15257381244401616
|  7> S -0.0021062843410685683 0.10050889429198329 -0.13013910287602054
|  8> O 0.08320347620090034 1.0795185416519424 0.9850258515723688
|  9> O -0.0943503738549647 0.6496308064003617 -1.5084766260525222
| 10> C 1.4172254925892949 -0.9943993083669921 -0.039232565579050895
| 11> H -2.3023208937540844 -0.34380419757872943 0.11463016911749531
| 12> H -1.4389561666543322 -1.729967893333211 -0.6377973612396867
| 13> H -1.3077048476289101 -1.4388450535653023 1.1368364604941439
| 14> H 1.3242570123646134 -1.7555009812769469 -0.8175144680259256
| 15> H 2.3030392471114687 -0.3755155643200511 -0.20769194007342348
| 16> H 1.447183278491331 -1.4471862404989861 0.9547199141160375
| 17> *
| 18>
| 19>                          ****END OF INPUT****

CARTESIAN COORDINATES (ANGSTROEM)
---------------------------------
  C     -1.410901   -0.976073    0.152574
  S     -0.002106    0.100509   -0.130139
  O      0.083203    1.079519    0.985026
  O     -0.094350    0.649631   -1.508477
  C      1.417225   -0.994399   -0.039233
  H     -2.302321   -0.343804    0.114630
  H     -1.438956   -1.729968   -0.637797
  H     -1.307705   -1.438845    1.136836
  H      1.324257   -1.755501   -0.817514
  H      2.303039   -0.375516   -0.207692
  H      1.447183   -1.447186    0.954720

 Total Charge           Charge          ....    0
 Multiplicity           Mult            ....    1
 Number of Electrons    NEL             ....   50
 Basis Dimension        Dim             ....  197

ORBITAL ENERGIES
----------------

  NO   OCC          E(Eh)            E(eV)
   0   2.0000     -94.322732     -2566.6520
   1   2.0000     -21.658788      -589.3656
   2   2.0000     -21.658758      -589.3648
   3   2.0000     -12.098987      -329.2302
   4   2.0000     -12.098652      -329.2211
   5   2.0000      -9.804651      -266.7981
   6   2.0000      -7.785587      -211.8566
   7   2.0000      -7.784652      -211.8311
   8   2.0000      -7.784292      -211.8214
   9   2.0000      -1.724661       -46.9304
  10   2.0000      -1.656362       -45.0719
  11   2.0000      -1.335530       -36.3416
  12   2.0000      -1.250076       -34.0163
  13   2.0000      -1.147531       -31.2259
  14   2.0000      -1.039246       -28.2793
  15   2.0000      -1.000360       -27.2212
  16   2.0000      -0.988176       -26.8896
  17   2.0000      -0.899804       -24.4849
  18   2.0000      -0.898143       -24.4397
  19   2.0000      -0.893199       -24.3052
  20   2.0000      -0.874208       -23.7884
  21   2.0000      -0.868638       -23.6369
  22   2.0000      -0.868374       -23.6297
  23   2.0000      -0.865023       -23.5385
  24   2.0000      -0.814821       -22.1724
  25   0.0000      -0.288715        -7.8563
  26   0.0000      -0.231309        -6.2942
  27   0.0000      -0.223248        -6.0749
  28   0.0000      -0.221955        -6.0397
  29   0.0000      -0.036066        -0.9814

MULLIKEN ATOMIC CHARGES
-----------------------
   0 C :   -0.358621
   1 S :    0.755381
   2 O :   -0.473929
   3 O :   -0.474096
   4 C :   -0.358484
   5 H :    0.163986
   6 H :    0.145840
   7 H :    0.145037
   8 H :    0.145338
   9 H :    0.164080
  10 H :    0.145469
Sum of atomic charges:    0.0000000

LOEWDIN ATOMIC CHARGES
----------------------
   0 C :   -0.403024
   1 S :    0.728512
   2 O :   -0.334671
   3 O :   -0.334846
   4 C :   -0.403226
   5 H :    0.130778
   6 H :    0.121535
   7 H :    0.121260
   8 H :    0.121354
   9 H :    0.130861
  10 H :    0.121467

  Mayer bond orders larger than 0.100000
B(  0-C ,  1-S ) :   0.9091 B(  0-C ,  5-H ) :   0.9501 B(  0-C ,  6-H ) :   0.9489
B(  0-C ,  7-H ) :   0.9488 B(  1-S ,  2-O ) :   1.8449 B(  1-S ,  3-O ) :   1.8449
B(  1-S ,  4-C ) :   0.9092 B(  4-C ,  8-H ) :   0.9488 B(  4-C ,  9-H ) :   0.9500
B(  4-C , 10-H ) :   0.9489

FINAL SINGLE POINT ENERGY      -628.412203143602

DIPOLE MOMENT
-------------

Method             : SCF
Type of density    : Electron Density
Multiplicity       :   1
Irrep              :   0
Energy             :  -628.4203754694025292 Eh
Relativity type    :
Basis              : AO
                                X                 Y                 Z
Electronic contribution:     -0.023109708       4.658038525      -0.801433094
Nuclear contribution   :      0.032441996      -6.634088048       1.141878524
                        -----------------------------------------
Total Dipole Moment    :      0.009332288      -1.976049523       0.340445431
                        -----------------------------------------
Magnitude (a.u.)       :      2.005183757
Magnitude (Debye)      :      5.096772064

Rotational constants in cm-1:             0.147213             0.138802             0.133288
Rotational constants in MHz :          4413.338685          4161.189981          3995.873304

                             ****ORCA TERMINATED NORMALLY****
TOTAL RUN TIME: 0 days 0 hours 1 minutes 1 seconds 610 msec
