                         Program Version 6.0.0  -   RELEASE  -
|  1> ! wb97x-v def2-tzvp def2/J RIJCOSX DEFGRID2 scfconv7 GCP(DFT/TZ) printgap
|  2> %output
|  3>     printlevel normal
|  4> end
|  5> %cpcm
|  6>     smd true
|  7>     smdsolvent "water"
|  8> end
|  9> * xyz 0 1
| 10> C -1.4109010944622518 -0.9760731801503015 0.15257381244401616
| 11> S -0.0021062843410685683 0.10050889429198329 -0.13013910287602054
| 12> O 0.08320347620090034 1.0795185416519424 0.9850258515723688
| 13> O -0.0943503738549647 0.6496308064003617 -1.5084766260525222
| 14> C 1.4172254925892949 -0.9943993083669921 -0.039232565579050895
| 15> H -2.3023208937540844 -0.34380419757872943 0.11463016911749531
| 16> H -1.4389561666543322 -1.729967893333211 -0.6377973612396867
| 17> H -1.3077048476289101 -1.4388450535653023 1.1368364604941439
| 18> H 1.3242570123646134 -1.7555009812769469 -0.8175144680259256
| 19> H 2.3030392471114687 -0.3755155643200511 -0.20769194007342348
| 20> H 1.447183278491331 -1.4471862404989861 0.9547199141160375
| 21> *
| 22>
| 23>                          ****END OF INPUT****

CARTESIAN COORDINATES (ANGSTROEM)
---------------------------------
  C     -1.410901   -0.976073    0.152574
  S     -0.002106    0.100509   -0.130139
  O      0.083203    1.079519    0.985026
  O     -0.094350    0.649631   -1.508477
  C      1.417225   -0.994399   -0.039233
  H     -2.302321   -0.343804    0.114630
  H     -1.438956   -1.729968   -0.637797
  H     -1.307705   -1.438845    1.136836
  H      1.324257   -1.755501   -0.817514
  H      2.303039   -0.375516   -0.207692
  H      1.447183   -1.447186    0.954720

 Total Charge           Charge          ....    0
 Multiplicity           Mult            ....    1
 Number of Electrons    NEL             ....   50
 Basis Dimension        Dim             ....  197

ORBITAL ENERGIES
----------------

  NO   OCC          E(Eh)            E(eV)
   0   2.0000     -94.326547     -2566.7558
   1   2.0000     -21.672032      -589.7260
   2   2.0000     -21.672006      -589.7253
   3   2.0000     -12.077807      -328.6538
   4   2.0000     -12.077501      -328.6455
   5   2.0000      -9.809167      -266.9210
   6   2.0000      -7.789583      -211.9653
   7   2.0000      -7.789253      -211.9564
   8   2.0000      -7.789031      -211.9503
   9   2.0000      -1.739261       -47.3277
  10   2.0000      -1.672769       -45.5183
  11   2.0000      -1.328906       -36.1614
  12   2.0000      -1.230869       -33.4936
  13   2.0000      -1.147148       -31.2155
  14   2.0000      -1.058367       -28.7996
  15   2.0000      -1.000867       -27.2350
  16   2.0000      -0.990069       -26.9411
  17   2.0000      -0.912259       -24.8238
  18   2.0000      -0.902897       -24.5691
  19   2.0000      -0.895941       -24.3798
  20   2.0000      -0.863198       -23.4888
  21   2.0000      -0.857194       -23.3254
  22   2.0000      -0.851012       -23.1572
  23   2.0000      -0.848576       -23.0909
  24   2.0000      -0.812942       -22.1213
  25   0.0000      -0.294421        -8.0116
  26   0.0000      -0.230209        -6.2643
  27   0.0000      -0.218049        -5.9334
  28   0.0000      -0.210958        -5.7405
  29   0.0000      -0.005281        -0.1437

MULLIKEN ATOMIC CHARGES
-----------------------
   0 C :   -0.386336
   1 S :    0.817814
   2 O :   -0.576924
   3 O :   -0.577274
   4 C :   -0.386306
   5 H :    0.185347
   6 H :    0.184799
   7 H :    0.184427
   8 H :    0.184657
   9 H :    0.185263
  10 H :    0.184535
Sum of atomic charges:   -0.0000000

LOEWDIN ATOMIC CHARGES
----------------------
   0 C :   -0.386299
   1 S :    0.753841
   2 O :   -0.400070
   3 O :   -0.400338
   4 C :   -0.386603
   5 H :    0.136740
   6 H :    0.136569
   7 H :    0.136411
   8 H :    0.136512
   9 H :    0.136726
  10 H :    0.136511

  Mayer bond orders larger than 0.100000
B(  0-C ,  1-S ) :   0.9359 B(  0-C ,  5-H ) :   0.9334 B(  0-C ,  6-H ) :   0.9358
B(  0-C ,  7-H ) :   0.9357 B(  1-S ,  2-O ) :   1.7478 B(  1-S ,  3-O ) :   1.7475
B(  1-S ,  4-C ) :   0.9361 B(  4-C ,  8-H ) :   0.9357 B(  4-C ,  9-H ) :   0.9334
B(  4-C , 10-H ) :   0.9358

FINAL SINGLE POINT ENERGY      -628.434688294680

DIPOLE MOMENT
-------------

Method             : SCF
Type of density    : Electron Density
Multiplicity       :   1
Irrep              :   0
Energy             :  -628.4428606204802463 Eh
Relativity type    :
Basis              : AO
                                X                 Y                 Z
Electronic contribution:     -0.020520087       3.901094860      -0.671422290
Nuclear contribution   :      0.032441996      -6.634088048       1.141878524
                        -----------------------------------------
Total Dipole Moment    :      0.011921909      -2.732993188       0.470456234
                        -----------------------------------------
Magnitude (a.u.)       :      2.773215276
Magnitude (Debye)      :      7.048953041

Rotational constants in cm-1:             0.147213             0.138802             0.133288
Rotational constants in MHz :          4413.338685          4161.189981          3995.873304

                             ****ORCA TERMINATED NORMALLY****
TOTAL RUN TIME: 0 days 0 hours 1 minutes 8 seconds 301 msec
