                         Program Version 6.0.0  -   RELEASE  -
|  1> ! pbe def2-sv(p) def2/J RI DEFGRID1 loosescf d4 GCP(DFT/SV(P)) printgap
|  2> %output
|  3>     printlevel normal
|  4> end
|  5> * xyz 0 1
|  6> C -2.492809543 0.7999557943 -0.0049065745
|  7> C -1.2012181002 0.0380908688 -0.0001281304
|  8> C -1.2314503023 -1.3473233244 -0.001164567
|  9> C -0.0565082598 -2.077043939 0.0020507357
| 10> C 1.1505595509 -1.411014007 0.0027381164
| 11> C 1.2133048316 -0.0191494995 0.0023577924
| 12> C 0.0269929804 0.7167168515 0.0049463957
| 13> C -0.0097559793 2.2180497077 0.0055285961
| 14> C 2.5924255009 0.5811385666 -0.0080833042
| 15> H -2.5865946688 1.4057082098 0.8955958397
| 16> H -2.5444520506 1.4689628764 -0.8623224305
| 17> H -3.3365066032 0.1162337611 -0.0479291023
| 18> H -2.1828727652 -1.8601589011 -0.0044818819
| 19> H -0.0848686946 -3.1568536212 0.002632145
| 20> H 2.0735643575 -1.9736466127 0.0022130874
| 21> H 0.975271739 2.6608823264 0.0914807221
| 22> H -0.4647495576 2.5797085182 -0.9161002618
| 23> H -0.6144918957 2.576675952 0.8367246781
| 24> H 3.1563753859 0.2156803916 0.8489172849
| 25> H 3.1178753072 0.2679345888 -0.9093189726
| 26> H 2.5922579606 1.6642005601 0.0227977884
| 27> *
| 28>
| 29>                          ****END OF INPUT****

CARTESIAN COORDINATES (ANGSTROEM)
---------------------------------
  C     -2.492810    0.799956   -0.004907
  C     -1.201218    0.038091   -0.000128
  C     -1.231450   -1.347323   -0.001165
  C     -0.056508   -2.077044    0.002051
  C      1.150560   -1.411014    0.002738
  C      1.213305   -0.019149    0.002358
  C      0.026993    0.716717    0.004946
  C     -0.009756    2.218050    0.005529
  C      2.592426    0.581139   -0.008083
  H     -2.586595    1.405708    0.895596
  H     -2.544452    1.468963   -0.862322
  H     -3.336507    0.116234   -0.047929
  H     -2.182873   -1.860159   -0.004482
  H     -0.084869   -3.156854    0.002632
  H      2.073564   -1.973647    0.002213
  H      0.975272    2.660882    0.091481
  H     -0.464750    2.579709   -0.916100
  H     -0.614492    2.576676    0.836725
  H      3.156375    0.215680    0.848917
  H      3.117875    0.267935   -0.909319
  H      2.592258    1.664201    0.022798

 Total Charge           Charge          ....    0
 Multiplicity           Mult            ....    1
 Number of Electrons    NEL             ....   66
 Basis Dimension        Dim             ....  150

ORBITAL ENERGIES
----------------

  NO   OCC          E(Eh)            E(eV)
   0   2.0000      -9.894724      -269.2491
   1   2.0000      -9.894506      -269.2432
   2   2.0000      -9.892758      -269.1956
   3   2.0000      -9.880284      -268.8562
   4   2.0000      -9.879586      -268.8372
   5   2.0000      -9.878890      -268.8183
   6   2.0000      -9.878101      -268.7968
   7   2.0000      -9.876994      -268.7667
   8   2.0000      -9.876308      -268.7480
   9   2.0000      -0.775836       -21.1116
  10   2.0000      -0.701627       -19.0922
  11   2.0000      -0.693125       -18.8609
  12   2.0000      -0.639651       -17.4058
  13   2.0000      -0.600051       -16.3282
  14   2.0000      -0.596234       -16.2244
  15   2.0000      -0.508477       -13.8364
  16   2.0000      -0.506388       -13.7795
  17   2.0000      -0.438861       -11.9420
  18   2.0000      -0.430266       -11.7081
  19   2.0000      -0.393722       -10.7137
  20   2.0000      -0.379464       -10.3257
  21   2.0000      -0.369607       -10.0575
  22   2.0000      -0.357240        -9.7210
  23   2.0000      -0.352701        -9.5975
  24   2.0000      -0.351462        -9.5638
  25   2.0000      -0.350523        -9.5382
  26   2.0000      -0.340161        -9.2563
  27   2.0000      -0.323079        -8.7914
  28   2.0000      -0.299979        -8.1628
  29   2.0000      -0.286039        -7.7835
  30   2.0000      -0.281921        -7.6715
  31   2.0000      -0.208038        -5.6610
  32   2.0000      -0.206108        -5.6085
  33   0.0000      -0.025389        -0.6909
  34   0.0000      -0.020179        -0.5491
  35   0.0000       0.040010         1.0887
  36   0.0000       0.055785         1.5180
  37   0.0000       0.062961         1.7132

MULLIKEN ATOMIC CHARGES
-----------------------
   0 C :   -0.207888
   1 C :   -0.019844
   2 C :   -0.142622
   3 C :   -0.030974
   4 C :   -0.123993
   5 C :   -0.022069
   6 C :   -0.058170
   7 C :   -0.216723
   8 C :   -0.238091
   9 H :    0.109477
  10 H :    0.106110
  11 H :    0.100643
  12 H :    0.030150
  13 H :    0.042777
  14 H :    0.028972
  15 H :    0.101307
  16 H :    0.108760
  17 H :    0.105044
  18 H :    0.113337
  19 H :    0.114174
  20 H :    0.099624
Sum of atomic charges:    0.0000000

LOEWDIN ATOMIC CHARGES
----------------------
   0 C :   -0.321235
   1 C :   -0.045799
   2 C :   -0.132861
   3 C :   -0.127517
   4 C :   -0.128054
   5 C :   -0.048182
   6 C :   -0.049755
   7 C :   -0.324257
   8 C :   -0.326246
   9 H :    0.129130
  10 H :    0.128097
  11 H :    0.123661
  12 H :    0.118017
  13 H :    0.120715
  14 H :    0.117845
  15 H :    0.121841
  16 H :    0.130941
  17 H :    0.129226
  18 H :    0.131871
  19 H :    0.132640
  20 H :    0.119922

  Mayer bond orders larger than 0.100000
B(  0-C ,  1-C ) :   1.1468 B(  0-C ,  9-H ) :   0.9216 B(  0-C , 10-H ) :   0.9208
B(  0-C , 11-H ) :   0.9361 B(  1-C ,  2-C ) :   1.4174 B(  1-C ,  6-C ) :   1.3764
B(  2-C ,  3-C ) :   1.3370 B(  2-C , 12-H ) :   0.9589 B(  3-C ,  4-C ) :   1.3779
B(  3-C , 13-H ) :   0.9648 B(  4-C ,  5-C ) :   1.3671 B(  4-C , 14-H ) :   0.9657
B(  5-C ,  6-C ) :   1.4389 B(  5-C ,  8-C ) :   1.1028 B(  6-C ,  7-C ) :   1.1640
B(  7-C , 15-H ) :   0.9227 B(  7-C , 16-H ) :   0.9206 B(  7-C , 17-H ) :   0.9191
B(  8-C , 18-H ) :   0.9361 B(  8-C , 19-H ) :   0.9352 B(  8-C , 20-H ) :   0.9329

Dispersion correction           -0.021731650
FINAL SINGLE POINT ENERGY      -349.372641872166

DIPOLE MOMENT
-------------

Method             : SCF
Type of density    : Electron Density
Multiplicity       :   1
Irrep              :   0
Energy             :  -349.4312168501452902 Eh
Relativity type    :
Basis              : AO
                                X                 Y                 Z
Electronic contribution:     -0.074533433      -5.336267534       0.030317143
Nuclear contribution   :      0.094575227       5.596474217      -0.037330702
                        -----------------------------------------
Total Dipole Moment    :      0.020041794       0.260206683      -0.007013559
                        -----------------------------------------
Magnitude (a.u.)       :      0.261071602
Magnitude (Debye)      :      0.663591275

Rotational constants in cm-1:             0.075375             0.057790             0.033316
Rotational constants in MHz :          2259.690196          1732.497514           998.793629

                             ****ORCA TERMINATED NORMALLY****
TOTAL RUN TIME: 0 days 0 hours 0 minutes 9 seconds 806 msec
