                         Program Version 6.0.0  -   RELEASE  -
|  1> ! pbe def2-sv(p) def2/J RI DEFGRID1 loosescf d4 GCP(DFT/SV(P)) printgap
|  2> %output
|  3>     printlevel normal
|  4> end
|  5> * xyz 0 1
|  6> C 4.0004321206 1.7223716607 -1.2895284245
|  7> C 2.7456336014 1.0890545208 -1.8493566036
|  8> O 2.496658908 -0.2068287591 -1.2680946023
|  9> P 2.1764633264 -0.4086993662 0.2646579528
| 10> S 1.1188642591 0.9951420002 1.1426639174
| 11> O 3.6181543566 -0.6510946679 0.8844940175
| 12> C 3.8292525195 -0.8187126224 2.3021853668
| 13> C 4.2987558559 0.4802871417 2.9283757034
| 14> S 1.4143873785 -2.3769298624 0.2334568198
| 15> C -0.1980310101 -2.1101386944 -0.5498584315
| 16> S -1.4319308529 -1.377075602 0.5708767497
| 17> P -2.1174778739 0.1795547369 -0.7189647159
| 18> S -0.822431825 0.9100537999 -1.9886845937
| 19> O -2.8307609686 1.1953327037 0.2636521007
| 20> C -2.1268293467 2.1020342153 1.1348787109
| 21> C -3.1335620282 3.1039828298 1.6603436807
| 22> O -3.3276815689 -0.4491235261 -1.5074113508
| 23> C -4.477240272 -1.0600331906 -0.8695026616
| 24> C -5.6097251979 -0.0642568921 -0.7270031132
| 25> H 3.8612508747 1.9410760219 -0.2313770435
| 26> H 4.843341615 1.0454415915 -1.4020948018
| 27> H 4.2022858775 2.64818751 -1.8189198139
| 28> H 2.8294932406 0.8804552141 -2.9166560523
| 29> H 1.8696349041 1.7219338187 -1.674336521
| 30> H 2.9029406461 -1.1651188368 2.7688209235
| 31> H 4.5891276888 -1.598178373 2.3798261084
| 32> H 3.524231762 1.2393353274 2.8406074032
| 33> H 4.5124044161 0.3134552657 3.9791073401
| 34> H 5.1971916659 0.8322967991 2.4292916749
| 35> H -0.5442005575 -3.0967734026 -0.8458137604
| 36> H -0.0777773323 -1.4504738131 -1.4131312101
| 37> H -1.6704509868 1.525632816 1.9437385915
| 38> H -1.3278000228 2.5890504833 0.5676666683
| 39> H -3.5808411892 3.6513788282 0.8353278447
| 40> H -3.9152062938 2.5909637629 2.2130258753
| 41> H -2.6255445313 3.8000081666 2.3193407472
| 42> H -4.7500899786 -1.8794718733 -1.5367790081
| 43> H -4.1714393514 -1.457844153 0.1023928897
| 44> H -5.8619625094 0.3530096755 -1.6980241125
| 45> H -6.4777698324 -0.5716207802 -0.3178079695
| 46> H -5.3200787291 0.7451698792 -0.0627496493
| 47> *
| 48>
| 49>                          ****END OF INPUT****

CARTESIAN COORDINATES (ANGSTROEM)
---------------------------------
  C      4.000432    1.722372   -1.289528
  C      2.745634    1.089055   -1.849357
  O      2.496659   -0.206829   -1.268095
  P      2.176463   -0.408699    0.264658
  S      1.118864    0.995142    1.142664
  O      3.618154   -0.651095    0.884494
  C      3.829253   -0.818713    2.302185
  C      4.298756    0.480287    2.928376
  S      1.414387   -2.376930    0.233457
  C     -0.198031   -2.110139   -0.549858
  S     -1.431931   -1.377076    0.570877
  P     -2.117478    0.179555   -0.718965
  S     -0.822432    0.910054   -1.988685
  O     -2.830761    1.195333    0.263652
  C     -2.126829    2.102034    1.134879
  C     -3.133562    3.103983    1.660344
  O     -3.327682   -0.449124   -1.507411
  C     -4.477240   -1.060033   -0.869503
  C     -5.609725   -0.064257   -0.727003
  H      3.861251    1.941076   -0.231377
  H      4.843342    1.045442   -1.402095
  H      4.202286    2.648188   -1.818920
  H      2.829493    0.880455   -2.916656
  H      1.869635    1.721934   -1.674337
  H      2.902941   -1.165119    2.768821
  H      4.589128   -1.598178    2.379826
  H      3.524232    1.239335    2.840607
  H      4.512404    0.313455    3.979107
  H      5.197192    0.832297    2.429292
  H     -0.544201   -3.096773   -0.845814
  H     -0.077777   -1.450474   -1.413131
  H     -1.670451    1.525633    1.943739
  H     -1.327800    2.589050    0.567667
  H     -3.580841    3.651379    0.835328
  H     -3.915206    2.590964    2.213026
  H     -2.625545    3.800008    2.319341
  H     -4.750090   -1.879472   -1.536779
  H     -4.171439   -1.457844    0.102393
  H     -5.861963    0.353010   -1.698024
  H     -6.477770   -0.571621   -0.317808
  H     -5.320079    0.745170   -0.062750

 Total Charge           Charge          ....    0
 Multiplicity           Mult            ....    1
 Number of Electrons    NEL             ....  202
 Basis Dimension        Dim             ....  334

ORBITAL ENERGIES
----------------

  NO   OCC          E(Eh)            E(eV)
   0   2.0000     -88.039350     -2395.6725
   1   2.0000     -88.036764     -2395.6022
   2   2.0000     -87.980706     -2394.0767
   3   2.0000     -87.980560     -2394.0728
   4   2.0000     -76.422854     -2079.5716
   5   2.0000     -76.422687     -2079.5670
   6   2.0000     -18.795104      -511.4408
   7   2.0000     -18.789337      -511.2839
   8   2.0000     -18.787159      -511.2246
   9   2.0000     -18.785367      -511.1758
  10   2.0000      -9.953995      -270.8620
  11   2.0000      -9.953744      -270.8551
  12   2.0000      -9.952878      -270.8316
  13   2.0000      -9.949112      -270.7291
  14   2.0000      -9.942492      -270.5490
  15   2.0000      -9.886936      -269.0372
  16   2.0000      -9.885038      -268.9856
  17   2.0000      -9.880922      -268.8736
  18   2.0000      -9.877960      -268.7930
  19   2.0000      -7.685016      -209.1199
  20   2.0000      -7.681741      -209.0308
  21   2.0000      -7.625743      -207.5070
  22   2.0000      -7.625582      -207.5026
  23   2.0000      -6.420374      -174.7073
  24   2.0000      -6.420314      -174.7056
  25   2.0000      -5.712866      -155.4550
  26   2.0000      -5.709590      -155.3659
  27   2.0000      -5.709503      -155.3635
  28   2.0000      -5.706350      -155.2777
  29   2.0000      -5.701937      -155.1576
  30   2.0000      -5.698678      -155.0689
  31   2.0000      -5.654744      -153.8734
  32   2.0000      -5.654332      -153.8622
  33   2.0000      -5.646581      -153.6513
  34   2.0000      -5.646217      -153.6414
  35   2.0000      -5.645878      -153.6321
  36   2.0000      -5.645515      -153.6223
  37   2.0000      -4.643220      -126.3484
  38   2.0000      -4.642829      -126.3378
  39   2.0000      -4.642156      -126.3195
  40   2.0000      -4.642109      -126.3182
  41   2.0000      -4.640797      -126.2825
  42   2.0000      -4.640580      -126.2766
  43   2.0000      -0.987287       -26.8654
  44   2.0000      -0.983259       -26.7558
  45   2.0000      -0.943916       -25.6853
  46   2.0000      -0.942340       -25.6424
  47   2.0000      -0.758115       -20.6294
  48   2.0000      -0.720562       -19.6075
  49   2.0000      -0.707433       -19.2502
  50   2.0000      -0.691300       -18.8112
  51   2.0000      -0.683479       -18.5984
  52   2.0000      -0.669322       -18.2132
  53   2.0000      -0.648496       -17.6465
  54   2.0000      -0.633470       -17.2376
  55   2.0000      -0.593909       -16.1611
  56   2.0000      -0.586114       -15.9490
  57   2.0000      -0.569994       -15.5103
  58   2.0000      -0.566310       -15.4101
  59   2.0000      -0.560214       -15.2442
  60   2.0000      -0.509288       -13.8584
  61   2.0000      -0.494701       -13.4615
  62   2.0000      -0.480422       -13.0730
  63   2.0000      -0.470974       -12.8159
  64   2.0000      -0.447141       -12.1673
  65   2.0000      -0.443567       -12.0701
  66   2.0000      -0.437486       -11.9046
  67   2.0000      -0.436202       -11.8697
  68   2.0000      -0.426912       -11.6169
  69   2.0000      -0.417132       -11.3507
  70   2.0000      -0.402971       -10.9654
  71   2.0000      -0.393713       -10.7135
  72   2.0000      -0.388807       -10.5800
  73   2.0000      -0.386620       -10.5205
  74   2.0000      -0.383568       -10.4374
  75   2.0000      -0.367654       -10.0044
  76   2.0000      -0.362417        -9.8619
  77   2.0000      -0.354628        -9.6499
  78   2.0000      -0.351919        -9.5762
  79   2.0000      -0.351262        -9.5583
  80   2.0000      -0.344112        -9.3638
  81   2.0000      -0.343511        -9.3474
  82   2.0000      -0.338096        -9.2001
  83   2.0000      -0.336484        -9.1562
  84   2.0000      -0.330143        -8.9837
  85   2.0000      -0.316112        -8.6019
  86   2.0000      -0.310998        -8.4627
  87   2.0000      -0.298537        -8.1236
  88   2.0000      -0.295358        -8.0371
  89   2.0000      -0.288975        -7.8634
  90   2.0000      -0.280741        -7.6394
  91   2.0000      -0.271720        -7.3939
  92   2.0000      -0.267207        -7.2711
  93   2.0000      -0.261120        -7.1054
  94   2.0000      -0.258016        -7.0210
  95   2.0000      -0.240827        -6.5532
  96   2.0000      -0.222306        -6.0493
  97   2.0000      -0.204205        -5.5567
  98   2.0000      -0.201394        -5.4802
  99   2.0000      -0.189520        -5.1571
 100   2.0000      -0.182933        -4.9779
 101   0.0000      -0.036505        -0.9933
 102   0.0000      -0.028460        -0.7744
 103   0.0000      -0.008733        -0.2376
 104   0.0000       0.003809         0.1037
 105   0.0000       0.023574         0.6415

MULLIKEN ATOMIC CHARGES
-----------------------
   0 C :   -0.311172
   1 C :   -0.011262
   2 O :   -0.363620
   3 P :    0.619973
   4 S :   -0.337707
   5 O :   -0.374565
   6 C :   -0.009956
   7 C :   -0.292232
   8 S :   -0.091136
   9 C :   -0.349368
  10 S :   -0.099161
  11 P :    0.607237
  12 S :   -0.309255
  13 O :   -0.384025
  14 C :   -0.028778
  15 C :   -0.277353
  16 O :   -0.355462
  17 C :   -0.010847
  18 C :   -0.293566
  19 H :    0.124560
  20 H :    0.115208
  21 H :    0.110618
  22 H :    0.104808
  23 H :    0.130297
  24 H :    0.104401
  25 H :    0.107589
  26 H :    0.127705
  27 H :    0.107223
  28 H :    0.114700
  29 H :    0.182434
  30 H :    0.195505
  31 H :    0.120363
  32 H :    0.119954
  33 H :    0.119051
  34 H :    0.114175
  35 H :    0.114832
  36 H :    0.107597
  37 H :    0.099025
  38 H :    0.119673
  39 H :    0.108210
  40 H :    0.124326
Sum of atomic charges:   -0.0000000

LOEWDIN ATOMIC CHARGES
----------------------
   0 C :   -0.367116
   1 C :   -0.118247
   2 O :   -0.234149
   3 P :    0.570169
   4 S :   -0.318564
   5 O :   -0.246418
   6 C :   -0.115216
   7 C :   -0.362764
   8 S :    0.079572
   9 C :   -0.479027
  10 S :    0.061790
  11 P :    0.570224
  12 S :   -0.297687
  13 O :   -0.242692
  14 C :   -0.119303
  15 C :   -0.351266
  16 O :   -0.239353
  17 C :   -0.116224
  18 C :   -0.360611
  19 H :    0.121473
  20 H :    0.125220
  21 H :    0.130062
  22 H :    0.119695
  23 H :    0.110378
  24 H :    0.109556
  25 H :    0.118581
  26 H :    0.124461
  27 H :    0.128488
  28 H :    0.125398
  29 H :    0.136192
  30 H :    0.123767
  31 H :    0.111486
  32 H :    0.112288
  33 H :    0.127875
  34 H :    0.124467
  35 H :    0.132430
  36 H :    0.120180
  37 H :    0.101698
  38 H :    0.128801
  39 H :    0.128689
  40 H :    0.125697

  Mayer bond orders larger than 0.100000
B(  0-C ,  1-C ) :   1.1623 B(  0-C , 19-H ) :   0.9330 B(  0-C , 20-H ) :   0.9449
B(  0-C , 21-H ) :   0.9384 B(  1-C ,  2-O ) :   0.8966 B(  1-C , 22-H ) :   0.9359
B(  1-C , 23-H ) :   0.9094 B(  2-O ,  3-P ) :   1.1401 B(  3-P ,  4-S ) :   1.6132
B(  3-P ,  5-O ) :   1.1025 B(  3-P ,  8-S ) :   0.9660 B(  4-S ,  8-S ) :   0.1170
B(  5-O ,  6-C ) :   0.9025 B(  6-C ,  7-C ) :   1.1695 B(  6-C , 24-H ) :   0.9148
B(  6-C , 25-H ) :   0.9351 B(  7-C , 26-H ) :   0.9320 B(  7-C , 27-H ) :   0.9396
B(  7-C , 28-H ) :   0.9460 B(  8-S ,  9-C ) :   1.0031 B(  9-C , 10-S ) :   0.9900
B(  9-C , 29-H ) :   0.9122 B(  9-C , 30-H ) :   0.8530 B( 10-S , 11-P ) :   0.9556
B( 10-S , 12-S ) :   0.1145 B( 11-P , 12-S ) :   1.6340 B( 11-P , 13-O ) :   1.0990
B( 11-P , 16-O ) :   1.1342 B( 12-S , 30-H ) :   0.1042 B( 13-O , 14-C ) :   0.8975
B( 14-C , 15-C ) :   1.1531 B( 14-C , 31-H ) :   0.9262 B( 14-C , 32-H ) :   0.9161
B( 15-C , 33-H ) :   0.9499 B( 15-C , 34-H ) :   0.9495 B( 15-C , 35-H ) :   0.9423
B( 16-O , 17-C ) :   0.8989 B( 17-C , 18-C ) :   1.1629 B( 17-C , 36-H ) :   0.9368
B( 17-C , 37-H ) :   0.9102 B( 18-C , 38-H ) :   0.9469 B( 18-C , 39-H ) :   0.9397
B( 18-C , 40-H ) :   0.9410

Dispersion correction           -0.064999693
FINAL SINGLE POINT ENERGY     -2929.517776929747

DIPOLE MOMENT
-------------

Method             : SCF
Type of density    : Electron Density
Multiplicity       :   1
Irrep              :   0
Energy             : -2929.6369732743501118 Eh
Relativity type    :
Basis              : AO
                                X                 Y                 Z
Electronic contribution:      1.630318383     -14.143482386      -7.570162094
Nuclear contribution   :     -1.929565706      14.008246823       8.321330325
                        -----------------------------------------
Total Dipole Moment    :     -0.299247322      -0.135235563       0.751168231
                        -----------------------------------------
Magnitude (a.u.)       :      0.819811764
Magnitude (Debye)      :      2.083795903

Rotational constants in cm-1:             0.012938             0.004736             0.004552
Rotational constants in MHz :           387.870690           141.984817           136.474419

                             ****ORCA TERMINATED NORMALLY****
TOTAL RUN TIME: 0 days 0 hours 0 minutes 20 seconds 778 msec
