                         Program Version 6.0.0  -   RELEASE  -
|  1> ! pbe def2-sv(p) def2/J RI DEFGRID1 loosescf d4 GCP(DFT/SV(P)) printgap
|  2> %output
|  3>     printlevel normal
|  4> end
|  5> * xyz 0 1
|  6> C 3.6234535575 0.2352484101 -2.6923675212
|  7> C 2.1518267368 0.4707838008 -2.428410599
|  8> O 1.6117921907 -0.4671416306 -1.478639256
|  9> P 2.0907193713 -0.5143545376 0.0333534555
| 10> S 2.6124321509 1.1711613797 0.8952419697
| 11> O 3.2634943608 -1.5854058076 -0.0720772037
| 12> C 4.2383881847 -1.773586109 0.966715926
| 13> C 3.62948735 -2.3448227932 2.231338687
| 14> S 0.5074114121 -1.6162109295 0.8811988809
| 15> C -0.3027885723 -0.3278635875 1.8995805357
| 16> S -2.0935461318 -0.2724525658 1.6645054678
| 17> P -2.2074613265 0.6877878321 -0.2305185819
| 18> S -0.6118411401 1.7333367865 -0.7155927411
| 19> O -3.5568448356 1.4990303805 -0.1525658452
| 20> C -3.6611574965 2.6773057286 0.6746233994
| 21> C -4.8518342283 3.4791366566 0.1896636724
| 22> O -2.7208849123 -0.350031834 -1.3037962523
| 23> C -1.902965054 -1.374607533 -1.8996823753
| 24> C -2.1848115277 -2.720047645 -1.2590621212
| 25> H 3.9535545891 0.8934293093 -3.4899441344
| 26> H 4.2006221882 0.4515902324 -1.7940357355
| 27> H 3.790859998 -0.7995690782 -2.9797161315
| 28> H 1.5474753043 0.3121914393 -3.3230135317
| 29> H 1.9753532534 1.4828297143 -2.0478344345
| 30> H 4.9631832435 -2.4576497445 0.5233818295
| 31> H 4.7124345554 -0.8085902596 1.1733246563
| 32> H 2.9698125767 -1.6090046736 2.6895644589
| 33> H 3.0562900386 -3.2402472055 2.0047061788
| 34> H 4.4218274558 -2.589614972 2.9314189578
| 35> H 0.1407419437 0.6396795163 1.6510915107
| 36> H -0.1529694669 -0.574355094 2.9472612509
| 37> H -3.7925695005 2.355433045 1.7113317223
| 38> H -2.7317136708 3.2519768975 0.5911400727
| 39> H -4.6994823052 3.7871600716 -0.8408994903
| 40> H -5.7509847569 2.8728863116 0.2457789272
| 41> H -4.9682595303 4.3586098451 0.8143675325
| 42> H -2.1834443035 -1.3744719446 -2.955088191
| 43> H -0.845459638 -1.1013539265 -1.8121012527
| 44> H -1.6249527861 -3.4866936617 -1.7848622883
| 45> H -1.8827141756 -2.7213806236 -0.2140134916
| 46> H -3.2466480748 -2.9402069233 -1.319901231
| 47> *
| 48>
| 49>                          ****END OF INPUT****

CARTESIAN COORDINATES (ANGSTROEM)
---------------------------------
  C      3.623454    0.235248   -2.692368
  C      2.151827    0.470784   -2.428411
  O      1.611792   -0.467142   -1.478639
  P      2.090719   -0.514355    0.033353
  S      2.612432    1.171161    0.895242
  O      3.263494   -1.585406   -0.072077
  C      4.238388   -1.773586    0.966716
  C      3.629487   -2.344823    2.231339
  S      0.507411   -1.616211    0.881199
  C     -0.302789   -0.327864    1.899581
  S     -2.093546   -0.272453    1.664505
  P     -2.207461    0.687788   -0.230519
  S     -0.611841    1.733337   -0.715593
  O     -3.556845    1.499030   -0.152566
  C     -3.661157    2.677306    0.674623
  C     -4.851834    3.479137    0.189664
  O     -2.720885   -0.350032   -1.303796
  C     -1.902965   -1.374608   -1.899682
  C     -2.184812   -2.720048   -1.259062
  H      3.953555    0.893429   -3.489944
  H      4.200622    0.451590   -1.794036
  H      3.790860   -0.799569   -2.979716
  H      1.547475    0.312191   -3.323014
  H      1.975353    1.482830   -2.047834
  H      4.963183   -2.457650    0.523382
  H      4.712435   -0.808590    1.173325
  H      2.969813   -1.609005    2.689564
  H      3.056290   -3.240247    2.004706
  H      4.421827   -2.589615    2.931419
  H      0.140742    0.639680    1.651092
  H     -0.152969   -0.574355    2.947261
  H     -3.792570    2.355433    1.711332
  H     -2.731714    3.251977    0.591140
  H     -4.699482    3.787160   -0.840899
  H     -5.750985    2.872886    0.245779
  H     -4.968260    4.358610    0.814368
  H     -2.183444   -1.374472   -2.955088
  H     -0.845460   -1.101354   -1.812101
  H     -1.624953   -3.486694   -1.784862
  H     -1.882714   -2.721381   -0.214013
  H     -3.246648   -2.940207   -1.319901

 Total Charge           Charge          ....    0
 Multiplicity           Mult            ....    1
 Number of Electrons    NEL             ....  202
 Basis Dimension        Dim             ....  334

ORBITAL ENERGIES
----------------

  NO   OCC          E(Eh)            E(eV)
   0   2.0000     -88.046008     -2395.8537
   1   2.0000     -88.044178     -2395.8039
   2   2.0000     -87.988699     -2394.2942
   3   2.0000     -87.983470     -2394.1519
   4   2.0000     -76.426722     -2079.6768
   5   2.0000     -76.424169     -2079.6074
   6   2.0000     -18.791262      -511.3362
   7   2.0000     -18.790113      -511.3050
   8   2.0000     -18.787981      -511.2470
   9   2.0000     -18.786133      -511.1967
  10   2.0000      -9.956050      -270.9179
  11   2.0000      -9.951924      -270.8056
  12   2.0000      -9.951482      -270.7936
  13   2.0000      -9.946864      -270.6679
  14   2.0000      -9.946247      -270.6512
  15   2.0000      -9.886015      -269.0121
  16   2.0000      -9.884346      -268.9667
  17   2.0000      -9.880842      -268.8714
  18   2.0000      -9.877468      -268.7796
  19   2.0000      -7.691062      -209.2844
  20   2.0000      -7.689007      -209.2285
  21   2.0000      -7.633579      -207.7203
  22   2.0000      -7.628099      -207.5711
  23   2.0000      -6.424070      -174.8078
  24   2.0000      -6.421662      -174.7423
  25   2.0000      -5.718974      -155.6212
  26   2.0000      -5.716850      -155.5634
  27   2.0000      -5.715265      -155.5203
  28   2.0000      -5.713612      -155.4753
  29   2.0000      -5.708335      -155.3317
  30   2.0000      -5.705881      -155.2649
  31   2.0000      -5.662459      -154.0833
  32   2.0000      -5.656924      -153.9327
  33   2.0000      -5.654386      -153.8637
  34   2.0000      -5.653612      -153.8426
  35   2.0000      -5.648759      -153.7105
  36   2.0000      -5.648353      -153.6995
  37   2.0000      -4.646285      -126.4318
  38   2.0000      -4.645753      -126.4174
  39   2.0000      -4.644970      -126.3961
  40   2.0000      -4.643873      -126.3662
  41   2.0000      -4.643801      -126.3643
  42   2.0000      -4.642016      -126.3157
  43   2.0000      -0.987772       -26.8786
  44   2.0000      -0.985486       -26.8164
  45   2.0000      -0.943384       -25.6708
  46   2.0000      -0.942389       -25.6437
  47   2.0000      -0.762108       -20.7380
  48   2.0000      -0.721302       -19.6276
  49   2.0000      -0.709801       -19.3147
  50   2.0000      -0.686056       -18.6685
  51   2.0000      -0.681863       -18.5544
  52   2.0000      -0.675250       -18.3745
  53   2.0000      -0.649488       -17.6735
  54   2.0000      -0.634221       -17.2580
  55   2.0000      -0.602977       -16.4078
  56   2.0000      -0.592999       -16.1363
  57   2.0000      -0.570771       -15.5315
  58   2.0000      -0.564198       -15.3526
  59   2.0000      -0.556555       -15.1446
  60   2.0000      -0.503503       -13.7010
  61   2.0000      -0.490802       -13.3554
  62   2.0000      -0.473120       -12.8742
  63   2.0000      -0.470467       -12.8021
  64   2.0000      -0.451362       -12.2822
  65   2.0000      -0.447120       -12.1668
  66   2.0000      -0.439209       -11.9515
  67   2.0000      -0.437175       -11.8961
  68   2.0000      -0.427238       -11.6257
  69   2.0000      -0.416004       -11.3200
  70   2.0000      -0.406547       -11.0627
  71   2.0000      -0.395836       -10.7712
  72   2.0000      -0.391727       -10.6594
  73   2.0000      -0.389273       -10.5927
  74   2.0000      -0.381665       -10.3856
  75   2.0000      -0.372997       -10.1498
  76   2.0000      -0.367038        -9.9876
  77   2.0000      -0.356284        -9.6950
  78   2.0000      -0.353439        -9.6176
  79   2.0000      -0.347604        -9.4588
  80   2.0000      -0.345275        -9.3954
  81   2.0000      -0.341904        -9.3037
  82   2.0000      -0.337928        -9.1955
  83   2.0000      -0.336682        -9.1616
  84   2.0000      -0.331314        -9.0155
  85   2.0000      -0.316708        -8.6181
  86   2.0000      -0.310880        -8.4595
  87   2.0000      -0.300475        -8.1764
  88   2.0000      -0.294500        -8.0138
  89   2.0000      -0.289978        -7.8907
  90   2.0000      -0.281452        -7.6587
  91   2.0000      -0.270793        -7.3686
  92   2.0000      -0.265811        -7.2331
  93   2.0000      -0.265393        -7.2217
  94   2.0000      -0.257392        -7.0040
  95   2.0000      -0.236688        -6.4406
  96   2.0000      -0.220329        -5.9954
  97   2.0000      -0.216596        -5.8939
  98   2.0000      -0.205228        -5.5845
  99   2.0000      -0.200119        -5.4455
 100   2.0000      -0.189858        -5.1663
 101   0.0000      -0.044334        -1.2064
 102   0.0000      -0.037028        -1.0076
 103   0.0000      -0.012079        -0.3287
 104   0.0000       0.010649         0.2898
 105   0.0000       0.016911         0.4602

MULLIKEN ATOMIC CHARGES
-----------------------
   0 C :   -0.303439
   1 C :   -0.002046
   2 O :   -0.359692
   3 P :    0.621799
   4 S :   -0.315944
   5 O :   -0.373052
   6 C :   -0.002972
   7 C :   -0.310046
   8 S :   -0.105133
   9 C :   -0.346076
  10 S :   -0.116182
  11 P :    0.594963
  12 S :   -0.321328
  13 O :   -0.359417
  14 C :   -0.012202
  15 C :   -0.278520
  16 O :   -0.352713
  17 C :   -0.032461
  18 C :   -0.291569
  19 H :    0.111549
  20 H :    0.121845
  21 H :    0.114662
  22 H :    0.102768
  23 H :    0.121613
  24 H :    0.104453
  25 H :    0.109492
  26 H :    0.118882
  27 H :    0.118871
  28 H :    0.112257
  29 H :    0.212313
  30 H :    0.181339
  31 H :    0.102356
  32 H :    0.105787
  33 H :    0.121629
  34 H :    0.117558
  35 H :    0.111318
  36 H :    0.103508
  37 H :    0.132981
  38 H :    0.106104
  39 H :    0.123676
  40 H :    0.111070
Sum of atomic charges:   -0.0000000

LOEWDIN ATOMIC CHARGES
----------------------
   0 C :   -0.366191
   1 C :   -0.117130
   2 O :   -0.236515
   3 P :    0.575350
   4 S :   -0.306770
   5 O :   -0.245538
   6 C :   -0.119677
   7 C :   -0.369070
   8 S :    0.090958
   9 C :   -0.477602
  10 S :    0.070481
  11 P :    0.561125
  12 S :   -0.302467
  13 O :   -0.236059
  14 C :   -0.120920
  15 C :   -0.349713
  16 O :   -0.232794
  17 C :   -0.120618
  18 C :   -0.361861
  19 H :    0.130390
  20 H :    0.121341
  21 H :    0.125344
  22 H :    0.118052
  23 H :    0.110608
  24 H :    0.118384
  25 H :    0.109509
  26 H :    0.118949
  27 H :    0.124265
  28 H :    0.130260
  29 H :    0.125576
  30 H :    0.135048
  31 H :    0.108499
  32 H :    0.108705
  33 H :    0.129696
  34 H :    0.127559
  35 H :    0.130506
  36 H :    0.117992
  37 H :    0.109342
  38 H :    0.128809
  39 H :    0.112054
  40 H :    0.124127

  Mayer bond orders larger than 0.100000
B(  0-C ,  1-C ) :   1.1619 B(  0-C , 19-H ) :   0.9386 B(  0-C , 20-H ) :   0.9357
B(  0-C , 21-H ) :   0.9446 B(  1-C ,  2-O ) :   0.9006 B(  1-C , 22-H ) :   0.9352
B(  1-C , 23-H ) :   0.9168 B(  2-O ,  3-P ) :   1.1246 B(  3-P ,  4-S ) :   1.5939
B(  3-P ,  5-O ) :   1.0990 B(  3-P ,  8-S ) :   0.9602 B(  4-S ,  8-S ) :   0.1145
B(  5-O ,  6-C ) :   0.9133 B(  6-C ,  7-C ) :   1.1669 B(  6-C , 24-H ) :   0.9340
B(  6-C , 25-H ) :   0.9155 B(  7-C , 26-H ) :   0.9375 B(  7-C , 27-H ) :   0.9433
B(  7-C , 28-H ) :   0.9379 B(  8-S ,  9-C ) :   0.9860 B(  9-C , 10-S ) :   1.0171
B(  9-C , 29-H ) :   0.8474 B(  9-C , 30-H ) :   0.9077 B( 10-S , 11-P ) :   0.9232
B( 10-S , 12-S ) :   0.1189 B( 11-P , 12-S ) :   1.6381 B( 11-P , 13-O ) :   1.1303
B( 11-P , 16-O ) :   1.1411 B( 13-O , 14-C ) :   0.9068 B( 14-C , 15-C ) :   1.1620
B( 14-C , 31-H ) :   0.9280 B( 14-C , 32-H ) :   0.9084 B( 15-C , 33-H ) :   0.9509
B( 15-C , 34-H ) :   0.9506 B( 15-C , 35-H ) :   0.9419 B( 16-O , 17-C ) :   0.9017
B( 17-C , 18-C ) :   1.1685 B( 17-C , 36-H ) :   0.9348 B( 17-C , 37-H ) :   0.8955
B( 18-C , 38-H ) :   0.9410 B( 18-C , 39-H ) :   0.9326 B( 18-C , 40-H ) :   0.9462

Dispersion correction           -0.066349393
FINAL SINGLE POINT ENERGY     -2929.524022674146

DIPOLE MOMENT
-------------

Method             : SCF
Type of density    : Electron Density
Multiplicity       :   1
Irrep              :   0
Energy             : -2929.6422870816941213 Eh
Relativity type    :
Basis              : AO
                                X                 Y                 Z
Electronic contribution:     -3.565939245       2.689511630       4.927465579
Nuclear contribution   :      3.686277304      -3.291233312      -4.898969713
                        -----------------------------------------
Total Dipole Moment    :      0.120338059      -0.601721681       0.028495866
                        -----------------------------------------
Magnitude (a.u.)       :      0.614298172
Magnitude (Debye)      :      1.561421866

Rotational constants in cm-1:             0.012677             0.004910             0.004752
Rotational constants in MHz :           380.044448           147.185774           142.473408

                             ****ORCA TERMINATED NORMALLY****
TOTAL RUN TIME: 0 days 0 hours 0 minutes 21 seconds 246 msec
