                         Program Version 6.0.0  -   RELEASE  -
|  1> ! pbe def2-sv(p) def2/J RI DEFGRID1 loosescf d4 GCP(DFT/SV(P)) printgap
|  2> %output
|  3>     printlevel normal
|  4> end
|  5> * xyz 0 1
|  6> C 1.7044694002 0.2413225284 -3.2843280283
|  7> C 2.3523585735 0.3239485564 -1.9193034365
|  8> O 1.5350505516 -0.4348144848 -1.0005011022
|  9> P 1.8792973797 -0.4858897191 0.5414311332
| 10> S 2.3981632534 1.1807976171 1.4449778646
| 11> O 3.035425414 -1.5817094634 0.5373142048
| 12> C 3.813325719 -1.8812662264 1.7133756665
| 13> C 5.1581416491 -2.4191147226 1.2671294808
| 14> S 0.248552118 -1.5316817701 1.3308684272
| 15> C -0.7398701318 -0.157764979 2.0211565674
| 16> S -2.3791827829 -0.038682443 1.2853670724
| 17> P -1.810612028 0.7529733588 -0.6092147319
| 18> S -0.4079775896 2.1196457119 -0.5545754277
| 19> O -3.2091927044 1.1556073778 -1.2462780608
| 20> C -4.2434607819 1.9076589411 -0.5833920538
| 21> C -3.7540421801 3.2395833385 -0.0558216109
| 22> O -1.3676803731 -0.421615976 -1.5612347625
| 23> C -2.2130973569 -1.5173576164 -1.9963731351
| 24> C -1.9917611864 -2.7546153314 -1.1495742659
| 25> H 1.6440561053 -0.7944853798 -3.6047887397
| 26> H 0.7006267695 0.6565309047 -3.2362791192
| 27> H 2.2952468948 0.8108671212 -3.9942411547
| 28> H 2.4001282447 1.3579483253 -1.5599592966
| 29> H 3.3580078419 -0.1043046745 -1.9200326898
| 30> H 3.9232615063 -0.9635174397 2.3012377968
| 31> H 3.2619955737 -2.6210794437 2.2989252804
| 32> H 5.69582223 -1.6631231488 0.7014227897
| 33> H 5.7393385417 -2.6904737735 2.1421841934
| 34> H 5.0172084316 -3.2952729208 0.6408574657
| 35> H -0.1912451709 0.7762627075 1.8691972569
| 36> H -0.8946866983 -0.3558000381 3.0784972118
| 37> H -4.9987504105 2.0404417636 -1.3600755105
| 38> H -4.6445548666 1.2939699151 0.2276289838
| 39> H -3.2975622043 3.8202184197 -0.8540848855
| 40> H -4.5904612987 3.7926476605 0.3590031801
| 41> H -3.0088752552 3.0858715393 0.7234356729
| 42> H -3.2548947428 -1.1940066257 -1.9696025337
| 43> H -1.9080353268 -1.6882335867 -3.0301696981
| 44> H -0.9346921006 -3.0071920164 -1.1246044089
| 45> H -2.3334016244 -2.5969876488 -0.1294658174
| 46> H -2.5459876134 -3.5803233253 -1.5845230124
| 47> *
| 48>
| 49>                          ****END OF INPUT****

CARTESIAN COORDINATES (ANGSTROEM)
---------------------------------
  C      1.704469    0.241323   -3.284328
  C      2.352359    0.323949   -1.919303
  O      1.535051   -0.434814   -1.000501
  P      1.879297   -0.485890    0.541431
  S      2.398163    1.180798    1.444978
  O      3.035425   -1.581709    0.537314
  C      3.813326   -1.881266    1.713376
  C      5.158142   -2.419115    1.267129
  S      0.248552   -1.531682    1.330868
  C     -0.739870   -0.157765    2.021157
  S     -2.379183   -0.038682    1.285367
  P     -1.810612    0.752973   -0.609215
  S     -0.407978    2.119646   -0.554575
  O     -3.209193    1.155607   -1.246278
  C     -4.243461    1.907659   -0.583392
  C     -3.754042    3.239583   -0.055822
  O     -1.367680   -0.421616   -1.561235
  C     -2.213097   -1.517358   -1.996373
  C     -1.991761   -2.754615   -1.149574
  H      1.644056   -0.794485   -3.604789
  H      0.700627    0.656531   -3.236279
  H      2.295247    0.810867   -3.994241
  H      2.400128    1.357948   -1.559959
  H      3.358008   -0.104305   -1.920033
  H      3.923262   -0.963517    2.301238
  H      3.261996   -2.621079    2.298925
  H      5.695822   -1.663123    0.701423
  H      5.739339   -2.690474    2.142184
  H      5.017208   -3.295273    0.640857
  H     -0.191245    0.776263    1.869197
  H     -0.894687   -0.355800    3.078497
  H     -4.998750    2.040442   -1.360076
  H     -4.644555    1.293970    0.227629
  H     -3.297562    3.820218   -0.854085
  H     -4.590461    3.792648    0.359003
  H     -3.008875    3.085872    0.723436
  H     -3.254895   -1.194007   -1.969603
  H     -1.908035   -1.688234   -3.030170
  H     -0.934692   -3.007192   -1.124604
  H     -2.333402   -2.596988   -0.129466
  H     -2.545988   -3.580323   -1.584523

 Total Charge           Charge          ....    0
 Multiplicity           Mult            ....    1
 Number of Electrons    NEL             ....  202
 Basis Dimension        Dim             ....  334

ORBITAL ENERGIES
----------------

  NO   OCC          E(Eh)            E(eV)
   0   2.0000     -88.047271     -2395.8880
   1   2.0000     -88.040630     -2395.7073
   2   2.0000     -87.979057     -2394.0318
   3   2.0000     -87.976571     -2393.9642
   4   2.0000     -76.425371     -2079.6401
   5   2.0000     -76.417366     -2079.4222
   6   2.0000     -18.796321      -511.4739
   7   2.0000     -18.788061      -511.2491
   8   2.0000     -18.785429      -511.1775
   9   2.0000     -18.778047      -510.9766
  10   2.0000      -9.960666      -271.0435
  11   2.0000      -9.955831      -270.9119
  12   2.0000      -9.953258      -270.8419
  13   2.0000      -9.945574      -270.6328
  14   2.0000      -9.938949      -270.4525
  15   2.0000      -9.884074      -268.9593
  16   2.0000      -9.883231      -268.9364
  17   2.0000      -9.880618      -268.8653
  18   2.0000      -9.872485      -268.6440
  19   2.0000      -7.692198      -209.3153
  20   2.0000      -7.686047      -209.1480
  21   2.0000      -7.623964      -207.4586
  22   2.0000      -7.621585      -207.3939
  23   2.0000      -6.422471      -174.7643
  24   2.0000      -6.415212      -174.5668
  25   2.0000      -5.719941      -155.6475
  26   2.0000      -5.716531      -155.5547
  27   2.0000      -5.713892      -155.4829
  28   2.0000      -5.710472      -155.3899
  29   2.0000      -5.709503      -155.3635
  30   2.0000      -5.703008      -155.1867
  31   2.0000      -5.653122      -153.8293
  32   2.0000      -5.650478      -153.7573
  33   2.0000      -5.644473      -153.5939
  34   2.0000      -5.643981      -153.5805
  35   2.0000      -5.642316      -153.5352
  36   2.0000      -5.641659      -153.5174
  37   2.0000      -4.645352      -126.4065
  38   2.0000      -4.644514      -126.3836
  39   2.0000      -4.642437      -126.3271
  40   2.0000      -4.637572      -126.1947
  41   2.0000      -4.636859      -126.1754
  42   2.0000      -4.635905      -126.1494
  43   2.0000      -0.988496       -26.8984
  44   2.0000      -0.977829       -26.6081
  45   2.0000      -0.943504       -25.6740
  46   2.0000      -0.934367       -25.4254
  47   2.0000      -0.763471       -20.7751
  48   2.0000      -0.720086       -19.5945
  49   2.0000      -0.708713       -19.2850
  50   2.0000      -0.689864       -18.7722
  51   2.0000      -0.681506       -18.5447
  52   2.0000      -0.672938       -18.3116
  53   2.0000      -0.646800       -17.6003
  54   2.0000      -0.628394       -17.0995
  55   2.0000      -0.590793       -16.0763
  56   2.0000      -0.585055       -15.9201
  57   2.0000      -0.576044       -15.6749
  58   2.0000      -0.564737       -15.3673
  59   2.0000      -0.553653       -15.0657
  60   2.0000      -0.503740       -13.7075
  61   2.0000      -0.499811       -13.6005
  62   2.0000      -0.472531       -12.8582
  63   2.0000      -0.471708       -12.8358
  64   2.0000      -0.452381       -12.3099
  65   2.0000      -0.441680       -12.0187
  66   2.0000      -0.438896       -11.9430
  67   2.0000      -0.433321       -11.7913
  68   2.0000      -0.428795       -11.6681
  69   2.0000      -0.416998       -11.3471
  70   2.0000      -0.410742       -11.1769
  71   2.0000      -0.398206       -10.8357
  72   2.0000      -0.388380       -10.5684
  73   2.0000      -0.383847       -10.4450
  74   2.0000      -0.376168       -10.2360
  75   2.0000      -0.361027        -9.8241
  76   2.0000      -0.355835        -9.6828
  77   2.0000      -0.354176        -9.6376
  78   2.0000      -0.351317        -9.5598
  79   2.0000      -0.344621        -9.3776
  80   2.0000      -0.344260        -9.3678
  81   2.0000      -0.342940        -9.3319
  82   2.0000      -0.339331        -9.2337
  83   2.0000      -0.333708        -9.0807
  84   2.0000      -0.323086        -8.7916
  85   2.0000      -0.316699        -8.6178
  86   2.0000      -0.307635        -8.3712
  87   2.0000      -0.299132        -8.1398
  88   2.0000      -0.294824        -8.0226
  89   2.0000      -0.293164        -7.9774
  90   2.0000      -0.278721        -7.5844
  91   2.0000      -0.275457        -7.4956
  92   2.0000      -0.263271        -7.1640
  93   2.0000      -0.259092        -7.0503
  94   2.0000      -0.255923        -6.9640
  95   2.0000      -0.236107        -6.4248
  96   2.0000      -0.221848        -6.0368
  97   2.0000      -0.210645        -5.7320
  98   2.0000      -0.198368        -5.3979
  99   2.0000      -0.189999        -5.1701
 100   2.0000      -0.180124        -4.9014
 101   0.0000      -0.041044        -1.1169
 102   0.0000      -0.029153        -0.7933
 103   0.0000      -0.012080        -0.3287
 104   0.0000       0.012650         0.3442
 105   0.0000       0.018105         0.4927

MULLIKEN ATOMIC CHARGES
-----------------------
   0 C :   -0.279589
   1 C :   -0.003462
   2 O :   -0.354665
   3 P :    0.615637
   4 S :   -0.325001
   5 O :   -0.385626
   6 C :   -0.006119
   7 C :   -0.281890
   8 S :   -0.098080
   9 C :   -0.349870
  10 S :   -0.127669
  11 P :    0.604472
  12 S :   -0.288664
  13 O :   -0.382257
  14 C :   -0.014388
  15 C :   -0.306732
  16 O :   -0.341468
  17 C :   -0.011781
  18 C :   -0.293195
  19 H :    0.104102
  20 H :    0.127839
  21 H :    0.103408
  22 H :    0.113181
  23 H :    0.095314
  24 H :    0.102792
  25 H :    0.096793
  26 H :    0.117455
  27 H :    0.110101
  28 H :    0.114397
  29 H :    0.211899
  30 H :    0.182989
  31 H :    0.109310
  32 H :    0.113928
  33 H :    0.127222
  34 H :    0.110905
  35 H :    0.127723
  36 H :    0.101027
  37 H :    0.108043
  38 H :    0.126606
  39 H :    0.120292
  40 H :    0.105024
Sum of atomic charges:    0.0000000

LOEWDIN ATOMIC CHARGES
----------------------
   0 C :   -0.352975
   1 C :   -0.116158
   2 O :   -0.233737
   3 P :    0.564949
   4 S :   -0.316901
   5 O :   -0.254114
   6 C :   -0.122802
   7 C :   -0.351072
   8 S :    0.085166
   9 C :   -0.477035
  10 S :    0.064925
  11 P :    0.562104
  12 S :   -0.283448
  13 O :   -0.245963
  14 C :   -0.115324
  15 C :   -0.368852
  16 O :   -0.225728
  17 C :   -0.110601
  18 C :   -0.366430
  19 H :    0.121257
  20 H :    0.127633
  21 H :    0.127151
  22 H :    0.110723
  23 H :    0.106641
  24 H :    0.105251
  25 H :    0.108694
  26 H :    0.127245
  27 H :    0.129873
  28 H :    0.125552
  29 H :    0.127545
  30 H :    0.137798
  31 H :    0.121252
  32 H :    0.107234
  33 H :    0.131030
  34 H :    0.129939
  35 H :    0.122293
  36 H :    0.108075
  37 H :    0.120972
  38 H :    0.126464
  39 H :    0.114375
  40 H :    0.126999

  Mayer bond orders larger than 0.100000
B(  0-C ,  1-C ) :   1.1659 B(  0-C , 19-H ) :   0.9501 B(  0-C , 20-H ) :   0.9407
B(  0-C , 21-H ) :   0.9410 B(  1-C ,  2-O ) :   0.8930 B(  1-C , 22-H ) :   0.9138
B(  1-C , 23-H ) :   0.9277 B(  2-O ,  3-P ) :   1.1507 B(  3-P ,  4-S ) :   1.6149
B(  3-P ,  5-O ) :   1.0921 B(  3-P ,  8-S ) :   0.9754 B(  4-S ,  8-S ) :   0.1167
B(  5-O ,  6-C ) :   0.9093 B(  6-C ,  7-C ) :   1.1612 B(  6-C , 24-H ) :   0.9024
B(  6-C , 25-H ) :   0.9308 B(  7-C , 26-H ) :   0.9511 B(  7-C , 27-H ) :   0.9424
B(  7-C , 28-H ) :   0.9510 B(  8-S ,  9-C ) :   0.9931 B(  9-C , 10-S ) :   1.0108
B(  9-C , 29-H ) :   0.8445 B(  9-C , 30-H ) :   0.9108 B( 10-S , 11-P ) :   0.9232
B( 10-S , 12-S ) :   0.1054 B( 11-P , 12-S ) :   1.6520 B( 11-P , 13-O ) :   1.0820
B( 11-P , 16-O ) :   1.1404 B( 13-O , 14-C ) :   0.9116 B( 14-C , 15-C ) :   1.1673
B( 14-C , 31-H ) :   0.9332 B( 14-C , 32-H ) :   0.9256 B( 15-C , 33-H ) :   0.9430
B( 15-C , 34-H ) :   0.9349 B( 15-C , 35-H ) :   0.9319 B( 16-O , 17-C ) :   0.8992
B( 17-C , 18-C ) :   1.1704 B( 17-C , 36-H ) :   0.9196 B( 17-C , 37-H ) :   0.9343
B( 18-C , 38-H ) :   0.9413 B( 18-C , 39-H ) :   0.9336 B( 18-C , 40-H ) :   0.9371

Dispersion correction           -0.067183350
FINAL SINGLE POINT ENERGY     -2929.517930977862

DIPOLE MOMENT
-------------

Method             : SCF
Type of density    : Electron Density
Multiplicity       :   1
Irrep              :   0
Energy             : -2929.6359764250919397 Eh
Relativity type    :
Basis              : AO
                                X                 Y                 Z
Electronic contribution:     -2.237178975       5.725500519       9.210331911
Nuclear contribution   :      1.286573068      -6.799904137      -9.494964452
                        -----------------------------------------
Total Dipole Moment    :     -0.950605907      -1.074403617      -0.284632541
                        -----------------------------------------
Magnitude (a.u.)       :      1.462535609
Magnitude (Debye)      :      3.717470085

Rotational constants in cm-1:             0.012824             0.005179             0.005152
Rotational constants in MHz :           384.442207           155.254029           154.455305

                             ****ORCA TERMINATED NORMALLY****
TOTAL RUN TIME: 0 days 0 hours 0 minutes 21 seconds 439 msec
