                         Program Version 6.0.0  -   RELEASE  -
|  1> ! pbe def2-sv(p) def2/J RI DEFGRID1 loosescf d4 GCP(DFT/SV(P)) printgap
|  2> %output
|  3>     printlevel normal
|  4> end
|  5> * xyz 0 1
|  6> C 3.7788185081 1.2613863169 -2.0552472687
|  7> C 2.6734680026 0.2271984727 -2.1449278578
|  8> O 2.7244400675 -0.6643902019 -1.0124450826
|  9> P 1.8273441106 -0.52123527 0.2880884256
| 10> S 1.5379231244 1.3157554357 0.9219083754
| 11> O 2.5578616198 -1.458963492 1.3337431159
| 12> C 3.5526196254 -0.9644507517 2.2530532268
| 13> C 4.8456486583 -0.6226183231 1.5436855056
| 14> S 0.2397491864 -1.8414627012 -0.1794011486
| 15> C -0.7243277676 -1.7650198554 1.352457092
| 16> S -1.454807798 -0.1325603769 1.7134810848
| 17> P -2.1352756785 0.4201998736 -0.2052757237
| 18> S -0.9574479732 1.019092558 -1.6656270819
| 19> O -3.2391873398 1.5163275816 0.1323855511
| 20> C -2.9429296055 2.9209590143 0.195439959
| 21> C -2.0469047318 3.2544872909 1.3707777411
| 22> O -3.016090997 -0.8567644128 -0.5078219716
| 23> C -3.5168888072 -1.1664960679 -1.8298140471
| 24> C -2.6741461861 -2.2496299366 -2.4727523298
| 25> H 4.7444099753 0.7713780155 -1.9643935123
| 26> H 3.7661853462 1.8715052258 -2.9525241888
| 27> H 3.6198182943 1.9038737879 -1.1914424318
| 28> H 2.8012768799 -0.4211244488 -3.0134790116
| 29> H 1.693101525 0.7089301823 -2.1943789337
| 30> H 3.1467899878 -0.0846458207 2.7631336018
| 31> H 3.6830059507 -1.7821294143 2.9631539768
| 32> H 5.6011217056 -0.3588190086 2.277119629
| 33> H 5.1874476268 -1.4720550353 0.9581866312
| 34> H 4.6870936749 0.2236074286 0.8771622309
| 35> H -0.0919057902 -2.0086238028 2.2036912088
| 36> H -1.5246316125 -2.4921954391 1.2353914133
| 37> H -2.4692467137 3.2189980495 -0.7460168043
| 38> H -3.9223556779 3.392337082 0.2858233656
| 39> H -2.4767383715 2.8748602942 2.2944479991
| 40> H -1.0632618149 2.8025033135 1.233320453
| 41> H -1.9263867496 4.3305806809 1.4417714858
| 42> H -4.5432747938 -1.4977074856 -1.6658106836
| 43> H -3.5152514349 -0.2579535156 -2.43819266
| 44> H -1.6567205729 -1.893660644 -2.6201108751
| 45> H -2.6439049897 -3.1307192114 -1.8385007031
| 46> H -3.1026290645 -2.5105073013 -3.4349160465
| 47> *
| 48>
| 49>                          ****END OF INPUT****

CARTESIAN COORDINATES (ANGSTROEM)
---------------------------------
  C      3.778819    1.261386   -2.055247
  C      2.673468    0.227198   -2.144928
  O      2.724440   -0.664390   -1.012445
  P      1.827344   -0.521235    0.288088
  S      1.537923    1.315755    0.921908
  O      2.557862   -1.458963    1.333743
  C      3.552620   -0.964451    2.253053
  C      4.845649   -0.622618    1.543686
  S      0.239749   -1.841463   -0.179401
  C     -0.724328   -1.765020    1.352457
  S     -1.454808   -0.132560    1.713481
  P     -2.135276    0.420200   -0.205276
  S     -0.957448    1.019093   -1.665627
  O     -3.239187    1.516328    0.132386
  C     -2.942930    2.920959    0.195440
  C     -2.046905    3.254487    1.370778
  O     -3.016091   -0.856764   -0.507822
  C     -3.516889   -1.166496   -1.829814
  C     -2.674146   -2.249630   -2.472752
  H      4.744410    0.771378   -1.964394
  H      3.766185    1.871505   -2.952524
  H      3.619818    1.903874   -1.191442
  H      2.801277   -0.421124   -3.013479
  H      1.693102    0.708930   -2.194379
  H      3.146790   -0.084646    2.763134
  H      3.683006   -1.782129    2.963154
  H      5.601122   -0.358819    2.277120
  H      5.187448   -1.472055    0.958187
  H      4.687094    0.223607    0.877162
  H     -0.091906   -2.008624    2.203691
  H     -1.524632   -2.492195    1.235391
  H     -2.469247    3.218998   -0.746017
  H     -3.922356    3.392337    0.285823
  H     -2.476738    2.874860    2.294448
  H     -1.063262    2.802503    1.233320
  H     -1.926387    4.330581    1.441771
  H     -4.543275   -1.497707   -1.665811
  H     -3.515251   -0.257954   -2.438193
  H     -1.656721   -1.893661   -2.620111
  H     -2.643905   -3.130719   -1.838501
  H     -3.102629   -2.510507   -3.434916

 Total Charge           Charge          ....    0
 Multiplicity           Mult            ....    1
 Number of Electrons    NEL             ....  202
 Basis Dimension        Dim             ....  334

ORBITAL ENERGIES
----------------

  NO   OCC          E(Eh)            E(eV)
   0   2.0000     -88.039356     -2395.6727
   1   2.0000     -88.035494     -2395.5676
   2   2.0000     -87.981516     -2394.0988
   3   2.0000     -87.978725     -2394.0228
   4   2.0000     -76.423379     -2079.5859
   5   2.0000     -76.422156     -2079.5526
   6   2.0000     -18.788819      -511.2697
   7   2.0000     -18.788065      -511.2492
   8   2.0000     -18.787936      -511.2457
   9   2.0000     -18.784860      -511.1620
  10   2.0000      -9.958495      -270.9844
  11   2.0000      -9.950063      -270.7550
  12   2.0000      -9.948779      -270.7200
  13   2.0000      -9.946416      -270.6557
  14   2.0000      -9.944275      -270.5975
  15   2.0000      -9.882434      -268.9147
  16   2.0000      -9.879787      -268.8427
  17   2.0000      -9.877619      -268.7837
  18   2.0000      -9.876100      -268.7423
  19   2.0000      -7.684346      -209.1017
  20   2.0000      -7.680871      -209.0071
  21   2.0000      -7.626093      -207.5165
  22   2.0000      -7.623376      -207.4426
  23   2.0000      -6.420616      -174.7138
  24   2.0000      -6.419379      -174.6802
  25   2.0000      -5.712381      -155.4418
  26   2.0000      -5.709086      -155.3521
  27   2.0000      -5.708947      -155.3483
  28   2.0000      -5.705479      -155.2540
  29   2.0000      -5.700974      -155.1314
  30   2.0000      -5.697305      -155.0316
  31   2.0000      -5.654981      -153.8799
  32   2.0000      -5.652320      -153.8075
  33   2.0000      -5.646631      -153.6526
  34   2.0000      -5.646411      -153.6467
  35   2.0000      -5.644097      -153.5837
  36   2.0000      -5.643442      -153.5659
  37   2.0000      -4.643161      -126.3468
  38   2.0000      -4.642418      -126.3266
  39   2.0000      -4.642108      -126.3182
  40   2.0000      -4.641196      -126.2934
  41   2.0000      -4.641110      -126.2910
  42   2.0000      -4.639717      -126.2531
  43   2.0000      -0.982842       -26.7445
  44   2.0000      -0.981383       -26.7048
  45   2.0000      -0.942787       -25.6545
  46   2.0000      -0.940818       -25.6010
  47   2.0000      -0.761262       -20.7150
  48   2.0000      -0.717295       -19.5186
  49   2.0000      -0.704383       -19.1672
  50   2.0000      -0.683446       -18.5975
  51   2.0000      -0.680392       -18.5144
  52   2.0000      -0.665175       -18.1003
  53   2.0000      -0.650222       -17.6934
  54   2.0000      -0.635103       -17.2820
  55   2.0000      -0.596631       -16.2352
  56   2.0000      -0.586934       -15.9713
  57   2.0000      -0.569791       -15.5048
  58   2.0000      -0.565649       -15.3921
  59   2.0000      -0.560594       -15.2545
  60   2.0000      -0.498899       -13.5757
  61   2.0000      -0.493795       -13.4369
  62   2.0000      -0.473450       -12.8832
  63   2.0000      -0.464409       -12.6372
  64   2.0000      -0.454262       -12.3611
  65   2.0000      -0.437854       -11.9146
  66   2.0000      -0.434671       -11.8280
  67   2.0000      -0.430635       -11.7182
  68   2.0000      -0.422690       -11.5020
  69   2.0000      -0.412185       -11.2161
  70   2.0000      -0.402825       -10.9614
  71   2.0000      -0.395540       -10.7632
  72   2.0000      -0.392373       -10.6770
  73   2.0000      -0.384274       -10.4566
  74   2.0000      -0.376020       -10.2320
  75   2.0000      -0.373102       -10.1526
  76   2.0000      -0.367679       -10.0051
  77   2.0000      -0.354594        -9.6490
  78   2.0000      -0.351633        -9.5684
  79   2.0000      -0.347833        -9.4650
  80   2.0000      -0.344520        -9.3749
  81   2.0000      -0.340054        -9.2533
  82   2.0000      -0.338324        -9.2063
  83   2.0000      -0.333774        -9.0825
  84   2.0000      -0.328165        -8.9298
  85   2.0000      -0.318832        -8.6759
  86   2.0000      -0.300373        -8.1736
  87   2.0000      -0.293143        -7.9768
  88   2.0000      -0.291023        -7.9191
  89   2.0000      -0.280898        -7.6436
  90   2.0000      -0.280159        -7.6235
  91   2.0000      -0.273690        -7.4475
  92   2.0000      -0.268270        -7.3000
  93   2.0000      -0.259055        -7.0492
  94   2.0000      -0.256054        -6.9676
  95   2.0000      -0.246366        -6.7040
  96   2.0000      -0.220193        -5.9918
  97   2.0000      -0.210498        -5.7279
  98   2.0000      -0.186382        -5.0717
  99   2.0000      -0.184362        -5.0168
 100   2.0000      -0.181572        -4.9408
 101   0.0000      -0.049962        -1.3595
 102   0.0000      -0.029716        -0.8086
 103   0.0000      -0.009777        -0.2660
 104   0.0000       0.003341         0.0909
 105   0.0000       0.023512         0.6398

MULLIKEN ATOMIC CHARGES
-----------------------
   0 C :   -0.299095
   1 C :   -0.021964
   2 O :   -0.378714
   3 P :    0.624011
   4 S :   -0.307832
   5 O :   -0.372119
   6 C :   -0.005379
   7 C :   -0.314041
   8 S :   -0.093654
   9 C :   -0.322080
  10 S :   -0.090502
  11 P :    0.619696
  12 S :   -0.332239
  13 O :   -0.370377
  14 C :    0.000217
  15 C :   -0.342356
  16 O :   -0.375217
  17 C :    0.000365
  18 C :   -0.295153
  19 H :    0.112329
  20 H :    0.108781
  21 H :    0.128871
  22 H :    0.102960
  23 H :    0.134406
  24 H :    0.109370
  25 H :    0.101746
  26 H :    0.110792
  27 H :    0.117444
  28 H :    0.129668
  29 H :    0.179716
  30 H :    0.188135
  31 H :    0.109317
  32 H :    0.101554
  33 H :    0.117576
  34 H :    0.154180
  35 H :    0.111839
  36 H :    0.105618
  37 H :    0.104392
  38 H :    0.132847
  39 H :    0.107369
  40 H :    0.107523
Sum of atomic charges:    0.0000000

LOEWDIN ATOMIC CHARGES
----------------------
   0 C :   -0.362153
   1 C :   -0.116719
   2 O :   -0.245592
   3 P :    0.568184
   4 S :   -0.304116
   5 O :   -0.244744
   6 C :   -0.120783
   7 C :   -0.364456
   8 S :    0.096992
   9 C :   -0.469050
  10 S :    0.089014
  11 P :    0.570767
  12 S :   -0.318265
  13 O :   -0.246670
  14 C :   -0.121608
  15 C :   -0.373697
  16 O :   -0.246466
  17 C :   -0.113448
  18 C :   -0.362052
  19 H :    0.122513
  20 H :    0.129487
  21 H :    0.124223
  22 H :    0.117297
  23 H :    0.109789
  24 H :    0.108642
  25 H :    0.116684
  26 H :    0.129892
  27 H :    0.126732
  28 H :    0.124562
  29 H :    0.133007
  30 H :    0.134974
  31 H :    0.108539
  32 H :    0.116932
  33 H :    0.123520
  34 H :    0.124372
  35 H :    0.131195
  36 H :    0.117990
  37 H :    0.109864
  38 H :    0.124675
  39 H :    0.121378
  40 H :    0.128593

  Mayer bond orders larger than 0.100000
B(  0-C ,  1-C ) :   1.1707 B(  0-C , 19-H ) :   0.9443 B(  0-C , 20-H ) :   0.9391
B(  0-C , 21-H ) :   0.9328 B(  1-C ,  2-O ) :   0.8927 B(  1-C , 22-H ) :   0.9353
B(  1-C , 23-H ) :   0.9040 B(  2-O ,  3-P ) :   1.1201 B(  3-P ,  4-S ) :   1.6253
B(  3-P ,  5-O ) :   1.1110 B(  3-P ,  8-S ) :   0.9423 B(  4-S ,  8-S ) :   0.1192
B(  5-O ,  6-C ) :   0.9088 B(  6-C ,  7-C ) :   1.1652 B(  6-C , 24-H ) :   0.9113
B(  6-C , 25-H ) :   0.9342 B(  7-C , 26-H ) :   0.9386 B(  7-C , 27-H ) :   0.9464
B(  7-C , 28-H ) :   0.9341 B(  8-S ,  9-C ) :   1.0132 B(  9-C , 10-S ) :   0.9865
B(  9-C , 29-H ) :   0.9060 B(  9-C , 30-H ) :   0.9071 B( 10-S , 11-P ) :   0.9751
B( 10-S , 12-S ) :   0.1172 B( 11-P , 12-S ) :   1.5766 B( 11-P , 13-O ) :   1.1131
B( 11-P , 16-O ) :   1.1194 B( 13-O , 14-C ) :   0.9100 B( 14-C , 15-C ) :   1.1634
B( 14-C , 31-H ) :   0.9117 B( 14-C , 32-H ) :   0.9327 B( 15-C , 33-H ) :   0.9438
B( 15-C , 34-H ) :   0.9251 B( 15-C , 35-H ) :   0.9379 B( 16-O , 17-C ) :   0.8888
B( 17-C , 18-C ) :   1.1717 B( 17-C , 36-H ) :   0.9337 B( 17-C , 37-H ) :   0.9113
B( 18-C , 38-H ) :   0.9356 B( 18-C , 39-H ) :   0.9477 B( 18-C , 40-H ) :   0.9398

Dispersion correction           -0.068482102
FINAL SINGLE POINT ENERGY     -2929.513535707315

DIPOLE MOMENT
-------------

Method             : SCF
Type of density    : Electron Density
Multiplicity       :   1
Irrep              :   0
Energy             : -2929.6284952086457452 Eh
Relativity type    :
Basis              : AO
                                X                 Y                 Z
Electronic contribution:     -9.606943254      -4.450445490       5.278344664
Nuclear contribution   :      9.655133758       3.987621537      -5.282540569
                        -----------------------------------------
Total Dipole Moment    :      0.048190504      -0.462823953      -0.004195905
                        -----------------------------------------
Magnitude (a.u.)       :      0.465344970
Magnitude (Debye)      :      1.182812915

Rotational constants in cm-1:             0.011711             0.005608             0.005349
Rotational constants in MHz :           351.074133           168.129832           160.370990

                             ****ORCA TERMINATED NORMALLY****
TOTAL RUN TIME: 0 days 0 hours 0 minutes 21 seconds 348 msec
