                         Program Version 6.0.0  -   RELEASE  -
|  1> ! pbe def2-sv(p) def2/J RI DEFGRID1 loosescf d4 GCP(DFT/SV(P)) printgap
|  2> %output
|  3>     printlevel normal
|  4> end
|  5> * xyz 0 1
|  6> C 2.7695238775 1.6077304124 -2.9137060543
|  7> C 2.8777555112 1.4943599683 -1.4080197684
|  8> O 2.5450033296 0.1389032826 -1.0389474836
|  9> P 2.1535062409 -0.2787365828 0.4363706196
| 10> S 0.9831611361 1.0151970929 1.3509291439
| 11> O 3.5870547604 -0.4459889492 1.1026489878
| 12> C 3.8966568225 -1.238181194 2.266185635
| 13> C 2.905697857 -1.0538812606 3.3959059206
| 14> S 1.5440368316 -2.2654451717 0.1176720323
| 15> C -0.0540701061 -2.0120117237 -0.7003355449
| 16> S -1.3760313646 -1.4878587898 0.4404096087
| 17> P -1.9052034725 0.3458408591 -0.4784862437
| 18> S -0.7241353967 1.0980154361 -1.8356437004
| 19> O -2.2276702933 1.1945407417 0.829915766
| 20> C -2.0932652138 2.6258116183 0.8776281001
| 21> C -3.1734316581 3.3127286503 0.0670740626
| 22> O -3.3167237271 0.0591422484 -1.1597274019
| 23> C -4.4310387249 -0.5022449589 -0.4267289598
| 24> C -4.7116796519 -1.9138852649 -0.9027578499
| 25> H 1.7402968762 1.4417558667 -3.2232985327
| 26> H 3.076706084 2.6028545474 -3.2174674238
| 27> H 3.4081287986 0.8681657707 -3.3873600268
| 28> H 2.1812289919 2.1741235059 -0.9056766911
| 29> H 3.8930742138 1.6957144059 -1.0584475748
| 30> H 3.9358182216 -2.284869419 1.9527555913
| 31> H 4.8940627571 -0.8980194198 2.5507899372
| 32> H 1.9194321988 -1.4039752976 3.0913769662
| 33> H 3.2326461772 -1.6269800912 4.2575642892
| 34> H 2.8289695635 -0.003714224 3.6688024777
| 35> H -0.3229110569 -2.9831532866 -1.1070425576
| 36> H 0.0539237514 -1.262924921 -1.4889253862
| 37> H -2.162233135 2.860581501 1.940661403
| 38> H -1.0959415879 2.8940829596 0.5152973149
| 39> H -4.1571719606 3.0302126922 0.4330590525
| 40> H -3.0533779025 4.3884071532 0.1478139154
| 41> H -3.087882274 3.0236864275 -0.9806567162
| 42> H -4.2051942901 -0.4795362244 0.6433743017
| 43> H -5.2728563128 0.1597585025 -0.6381924615
| 44> H -3.8858737249 -2.5729323571 -0.6473199445
| 45> H -5.6158118842 -2.2756203561 -0.4236127652
| 46> H -4.8487338195 -1.9190725384 -1.9804465028
| 47> *
| 48>
| 49>                          ****END OF INPUT****

CARTESIAN COORDINATES (ANGSTROEM)
---------------------------------
  C      2.769524    1.607730   -2.913706
  C      2.877756    1.494360   -1.408020
  O      2.545003    0.138903   -1.038947
  P      2.153506   -0.278737    0.436371
  S      0.983161    1.015197    1.350929
  O      3.587055   -0.445989    1.102649
  C      3.896657   -1.238181    2.266186
  C      2.905698   -1.053881    3.395906
  S      1.544037   -2.265445    0.117672
  C     -0.054070   -2.012012   -0.700336
  S     -1.376031   -1.487859    0.440410
  P     -1.905203    0.345841   -0.478486
  S     -0.724135    1.098015   -1.835644
  O     -2.227670    1.194541    0.829916
  C     -2.093265    2.625812    0.877628
  C     -3.173432    3.312729    0.067074
  O     -3.316724    0.059142   -1.159727
  C     -4.431039   -0.502245   -0.426729
  C     -4.711680   -1.913885   -0.902758
  H      1.740297    1.441756   -3.223299
  H      3.076706    2.602855   -3.217467
  H      3.408129    0.868166   -3.387360
  H      2.181229    2.174124   -0.905677
  H      3.893074    1.695714   -1.058448
  H      3.935818   -2.284869    1.952756
  H      4.894063   -0.898019    2.550790
  H      1.919432   -1.403975    3.091377
  H      3.232646   -1.626980    4.257564
  H      2.828970   -0.003714    3.668802
  H     -0.322911   -2.983153   -1.107043
  H      0.053924   -1.262925   -1.488925
  H     -2.162233    2.860582    1.940661
  H     -1.095942    2.894083    0.515297
  H     -4.157172    3.030213    0.433059
  H     -3.053378    4.388407    0.147814
  H     -3.087882    3.023686   -0.980657
  H     -4.205194   -0.479536    0.643374
  H     -5.272856    0.159759   -0.638192
  H     -3.885874   -2.572932   -0.647320
  H     -5.615812   -2.275620   -0.423613
  H     -4.848734   -1.919073   -1.980447

 Total Charge           Charge          ....    0
 Multiplicity           Mult            ....    1
 Number of Electrons    NEL             ....  202
 Basis Dimension        Dim             ....  334

ORBITAL ENERGIES
----------------

  NO   OCC          E(Eh)            E(eV)
   0   2.0000     -88.043560     -2395.7871
   1   2.0000     -88.038882     -2395.6598
   2   2.0000     -87.984795     -2394.1880
   3   2.0000     -87.975031     -2393.9223
   4   2.0000     -76.422408     -2079.5594
   5   2.0000     -76.420186     -2079.4990
   6   2.0000     -18.788314      -511.2560
   7   2.0000     -18.784672      -511.1569
   8   2.0000     -18.782922      -511.1093
   9   2.0000     -18.778352      -510.9849
  10   2.0000      -9.957397      -270.9545
  11   2.0000      -9.954991      -270.8891
  12   2.0000      -9.953626      -270.8519
  13   2.0000      -9.947352      -270.6812
  14   2.0000      -9.939721      -270.4736
  15   2.0000      -9.883844      -268.9531
  16   2.0000      -9.881819      -268.8980
  17   2.0000      -9.879464      -268.8339
  18   2.0000      -9.874880      -268.7091
  19   2.0000      -7.689186      -209.2334
  20   2.0000      -7.684105      -209.0951
  21   2.0000      -7.629914      -207.6205
  22   2.0000      -7.619743      -207.3437
  23   2.0000      -6.420153      -174.7012
  24   2.0000      -6.417517      -174.6295
  25   2.0000      -5.717013      -155.5678
  26   2.0000      -5.713565      -155.4740
  27   2.0000      -5.711976      -155.4308
  28   2.0000      -5.708904      -155.3472
  29   2.0000      -5.706235      -155.2746
  30   2.0000      -5.700713      -155.1243
  31   2.0000      -5.658906      -153.9867
  32   2.0000      -5.651055      -153.7730
  33   2.0000      -5.649346      -153.7265
  34   2.0000      -5.648636      -153.7072
  35   2.0000      -5.640501      -153.4858
  36   2.0000      -5.639823      -153.4674
  37   2.0000      -4.642859      -126.3386
  38   2.0000      -4.641528      -126.3024
  39   2.0000      -4.640897      -126.2852
  40   2.0000      -4.640180      -126.2657
  41   2.0000      -4.639567      -126.2490
  42   2.0000      -4.637664      -126.1973
  43   2.0000      -0.980190       -26.6723
  44   2.0000      -0.977774       -26.6066
  45   2.0000      -0.938339       -25.5335
  46   2.0000      -0.935768       -25.4635
  47   2.0000      -0.761341       -20.7171
  48   2.0000      -0.718636       -19.5551
  49   2.0000      -0.705806       -19.2060
  50   2.0000      -0.688391       -18.7321
  51   2.0000      -0.682392       -18.5688
  52   2.0000      -0.670536       -18.2462
  53   2.0000      -0.648771       -17.6539
  54   2.0000      -0.633325       -17.2336
  55   2.0000      -0.594284       -16.1713
  56   2.0000      -0.582527       -15.8514
  57   2.0000      -0.571464       -15.5503
  58   2.0000      -0.568763       -15.4768
  59   2.0000      -0.555184       -15.1073
  60   2.0000      -0.499722       -13.5981
  61   2.0000      -0.495051       -13.4710
  62   2.0000      -0.474167       -12.9027
  63   2.0000      -0.464282       -12.6338
  64   2.0000      -0.452361       -12.3094
  65   2.0000      -0.447222       -12.1695
  66   2.0000      -0.435574       -11.8526
  67   2.0000      -0.428080       -11.6487
  68   2.0000      -0.424696       -11.5566
  69   2.0000      -0.415068       -11.2946
  70   2.0000      -0.407212       -11.0808
  71   2.0000      -0.396754       -10.7962
  72   2.0000      -0.393891       -10.7183
  73   2.0000      -0.382252       -10.4016
  74   2.0000      -0.373939       -10.1754
  75   2.0000      -0.368575       -10.0294
  76   2.0000      -0.360274        -9.8036
  77   2.0000      -0.354559        -9.6480
  78   2.0000      -0.346265        -9.4223
  79   2.0000      -0.344875        -9.3845
  80   2.0000      -0.343810        -9.3556
  81   2.0000      -0.341377        -9.2893
  82   2.0000      -0.336556        -9.1582
  83   2.0000      -0.333786        -9.0828
  84   2.0000      -0.326109        -8.8739
  85   2.0000      -0.312533        -8.5045
  86   2.0000      -0.309994        -8.4354
  87   2.0000      -0.304468        -8.2850
  88   2.0000      -0.294439        -8.0121
  89   2.0000      -0.285834        -7.7779
  90   2.0000      -0.278854        -7.5880
  91   2.0000      -0.267444        -7.2775
  92   2.0000      -0.263563        -7.1719
  93   2.0000      -0.259437        -7.0596
  94   2.0000      -0.255817        -6.9611
  95   2.0000      -0.236990        -6.4488
  96   2.0000      -0.217190        -5.9100
  97   2.0000      -0.207397        -5.6436
  98   2.0000      -0.205194        -5.5836
  99   2.0000      -0.188198        -5.1211
 100   2.0000      -0.177139        -4.8202
 101   0.0000      -0.042450        -1.1551
 102   0.0000      -0.030947        -0.8421
 103   0.0000      -0.013075        -0.3558
 104   0.0000       0.001001         0.0272
 105   0.0000       0.025736         0.7003

MULLIKEN ATOMIC CHARGES
-----------------------
   0 C :   -0.290090
   1 C :   -0.000305
   2 O :   -0.369240
   3 P :    0.618646
   4 S :   -0.329175
   5 O :   -0.381306
   6 C :   -0.006129
   7 C :   -0.317180
   8 S :   -0.101088
   9 C :   -0.347136
  10 S :   -0.080884
  11 P :    0.625574
  12 S :   -0.310006
  13 O :   -0.384482
  14 C :   -0.007673
  15 C :   -0.309566
  16 O :   -0.366485
  17 C :   -0.027751
  18 C :   -0.279336
  19 H :    0.132337
  20 H :    0.105301
  21 H :    0.111132
  22 H :    0.110521
  23 H :    0.097536
  24 H :    0.111079
  25 H :    0.108298
  26 H :    0.129308
  27 H :    0.109263
  28 H :    0.128954
  29 H :    0.182629
  30 H :    0.200679
  31 H :    0.105895
  32 H :    0.123139
  33 H :    0.109167
  34 H :    0.111993
  35 H :    0.131098
  36 H :    0.107688
  37 H :    0.108382
  38 H :    0.114846
  39 H :    0.106598
  40 H :    0.117767
Sum of atomic charges:   -0.0000000

LOEWDIN ATOMIC CHARGES
----------------------
   0 C :   -0.353393
   1 C :   -0.117015
   2 O :   -0.243948
   3 P :    0.567633
   4 S :   -0.312288
   5 O :   -0.251065
   6 C :   -0.111477
   7 C :   -0.373187
   8 S :    0.081363
   9 C :   -0.474321
  10 S :    0.083910
  11 P :    0.577865
  12 S :   -0.288156
  13 O :   -0.246545
  14 C :   -0.117312
  15 C :   -0.365864
  16 O :   -0.252175
  17 C :   -0.120515
  18 C :   -0.360070
  19 H :    0.123826
  20 H :    0.128246
  21 H :    0.124664
  22 H :    0.107325
  23 H :    0.109964
  24 H :    0.109760
  25 H :    0.121113
  26 H :    0.121735
  27 H :    0.128920
  28 H :    0.129438
  29 H :    0.137100
  30 H :    0.125595
  31 H :    0.119687
  32 H :    0.110825
  33 H :    0.121734
  34 H :    0.130901
  35 H :    0.125548
  36 H :    0.106798
  37 H :    0.118687
  38 H :    0.118356
  39 H :    0.128125
  40 H :    0.128214

  Mayer bond orders larger than 0.100000
B(  0-C ,  1-C ) :   1.1637 B(  0-C , 19-H ) :   0.9440 B(  0-C , 20-H ) :   0.9414
B(  0-C , 21-H ) :   0.9492 B(  1-C ,  2-O ) :   0.8960 B(  1-C , 22-H ) :   0.9070
B(  1-C , 23-H ) :   0.9316 B(  2-O ,  3-P ) :   1.1287 B(  3-P ,  4-S ) :   1.6320
B(  3-P ,  5-O ) :   1.1050 B(  3-P ,  8-S ) :   0.9576 B(  4-S ,  8-S ) :   0.1200
B(  5-O ,  6-C ) :   0.9165 B(  6-C ,  7-C ) :   1.1653 B(  6-C , 24-H ) :   0.9312
B(  6-C , 25-H ) :   0.9346 B(  7-C , 26-H ) :   0.9319 B(  7-C , 27-H ) :   0.9332
B(  7-C , 28-H ) :   0.9394 B(  8-S ,  9-C ) :   1.0012 B(  9-C , 10-S ) :   1.0089
B(  9-C , 29-H ) :   0.9118 B(  9-C , 30-H ) :   0.8527 B( 10-S , 11-P ) :   0.9442
B( 10-S , 12-S ) :   0.1078 B( 11-P , 12-S ) :   1.6068 B( 11-P , 13-O ) :   1.0970
B( 11-P , 16-O ) :   1.1033 B( 12-S , 30-H ) :   0.1020 B( 13-O , 14-C ) :   0.8996
B( 14-C , 15-C ) :   1.1604 B( 14-C , 31-H ) :   0.9356 B( 14-C , 32-H ) :   0.9129
B( 15-C , 33-H ) :   0.9464 B( 15-C , 34-H ) :   0.9397 B( 15-C , 35-H ) :   0.9347
B( 16-O , 17-C ) :   0.9031 B( 17-C , 18-C ) :   1.1629 B( 17-C , 36-H ) :   0.9163
B( 17-C , 37-H ) :   0.9333 B( 18-C , 38-H ) :   0.9381 B( 18-C , 39-H ) :   0.9403
B( 18-C , 40-H ) :   0.9463

Dispersion correction           -0.066825466
FINAL SINGLE POINT ENERGY     -2929.511731360793

DIPOLE MOMENT
-------------

Method             : SCF
Type of density    : Electron Density
Multiplicity       :   1
Irrep              :   0
Energy             : -2929.6291796482696554 Eh
Relativity type    :
Basis              : AO
                                X                 Y                 Z
Electronic contribution:      6.056094355      -7.236873140       0.250432894
Nuclear contribution   :     -6.364632838       6.970789009       0.165770022
                        -----------------------------------------
Total Dipole Moment    :     -0.308538483      -0.266084131       0.416202916
                        -----------------------------------------
Magnitude (a.u.)       :      0.582427358
Magnitude (Debye)      :      1.480412694

Rotational constants in cm-1:             0.011525             0.005439             0.004960
Rotational constants in MHz :           345.517949           163.060424           148.683580

                             ****ORCA TERMINATED NORMALLY****
TOTAL RUN TIME: 0 days 0 hours 0 minutes 20 seconds 238 msec
