                         Program Version 6.0.0  -   RELEASE  -
|  1> ! pbe def2-sv(p) def2/J RI DEFGRID1 loosescf d4 GCP(DFT/SV(P)) printgap
|  2> %output
|  3>     printlevel normal
|  4> end
|  5> * xyz 0 1
|  6> C 1.1127610934 -2.8856541687 0.8686769374
|  7> C 2.1190938801 -1.8748909663 1.3816375431
|  8> O 1.7270996961 -0.5347700036 1.0224284744
|  9> P 2.3632591898 0.2625828387 -0.208552507
| 10> S 3.0566553402 -0.8287735965 -1.6713202118
| 11> O 3.5299087646 1.1695844504 0.3687057566
| 12> C 3.3664957784 2.2428085171 1.3253173713
| 13> C 3.3594040085 1.7288983704 2.750842233
| 14> S 0.801815583 1.6371230591 -0.6001963649
| 15> C 0.0640991276 0.7335593329 -1.9825513692
| 16> S -0.6146895781 -0.8760735324 -1.5030463625
| 17> P -2.1285256735 -0.1454637281 -0.2323055982
| 18> S -3.0199770738 1.5162556096 -0.7832328302
| 19> O -1.4111403435 -0.1342561271 1.1732194537
| 20> C -1.8661535007 0.6741200705 2.2839022726
| 21> C -0.6598317775 1.2907168096 2.9610703538
| 22> O -3.1009337243 -1.3925302552 -0.0670209538
| 23> C -4.0773414832 -1.7389179674 -1.0697182252
| 24> C -5.1420852293 -2.5913715769 -0.4092727292
| 25> H 0.1092364474 -2.6024603731 1.1777981988
| 26> H 1.1430800169 -2.9281920687 -0.2180896314
| 27> H 1.3521950596 -3.8652753873 1.2695878718
| 28> H 3.1152616467 -2.0807044169 0.9787783233
| 29> H 2.1573453319 -1.8719905595 2.4727342409
| 30> H 4.2257162933 2.8894332989 1.1385504466
| 31> H 2.4446083485 2.783036635 1.091881606
| 32> H 4.2582138356 1.1484454833 2.9418305235
| 33> H 3.3286214093 2.5744947542 3.4306896902
| 34> H 2.4883557002 1.1032883174 2.9243680565
| 35> H 0.8226211785 0.5339137423 -2.7385576535
| 36> H -0.7332132456 1.3674908434 -2.3703954431
| 37> H -2.546129637 1.4448114659 1.9052980333
| 38> H -2.4100333112 0.0095272988 2.9583935204
| 39> H -0.1492517097 1.961699248 2.2745924414
| 40> H -0.9860718072 1.8488947126 3.8325330829
| 41> H 0.027750471 0.5079225162 3.2685305202
| 42> H -4.4997068526 -0.8148775354 -1.4789133673
| 43> H -3.5661645195 -2.2839009377 -1.8675880031
| 44> H -5.8743139108 -2.8859560054 -1.1537920011
| 45> H -4.689600279 -3.4792128818 0.0226621219
| 46> H -5.6367281148 -2.0288251097 0.3775027177
| 47> *
| 48>
| 49>                          ****END OF INPUT****

CARTESIAN COORDINATES (ANGSTROEM)
---------------------------------
  C      1.112761   -2.885654    0.868677
  C      2.119094   -1.874891    1.381638
  O      1.727100   -0.534770    1.022428
  P      2.363259    0.262583   -0.208553
  S      3.056655   -0.828774   -1.671320
  O      3.529909    1.169584    0.368706
  C      3.366496    2.242809    1.325317
  C      3.359404    1.728898    2.750842
  S      0.801816    1.637123   -0.600196
  C      0.064099    0.733559   -1.982551
  S     -0.614690   -0.876074   -1.503046
  P     -2.128526   -0.145464   -0.232306
  S     -3.019977    1.516256   -0.783233
  O     -1.411140   -0.134256    1.173219
  C     -1.866154    0.674120    2.283902
  C     -0.659832    1.290717    2.961070
  O     -3.100934   -1.392530   -0.067021
  C     -4.077341   -1.738918   -1.069718
  C     -5.142085   -2.591372   -0.409273
  H      0.109236   -2.602460    1.177798
  H      1.143080   -2.928192   -0.218090
  H      1.352195   -3.865275    1.269588
  H      3.115262   -2.080704    0.978778
  H      2.157345   -1.871991    2.472734
  H      4.225716    2.889433    1.138550
  H      2.444608    2.783037    1.091882
  H      4.258214    1.148445    2.941831
  H      3.328621    2.574495    3.430690
  H      2.488356    1.103288    2.924368
  H      0.822621    0.533914   -2.738558
  H     -0.733213    1.367491   -2.370395
  H     -2.546130    1.444811    1.905298
  H     -2.410033    0.009527    2.958394
  H     -0.149252    1.961699    2.274592
  H     -0.986072    1.848895    3.832533
  H      0.027750    0.507923    3.268531
  H     -4.499707   -0.814878   -1.478913
  H     -3.566165   -2.283901   -1.867588
  H     -5.874314   -2.885956   -1.153792
  H     -4.689600   -3.479213    0.022662
  H     -5.636728   -2.028825    0.377503

 Total Charge           Charge          ....    0
 Multiplicity           Mult            ....    1
 Number of Electrons    NEL             ....  202
 Basis Dimension        Dim             ....  334

ORBITAL ENERGIES
----------------

  NO   OCC          E(Eh)            E(eV)
   0   2.0000     -88.043406     -2395.7829
   1   2.0000     -88.043180     -2395.7767
   2   2.0000     -87.988104     -2394.2780
   3   2.0000     -87.984975     -2394.1929
   4   2.0000     -76.426210     -2079.6629
   5   2.0000     -76.425118     -2079.6332
   6   2.0000     -18.793264      -511.3907
   7   2.0000     -18.792870      -511.3800
   8   2.0000     -18.790973      -511.3284
   9   2.0000     -18.787015      -511.2207
  10   2.0000      -9.961863      -271.0761
  11   2.0000      -9.955665      -270.9074
  12   2.0000      -9.952835      -270.8304
  13   2.0000      -9.952740      -270.8278
  14   2.0000      -9.949593      -270.7422
  15   2.0000      -9.892746      -269.1953
  16   2.0000      -9.888929      -269.0914
  17   2.0000      -9.886439      -269.0237
  18   2.0000      -9.874345      -268.6946
  19   2.0000      -7.688476      -209.2141
  20   2.0000      -7.688199      -209.2065
  21   2.0000      -7.633087      -207.7069
  22   2.0000      -7.630314      -207.6314
  23   2.0000      -6.423997      -174.8058
  24   2.0000      -6.422952      -174.7774
  25   2.0000      -5.716265      -155.5475
  26   2.0000      -5.716084      -155.5426
  27   2.0000      -5.713176      -155.4634
  28   2.0000      -5.712703      -155.4506
  29   2.0000      -5.705290      -155.2488
  30   2.0000      -5.705123      -155.2443
  31   2.0000      -5.661796      -154.0653
  32   2.0000      -5.659400      -154.0001
  33   2.0000      -5.653728      -153.8458
  34   2.0000      -5.653440      -153.8379
  35   2.0000      -5.651182      -153.7765
  36   2.0000      -5.649993      -153.7441
  37   2.0000      -4.646418      -126.4355
  38   2.0000      -4.645829      -126.4194
  39   2.0000      -4.645769      -126.4178
  40   2.0000      -4.644502      -126.3833
  41   2.0000      -4.644432      -126.3814
  42   2.0000      -4.643416      -126.3538
  43   2.0000      -0.987176       -26.8624
  44   2.0000      -0.982154       -26.7258
  45   2.0000      -0.945605       -25.7312
  46   2.0000      -0.942553       -25.6482
  47   2.0000      -0.767262       -20.8783
  48   2.0000      -0.724637       -19.7184
  49   2.0000      -0.712709       -19.3938
  50   2.0000      -0.690786       -18.7972
  51   2.0000      -0.689022       -18.7493
  52   2.0000      -0.672242       -18.2926
  53   2.0000      -0.649086       -17.6625
  54   2.0000      -0.640096       -17.4179
  55   2.0000      -0.598634       -16.2897
  56   2.0000      -0.587168       -15.9776
  57   2.0000      -0.580167       -15.7871
  58   2.0000      -0.568508       -15.4699
  59   2.0000      -0.556895       -15.1539
  60   2.0000      -0.509865       -13.8741
  61   2.0000      -0.501692       -13.6517
  62   2.0000      -0.481953       -13.1146
  63   2.0000      -0.478464       -13.0197
  64   2.0000      -0.457753       -12.4561
  65   2.0000      -0.447163       -12.1679
  66   2.0000      -0.441330       -12.0092
  67   2.0000      -0.435255       -11.8439
  68   2.0000      -0.430778       -11.7221
  69   2.0000      -0.413938       -11.2638
  70   2.0000      -0.404917       -11.0184
  71   2.0000      -0.393468       -10.7068
  72   2.0000      -0.391955       -10.6656
  73   2.0000      -0.386750       -10.5240
  74   2.0000      -0.379441       -10.3251
  75   2.0000      -0.374121       -10.1803
  76   2.0000      -0.368834       -10.0365
  77   2.0000      -0.358385        -9.7522
  78   2.0000      -0.355689        -9.6788
  79   2.0000      -0.352108        -9.5813
  80   2.0000      -0.350451        -9.5362
  81   2.0000      -0.347860        -9.4657
  82   2.0000      -0.341815        -9.3012
  83   2.0000      -0.340700        -9.2709
  84   2.0000      -0.336962        -9.1692
  85   2.0000      -0.318592        -8.6693
  86   2.0000      -0.309968        -8.4347
  87   2.0000      -0.304112        -8.2753
  88   2.0000      -0.301300        -8.1988
  89   2.0000      -0.290009        -7.8915
  90   2.0000      -0.280505        -7.6329
  91   2.0000      -0.278587        -7.5807
  92   2.0000      -0.274493        -7.4693
  93   2.0000      -0.264455        -7.1962
  94   2.0000      -0.258707        -7.0398
  95   2.0000      -0.231521        -6.3000
  96   2.0000      -0.216367        -5.8876
  97   2.0000      -0.213931        -5.8214
  98   2.0000      -0.206403        -5.6165
  99   2.0000      -0.201988        -5.4964
 100   2.0000      -0.196482        -5.3465
 101   0.0000      -0.046691        -1.2705
 102   0.0000      -0.025421        -0.6917
 103   0.0000      -0.006042        -0.1644
 104   0.0000       0.004551         0.1238
 105   0.0000       0.007982         0.2172

MULLIKEN ATOMIC CHARGES
-----------------------
   0 C :   -0.293959
   1 C :   -0.011107
   2 O :   -0.378944
   3 P :    0.625260
   4 S :   -0.316788
   5 O :   -0.365883
   6 C :   -0.025562
   7 C :   -0.317495
   8 S :   -0.106651
   9 C :   -0.353577
  10 S :   -0.072187
  11 P :    0.621680
  12 S :   -0.341764
  13 O :   -0.357414
  14 C :   -0.005996
  15 C :   -0.303031
  16 O :   -0.381152
  17 C :   -0.010713
  18 C :   -0.280840
  19 H :    0.117662
  20 H :    0.130886
  21 H :    0.102130
  22 H :    0.105732
  23 H :    0.096308
  24 H :    0.116043
  25 H :    0.119257
  26 H :    0.119963
  27 H :    0.112692
  28 H :    0.139706
  29 H :    0.194700
  30 H :    0.193407
  31 H :    0.108902
  32 H :    0.102456
  33 H :    0.125122
  34 H :    0.106384
  35 H :    0.128480
  36 H :    0.106576
  37 H :    0.102743
  38 H :    0.112846
  39 H :    0.116698
  40 H :    0.117431
Sum of atomic charges:    0.0000000

LOEWDIN ATOMIC CHARGES
----------------------
   0 C :   -0.364791
   1 C :   -0.115293
   2 O :   -0.251015
   3 P :    0.570913
   4 S :   -0.311043
   5 O :   -0.246311
   6 C :   -0.113836
   7 C :   -0.363782
   8 S :    0.086327
   9 C :   -0.478471
  10 S :    0.103811
  11 P :    0.566181
  12 S :   -0.327810
  13 O :   -0.233581
  14 C :   -0.113658
  15 C :   -0.355873
  16 O :   -0.251829
  17 C :   -0.120464
  18 C :   -0.350564
  19 H :    0.122090
  20 H :    0.122298
  21 H :    0.125284
  22 H :    0.108779
  23 H :    0.111968
  24 H :    0.124549
  25 H :    0.104781
  26 H :    0.129014
  27 H :    0.131316
  28 H :    0.126932
  29 H :    0.132811
  30 H :    0.131169
  31 H :    0.107660
  32 H :    0.114131
  33 H :    0.121336
  34 H :    0.127901
  35 H :    0.124625
  36 H :    0.107995
  37 H :    0.110739
  38 H :    0.131193
  39 H :    0.126856
  40 H :    0.127661

  Mayer bond orders larger than 0.100000
B(  0-C ,  1-C ) :   1.1754 B(  0-C , 19-H ) :   0.9419 B(  0-C , 20-H ) :   0.9360
B(  0-C , 21-H ) :   0.9386 B(  1-C ,  2-O ) :   0.9006 B(  1-C , 22-H ) :   0.9139
B(  1-C , 23-H ) :   0.9320 B(  2-O ,  3-P ) :   1.0872 B(  3-P ,  4-S ) :   1.6260
B(  3-P ,  5-O ) :   1.1202 B(  3-P ,  8-S ) :   0.9518 B(  4-S ,  8-S ) :   0.1017
B(  5-O ,  6-C ) :   0.9094 B(  6-C ,  7-C ) :   1.1606 B(  6-C , 24-H ) :   0.9347
B(  6-C , 25-H ) :   0.9128 B(  7-C , 26-H ) :   0.9448 B(  7-C , 27-H ) :   0.9385
B(  7-C , 28-H ) :   0.9340 B(  8-S ,  9-C ) :   1.0110 B(  9-C , 10-S ) :   1.0059
B(  9-C , 29-H ) :   0.8845 B(  9-C , 30-H ) :   0.8811 B( 10-S , 11-P ) :   0.9699
B( 10-S , 12-S ) :   0.1067 B( 11-P , 12-S ) :   1.6017 B( 11-P , 13-O ) :   1.1313
B( 11-P , 16-O ) :   1.1079 B( 13-O , 14-C ) :   0.8986 B( 14-C , 15-C ) :   1.1665
B( 14-C , 31-H ) :   0.9025 B( 14-C , 32-H ) :   0.9336 B( 15-C , 33-H ) :   0.9427
B( 15-C , 34-H ) :   0.9376 B( 15-C , 35-H ) :   0.9398 B( 16-O , 17-C ) :   0.9061
B( 17-C , 18-C ) :   1.1610 B( 17-C , 36-H ) :   0.9087 B( 17-C , 37-H ) :   0.9297
B( 18-C , 38-H ) :   0.9420 B( 18-C , 39-H ) :   0.9508 B( 18-C , 40-H ) :   0.9512

Dispersion correction           -0.066313354
FINAL SINGLE POINT ENERGY     -2929.522687665251

DIPOLE MOMENT
-------------

Method             : SCF
Type of density    : Electron Density
Multiplicity       :   1
Irrep              :   0
Energy             : -2929.6413131506205900 Eh
Relativity type    :
Basis              : AO
                                X                 Y                 Z
Electronic contribution:      5.070787305       6.230052209     -19.896561889
Nuclear contribution   :     -5.476025504      -6.415927271      21.426265930
                        -----------------------------------------
Total Dipole Moment    :     -0.405238198      -0.185875062       1.529704041
                        -----------------------------------------
Magnitude (a.u.)       :      1.593349299
Magnitude (Debye)      :      4.049972061

Rotational constants in cm-1:             0.012205             0.005322             0.004976
Rotational constants in MHz :           365.904262           159.550442           149.177390

                             ****ORCA TERMINATED NORMALLY****
TOTAL RUN TIME: 0 days 0 hours 0 minutes 21 seconds 699 msec
