                         Program Version 6.0.0  -   RELEASE  -
|  1> ! r2scan-3c def2/J RI DEFGRID2 scfconv6 printgap
|  2> %output
|  3>     printlevel normal
|  4> end
|  5> * xyz 0 1
|  6> C -1.4411375434 -0.9880393556 8.4038e-05
|  7> S -0.0003382451 0.0885908902 -0.0001429434
|  8> O -0.0029186522 0.8777414285 1.225419169
|  9> O -0.0022724165 0.8773555457 -1.2259176506
| 10> C 1.4474639765 -0.9908913536 0.0007310618
| 11> H -2.3214418773 -0.3584023237 -0.0012973377
| 12> H -1.4001084438 -1.5895834808 -0.8974231216
| 13> H -1.4010320575 -1.5871625738 0.899296862
| 14> H 1.1043911559 -2.0157636186 -0.0313766621
| 15> H 2.0347786543 -0.751028269 -0.8753193552
| 16> H 2.0011860844 -0.7944501819 0.9088667098
| 17> *
| 18>
| 19>                          ****END OF INPUT****

CARTESIAN COORDINATES (ANGSTROEM)
---------------------------------
  C     -1.441138   -0.988039    0.000084
  S     -0.000338    0.088591   -0.000143
  O     -0.002919    0.877741    1.225419
  O     -0.002272    0.877356   -1.225918
  C      1.447464   -0.990891    0.000731
  H     -2.321442   -0.358402   -0.001297
  H     -1.400108   -1.589583   -0.897423
  H     -1.401032   -1.587163    0.899297
  H      1.104391   -2.015764   -0.031377
  H      2.034779   -0.751028   -0.875319
  H      2.001186   -0.794450    0.908867

 Total Charge           Charge          ....    0
 Multiplicity           Mult            ....    1
 Number of Electrons    NEL             ....   50
 Basis Dimension        Dim             ....  143

ORBITAL ENERGIES
----------------

  NO   OCC          E(Eh)            E(eV)
   0   2.0000     -88.758823     -2415.2504
   1   2.0000     -18.931617      -515.1555
   2   2.0000     -18.931531      -515.1532
   3   2.0000     -10.078040      -274.2374
   4   2.0000     -10.076562      -274.1972
   5   2.0000      -8.029385      -218.4907
   6   2.0000      -5.974195      -162.5661
   7   2.0000      -5.974090      -162.5632
   8   2.0000      -5.974040      -162.5619
   9   2.0000      -1.064348       -28.9624
  10   2.0000      -0.954382       -25.9700
  11   2.0000      -0.769178       -20.9304
  12   2.0000      -0.722406       -19.6577
  13   2.0000      -0.571024       -15.5383
  14   2.0000      -0.475038       -12.9264
  15   2.0000      -0.459136       -12.4937
  16   2.0000      -0.451215       -12.2782
  17   2.0000      -0.424386       -11.5481
  18   2.0000      -0.415043       -11.2939
  19   2.0000      -0.398852       -10.8533
  20   2.0000      -0.388824       -10.5804
  21   2.0000      -0.297984        -8.1086
  22   2.0000      -0.276727        -7.5301
  23   2.0000      -0.263954        -7.1826
  24   2.0000      -0.256888        -6.9903
  25   0.0000       0.013557         0.3689
  26   0.0000       0.044942         1.2229
  27   0.0000       0.055080         1.4988
  28   0.0000       0.066669         1.8142
  29   0.0000       0.072371         1.9693

MULLIKEN ATOMIC CHARGES
-----------------------
   0 C :   -0.472298
   1 S :    0.889217
   2 O :   -0.518131
   3 O :   -0.517787
   4 C :   -0.500685
   5 H :    0.197017
   6 H :    0.176366
   7 H :    0.176527
   8 H :    0.165967
   9 H :    0.201855
  10 H :    0.201952
Sum of atomic charges:    0.0000000

LOEWDIN ATOMIC CHARGES
----------------------
   0 C :   -0.377431
   1 S :    0.710694
   2 O :   -0.524080
   3 O :   -0.523917
   4 C :   -0.378684
   5 H :    0.191376
   6 H :    0.176008
   7 H :    0.176165
   8 H :    0.173829
   9 H :    0.188278
  10 H :    0.187764

  Mayer bond orders larger than 0.100000
B(  0-C ,  1-S ) :   0.8919 B(  0-C ,  5-H ) :   0.9280 B(  0-C ,  6-H ) :   0.9354
B(  0-C ,  7-H ) :   0.9353 B(  1-S ,  2-O ) :   1.6914 B(  1-S ,  3-O ) :   1.6921
B(  1-S ,  4-C ) :   0.8418 B(  4-C ,  8-H ) :   0.9363 B(  4-C ,  9-H ) :   0.9348
B(  4-C , 10-H ) :   0.9352

Dispersion correction           -0.002656221
FINAL SINGLE POINT ENERGY      -628.343341144620

DIPOLE MOMENT
-------------

Method             : SCF
Type of density    : Electron Density
Multiplicity       :   1
Irrep              :   0
Energy             :  -628.3562504809870006 Eh
Relativity type    :
Basis              : AO
                                X                 Y                 Z
Electronic contribution:     -0.009700764       4.718391211      -0.002266944
Nuclear contribution   :      0.016607328      -6.634149872       0.002573950
                        -----------------------------------------
Total Dipole Moment    :      0.006906563      -1.915758661       0.000307006
                        -----------------------------------------
Magnitude (a.u.)       :      1.915771135
Magnitude (Debye)      :      4.869503240

Rotational constants in cm-1:             0.152941             0.140193             0.131840
Rotational constants in MHz :          4585.046900          4202.874602          3952.451950

                             ****ORCA TERMINATED NORMALLY****
TOTAL RUN TIME: 0 days 0 hours 1 minutes 1 seconds 75 msec
