                         Program Version 6.0.0  -   RELEASE  -
|  1> ! r2scan-3c def2/J RI DEFGRID2 scfconv6 printgap
|  2> %output
|  3>     printlevel normal
|  4> end
|  5> %cpcm
|  6>     smd true
|  7>     smdsolvent "water"
|  8> end
|  9> * xyz 0 1
| 10> C -1.4411375434 -0.9880393556 8.4038e-05
| 11> S -0.0003382451 0.0885908902 -0.0001429434
| 12> O -0.0029186522 0.8777414285 1.225419169
| 13> O -0.0022724165 0.8773555457 -1.2259176506
| 14> C 1.4474639765 -0.9908913536 0.0007310618
| 15> H -2.3214418773 -0.3584023237 -0.0012973377
| 16> H -1.4001084438 -1.5895834808 -0.8974231216
| 17> H -1.4010320575 -1.5871625738 0.899296862
| 18> H 1.1043911559 -2.0157636186 -0.0313766621
| 19> H 2.0347786543 -0.751028269 -0.8753193552
| 20> H 2.0011860844 -0.7944501819 0.9088667098
| 21> *
| 22>
| 23>                          ****END OF INPUT****

CARTESIAN COORDINATES (ANGSTROEM)
---------------------------------
  C     -1.441138   -0.988039    0.000084
  S     -0.000338    0.088591   -0.000143
  O     -0.002919    0.877741    1.225419
  O     -0.002272    0.877356   -1.225918
  C      1.447464   -0.990891    0.000731
  H     -2.321442   -0.358402   -0.001297
  H     -1.400108   -1.589583   -0.897423
  H     -1.401032   -1.587163    0.899297
  H      1.104391   -2.015764   -0.031377
  H      2.034779   -0.751028   -0.875319
  H      2.001186   -0.794450    0.908867

 Total Charge           Charge          ....    0
 Multiplicity           Mult            ....    1
 Number of Electrons    NEL             ....   50
 Basis Dimension        Dim             ....  143

ORBITAL ENERGIES
----------------

  NO   OCC          E(Eh)            E(eV)
   0   2.0000     -88.763460     -2415.3766
   1   2.0000     -18.945664      -515.5377
   2   2.0000     -18.945585      -515.5356
   3   2.0000     -10.058441      -273.7041
   4   2.0000     -10.057139      -273.6687
   5   2.0000      -8.034527      -218.6306
   6   2.0000      -5.980145      -162.7280
   7   2.0000      -5.979066      -162.6987
   8   2.0000      -5.978398      -162.6805
   9   2.0000      -1.077443       -29.3187
  10   2.0000      -0.970387       -26.4056
  11   2.0000      -0.758424       -20.6378
  12   2.0000      -0.704404       -19.1678
  13   2.0000      -0.565453       -15.3868
  14   2.0000      -0.468365       -12.7449
  15   2.0000      -0.458797       -12.4845
  16   2.0000      -0.449713       -12.2373
  17   2.0000      -0.404594       -11.0096
  18   2.0000      -0.403998       -10.9933
  19   2.0000      -0.390968       -10.6388
  20   2.0000      -0.376829       -10.2540
  21   2.0000      -0.313872        -8.5409
  22   2.0000      -0.293090        -7.9754
  23   2.0000      -0.274949        -7.4818
  24   2.0000      -0.270335        -7.3562
  25   0.0000       0.025611         0.6969
  26   0.0000       0.048277         1.3137
  27   0.0000       0.058712         1.5976
  28   0.0000       0.071710         1.9513
  29   0.0000       0.095300         2.5933

MULLIKEN ATOMIC CHARGES
-----------------------
   0 C :   -0.473587
   1 S :    0.880616
   2 O :   -0.596113
   3 O :   -0.595906
   4 C :   -0.495779
   5 H :    0.215947
   6 H :    0.209873
   7 H :    0.209857
   8 H :    0.213021
   9 H :    0.215883
  10 H :    0.216188
Sum of atomic charges:    0.0000000

LOEWDIN ATOMIC CHARGES
----------------------
   0 C :   -0.358292
   1 S :    0.724069
   2 O :   -0.588224
   3 O :   -0.588035
   4 C :   -0.359209
   5 H :    0.197535
   6 H :    0.192548
   7 H :    0.192623
   8 H :    0.195364
   9 H :    0.195933
  10 H :    0.195688

  Mayer bond orders larger than 0.100000
B(  0-C ,  1-S ) :   0.9341 B(  0-C ,  5-H ) :   0.9112 B(  0-C ,  6-H ) :   0.9193
B(  0-C ,  7-H ) :   0.9192 B(  1-S ,  2-O ) :   1.6144 B(  1-S ,  3-O ) :   1.6148
B(  1-S ,  4-C ) :   0.8835 B(  4-C ,  8-H ) :   0.9180 B(  4-C ,  9-H ) :   0.9215
B(  4-C , 10-H ) :   0.9219

Dispersion correction           -0.002656221
FINAL SINGLE POINT ENERGY      -628.363866608835

DIPOLE MOMENT
-------------

Method             : SCF
Type of density    : Electron Density
Multiplicity       :   1
Irrep              :   0
Energy             :  -628.3767759452023256 Eh
Relativity type    :
Basis              : AO
                                X                 Y                 Z
Electronic contribution:     -0.011439448       3.933852282      -0.002526853
Nuclear contribution   :      0.016607328      -6.634149872       0.002573950
                        -----------------------------------------
Total Dipole Moment    :      0.005167880      -2.700297590       0.000047097
                        -----------------------------------------
Magnitude (a.u.)       :      2.700302536
Magnitude (Debye)      :      6.863623584

Rotational constants in cm-1:             0.152941             0.140193             0.131840
Rotational constants in MHz :          4585.046900          4202.874602          3952.451950

                             ****ORCA TERMINATED NORMALLY****
TOTAL RUN TIME: 0 days 0 hours 0 minutes 43 seconds 140 msec
