                         Program Version 6.0.1  -  RELEASE   -
|  1> ! r2scan-3c def2/J RI DEFGRID2 scfconv6 printgap
|  2> %output
|  3>     printlevel normal
|  4> end
|  5> * xyz 0 1
|  6> C 5.5358034144 -1.9041979671 -1.4612057649
|  7> C 4.6965653637 -0.80078986 -0.8375104558
|  8> O 3.4013267356 -1.2905093524 -0.4385538147
|  9> C 2.4581637741 -1.3772226557 -1.3573033216
| 10> O 2.5979486711 -1.0899755342 -2.5234569333
| 11> C 1.1525650457 -1.874982567 -0.7578748216
| 12> C 0.1589955868 -0.7080940099 -0.7446067875
| 13> H -0.0208333218 -0.3610427 -1.7660187205
| 14> C 0.7846953131 0.4272108351 0.0437719532
| 15> O 1.677879513 1.1010617276 -0.4168754561
| 16> O 0.314574839 0.522599392 1.2688035895
| 17> C 0.9237623404 1.4814783089 2.1566383694
| 18> C 2.0807976033 0.8407871647 2.9039818304
| 19> S -1.4126807803 -1.2675545084 -0.0151541866
| 20> P -2.3314183942 0.6289969758 0.2473668411
| 21> S -1.6211707429 2.0947876924 -0.8455874202
| 22> O -3.8745572027 0.2954586232 -0.0115157234
| 23> C -4.3579925406 -0.0415951268 -1.3166014029
| 24> O -2.3716800009 0.9658974794 1.7877298931
| 25> C -2.8998305063 0.0337326739 2.7566157108
| 26> H 5.0750422723 -2.2463815312 -2.3847882054
| 27> H 6.5245800255 -1.5169809718 -1.6833186846
| 28> H 5.6229750747 -2.7414201623 -0.7742580792
| 29> H 4.5483953103 0.0257829226 -1.5384543084
| 30> H 5.1437058484 -0.434401525 0.0867802908
| 31> H 1.3282632579 -2.2357445964 0.2551666141
| 32> H 0.7529485135 -2.6758582633 -1.3800786224
| 33> H 1.2576716064 2.335695293 1.5606912892
| 34> H 0.120029524 1.7848631941 2.8279914607
| 35> H 2.8456794983 0.5216859534 2.1989714174
| 36> H 2.509317498 1.5671234657 3.5862707468
| 37> H 1.7337190616 -0.0212985775 3.4663631183
| 38> H -5.4420513862 -0.0102800527 -1.2437435818
| 39> H -4.019245598 -1.0406678399 -1.5903423204
| 40> H -4.0045897683 0.6865391995 -2.0483720302
| 41> H -2.711330788 0.4919850819 3.7237931933
| 42> H -2.3822064923 -0.9215046521 2.6709527624
| 43> H -3.9668339645 -0.1021046047 2.593839112
| 44> *
| 45>
| 46>                          ****END OF INPUT****

CARTESIAN COORDINATES (ANGSTROEM)
---------------------------------
  C      5.535803   -1.904198   -1.461206
  C      4.696565   -0.800790   -0.837510
  O      3.401327   -1.290509   -0.438554
  C      2.458164   -1.377223   -1.357303
  O      2.597949   -1.089976   -2.523457
  C      1.152565   -1.874983   -0.757875
  C      0.158996   -0.708094   -0.744607
  H     -0.020833   -0.361043   -1.766019
  C      0.784695    0.427211    0.043772
  O      1.677880    1.101062   -0.416875
  O      0.314575    0.522599    1.268804
  C      0.923762    1.481478    2.156638
  C      2.080798    0.840787    2.903982
  S     -1.412681   -1.267555   -0.015154
  P     -2.331418    0.628997    0.247367
  S     -1.621171    2.094788   -0.845587
  O     -3.874557    0.295459   -0.011516
  C     -4.357993   -0.041595   -1.316601
  O     -2.371680    0.965897    1.787730
  C     -2.899831    0.033733    2.756616
  H      5.075042   -2.246382   -2.384788
  H      6.524580   -1.516981   -1.683319
  H      5.622975   -2.741420   -0.774258
  H      4.548395    0.025783   -1.538454
  H      5.143706   -0.434402    0.086780
  H      1.328263   -2.235745    0.255167
  H      0.752949   -2.675858   -1.380079
  H      1.257672    2.335695    1.560691
  H      0.120030    1.784863    2.827991
  H      2.845679    0.521686    2.198971
  H      2.509317    1.567123    3.586271
  H      1.733719   -0.021299    3.466363
  H     -5.442051   -0.010280   -1.243744
  H     -4.019246   -1.040668   -1.590342
  H     -4.004590    0.686539   -2.048372
  H     -2.711331    0.491985    3.723793
  H     -2.382206   -0.921505    2.670953
  H     -3.966834   -0.102105    2.593839

 Total Charge           Charge          ....    0
 Multiplicity           Mult            ....    1
 Number of Electrons    NEL             ....  174
 Basis Dimension        Dim             ....  510

ORBITAL ENERGIES
----------------

  NO   OCC          E(Eh)            E(eV)
   0   2.0000     -88.577669     -2410.3209
   1   2.0000     -88.519813     -2408.7466
   2   2.0000     -76.916461     -2093.0033
   3   2.0000     -19.003638      -517.1153
   4   2.0000     -18.999148      -516.9931
   5   2.0000     -18.998473      -516.9747
   6   2.0000     -18.994681      -516.8716
   7   2.0000     -18.933938      -515.2187
   8   2.0000     -18.929235      -515.0907
   9   2.0000     -10.162666      -276.5402
  10   2.0000     -10.157955      -276.4120
  11   2.0000     -10.102648      -274.9070
  12   2.0000     -10.097923      -274.7784
  13   2.0000     -10.094000      -274.6717
  14   2.0000     -10.092774      -274.6383
  15   2.0000     -10.089945      -274.5614
  16   2.0000     -10.064945      -273.8811
  17   2.0000     -10.032375      -272.9948
  18   2.0000     -10.027184      -272.8535
  19   2.0000      -7.872120      -214.2113
  20   2.0000      -7.814286      -212.6375
  21   2.0000      -6.594778      -179.4530
  22   2.0000      -5.818920      -158.3409
  23   2.0000      -5.815941      -158.2598
  24   2.0000      -5.809325      -158.0798
  25   2.0000      -5.762204      -156.7976
  26   2.0000      -5.754401      -156.5852
  27   2.0000      -5.754247      -156.5810
  28   2.0000      -4.740494      -128.9954
  29   2.0000      -4.739874      -128.9785
  30   2.0000      -4.738194      -128.9328
  31   2.0000      -1.082978       -29.4693
  32   2.0000      -1.074478       -29.2380
  33   2.0000      -1.054855       -28.7041
  34   2.0000      -1.012655       -27.5558
  35   2.0000      -0.985344       -26.8126
  36   2.0000      -0.979260       -26.6470
  37   2.0000      -0.814624       -22.1671
  38   2.0000      -0.754488       -20.5307
  39   2.0000      -0.742884       -20.2149
  40   2.0000      -0.734112       -19.9762
  41   2.0000      -0.699986       -19.0476
  42   2.0000      -0.680092       -18.5063
  43   2.0000      -0.659462       -17.9449
  44   2.0000      -0.650495       -17.7009
  45   2.0000      -0.630113       -17.1462
  46   2.0000      -0.600514       -16.3408
  47   2.0000      -0.545386       -14.8407
  48   2.0000      -0.528615       -14.3844
  49   2.0000      -0.524928       -14.2840
  50   2.0000      -0.499327       -13.5874
  51   2.0000      -0.495605       -13.4861
  52   2.0000      -0.483822       -13.1655
  53   2.0000      -0.469179       -12.7670
  54   2.0000      -0.458567       -12.4783
  55   2.0000      -0.455078       -12.3833
  56   2.0000      -0.445634       -12.1263
  57   2.0000      -0.443358       -12.0644
  58   2.0000      -0.436959       -11.8903
  59   2.0000      -0.426448       -11.6042
  60   2.0000      -0.422969       -11.5096
  61   2.0000      -0.419685       -11.4202
  62   2.0000      -0.414640       -11.2829
  63   2.0000      -0.402632       -10.9562
  64   2.0000      -0.396031       -10.7765
  65   2.0000      -0.383834       -10.4447
  66   2.0000      -0.374389       -10.1876
  67   2.0000      -0.368643       -10.0313
  68   2.0000      -0.361877        -9.8472
  69   2.0000      -0.351128        -9.5547
  70   2.0000      -0.347993        -9.4694
  71   2.0000      -0.345834        -9.4106
  72   2.0000      -0.338747        -9.2178
  73   2.0000      -0.334360        -9.0984
  74   2.0000      -0.326339        -8.8801
  75   2.0000      -0.320456        -8.7201
  76   2.0000      -0.312989        -8.5169
  77   2.0000      -0.307643        -8.3714
  78   2.0000      -0.292884        -7.9698
  79   2.0000      -0.281574        -7.6620
  80   2.0000      -0.277195        -7.5429
  81   2.0000      -0.271059        -7.3759
  82   2.0000      -0.253778        -6.9057
  83   2.0000      -0.239302        -6.5117
  84   2.0000      -0.229804        -6.2533
  85   2.0000      -0.217538        -5.9195
  86   2.0000      -0.216419        -5.8891
  87   0.0000      -0.044566        -1.2127
  88   0.0000      -0.028311        -0.7704
  89   0.0000      -0.019726        -0.5368
  90   0.0000       0.007784         0.2118
  91   0.0000       0.016539         0.4500

MULLIKEN ATOMIC CHARGES
-----------------------
   0 C :   -0.476306
   1 C :   -0.137019
   2 O :   -0.159056
   3 C :    0.312232
   4 O :   -0.390182
   5 C :   -0.357192
   6 C :   -0.054648
   7 H :    0.253817
   8 C :    0.282375
   9 O :   -0.374117
  10 O :   -0.137832
  11 C :   -0.154415
  12 C :   -0.468263
  13 S :   -0.210470
  14 P :    0.762134
  15 S :   -0.408940
  16 O :   -0.357656
  17 C :   -0.295343
  18 O :   -0.309101
  19 C :   -0.289593
  20 H :    0.178709
  21 H :    0.148327
  22 H :    0.149533
  23 H :    0.179743
  24 H :    0.147239
  25 H :    0.188886
  26 H :    0.178985
  27 H :    0.182534
  28 H :    0.160638
  29 H :    0.169517
  30 H :    0.150700
  31 H :    0.151290
  32 H :    0.152463
  33 H :    0.158792
  34 H :    0.175978
  35 H :    0.155896
  36 H :    0.170153
  37 H :    0.170191
Sum of atomic charges:   -0.0000000

LOEWDIN ATOMIC CHARGES
----------------------
   0 C :   -0.390386
   1 C :    0.030203
   2 O :   -0.585470
   3 C :    0.351961
   4 O :   -0.411517
   5 C :   -0.201969
   6 C :   -0.193510
   7 H :    0.210067
   8 C :    0.327861
   9 O :   -0.405928
  10 O :   -0.623375
  11 C :    0.035505
  12 C :   -0.386869
  13 S :    0.188742
  14 P :    0.398261
  15 S :   -0.044934
  16 O :   -0.683268
  17 C :   -0.058270
  18 O :   -0.649688
  19 C :   -0.051409
  20 H :    0.167565
  21 H :    0.159712
  22 H :    0.156287
  23 H :    0.192683
  24 H :    0.178510
  25 H :    0.188268
  26 H :    0.187136
  27 H :    0.195793
  28 H :    0.183102
  29 H :    0.165777
  30 H :    0.159863
  31 H :    0.156654
  32 H :    0.177465
  33 H :    0.169404
  34 H :    0.177372
  35 H :    0.179406
  36 H :    0.173954
  37 H :    0.175042

  Mayer bond orders larger than 0.100000
B(  0-C ,  1-C ) :   0.9254 B(  0-C , 20-H ) :   0.9714 B(  0-C , 21-H ) :   0.9651
B(  0-C , 22-H ) :   0.9724 B(  1-C ,  2-O ) :   0.8198 B(  1-C , 23-H ) :   0.9718
B(  1-C , 24-H ) :   0.9613 B(  2-O ,  3-C ) :   1.0500 B(  3-C ,  4-O ) :   1.8545
B(  3-C ,  5-C ) :   0.8719 B(  5-C ,  6-C ) :   0.8696 B(  5-C , 25-H ) :   1.0099
B(  5-C , 26-H ) :   0.9363 B(  6-C ,  7-H ) :   0.9531 B(  6-C ,  8-C ) :   0.9106
B(  6-C , 13-S ) :   0.8718 B(  8-C ,  9-O ) :   1.8181 B(  8-C , 10-O ) :   1.0724
B( 10-O , 11-C ) :   0.7870 B( 11-C , 12-C ) :   0.9207 B( 11-C , 27-H ) :   0.9662
B( 11-C , 28-H ) :   0.9586 B( 12-C , 29-H ) :   0.9708 B( 12-C , 30-H ) :   0.9676
B( 12-C , 31-H ) :   0.9761 B( 13-S , 14-P ) :   0.9993 B( 14-P , 15-S ) :   1.7972
B( 14-P , 16-O ) :   1.0248 B( 14-P , 18-O ) :   1.1454 B( 16-O , 17-C ) :   0.8309
B( 17-C , 32-H ) :   0.9674 B( 17-C , 33-H ) :   0.9561 B( 17-C , 34-H ) :   0.9590
B( 18-O , 19-C ) :   0.7948 B( 19-C , 35-H ) :   0.9653 B( 19-C , 36-H ) :   0.9560
B( 19-C , 37-H ) :   0.9605

Dispersion correction           -0.017608121
FINAL SINGLE POINT ENERGY     -1981.450914344344

DIPOLE MOMENT
-------------

Method             : SCF
Type of density    : Electron Density
Multiplicity       :   1
Irrep              :   0
Energy             : -1981.4703990905054525 Eh
Relativity type    :
Basis              : AO
                                X                 Y                 Z
Electronic contribution:    -16.515213482       5.783885191      -6.116079259
Nuclear contribution   :     16.189861207      -7.046250976       7.831051749
                        -----------------------------------------
Total Dipole Moment    :     -0.325352275      -1.262365785       1.714972490
                        -----------------------------------------
Magnitude (a.u.)       :      2.154194077
Magnitude (Debye)      :      5.475526195

Rotational constants in cm-1:             0.017627             0.005904             0.005283
Rotational constants in MHz :           528.451954           177.007129           158.365885

                             ****ORCA TERMINATED NORMALLY****
TOTAL RUN TIME: 0 days 0 hours 1 minutes 19 seconds 134 msec
