                         Program Version 6.0.1  -  RELEASE   -
|  1> ! r2scan-3c def2/J RI DEFGRID2 scfconv6 printgap
|  2> %output
|  3>     printlevel normal
|  4> end
|  5> %cpcm
|  6>     smd true
|  7>     smdsolvent "water"
|  8> end
|  9> * xyz 0 1
| 10> C 5.5358034144 -1.9041979671 -1.4612057649
| 11> C 4.6965653637 -0.80078986 -0.8375104558
| 12> O 3.4013267356 -1.2905093524 -0.4385538147
| 13> C 2.4581637741 -1.3772226557 -1.3573033216
| 14> O 2.5979486711 -1.0899755342 -2.5234569333
| 15> C 1.1525650457 -1.874982567 -0.7578748216
| 16> C 0.1589955868 -0.7080940099 -0.7446067875
| 17> H -0.0208333218 -0.3610427 -1.7660187205
| 18> C 0.7846953131 0.4272108351 0.0437719532
| 19> O 1.677879513 1.1010617276 -0.4168754561
| 20> O 0.314574839 0.522599392 1.2688035895
| 21> C 0.9237623404 1.4814783089 2.1566383694
| 22> C 2.0807976033 0.8407871647 2.9039818304
| 23> S -1.4126807803 -1.2675545084 -0.0151541866
| 24> P -2.3314183942 0.6289969758 0.2473668411
| 25> S -1.6211707429 2.0947876924 -0.8455874202
| 26> O -3.8745572027 0.2954586232 -0.0115157234
| 27> C -4.3579925406 -0.0415951268 -1.3166014029
| 28> O -2.3716800009 0.9658974794 1.7877298931
| 29> C -2.8998305063 0.0337326739 2.7566157108
| 30> H 5.0750422723 -2.2463815312 -2.3847882054
| 31> H 6.5245800255 -1.5169809718 -1.6833186846
| 32> H 5.6229750747 -2.7414201623 -0.7742580792
| 33> H 4.5483953103 0.0257829226 -1.5384543084
| 34> H 5.1437058484 -0.434401525 0.0867802908
| 35> H 1.3282632579 -2.2357445964 0.2551666141
| 36> H 0.7529485135 -2.6758582633 -1.3800786224
| 37> H 1.2576716064 2.335695293 1.5606912892
| 38> H 0.120029524 1.7848631941 2.8279914607
| 39> H 2.8456794983 0.5216859534 2.1989714174
| 40> H 2.509317498 1.5671234657 3.5862707468
| 41> H 1.7337190616 -0.0212985775 3.4663631183
| 42> H -5.4420513862 -0.0102800527 -1.2437435818
| 43> H -4.019245598 -1.0406678399 -1.5903423204
| 44> H -4.0045897683 0.6865391995 -2.0483720302
| 45> H -2.711330788 0.4919850819 3.7237931933
| 46> H -2.3822064923 -0.9215046521 2.6709527624
| 47> H -3.9668339645 -0.1021046047 2.593839112
| 48> *
| 49>
| 50>                          ****END OF INPUT****

CARTESIAN COORDINATES (ANGSTROEM)
---------------------------------
  C      5.535803   -1.904198   -1.461206
  C      4.696565   -0.800790   -0.837510
  O      3.401327   -1.290509   -0.438554
  C      2.458164   -1.377223   -1.357303
  O      2.597949   -1.089976   -2.523457
  C      1.152565   -1.874983   -0.757875
  C      0.158996   -0.708094   -0.744607
  H     -0.020833   -0.361043   -1.766019
  C      0.784695    0.427211    0.043772
  O      1.677880    1.101062   -0.416875
  O      0.314575    0.522599    1.268804
  C      0.923762    1.481478    2.156638
  C      2.080798    0.840787    2.903982
  S     -1.412681   -1.267555   -0.015154
  P     -2.331418    0.628997    0.247367
  S     -1.621171    2.094788   -0.845587
  O     -3.874557    0.295459   -0.011516
  C     -4.357993   -0.041595   -1.316601
  O     -2.371680    0.965897    1.787730
  C     -2.899831    0.033733    2.756616
  H      5.075042   -2.246382   -2.384788
  H      6.524580   -1.516981   -1.683319
  H      5.622975   -2.741420   -0.774258
  H      4.548395    0.025783   -1.538454
  H      5.143706   -0.434402    0.086780
  H      1.328263   -2.235745    0.255167
  H      0.752949   -2.675858   -1.380079
  H      1.257672    2.335695    1.560691
  H      0.120030    1.784863    2.827991
  H      2.845679    0.521686    2.198971
  H      2.509317    1.567123    3.586271
  H      1.733719   -0.021299    3.466363
  H     -5.442051   -0.010280   -1.243744
  H     -4.019246   -1.040668   -1.590342
  H     -4.004590    0.686539   -2.048372
  H     -2.711331    0.491985    3.723793
  H     -2.382206   -0.921505    2.670953
  H     -3.966834   -0.102105    2.593839

 Total Charge           Charge          ....    0
 Multiplicity           Mult            ....    1
 Number of Electrons    NEL             ....  174
 Basis Dimension        Dim             ....  510

ORBITAL ENERGIES
----------------

  NO   OCC          E(Eh)            E(eV)
   0   2.0000     -88.581211     -2410.4173
   1   2.0000     -88.531777     -2409.0721
   2   2.0000     -76.922771     -2093.1750
   3   2.0000     -19.011705      -517.3348
   4   2.0000     -19.008798      -517.2557
   5   2.0000     -18.999332      -516.9981
   6   2.0000     -18.996251      -516.9143
   7   2.0000     -18.953021      -515.7379
   8   2.0000     -18.949195      -515.6338
   9   2.0000     -10.177494      -276.9437
  10   2.0000     -10.172877      -276.8181
  11   2.0000     -10.101890      -274.8864
  12   2.0000     -10.087513      -274.4952
  13   2.0000     -10.086125      -274.4574
  14   2.0000     -10.085942      -274.4524
  15   2.0000     -10.082478      -274.3582
  16   2.0000     -10.062116      -273.8041
  17   2.0000     -10.020582      -272.6739
  18   2.0000     -10.019149      -272.6349
  19   2.0000      -7.875551      -214.3046
  20   2.0000      -7.826696      -212.9752
  21   2.0000      -6.601143      -179.6262
  22   2.0000      -5.822432      -158.4364
  23   2.0000      -5.819437      -158.3549
  24   2.0000      -5.812618      -158.1694
  25   2.0000      -5.774452      -157.1308
  26   2.0000      -5.766880      -156.9248
  27   2.0000      -5.766662      -156.9189
  28   2.0000      -4.746786      -129.1666
  29   2.0000      -4.746187      -129.1503
  30   2.0000      -4.744739      -129.1109
  31   2.0000      -1.093379       -29.7523
  32   2.0000      -1.086015       -29.5520
  33   2.0000      -1.055785       -28.7294
  34   2.0000      -1.012845       -27.5609
  35   2.0000      -1.002154       -27.2700
  36   2.0000      -0.997191       -27.1350
  37   2.0000      -0.817876       -22.2555
  38   2.0000      -0.754419       -20.5288
  39   2.0000      -0.739606       -20.1257
  40   2.0000      -0.732172       -19.9234
  41   2.0000      -0.697650       -18.9840
  42   2.0000      -0.671968       -18.2852
  43   2.0000      -0.661252       -17.9936
  44   2.0000      -0.651713       -17.7340
  45   2.0000      -0.628687       -17.1075
  46   2.0000      -0.599903       -16.3242
  47   2.0000      -0.543977       -14.8024
  48   2.0000      -0.527819       -14.3627
  49   2.0000      -0.526732       -14.3331
  50   2.0000      -0.499681       -13.5970
  51   2.0000      -0.494966       -13.4687
  52   2.0000      -0.488427       -13.2908
  53   2.0000      -0.472695       -12.8627
  54   2.0000      -0.463038       -12.5999
  55   2.0000      -0.458111       -12.4658
  56   2.0000      -0.454676       -12.3724
  57   2.0000      -0.449872       -12.2416
  58   2.0000      -0.432362       -11.7652
  59   2.0000      -0.428559       -11.6617
  60   2.0000      -0.419644       -11.4191
  61   2.0000      -0.415628       -11.3098
  62   2.0000      -0.412057       -11.2126
  63   2.0000      -0.403504       -10.9799
  64   2.0000      -0.394562       -10.7366
  65   2.0000      -0.381235       -10.3739
  66   2.0000      -0.375913       -10.2291
  67   2.0000      -0.363568        -9.8932
  68   2.0000      -0.360194        -9.8014
  69   2.0000      -0.355392        -9.6707
  70   2.0000      -0.347780        -9.4636
  71   2.0000      -0.347129        -9.4459
  72   2.0000      -0.339190        -9.2298
  73   2.0000      -0.334456        -9.1010
  74   2.0000      -0.323141        -8.7931
  75   2.0000      -0.319282        -8.6881
  76   2.0000      -0.310396        -8.4463
  77   2.0000      -0.308198        -8.3865
  78   2.0000      -0.293195        -7.9782
  79   2.0000      -0.285593        -7.7714
  80   2.0000      -0.283622        -7.7178
  81   2.0000      -0.281487        -7.6597
  82   2.0000      -0.266571        -7.2538
  83   2.0000      -0.258542        -7.0353
  84   2.0000      -0.240813        -6.5528
  85   2.0000      -0.230484        -6.2718
  86   2.0000      -0.228750        -6.2246
  87   0.0000      -0.050330        -1.3695
  88   0.0000      -0.041319        -1.1243
  89   0.0000      -0.029607        -0.8056
  90   0.0000       0.003909         0.1064
  91   0.0000       0.012369         0.3366

MULLIKEN ATOMIC CHARGES
-----------------------
   0 C :   -0.500634
   1 C :   -0.134856
   2 O :   -0.177348
   3 C :    0.331414
   4 O :   -0.468124
   5 C :   -0.358833
   6 C :   -0.081610
   7 H :    0.275272
   8 C :    0.305458
   9 O :   -0.445482
  10 O :   -0.146257
  11 C :   -0.147912
  12 C :   -0.497652
  13 S :   -0.192959
  14 P :    0.790898
  15 S :   -0.482566
  16 O :   -0.382187
  17 C :   -0.306458
  18 O :   -0.343472
  19 C :   -0.294220
  20 H :    0.172332
  21 H :    0.172254
  22 H :    0.167127
  23 H :    0.175279
  24 H :    0.178256
  25 H :    0.214859
  26 H :    0.215793
  27 H :    0.180106
  28 H :    0.182670
  29 H :    0.168920
  30 H :    0.174219
  31 H :    0.170106
  32 H :    0.180673
  33 H :    0.176161
  34 H :    0.177392
  35 H :    0.184897
  36 H :    0.180472
  37 H :    0.186014
Sum of atomic charges:   -0.0000000

LOEWDIN ATOMIC CHARGES
----------------------
   0 C :   -0.391064
   1 C :    0.033627
   2 O :   -0.585418
   3 C :    0.359474
   4 O :   -0.470196
   5 C :   -0.192341
   6 C :   -0.194227
   7 H :    0.212672
   8 C :    0.330615
   9 O :   -0.461938
  10 O :   -0.620896
  11 C :    0.039787
  12 C :   -0.386353
  13 S :    0.209978
  14 P :    0.403078
  15 S :   -0.098130
  16 O :   -0.690515
  17 C :   -0.053198
  18 O :   -0.666624
  19 C :   -0.041190
  20 H :    0.164045
  21 H :    0.168699
  22 H :    0.163039
  23 H :    0.190654
  24 H :    0.191405
  25 H :    0.200435
  26 H :    0.201778
  27 H :    0.194372
  28 H :    0.192772
  29 H :    0.164427
  30 H :    0.169173
  31 H :    0.163642
  32 H :    0.189425
  33 H :    0.176762
  34 H :    0.177835
  35 H :    0.192010
  36 H :    0.179881
  37 H :    0.182505

  Mayer bond orders larger than 0.100000
B(  0-C ,  1-C ) :   0.9296 B(  0-C , 20-H ) :   0.9692 B(  0-C , 21-H ) :   0.9596
B(  0-C , 22-H ) :   0.9685 B(  1-C ,  2-O ) :   0.7991 B(  1-C , 23-H ) :   0.9628
B(  1-C , 24-H ) :   0.9499 B(  2-O ,  3-C ) :   1.0656 B(  3-C ,  4-O ) :   1.7921
B(  3-C ,  5-C ) :   0.8764 B(  5-C ,  6-C ) :   0.8549 B(  5-C , 25-H ) :   0.9946
B(  5-C , 26-H ) :   0.9332 B(  6-C ,  7-H ) :   0.9557 B(  6-C ,  8-C ) :   0.8932
B(  6-C , 13-S ) :   0.8715 B(  8-C ,  9-O ) :   1.7659 B(  8-C , 10-O ) :   1.0998
B( 10-O , 11-C ) :   0.7689 B( 11-C , 12-C ) :   0.9250 B( 11-C , 27-H ) :   0.9568
B( 11-C , 28-H ) :   0.9481 B( 12-C , 29-H ) :   0.9673 B( 12-C , 30-H ) :   0.9610
B( 12-C , 31-H ) :   0.9723 B( 13-S , 14-P ) :   1.0161 B( 14-P , 15-S ) :   1.7547
B( 14-P , 16-O ) :   1.0364 B( 14-P , 18-O ) :   1.1558 B( 16-O , 17-C ) :   0.8224
B( 17-C , 32-H ) :   0.9571 B( 17-C , 33-H ) :   0.9498 B( 17-C , 34-H ) :   0.9553
B( 18-O , 19-C ) :   0.7858 B( 19-C , 35-H ) :   0.9540 B( 19-C , 36-H ) :   0.9475
B( 19-C , 37-H ) :   0.9517

Dispersion correction           -0.017608121
FINAL SINGLE POINT ENERGY     -1981.468289704548

DIPOLE MOMENT
-------------

Method             : SCF
Type of density    : Electron Density
Multiplicity       :   1
Irrep              :   0
Energy             : -1981.4877744507095940 Eh
Relativity type    :
Basis              : AO
                                X                 Y                 Z
Electronic contribution:    -16.757074366       4.926820715      -5.285920747
Nuclear contribution   :     16.189861207      -7.046250976       7.831051749
                        -----------------------------------------
Total Dipole Moment    :     -0.567213160      -2.119430261       2.545131002
                        -----------------------------------------
Magnitude (a.u.)       :      3.360268921
Magnitude (Debye)      :      8.541124822

Rotational constants in cm-1:             0.017627             0.005904             0.005283
Rotational constants in MHz :           528.451954           177.007129           158.365885

                             ****ORCA TERMINATED NORMALLY****
TOTAL RUN TIME: 0 days 0 hours 1 minutes 47 seconds 537 msec
