                         Program Version 6.0.0  -   RELEASE  -
|  1> ! pbe def2-sv(p) def2/J RI DEFGRID1 loosescf d4 GCP(DFT/SV(P)) printgap
|  2> %output
|  3>     printlevel normal
|  4> end
|  5> * xyz 0 1
|  6> C 0.9730503217 1.791321962 2.3759205997
|  7> C 1.7118235701 0.5554497483 2.8495563745
|  8> O 2.5530483635 0.0071297853 1.8195087527
|  9> P 2.0013514404 -0.9655533732 0.6899661699
| 10> S 0.7772246025 -2.3625731714 1.3000047839
| 11> O 3.3140478022 -1.6067637006 0.0927234807
| 12> C 4.4282080539 -0.8483091044 -0.4382536314
| 13> C 5.4607365137 -0.5665604757 0.6338558695
| 14> S 1.3109339994 0.3515531936 -0.8385428163
| 15> C 0.3605976445 -0.8728104205 -1.7883217705
| 16> S -1.1524712097 -0.1857140766 -2.516308886
| 17> P -2.2349165559 0.4041994726 -0.7963083515
| 18> S -4.1483737208 0.7117368344 -1.073883638
| 19> O -1.4621782207 1.6417964103 -0.1494340155
| 20> C -1.7184415723 2.9985965262 -0.5448360174
| 21> C -1.1389899591 3.3033421545 -1.9117908905
| 22> O -1.823530984 -0.7659043985 0.1892380349
| 23> C -2.6564677354 -1.1520672787 1.3011118321
| 24> C -2.6797707789 -0.0921836683 2.3808916443
| 25> H 0.4548270023 2.2404906445 3.2176943194
| 26> H 1.6758702172 2.5096815857 1.9623318427
| 27> H 0.2453395373 1.5338429608 1.6093288475
| 28> H 1.016054115 -0.2228023215 3.1814491024
| 29> H 2.4040728894 0.7931125116 3.6592675039
| 30> H 4.8362301287 -1.4884648631 -1.2224933381
| 31> H 4.0470254547 0.0794144582 -0.8747114592
| 32> H 5.7822654224 -1.4965858085 1.0948600479
| 33> H 6.3170838388 -0.0777380867 0.1796852964
| 34> H 5.0444042351 0.0796677049 1.4013982587
| 35> H 0.10611647 -1.7027597738 -1.1264857684
| 36> H 0.9489938614 -1.2065959856 -2.6398544186
| 37> H -2.801059196 3.1626755464 -0.5362362112
| 38> H -1.2440143198 3.5959064099 0.2351209726
| 39> H -1.6675132355 2.7355707859 -2.6769987546
| 40> H -1.2481626181 4.3625638346 -2.1205534184
| 41> H -0.0855012402 3.0343849958 -1.9405123961
| 42> H -3.665572638 -1.3454356848 0.9246345267
| 43> H -2.2011644848 -2.0801892891 1.6521355748
| 44> H -3.1314529728 0.8199694701 1.9930679233
| 45> H -3.2676944844 -0.4510557304 3.2196416849
| 46> H -1.6687672122 0.1239003405 2.7158144758
| 47> *
| 48>
| 49>                          ****END OF INPUT****

CARTESIAN COORDINATES (ANGSTROEM)
---------------------------------
  C      0.973050    1.791322    2.375921
  C      1.711824    0.555450    2.849556
  O      2.553048    0.007130    1.819509
  P      2.001351   -0.965553    0.689966
  S      0.777225   -2.362573    1.300005
  O      3.314048   -1.606764    0.092723
  C      4.428208   -0.848309   -0.438254
  C      5.460737   -0.566560    0.633856
  S      1.310934    0.351553   -0.838543
  C      0.360598   -0.872810   -1.788322
  S     -1.152471   -0.185714   -2.516309
  P     -2.234917    0.404199   -0.796308
  S     -4.148374    0.711737   -1.073884
  O     -1.462178    1.641796   -0.149434
  C     -1.718442    2.998597   -0.544836
  C     -1.138990    3.303342   -1.911791
  O     -1.823531   -0.765904    0.189238
  C     -2.656468   -1.152067    1.301112
  C     -2.679771   -0.092184    2.380892
  H      0.454827    2.240491    3.217694
  H      1.675870    2.509682    1.962332
  H      0.245340    1.533843    1.609329
  H      1.016054   -0.222802    3.181449
  H      2.404073    0.793113    3.659268
  H      4.836230   -1.488465   -1.222493
  H      4.047025    0.079414   -0.874711
  H      5.782265   -1.496586    1.094860
  H      6.317084   -0.077738    0.179685
  H      5.044404    0.079668    1.401398
  H      0.106116   -1.702760   -1.126486
  H      0.948994   -1.206596   -2.639854
  H     -2.801059    3.162676   -0.536236
  H     -1.244014    3.595906    0.235121
  H     -1.667513    2.735571   -2.676999
  H     -1.248163    4.362564   -2.120553
  H     -0.085501    3.034385   -1.940512
  H     -3.665573   -1.345436    0.924635
  H     -2.201164   -2.080189    1.652136
  H     -3.131453    0.819969    1.993068
  H     -3.267694   -0.451056    3.219642
  H     -1.668767    0.123900    2.715814

 Total Charge           Charge          ....    0
 Multiplicity           Mult            ....    1
 Number of Electrons    NEL             ....  202
 Basis Dimension        Dim             ....  334

ORBITAL ENERGIES
----------------

  NO   OCC          E(Eh)            E(eV)
   0   2.0000     -88.046539     -2395.8681
   1   2.0000     -88.044864     -2395.8225
   2   2.0000     -87.990415     -2394.3409
   3   2.0000     -87.987555     -2394.2631
   4   2.0000     -76.430774     -2079.7871
   5   2.0000     -76.425301     -2079.6382
   6   2.0000     -18.802343      -511.6378
   7   2.0000     -18.795540      -511.4527
   8   2.0000     -18.790135      -511.3056
   9   2.0000     -18.787941      -511.2459
  10   2.0000      -9.959585      -271.0141
  11   2.0000      -9.958459      -270.9834
  12   2.0000      -9.956865      -270.9401
  13   2.0000      -9.951518      -270.7946
  14   2.0000      -9.946157      -270.6487
  15   2.0000      -9.889644      -269.1109
  16   2.0000      -9.887028      -269.0397
  17   2.0000      -9.883759      -268.9508
  18   2.0000      -9.881137      -268.8794
  19   2.0000      -7.691016      -209.2832
  20   2.0000      -7.690116      -209.2587
  21   2.0000      -7.635534      -207.7734
  22   2.0000      -7.632679      -207.6958
  23   2.0000      -6.428533      -174.9293
  24   2.0000      -6.423141      -174.7826
  25   2.0000      -5.718842      -155.6176
  26   2.0000      -5.718500      -155.6083
  27   2.0000      -5.715608      -155.5296
  28   2.0000      -5.714268      -155.4931
  29   2.0000      -5.707999      -155.3225
  30   2.0000      -5.706930      -155.2935
  31   2.0000      -5.664569      -154.1408
  32   2.0000      -5.661639      -154.0610
  33   2.0000      -5.656128      -153.9111
  34   2.0000      -5.655532      -153.8949
  35   2.0000      -5.653468      -153.8387
  36   2.0000      -5.652649      -153.8164
  37   2.0000      -4.651474      -126.5730
  38   2.0000      -4.650196      -126.5383
  39   2.0000      -4.648727      -126.4983
  40   2.0000      -4.645480      -126.4099
  41   2.0000      -4.645068      -126.3987
  42   2.0000      -4.643632      -126.3596
  43   2.0000      -0.993731       -27.0408
  44   2.0000      -0.984865       -26.7995
  45   2.0000      -0.951648       -25.8957
  46   2.0000      -0.943983       -25.6871
  47   2.0000      -0.763793       -20.7839
  48   2.0000      -0.724602       -19.7174
  49   2.0000      -0.709924       -19.3180
  50   2.0000      -0.695015       -18.9123
  51   2.0000      -0.685906       -18.6644
  52   2.0000      -0.676733       -18.4148
  53   2.0000      -0.654807       -17.8182
  54   2.0000      -0.640370       -17.4254
  55   2.0000      -0.601695       -16.3729
  56   2.0000      -0.595889       -16.2150
  57   2.0000      -0.579177       -15.7602
  58   2.0000      -0.569344       -15.4926
  59   2.0000      -0.562482       -15.3059
  60   2.0000      -0.506438       -13.7809
  61   2.0000      -0.491337       -13.3700
  62   2.0000      -0.483173       -13.1478
  63   2.0000      -0.471190       -12.8217
  64   2.0000      -0.454663       -12.3720
  65   2.0000      -0.452355       -12.3092
  66   2.0000      -0.444997       -12.1090
  67   2.0000      -0.440343       -11.9823
  68   2.0000      -0.431188       -11.7332
  69   2.0000      -0.417572       -11.3627
  70   2.0000      -0.412468       -11.2238
  71   2.0000      -0.400065       -10.8863
  72   2.0000      -0.394719       -10.7409
  73   2.0000      -0.390117       -10.6156
  74   2.0000      -0.388779       -10.5792
  75   2.0000      -0.373901       -10.1744
  76   2.0000      -0.366841        -9.9823
  77   2.0000      -0.360324        -9.8049
  78   2.0000      -0.357593        -9.7306
  79   2.0000      -0.354286        -9.6406
  80   2.0000      -0.351791        -9.5727
  81   2.0000      -0.347087        -9.4447
  82   2.0000      -0.342789        -9.3278
  83   2.0000      -0.336678        -9.1615
  84   2.0000      -0.328448        -8.9375
  85   2.0000      -0.323258        -8.7963
  86   2.0000      -0.318471        -8.6660
  87   2.0000      -0.300162        -8.1678
  88   2.0000      -0.298354        -8.1186
  89   2.0000      -0.292573        -7.9613
  90   2.0000      -0.283864        -7.7243
  91   2.0000      -0.277786        -7.5589
  92   2.0000      -0.271673        -7.3926
  93   2.0000      -0.265819        -7.2333
  94   2.0000      -0.265211        -7.2168
  95   2.0000      -0.229118        -6.2346
  96   2.0000      -0.223730        -6.0880
  97   2.0000      -0.212420        -5.7802
  98   2.0000      -0.209508        -5.7010
  99   2.0000      -0.202453        -5.5090
 100   2.0000      -0.200343        -5.4516
 101   0.0000      -0.042107        -1.1458
 102   0.0000      -0.032488        -0.8840
 103   0.0000      -0.024977        -0.6796
 104   0.0000       0.002803         0.0763
 105   0.0000       0.015792         0.4297

MULLIKEN ATOMIC CHARGES
-----------------------
   0 C :   -0.360156
   1 C :   -0.013491
   2 O :   -0.380516
   3 P :    0.611360
   4 S :   -0.301747
   5 O :   -0.358177
   6 C :   -0.013190
   7 C :   -0.294090
   8 S :   -0.113630
   9 C :   -0.341591
  10 S :   -0.086335
  11 P :    0.626110
  12 S :   -0.321986
  13 O :   -0.366847
  14 C :   -0.004043
  15 C :   -0.314764
  16 O :   -0.371505
  17 C :    0.001174
  18 C :   -0.325911
  19 H :    0.113024
  20 H :    0.110476
  21 H :    0.180994
  22 H :    0.117006
  23 H :    0.106177
  24 H :    0.109576
  25 H :    0.101017
  26 H :    0.121149
  27 H :    0.110173
  28 H :    0.123121
  29 H :    0.205085
  30 H :    0.180977
  31 H :    0.110597
  32 H :    0.102367
  33 H :    0.125522
  34 H :    0.111609
  35 H :    0.118564
  36 H :    0.111992
  37 H :    0.113731
  38 H :    0.119899
  39 H :    0.111079
  40 H :    0.125201
Sum of atomic charges:   -0.0000000

LOEWDIN ATOMIC CHARGES
----------------------
   0 C :   -0.378273
   1 C :   -0.117106
   2 O :   -0.243163
   3 P :    0.571928
   4 S :   -0.289932
   5 O :   -0.239608
   6 C :   -0.117001
   7 C :   -0.360925
   8 S :    0.075349
   9 C :   -0.478793
  10 S :    0.094409
  11 P :    0.568574
  12 S :   -0.318992
  13 O :   -0.239059
  14 C :   -0.121316
  15 C :   -0.368237
  16 O :   -0.236137
  17 C :   -0.116116
  18 C :   -0.365741
  19 H :    0.130964
  20 H :    0.123675
  21 H :    0.127433
  22 H :    0.108725
  23 H :    0.118772
  24 H :    0.121171
  25 H :    0.101531
  26 H :    0.129370
  27 H :    0.129763
  28 H :    0.125673
  29 H :    0.126554
  30 H :    0.135401
  31 H :    0.108960
  32 H :    0.116028
  33 H :    0.120768
  34 H :    0.129910
  35 H :    0.121595
  36 H :    0.110842
  37 H :    0.117318
  38 H :    0.121189
  39 H :    0.130813
  40 H :    0.123683

  Mayer bond orders larger than 0.100000
B(  0-C ,  1-C ) :   1.1694 B(  0-C , 19-H ) :   0.9370 B(  0-C , 20-H ) :   0.9437
B(  0-C , 21-H ) :   0.9087 B(  1-C ,  2-O ) :   0.9023 B(  1-C , 22-H ) :   0.9090
B(  1-C , 23-H ) :   0.9325 B(  2-O ,  3-P ) :   1.0890 B(  3-P ,  4-S ) :   1.6394
B(  3-P ,  5-O ) :   1.1335 B(  3-P ,  8-S ) :   0.9576 B(  4-S ,  8-S ) :   0.1139
B(  5-O ,  6-C ) :   0.9005 B(  6-C ,  7-C ) :   1.1632 B(  6-C , 24-H ) :   0.9363
B(  6-C , 25-H ) :   0.9083 B(  7-C , 26-H ) :   0.9473 B(  7-C , 27-H ) :   0.9392
B(  7-C , 28-H ) :   0.9410 B(  8-S ,  9-C ) :   0.9852 B(  9-C , 10-S ) :   1.0027
B(  9-C , 29-H ) :   0.8557 B(  9-C , 30-H ) :   0.9099 B( 10-S , 11-P ) :   0.9640
B( 11-P , 12-S ) :   1.6407 B( 11-P , 13-O ) :   1.0625 B( 11-P , 16-O ) :   1.1221
B( 13-O , 14-C ) :   0.9104 B( 14-C , 15-C ) :   1.1654 B( 14-C , 31-H ) :   0.9127
B( 14-C , 32-H ) :   0.9319 B( 15-C , 33-H ) :   0.9377 B( 15-C , 34-H ) :   0.9388
B( 15-C , 35-H ) :   0.9433 B( 16-O , 17-C ) :   0.8997 B( 17-C , 18-C ) :   1.1673
B( 17-C , 36-H ) :   0.9193 B( 17-C , 37-H ) :   0.9230 B( 18-C , 38-H ) :   0.9354
B( 18-C , 39-H ) :   0.9377 B( 18-C , 40-H ) :   0.9356

Dispersion correction           -0.066673949
FINAL SINGLE POINT ENERGY     -2929.519046650757

DIPOLE MOMENT
-------------

Method             : SCF
Type of density    : Electron Density
Multiplicity       :   1
Irrep              :   0
Energy             : -2929.6398076912641955 Eh
Relativity type    :
Basis              : AO
                                X                 Y                 Z
Electronic contribution:     -9.904705193     -13.509128684     -12.693614648
Nuclear contribution   :     11.501707912      14.605998846      13.263137269
                        -----------------------------------------
Total Dipole Moment    :      1.597002718       1.096870162       0.569522621
                        -----------------------------------------
Magnitude (a.u.)       :      2.019380561
Magnitude (Debye)      :      5.132857471

Rotational constants in cm-1:             0.012552             0.005260             0.004972
Rotational constants in MHz :           376.305722           157.679676           149.048969

                             ****ORCA TERMINATED NORMALLY****
TOTAL RUN TIME: 0 days 0 hours 0 minutes 21 seconds 830 msec
