                         Program Version 6.0.1  -  RELEASE   -
|  1> ! pbe def2-sv(p) def2/J RI DEFGRID1 loosescf d4 GCP(DFT/SV(P)) printgap
|  2> %output
|  3>     printlevel normal
|  4> end
|  5> * xyz 0 1
|  6> C 3.5559591265 -1.4760687361 1.8279788054
|  7> C 2.8574489008 -2.2843906912 0.7469108183
|  8> O 2.6648695415 -1.4947555404 -0.4458016875
|  9> C 1.6515405448 -0.6754128391 -0.506559704
| 10> O 0.8399520154 -0.5011387342 0.3930940671
| 11> C 1.5531847698 0.0715623078 -1.8114533666
| 12> C 0.3705130259 1.02295574 -1.7234603229
| 13> H 0.3113672387 1.6591593515 -2.6106620076
| 14> C 0.4269784976 1.9142111296 -0.4909239226
| 15> O -0.5490679475 2.2987678195 0.108378879
| 16> O 1.671244408 2.2380995699 -0.1969218112
| 17> C 1.8975573521 3.145590096 0.9004850395
| 18> C 1.797966865 4.5902170228 0.4388930199
| 19> S -1.2399712411 0.1546153304 -1.7536467273
| 20> P -1.6140616306 -0.9241123428 0.0396584801
| 21> S -0.9515577866 -2.7416798286 0.359574374
| 22> O -1.7000821648 0.0540409596 1.302605938
| 23> C -0.9027536462 -0.0234384724 2.4775277384
| 24> O -3.1762159704 -1.1303245832 -0.2547031526
| 25> C -4.1157515061 -0.0524244988 -0.4099614536
| 26> H 4.4992373007 -1.0875912095 1.4542146985
| 27> H 2.9261585698 -0.6466169092 2.1422170969
| 28> H 3.7443161278 -2.1154689998 2.6838126194
| 29> H 1.8828330741 -2.6463894828 1.086994244
| 30> H 3.4704816239 -3.1210843291 0.4136422628
| 31> H 1.417667936 -0.6403431682 -2.6269523313
| 32> H 2.481813918 0.6193028422 -1.9784734495
| 33> H 1.1645996925 2.937607248 1.6853834478
| 34> H 2.9030683258 2.9056929049 1.2469511035
| 35> H 0.7867806231 4.8068784713 0.102103993
| 36> H 2.0409675178 5.2468968744 1.2676280471
| 37> H 2.4914799447 4.7706087761 -0.3774602194
| 38> H -1.5594532817 0.2447543091 3.3023526494
| 39> H -0.0759065671 0.6808142805 2.3989133641
| 40> H -0.5149057625 -1.0352478049 2.6064726285
| 41> H -5.0608958468 -0.4293198726 -0.0260939499
| 42> H -4.2022684393 0.1941454869 -1.4671766596
| 43> H -3.7942709997 0.8203992377 0.1561106768
| 44> *
| 45>
| 46>                          ****END OF INPUT****

CARTESIAN COORDINATES (ANGSTROEM)
---------------------------------
  C      3.555959   -1.476069    1.827979
  C      2.857449   -2.284391    0.746911
  O      2.664870   -1.494756   -0.445802
  C      1.651541   -0.675413   -0.506560
  O      0.839952   -0.501139    0.393094
  C      1.553185    0.071562   -1.811453
  C      0.370513    1.022956   -1.723460
  H      0.311367    1.659159   -2.610662
  C      0.426978    1.914211   -0.490924
  O     -0.549068    2.298768    0.108379
  O      1.671244    2.238100   -0.196922
  C      1.897557    3.145590    0.900485
  C      1.797967    4.590217    0.438893
  S     -1.239971    0.154615   -1.753647
  P     -1.614062   -0.924112    0.039658
  S     -0.951558   -2.741680    0.359574
  O     -1.700082    0.054041    1.302606
  C     -0.902754   -0.023438    2.477528
  O     -3.176216   -1.130325   -0.254703
  C     -4.115752   -0.052424   -0.409961
  H      4.499237   -1.087591    1.454215
  H      2.926159   -0.646617    2.142217
  H      3.744316   -2.115469    2.683813
  H      1.882833   -2.646389    1.086994
  H      3.470482   -3.121084    0.413642
  H      1.417668   -0.640343   -2.626952
  H      2.481814    0.619303   -1.978473
  H      1.164600    2.937607    1.685383
  H      2.903068    2.905693    1.246951
  H      0.786781    4.806878    0.102104
  H      2.040968    5.246897    1.267628
  H      2.491480    4.770609   -0.377460
  H     -1.559453    0.244754    3.302353
  H     -0.075907    0.680814    2.398913
  H     -0.514906   -1.035248    2.606473
  H     -5.060896   -0.429320   -0.026094
  H     -4.202268    0.194145   -1.467177
  H     -3.794271    0.820399    0.156111

 Total Charge           Charge          ....    0
 Multiplicity           Mult            ....    1
 Number of Electrons    NEL             ....  174
 Basis Dimension        Dim             ....  316

ORBITAL ENERGIES
----------------

  NO   OCC          E(Eh)            E(eV)
   0   2.0000     -88.029847     -2395.4139
   1   2.0000     -87.958169     -2393.4635
   2   2.0000     -76.412485     -2079.2894
   3   2.0000     -18.816924      -512.0345
   4   2.0000     -18.812742      -511.9207
   5   2.0000     -18.773912      -510.8641
   6   2.0000     -18.765721      -510.6412
   7   2.0000     -18.760108      -510.4885
   8   2.0000     -18.741725      -509.9883
   9   2.0000     -10.026666      -272.8394
  10   2.0000     -10.019649      -272.6485
  11   2.0000      -9.958519      -270.9851
  12   2.0000      -9.952062      -270.8094
  13   2.0000      -9.950916      -270.7782
  14   2.0000      -9.928157      -270.1589
  15   2.0000      -9.927236      -270.1338
  16   2.0000      -9.919999      -269.9369
  17   2.0000      -9.895590      -269.2727
  18   2.0000      -9.893107      -269.2051
  19   2.0000      -7.674429      -208.8318
  20   2.0000      -7.603717      -206.9077
  21   2.0000      -6.407944      -174.3690
  22   2.0000      -5.703079      -155.1887
  23   2.0000      -5.698509      -155.0643
  24   2.0000      -5.691091      -154.8625
  25   2.0000      -5.633131      -153.2853
  26   2.0000      -5.624143      -153.0407
  27   2.0000      -5.623451      -153.0219
  28   2.0000      -4.631119      -126.0192
  29   2.0000      -4.629827      -125.9840
  30   2.0000      -4.628218      -125.9402
  31   2.0000      -1.027727       -27.9659
  32   2.0000      -1.019331       -27.7374
  33   2.0000      -0.963147       -26.2086
  34   2.0000      -0.934986       -25.4423
  35   2.0000      -0.923051       -25.1175
  36   2.0000      -0.918575       -24.9957
  37   2.0000      -0.766276       -20.8514
  38   2.0000      -0.717709       -19.5299
  39   2.0000      -0.709663       -19.3109
  40   2.0000      -0.685823       -18.6622
  41   2.0000      -0.655407       -17.8345
  42   2.0000      -0.625512       -17.0210
  43   2.0000      -0.622062       -16.9272
  44   2.0000      -0.603248       -16.4152
  45   2.0000      -0.597035       -16.2461
  46   2.0000      -0.570981       -15.5372
  47   2.0000      -0.515442       -14.0259
  48   2.0000      -0.506298       -13.7771
  49   2.0000      -0.493692       -13.4340
  50   2.0000      -0.488878       -13.3030
  51   2.0000      -0.467801       -12.7295
  52   2.0000      -0.459862       -12.5135
  53   2.0000      -0.447595       -12.1797
  54   2.0000      -0.440627       -11.9901
  55   2.0000      -0.433419       -11.7939
  56   2.0000      -0.428639       -11.6639
  57   2.0000      -0.418483       -11.3875
  58   2.0000      -0.411448       -11.1961
  59   2.0000      -0.402124       -10.9423
  60   2.0000      -0.399539       -10.8720
  61   2.0000      -0.392746       -10.6871
  62   2.0000      -0.391027       -10.6404
  63   2.0000      -0.386515       -10.5176
  64   2.0000      -0.380466       -10.3530
  65   2.0000      -0.377714       -10.2781
  66   2.0000      -0.364517        -9.9190
  67   2.0000      -0.359070        -9.7708
  68   2.0000      -0.345568        -9.4034
  69   2.0000      -0.342520        -9.3204
  70   2.0000      -0.336487        -9.1563
  71   2.0000      -0.330141        -8.9836
  72   2.0000      -0.327569        -8.9136
  73   2.0000      -0.307437        -8.3658
  74   2.0000      -0.302137        -8.2216
  75   2.0000      -0.296688        -8.0733
  76   2.0000      -0.286059        -7.7841
  77   2.0000      -0.276729        -7.5302
  78   2.0000      -0.274620        -7.4728
  79   2.0000      -0.267996        -7.2926
  80   2.0000      -0.253288        -6.8923
  81   2.0000      -0.243890        -6.6366
  82   2.0000      -0.241247        -6.5647
  83   2.0000      -0.226626        -6.1668
  84   2.0000      -0.213775        -5.8171
  85   2.0000      -0.177784        -4.8378
  86   2.0000      -0.170917        -4.6509
  87   0.0000      -0.050320        -1.3693
  88   0.0000      -0.032655        -0.8886
  89   0.0000      -0.019633        -0.5342
  90   0.0000      -0.001753        -0.0477
  91   0.0000       0.024115         0.6562

MULLIKEN ATOMIC CHARGES
-----------------------
   0 C :   -0.314629
   1 C :   -0.023472
   2 O :   -0.211730
   3 C :    0.147531
   4 O :   -0.233095
   5 C :   -0.048563
   6 C :   -0.311511
   7 H :    0.146547
   8 C :    0.196845
   9 O :   -0.174906
  10 O :   -0.245242
  11 C :   -0.025107
  12 C :   -0.301909
  13 S :   -0.099937
  14 P :    0.653670
  15 S :   -0.344985
  16 O :   -0.378475
  17 C :   -0.094767
  18 O :   -0.380590
  19 C :   -0.114053
  20 H :    0.111889
  21 H :    0.124716
  22 H :    0.118550
  23 H :    0.137857
  24 H :    0.106934
  25 H :    0.135535
  26 H :    0.125342
  27 H :    0.122966
  28 H :    0.103070
  29 H :    0.129999
  30 H :    0.115706
  31 H :    0.113490
  32 H :    0.112702
  33 H :    0.119972
  34 H :    0.112030
  35 H :    0.120326
  36 H :    0.118571
  37 H :    0.128725
Sum of atomic charges:   -0.0000000

LOEWDIN ATOMIC CHARGES
----------------------
   0 C :   -0.357425
   1 C :   -0.110399
   2 O :   -0.033578
   3 C :    0.050029
   4 O :   -0.164620
   5 C :   -0.254324
   6 C :   -0.264981
   7 H :    0.152250
   8 C :    0.009163
   9 O :   -0.151341
  10 O :   -0.061721
  11 C :   -0.109553
  12 C :   -0.355582
  13 S :    0.110574
  14 P :    0.583467
  15 S :   -0.338528
  16 O :   -0.239655
  17 C :   -0.211395
  18 O :   -0.260580
  19 C :   -0.218175
  20 H :    0.123571
  21 H :    0.126856
  22 H :    0.133801
  23 H :    0.123730
  24 H :    0.121171
  25 H :    0.150153
  26 H :    0.148232
  27 H :    0.121712
  28 H :    0.117700
  29 H :    0.132087
  30 H :    0.132367
  31 H :    0.124792
  32 H :    0.115138
  33 H :    0.104832
  34 H :    0.106171
  35 H :    0.119334
  36 H :    0.109728
  37 H :    0.115001

  Mayer bond orders larger than 0.100000
B(  0-C ,  1-C ) :   1.1675 B(  0-C , 20-H ) :   0.9473 B(  0-C , 21-H ) :   0.9449
B(  0-C , 22-H ) :   0.9437 B(  1-C ,  2-O ) :   0.8970 B(  1-C , 23-H ) :   0.9040
B(  1-C , 24-H ) :   0.9379 B(  2-O ,  3-C ) :   1.2983 B(  3-C ,  4-O ) :   1.8352
B(  3-C ,  5-C ) :   1.0143 B(  4-O , 14-P ) :   0.1073 B(  5-C ,  6-C ) :   1.0315
B(  5-C , 25-H ) :   0.8806 B(  5-C , 26-H ) :   0.8708 B(  6-C ,  7-H ) :   0.8646
B(  6-C ,  8-C ) :   0.8785 B(  6-C , 13-S ) :   1.0460 B(  8-C ,  9-O ) :   2.0848
B(  8-C , 10-O ) :   1.2188 B( 10-O , 11-C ) :   0.9114 B( 11-C , 12-C ) :   1.1756
B( 11-C , 27-H ) :   0.9089 B( 11-C , 28-H ) :   0.9367 B( 12-C , 29-H ) :   0.9451
B( 12-C , 30-H ) :   0.9436 B( 12-C , 31-H ) :   0.9483 B( 13-S , 14-P ) :   0.9507
B( 13-S , 15-S ) :   0.1025 B( 14-P , 15-S ) :   1.5862 B( 14-P , 16-O ) :   1.0815
B( 14-P , 18-O ) :   1.0839 B( 16-O , 17-C ) :   0.9382 B( 17-C , 32-H ) :   0.9535
B( 17-C , 33-H ) :   0.9426 B( 17-C , 34-H ) :   0.9317 B( 18-O , 19-C ) :   0.9249
B( 19-C , 35-H ) :   0.9584 B( 19-C , 36-H ) :   0.9527 B( 19-C , 37-H ) :   0.9408

Dispersion correction           -0.054871948
FINAL SINGLE POINT ENERGY     -1979.000577089254

DIPOLE MOMENT
-------------

Method             : SCF
Type of density    : Electron Density
Multiplicity       :   1
Irrep              :   0
Energy             : -1979.1318780614979005 Eh
Relativity type    :
Basis              : AO
                                X                 Y                 Z
Electronic contribution:    -13.692910069     -11.694829473     -10.523013567
Nuclear contribution   :     15.492940029      13.272558030      10.769772091
                        -----------------------------------------
Total Dipole Moment    :      1.800029960       1.577728557       0.246758525
                        -----------------------------------------
Magnitude (a.u.)       :      2.406288641
Magnitude (Debye)      :      6.116299655

Rotational constants in cm-1:             0.011824             0.009237             0.006851
Rotational constants in MHz :           354.485189           276.932670           205.387031

                             ****ORCA TERMINATED NORMALLY****
TOTAL RUN TIME: 0 days 0 hours 0 minutes 43 seconds 886 msec
