                         Program Version 6.0.0  -   RELEASE  -
|  1> ! pbe def2-sv(p) def2/J RI DEFGRID1 loosescf d4 GCP(DFT/SV(P)) printgap
|  2> %output
|  3>     printlevel normal
|  4> end
|  5> * xyz 0 1
|  6> C 3.430352709 1.1689409698 2.8655904092
|  7> C 2.2359451586 1.4619725411 1.9822424354
|  8> O 2.4321439507 0.9313351857 0.6583543422
|  9> P 2.3005466862 -0.6101015853 0.3243279199
| 10> S 1.1052025293 -1.595076214 1.5330738304
| 11> O 3.8280938781 -1.0396985989 0.2958117669
| 12> C 4.3733077978 -2.169813912 -0.4090947478
| 13> C 3.6646694024 -3.467355897 -0.0785961437
| 14> S 1.7467152904 -0.5664494334 -1.7193016053
| 15> C -0.0278200696 -0.5177521621 -1.4332297838
| 16> S -0.5307397219 1.0679105486 -0.6802212005
| 17> P -2.5874646703 0.5278061782 -0.5413577953
| 18> S -3.3148007931 -0.4184190115 -2.0870335256
| 19> O -3.315917556 1.8762963074 -0.1206612284
| 20> C -3.8174194158 2.8189226478 -1.0883486756
| 21> C -2.7060886744 3.4658953515 -1.8883904857
| 22> O -2.6901544158 -0.333433957 0.7755111884
| 23> C -2.3762956003 0.2025452909 2.0864960418
| 24> C -2.2643515288 -0.9607991555 3.0480439509
| 25> H 4.3365432348 1.5622625837 2.4134094988
| 26> H 3.2824254077 1.6230932425 3.8401930011
| 27> H 3.5386043911 0.0912812431 2.985576664
| 28> H 2.0933452407 2.5310833378 1.8220563962
| 29> H 1.3260098124 1.0234878184 2.4059497935
| 30> H 4.3186301331 -1.9603261668 -1.4809636696
| 31> H 5.4163474344 -2.1921282034 -0.0883195332
| 32> H 3.6562948044 -3.6335041424 0.9962728356
| 33> H 2.6345141887 -3.4343879986 -0.4318622337
| 34> H 4.176262045 -4.2918431639 -0.5646513049
| 35> H -0.3077235597 -1.3289106953 -0.7565821173
| 36> H -0.5196771484 -0.6275298193 -2.3987002759
| 37> H -4.513327376 2.2946747056 -1.750011851
| 38> H -4.3564463676 3.5479579232 -0.4817347322
| 39> H -1.9562299671 3.8884977178 -1.2241811345
| 40> H -2.2303027216 2.7260203254 -2.5304896275
| 41> H -3.1230905482 4.2522432141 -2.5092857771
| 42> H -1.4359606264 0.7579994302 2.0174692654
| 43> H -3.1788972994 0.8863121044 2.3683075115
| 44> H -1.4294745928 -1.6000709154 2.7697292535
| 45> H -2.1000909902 -0.5792307123 4.0504096908
| 46> H -3.1779702637 -1.5475054281 3.0281114991
| 47> *
| 48>
| 49>                          ****END OF INPUT****

CARTESIAN COORDINATES (ANGSTROEM)
---------------------------------
  C      3.430353    1.168941    2.865590
  C      2.235945    1.461973    1.982242
  O      2.432144    0.931335    0.658354
  P      2.300547   -0.610102    0.324328
  S      1.105203   -1.595076    1.533074
  O      3.828094   -1.039699    0.295812
  C      4.373308   -2.169814   -0.409095
  C      3.664669   -3.467356   -0.078596
  S      1.746715   -0.566449   -1.719302
  C     -0.027820   -0.517752   -1.433230
  S     -0.530740    1.067911   -0.680221
  P     -2.587465    0.527806   -0.541358
  S     -3.314801   -0.418419   -2.087034
  O     -3.315918    1.876296   -0.120661
  C     -3.817419    2.818923   -1.088349
  C     -2.706089    3.465895   -1.888390
  O     -2.690154   -0.333434    0.775511
  C     -2.376296    0.202545    2.086496
  C     -2.264352   -0.960799    3.048044
  H      4.336543    1.562263    2.413409
  H      3.282425    1.623093    3.840193
  H      3.538604    0.091281    2.985577
  H      2.093345    2.531083    1.822056
  H      1.326010    1.023488    2.405950
  H      4.318630   -1.960326   -1.480964
  H      5.416347   -2.192128   -0.088320
  H      3.656295   -3.633504    0.996273
  H      2.634514   -3.434388   -0.431862
  H      4.176262   -4.291843   -0.564651
  H     -0.307724   -1.328911   -0.756582
  H     -0.519677   -0.627530   -2.398700
  H     -4.513327    2.294675   -1.750012
  H     -4.356446    3.547958   -0.481735
  H     -1.956230    3.888498   -1.224181
  H     -2.230303    2.726020   -2.530490
  H     -3.123091    4.252243   -2.509286
  H     -1.435961    0.757999    2.017469
  H     -3.178897    0.886312    2.368308
  H     -1.429475   -1.600071    2.769729
  H     -2.100091   -0.579231    4.050410
  H     -3.177970   -1.547505    3.028111

 Total Charge           Charge          ....    0
 Multiplicity           Mult            ....    1
 Number of Electrons    NEL             ....  202
 Basis Dimension        Dim             ....  334

ORBITAL ENERGIES
----------------

  NO   OCC          E(Eh)            E(eV)
   0   2.0000     -88.051347     -2395.9990
   1   2.0000     -88.038156     -2395.6400
   2   2.0000     -87.992201     -2394.3895
   3   2.0000     -87.983325     -2394.1480
   4   2.0000     -76.431712     -2079.8126
   5   2.0000     -76.423369     -2079.5856
   6   2.0000     -18.797620      -511.5092
   7   2.0000     -18.794360      -511.4205
   8   2.0000     -18.790902      -511.3264
   9   2.0000     -18.788014      -511.2478
  10   2.0000      -9.962845      -271.1028
  11   2.0000      -9.954367      -270.8721
  12   2.0000      -9.952520      -270.8218
  13   2.0000      -9.952463      -270.8203
  14   2.0000      -9.948659      -270.7168
  15   2.0000      -9.887179      -269.0438
  16   2.0000      -9.885300      -268.9927
  17   2.0000      -9.884529      -268.9717
  18   2.0000      -9.879109      -268.8242
  19   2.0000      -7.696595      -209.4350
  20   2.0000      -7.682845      -209.0608
  21   2.0000      -7.636799      -207.8079
  22   2.0000      -7.628711      -207.5878
  23   2.0000      -6.429063      -174.9437
  24   2.0000      -6.420925      -174.7222
  25   2.0000      -5.724324      -155.7668
  26   2.0000      -5.721216      -155.6822
  27   2.0000      -5.713599      -155.4749
  28   2.0000      -5.710627      -155.3941
  29   2.0000      -5.707606      -155.3118
  30   2.0000      -5.699757      -155.0983
  31   2.0000      -5.665566      -154.1679
  32   2.0000      -5.657670      -153.9530
  33   2.0000      -5.657637      -153.9521
  34   2.0000      -5.656924      -153.9327
  35   2.0000      -5.649285      -153.7249
  36   2.0000      -5.648839      -153.7127
  37   2.0000      -4.651497      -126.5737
  38   2.0000      -4.650973      -126.5594
  39   2.0000      -4.649543      -126.5205
  40   2.0000      -4.643886      -126.3665
  41   2.0000      -4.642582      -126.3311
  42   2.0000      -4.641143      -126.2919
  43   2.0000      -0.990733       -26.9592
  44   2.0000      -0.986828       -26.8530
  45   2.0000      -0.949284       -25.8313
  46   2.0000      -0.942961       -25.6593
  47   2.0000      -0.765952       -20.8426
  48   2.0000      -0.722682       -19.6652
  49   2.0000      -0.710701       -19.3392
  50   2.0000      -0.690735       -18.7959
  51   2.0000      -0.688113       -18.7245
  52   2.0000      -0.677122       -18.4254
  53   2.0000      -0.654657       -17.8141
  54   2.0000      -0.636360       -17.3162
  55   2.0000      -0.601908       -16.3788
  56   2.0000      -0.592565       -16.1245
  57   2.0000      -0.577152       -15.7051
  58   2.0000      -0.565946       -15.4002
  59   2.0000      -0.559559       -15.2264
  60   2.0000      -0.503882       -13.7113
  61   2.0000      -0.497212       -13.5298
  62   2.0000      -0.474845       -12.9212
  63   2.0000      -0.473420       -12.8824
  64   2.0000      -0.456852       -12.4316
  65   2.0000      -0.450218       -12.2511
  66   2.0000      -0.439410       -11.9569
  67   2.0000      -0.436826       -11.8866
  68   2.0000      -0.430329       -11.7098
  69   2.0000      -0.424746       -11.5579
  70   2.0000      -0.416156       -11.3242
  71   2.0000      -0.397170       -10.8076
  72   2.0000      -0.391971       -10.6661
  73   2.0000      -0.387449       -10.5430
  74   2.0000      -0.384070       -10.4511
  75   2.0000      -0.375708       -10.2235
  76   2.0000      -0.363499        -9.8913
  77   2.0000      -0.354069        -9.6347
  78   2.0000      -0.351316        -9.5598
  79   2.0000      -0.350511        -9.5379
  80   2.0000      -0.349507        -9.5106
  81   2.0000      -0.345343        -9.3973
  82   2.0000      -0.342087        -9.3087
  83   2.0000      -0.337506        -9.1840
  84   2.0000      -0.334820        -9.1109
  85   2.0000      -0.319195        -8.6857
  86   2.0000      -0.311751        -8.4832
  87   2.0000      -0.301376        -8.2009
  88   2.0000      -0.299270        -8.1435
  89   2.0000      -0.293992        -7.9999
  90   2.0000      -0.290471        -7.9041
  91   2.0000      -0.279559        -7.6072
  92   2.0000      -0.267448        -7.2776
  93   2.0000      -0.265250        -7.2178
  94   2.0000      -0.257780        -7.0145
  95   2.0000      -0.233178        -6.3451
  96   2.0000      -0.223123        -6.0715
  97   2.0000      -0.210737        -5.7345
  98   2.0000      -0.207249        -5.6395
  99   2.0000      -0.205042        -5.5795
 100   2.0000      -0.196074        -5.3354
 101   0.0000      -0.044842        -1.2202
 102   0.0000      -0.031407        -0.8546
 103   0.0000      -0.010901        -0.2966
 104   0.0000       0.002777         0.0756
 105   0.0000       0.017108         0.4655

MULLIKEN ATOMIC CHARGES
-----------------------
   0 C :   -0.299517
   1 C :   -0.020380
   2 O :   -0.355734
   3 P :    0.614002
   4 S :   -0.333814
   5 O :   -0.371084
   6 C :   -0.012442
   7 C :   -0.312406
   8 S :   -0.082479
   9 C :   -0.357565
  10 S :   -0.102661
  11 P :    0.605979
  12 S :   -0.320361
  13 O :   -0.385572
  14 C :   -0.000723
  15 C :   -0.319571
  16 O :   -0.360019
  17 C :   -0.020241
  18 C :   -0.285273
  19 H :    0.116907
  20 H :    0.110413
  21 H :    0.121922
  22 H :    0.105748
  23 H :    0.123922
  24 H :    0.116367
  25 H :    0.111616
  26 H :    0.127193
  27 H :    0.128064
  28 H :    0.114035
  29 H :    0.200079
  30 H :    0.190365
  31 H :    0.114169
  32 H :    0.104871
  33 H :    0.117168
  34 H :    0.131427
  35 H :    0.114390
  36 H :    0.110072
  37 H :    0.103686
  38 H :    0.136129
  39 H :    0.104138
  40 H :    0.117181
Sum of atomic charges:   -0.0000000

LOEWDIN ATOMIC CHARGES
----------------------
   0 C :   -0.362040
   1 C :   -0.120298
   2 O :   -0.236994
   3 P :    0.573731
   4 S :   -0.305306
   5 O :   -0.242339
   6 C :   -0.113062
   7 C :   -0.369338
   8 S :    0.093621
   9 C :   -0.482691
  10 S :    0.063119
  11 P :    0.572391
  12 S :   -0.313762
  13 O :   -0.248392
  14 C :   -0.115369
  15 C :   -0.370908
  16 O :   -0.237811
  17 C :   -0.116113
  18 C :   -0.353159
  19 H :    0.126655
  20 H :    0.129597
  21 H :    0.123622
  22 H :    0.119021
  23 H :    0.106910
  24 H :    0.110813
  25 H :    0.122812
  26 H :    0.130160
  27 H :    0.122327
  28 H :    0.131306
  29 H :    0.123560
  30 H :    0.131640
  31 H :    0.113957
  32 H :    0.118631
  33 H :    0.123583
  34 H :    0.123012
  35 H :    0.131840
  36 H :    0.102731
  37 H :    0.112162
  38 H :    0.124034
  39 H :    0.128258
  40 H :    0.128089

  Mayer bond orders larger than 0.100000
B(  0-C ,  1-C ) :   1.1616 B(  0-C , 19-H ) :   0.9467 B(  0-C , 20-H ) :   0.9403
B(  0-C , 21-H ) :   0.9378 B(  1-C ,  2-O ) :   0.9025 B(  1-C , 22-H ) :   0.9343
B(  1-C , 23-H ) :   0.9053 B(  2-O ,  3-P ) :   1.1308 B(  3-P ,  4-S ) :   1.5884
B(  3-P ,  5-O ) :   1.1179 B(  3-P ,  8-S ) :   0.9469 B(  4-S ,  8-S ) :   0.1121
B(  5-O ,  6-C ) :   0.9116 B(  6-C ,  7-C ) :   1.1636 B(  6-C , 24-H ) :   0.9282
B(  6-C , 25-H ) :   0.9340 B(  7-C , 26-H ) :   0.9428 B(  7-C , 27-H ) :   0.9338
B(  7-C , 28-H ) :   0.9350 B(  8-S ,  9-C ) :   1.0168 B(  9-C , 10-S ) :   0.9711
B(  9-C , 29-H ) :   0.8676 B(  9-C , 30-H ) :   0.8856 B( 10-S , 11-P ) :   0.9561
B( 10-S , 12-S ) :   0.1103 B( 11-P , 12-S ) :   1.6324 B( 11-P , 13-O ) :   1.0875
B( 11-P , 16-O ) :   1.1376 B( 13-O , 14-C ) :   0.9055 B( 14-C , 15-C ) :   1.1653
B( 14-C , 31-H ) :   0.9193 B( 14-C , 32-H ) :   0.9344 B( 15-C , 33-H ) :   0.9441
B( 15-C , 34-H ) :   0.9339 B( 15-C , 35-H ) :   0.9370 B( 16-O , 17-C ) :   0.8886
B( 17-C , 18-C ) :   1.1681 B( 17-C , 36-H ) :   0.9064 B( 17-C , 37-H ) :   0.9290
B( 18-C , 38-H ) :   0.9377 B( 18-C , 39-H ) :   0.9403 B( 18-C , 40-H ) :   0.9483

Dispersion correction           -0.063905970
FINAL SINGLE POINT ENERGY     -2929.520111061470

DIPOLE MOMENT
-------------

Method             : SCF
Type of density    : Electron Density
Multiplicity       :   1
Irrep              :   0
Energy             : -2929.6404109094328305 Eh
Relativity type    :
Basis              : AO
                                X                 Y                 Z
Electronic contribution:     -5.342936639      -2.978382300     -13.191662671
Nuclear contribution   :      6.339896235       3.881360134      13.888629629
                        -----------------------------------------
Total Dipole Moment    :      0.996959596       0.902977834       0.696966957
                        -----------------------------------------
Magnitude (a.u.)       :      1.514945657
Magnitude (Debye)      :      3.850685842

Rotational constants in cm-1:             0.012243             0.004614             0.004401
Rotational constants in MHz :           367.033268           138.311191           131.951207

                             ****ORCA TERMINATED NORMALLY****
TOTAL RUN TIME: 0 days 0 hours 0 minutes 20 seconds 858 msec
