                         Program Version 6.0.1  -  RELEASE   -
|  1> ! pbe def2-sv(p) def2/J RI DEFGRID1 loosescf d4 GCP(DFT/SV(P)) printgap
|  2> %output
|  3>     printlevel normal
|  4> end
|  5> * xyz 0 1
|  6> C 5.4926399394 -1.7432017439 -1.2457524998
|  7> C 4.6443668196 -0.4820010415 -1.2081521175
|  8> O 3.242288938 -0.7994064443 -1.3015240365
|  9> C 2.5876988197 -1.0761018948 -0.1910940708
| 10> O 3.0770348592 -1.0832911534 0.9146800137
| 11> C 1.1270972141 -1.3879585932 -0.4742648045
| 12> C 0.4656281833 -0.2318568208 -1.2301528405
| 13> H 0.9902159706 -0.0562936268 -2.1721067785
| 14> C 0.4834103807 1.0230698475 -0.3850393341
| 15> O -0.5395594364 1.5435863761 0.022187178
| 16> O 1.6885239832 1.4489103042 -0.1455626558
| 17> C 1.8632357468 2.5339566201 0.7965781483
| 18> C 1.8435835807 2.000339776 2.2191678241
| 19> S -1.2670362556 -0.5921926598 -1.6683803692
| 20> P -2.2825404166 -0.1556239137 0.135158613
| 21> S -1.5519705058 -0.4162490004 1.9499651686
| 22> O -3.2420283164 1.1121053615 -0.0380870672
| 23> C -3.0922503176 2.3827133537 0.5931110904
| 24> O -3.3571545199 -1.2990775325 -0.2181837952
| 25> C -4.459701787 -1.5814048182 0.6459075303
| 26> H 5.2855362246 -2.3591572101 -0.3736334444
| 27> H 5.2743081124 -2.3151088743 -2.1432453638
| 28> H 6.5426500484 -1.4700566583 -1.24192618
| 29> H 4.8377400907 0.1530687757 -2.0725334179
| 30> H 4.8144440538 0.071050628 -0.2805222689
| 31> H 0.6218984366 -1.5715500491 0.4766921082
| 32> H 1.0697586161 -2.2849609008 -1.0917184695
| 33> H 2.8341210591 2.9560930173 0.5393088238
| 34> H 1.0682749078 3.2667914369 0.6387995779
| 35> H 0.8652068245 1.5863284683 2.4581963676
| 36> H 2.582476329 1.2102934643 2.3328829469
| 37> H 2.0647975261 2.8051332431 2.9116646591
| 38> H -2.5639934752 2.2722241555 1.5411282753
| 39> H -4.1016403865 2.753120683 0.7592273043
| 40> H -2.5372033464 3.0511375052 -0.0616573651
| 41> H -4.8596758916 -2.5352019644 0.3111383869
| 42> H -5.2124437453 -0.7982207213 0.5611825829
| 43> H -4.1165711505 -1.6550692174 1.6803897403
| 44> *
| 45>
| 46>                          ****END OF INPUT****

CARTESIAN COORDINATES (ANGSTROEM)
---------------------------------
  C      5.492640   -1.743202   -1.245752
  C      4.644367   -0.482001   -1.208152
  O      3.242289   -0.799406   -1.301524
  C      2.587699   -1.076102   -0.191094
  O      3.077035   -1.083291    0.914680
  C      1.127097   -1.387959   -0.474265
  C      0.465628   -0.231857   -1.230153
  H      0.990216   -0.056294   -2.172107
  C      0.483410    1.023070   -0.385039
  O     -0.539559    1.543586    0.022187
  O      1.688524    1.448910   -0.145563
  C      1.863236    2.533957    0.796578
  C      1.843584    2.000340    2.219168
  S     -1.267036   -0.592193   -1.668380
  P     -2.282540   -0.155624    0.135159
  S     -1.551971   -0.416249    1.949965
  O     -3.242028    1.112105   -0.038087
  C     -3.092250    2.382713    0.593111
  O     -3.357155   -1.299078   -0.218184
  C     -4.459702   -1.581405    0.645908
  H      5.285536   -2.359157   -0.373633
  H      5.274308   -2.315109   -2.143245
  H      6.542650   -1.470057   -1.241926
  H      4.837740    0.153069   -2.072533
  H      4.814444    0.071051   -0.280522
  H      0.621898   -1.571550    0.476692
  H      1.069759   -2.284961   -1.091718
  H      2.834121    2.956093    0.539309
  H      1.068275    3.266791    0.638800
  H      0.865207    1.586328    2.458196
  H      2.582476    1.210293    2.332883
  H      2.064798    2.805133    2.911665
  H     -2.563993    2.272224    1.541128
  H     -4.101640    2.753121    0.759227
  H     -2.537203    3.051138   -0.061657
  H     -4.859676   -2.535202    0.311138
  H     -5.212444   -0.798221    0.561183
  H     -4.116571   -1.655069    1.680390

 Total Charge           Charge          ....    0
 Multiplicity           Mult            ....    1
 Number of Electrons    NEL             ....  174
 Basis Dimension        Dim             ....  316

ORBITAL ENERGIES
----------------

  NO   OCC          E(Eh)            E(eV)
   0   2.0000     -88.033851     -2395.5229
   1   2.0000     -87.971325     -2393.8215
   2   2.0000     -76.418419     -2079.4509
   3   2.0000     -18.830559      -512.4055
   4   2.0000     -18.806780      -511.7585
   5   2.0000     -18.780047      -511.0310
   6   2.0000     -18.769173      -510.7352
   7   2.0000     -18.768984      -510.7300
   8   2.0000     -18.741971      -509.9950
   9   2.0000     -10.036127      -273.0969
  10   2.0000     -10.013184      -272.4726
  11   2.0000      -9.961122      -271.0559
  12   2.0000      -9.954114      -270.8652
  13   2.0000      -9.953761      -270.8556
  14   2.0000      -9.932416      -270.2748
  15   2.0000      -9.928827      -270.1771
  16   2.0000      -9.908788      -269.6318
  17   2.0000      -9.891587      -269.1638
  18   2.0000      -9.883657      -268.9480
  19   2.0000      -7.679157      -208.9605
  20   2.0000      -7.616232      -207.2482
  21   2.0000      -6.413899      -174.5311
  22   2.0000      -5.707459      -155.3079
  23   2.0000      -5.703814      -155.2087
  24   2.0000      -5.695452      -154.9811
  25   2.0000      -5.645318      -153.6169
  26   2.0000      -5.637162      -153.3950
  27   2.0000      -5.635895      -153.3605
  28   2.0000      -4.636617      -126.1688
  29   2.0000      -4.635893      -126.1491
  30   2.0000      -4.634515      -126.1116
  31   2.0000      -1.041388       -28.3376
  32   2.0000      -1.014693       -27.6112
  33   2.0000      -0.968744       -26.3609
  34   2.0000      -0.946884       -25.7660
  35   2.0000      -0.923275       -25.1236
  36   2.0000      -0.918931       -25.0054
  37   2.0000      -0.770331       -20.9618
  38   2.0000      -0.715059       -19.4577
  39   2.0000      -0.713843       -19.4247
  40   2.0000      -0.687237       -18.7007
  41   2.0000      -0.652331       -17.7508
  42   2.0000      -0.625955       -17.0331
  43   2.0000      -0.618321       -16.8254
  44   2.0000      -0.615600       -16.7513
  45   2.0000      -0.597139       -16.2490
  46   2.0000      -0.569247       -15.4900
  47   2.0000      -0.511936       -13.9305
  48   2.0000      -0.509686       -13.8693
  49   2.0000      -0.502328       -13.6690
  50   2.0000      -0.489224       -13.3125
  51   2.0000      -0.469857       -12.7855
  52   2.0000      -0.464400       -12.6370
  53   2.0000      -0.451823       -12.2947
  54   2.0000      -0.450227       -12.2513
  55   2.0000      -0.428771       -11.6675
  56   2.0000      -0.420499       -11.4424
  57   2.0000      -0.419396       -11.4123
  58   2.0000      -0.414236       -11.2719
  59   2.0000      -0.405065       -11.0224
  60   2.0000      -0.399677       -10.8758
  61   2.0000      -0.396318       -10.7844
  62   2.0000      -0.388588       -10.5740
  63   2.0000      -0.383833       -10.4446
  64   2.0000      -0.374330       -10.1860
  65   2.0000      -0.367953       -10.0125
  66   2.0000      -0.365901        -9.9567
  67   2.0000      -0.352310        -9.5868
  68   2.0000      -0.350454        -9.5363
  69   2.0000      -0.343799        -9.3552
  70   2.0000      -0.340809        -9.2739
  71   2.0000      -0.331469        -9.0197
  72   2.0000      -0.327262        -8.9052
  73   2.0000      -0.310539        -8.4502
  74   2.0000      -0.304583        -8.2881
  75   2.0000      -0.298833        -8.1317
  76   2.0000      -0.293091        -7.9754
  77   2.0000      -0.286047        -7.7837
  78   2.0000      -0.276074        -7.5124
  79   2.0000      -0.264960        -7.2099
  80   2.0000      -0.260497        -7.0885
  81   2.0000      -0.257181        -6.9982
  82   2.0000      -0.246703        -6.7131
  83   2.0000      -0.228517        -6.2183
  84   2.0000      -0.209901        -5.7117
  85   2.0000      -0.190716        -5.1897
  86   2.0000      -0.184002        -5.0070
  87   0.0000      -0.051951        -1.4137
  88   0.0000      -0.041482        -1.1288
  89   0.0000      -0.024730        -0.6729
  90   0.0000       0.011674         0.3177
  91   0.0000       0.030786         0.8377

MULLIKEN ATOMIC CHARGES
-----------------------
   0 C :   -0.304295
   1 C :   -0.011343
   2 O :   -0.240783
   3 C :    0.108216
   4 O :   -0.194711
   5 C :   -0.044073
   6 C :   -0.335305
   7 H :    0.156706
   8 C :    0.234667
   9 O :   -0.200491
  10 O :   -0.214159
  11 C :   -0.012407
  12 C :   -0.330220
  13 S :   -0.055629
  14 P :    0.646353
  15 S :   -0.344495
  16 O :   -0.391040
  17 C :   -0.084058
  18 O :   -0.394101
  19 C :   -0.095344
  20 H :    0.129392
  21 H :    0.114981
  22 H :    0.113956
  23 H :    0.101685
  24 H :    0.106231
  25 H :    0.124574
  26 H :    0.124129
  27 H :    0.107265
  28 H :    0.111666
  29 H :    0.143902
  30 H :    0.139568
  31 H :    0.111503
  32 H :    0.113458
  33 H :    0.114537
  34 H :    0.111736
  35 H :    0.119629
  36 H :    0.106238
  37 H :    0.112063
Sum of atomic charges:    0.0000000

LOEWDIN ATOMIC CHARGES
----------------------
   0 C :   -0.355626
   1 C :   -0.110198
   2 O :   -0.062812
   3 C :    0.023302
   4 O :   -0.159878
   5 C :   -0.247435
   6 C :   -0.269534
   7 H :    0.149987
   8 C :    0.035929
   9 O :   -0.149384
  10 O :   -0.023492
  11 C :   -0.103411
  12 C :   -0.363653
  13 S :    0.124515
  14 P :    0.589624
  15 S :   -0.340766
  16 O :   -0.252514
  17 C :   -0.211996
  18 O :   -0.271273
  19 C :   -0.216229
  20 H :    0.131865
  21 H :    0.125396
  22 H :    0.131199
  23 H :    0.117209
  24 H :    0.118649
  25 H :    0.137580
  26 H :    0.145594
  27 H :    0.120183
  28 H :    0.120964
  29 H :    0.132143
  30 H :    0.134555
  31 H :    0.130538
  32 H :    0.107950
  33 H :    0.115004
  34 H :    0.110984
  35 H :    0.119470
  36 H :    0.108448
  37 H :    0.107113

  Mayer bond orders larger than 0.100000
B(  0-C ,  1-C ) :   1.1747 B(  0-C , 20-H ) :   0.9459 B(  0-C , 21-H ) :   0.9487
B(  0-C , 22-H ) :   0.9441 B(  1-C ,  2-O ) :   0.9157 B(  1-C , 23-H ) :   0.9370
B(  1-C , 24-H ) :   0.9136 B(  2-O ,  3-C ) :   1.1966 B(  3-C ,  4-O ) :   2.0383
B(  3-C ,  5-C ) :   1.0158 B(  5-C ,  6-C ) :   1.0179 B(  5-C , 25-H ) :   0.8797
B(  5-C , 26-H ) :   0.8868 B(  6-C ,  7-H ) :   0.8666 B(  6-C ,  8-C ) :   0.9085
B(  6-C , 13-S ) :   1.0438 B(  8-C ,  9-O ) :   1.8961 B(  8-C , 10-O ) :   1.2865
B(  9-O , 14-P ) :   0.1434 B( 10-O , 11-C ) :   0.8842 B( 11-C , 12-C ) :   1.1771
B( 11-C , 27-H ) :   0.9360 B( 11-C , 28-H ) :   0.9176 B( 12-C , 29-H ) :   0.9297
B( 12-C , 30-H ) :   0.9372 B( 12-C , 31-H ) :   0.9395 B( 13-S , 14-P ) :   0.9319
B( 13-S , 15-S ) :   0.1088 B( 14-P , 15-S ) :   1.5478 B( 14-P , 16-O ) :   1.0910
B( 14-P , 18-O ) :   1.0705 B( 16-O , 17-C ) :   0.9330 B( 17-C , 32-H ) :   0.9350
B( 17-C , 33-H ) :   0.9543 B( 17-C , 34-H ) :   0.9537 B( 18-O , 19-C ) :   0.9421
B( 19-C , 35-H ) :   0.9609 B( 19-C , 36-H ) :   0.9511 B( 19-C , 37-H ) :   0.9324

Dispersion correction           -0.052758331
FINAL SINGLE POINT ENERGY     -1979.012550464578

DIPOLE MOMENT
-------------

Method             : SCF
Type of density    : Electron Density
Multiplicity       :   1
Irrep              :   0
Energy             : -1979.1445443458856062 Eh
Relativity type    :
Basis              : AO
                                X                 Y                 Z
Electronic contribution:    -15.632812306      -3.863573373      -5.114032509
Nuclear contribution   :     16.637977838       4.947467115       4.337874148
                        -----------------------------------------
Total Dipole Moment    :      1.005165532       1.083893742      -0.776158361
                        -----------------------------------------
Magnitude (a.u.)       :      1.669612288
Magnitude (Debye)      :      4.243817174

Rotational constants in cm-1:             0.017639             0.006046             0.005408
Rotational constants in MHz :           528.813961           181.240891           162.124694

                             ****ORCA TERMINATED NORMALLY****
TOTAL RUN TIME: 0 days 0 hours 0 minutes 45 seconds 367 msec
