                         Program Version 6.0.0  -   RELEASE  -
|  1> ! r2scan-3c def2/J RI DEFGRID2 scfconv6 printgap
|  2> %output
|  3>     printlevel normal
|  4> end
|  5> * xyz 0 1
|  6> C 2.1576050935 -1.1978472969 -0.1020708583
|  7> C 1.3993621171 0.1027772766 0.0063700171
|  8> O 1.9707768012 1.1977310881 0.0550417436
|  9> N 0.0682712957 0.0091466028 0.0483807225
| 10> C -0.712530273 -1.2142973981 -0.0289696191
| 11> C -2.1471983659 -0.7552489551 0.2308214997
| 12> C -2.1536996621 0.6719943447 -0.3135186059
| 13> C -0.7833789467 1.1885399992 0.1088137302
| 14> H 1.8381728591 -1.7482781285 -0.9829667069
| 15> H 1.9784489513 -1.8097117177 0.778415526
| 16> H 3.2184888696 -0.9769036071 -0.1748819683
| 17> H -0.6167633637 -1.6539318658 -1.0274853806
| 18> H -0.370109673 -1.9425721197 0.7077642228
| 19> H -2.8761503234 -1.3964593044 -0.2574192462
| 20> H -2.3478322935 -0.7438949767 1.3017932535
| 21> H -2.230745342 0.6615167987 -1.4005314096
| 22> H -2.9607860454 1.2757116991 0.0919902867
| 23> H -0.3772847259 1.966029515 -0.5411162068
| 24> H -0.7964481638 1.5774794829 1.1328144422
| 25> *
| 26>
| 27>                          ****END OF INPUT****

CARTESIAN COORDINATES (ANGSTROEM)
---------------------------------
  C      2.157605   -1.197847   -0.102071
  C      1.399362    0.102777    0.006370
  O      1.970777    1.197731    0.055042
  N      0.068271    0.009147    0.048381
  C     -0.712530   -1.214297   -0.028970
  C     -2.147198   -0.755249    0.230821
  C     -2.153700    0.671994   -0.313519
  C     -0.783379    1.188540    0.108814
  H      1.838173   -1.748278   -0.982967
  H      1.978449   -1.809712    0.778416
  H      3.218489   -0.976904   -0.174882
  H     -0.616763   -1.653932   -1.027485
  H     -0.370110   -1.942572    0.707764
  H     -2.876150   -1.396459   -0.257419
  H     -2.347832   -0.743895    1.301793
  H     -2.230745    0.661517   -1.400531
  H     -2.960786    1.275712    0.091990
  H     -0.377285    1.966030   -0.541116
  H     -0.796448    1.577479    1.132814

 Total Charge           Charge          ....    0
 Multiplicity           Mult            ....    1
 Number of Electrons    NEL             ....   62
 Basis Dimension        Dim             ....  217

ORBITAL ENERGIES
----------------

  NO   OCC          E(Eh)            E(eV)
   0   2.0000     -18.893172      -514.1094
   1   2.0000     -14.184851      -385.9894
   2   2.0000     -10.113911      -275.2135
   3   2.0000     -10.077059      -274.2107
   4   2.0000     -10.063703      -273.8473
   5   2.0000     -10.047143      -273.3967
   6   2.0000     -10.042921      -273.2818
   7   2.0000     -10.028625      -272.8928
   8   2.0000      -0.984749       -26.7964
   9   2.0000      -0.909875       -24.7589
  10   2.0000      -0.773012       -21.0347
  11   2.0000      -0.720247       -19.5989
  12   2.0000      -0.692932       -18.8556
  13   2.0000      -0.611877       -16.6500
  14   2.0000      -0.571044       -15.5389
  15   2.0000      -0.522674       -14.2227
  16   2.0000      -0.483507       -13.1569
  17   2.0000      -0.448047       -12.1920
  18   2.0000      -0.423378       -11.5207
  19   2.0000      -0.407053       -11.0765
  20   2.0000      -0.405093       -11.0231
  21   2.0000      -0.393374       -10.7043
  22   2.0000      -0.375325       -10.2131
  23   2.0000      -0.359133        -9.7725
  24   2.0000      -0.342057        -9.3078
  25   2.0000      -0.331308        -9.0154
  26   2.0000      -0.327811        -8.9202
  27   2.0000      -0.318859        -8.6766
  28   2.0000      -0.307099        -8.3566
  29   2.0000      -0.208522        -5.6742
  30   2.0000      -0.201745        -5.4898
  31   0.0000       0.008785         0.2391
  32   0.0000       0.065083         1.7710
  33   0.0000       0.094854         2.5811
  34   0.0000       0.101560         2.7636
  35   0.0000       0.105556         2.8723

MULLIKEN ATOMIC CHARGES
-----------------------
   0 C :   -0.523253
   1 C :    0.256493
   2 O :   -0.457753
   3 N :    0.145390
   4 C :   -0.335061
   5 C :   -0.268089
   6 C :   -0.247020
   7 C :   -0.354509
   8 H :    0.152702
   9 H :    0.161778
  10 H :    0.184340
  11 H :    0.159447
  12 H :    0.149539
  13 H :    0.154610
  14 H :    0.164488
  15 H :    0.161383
  16 H :    0.154757
  17 H :    0.181366
  18 H :    0.159391
Sum of atomic charges:    0.0000000

LOEWDIN ATOMIC CHARGES
----------------------
   0 C :   -0.348877
   1 C :    0.324385
   2 O :   -0.483726
   3 N :   -0.830520
   4 C :   -0.020344
   5 C :   -0.254863
   6 C :   -0.255827
   7 C :   -0.014531
   8 H :    0.168191
   9 H :    0.168974
  10 H :    0.177109
  11 H :    0.172093
  12 H :    0.177497
  13 H :    0.161902
  14 H :    0.161882
  15 H :    0.160951
  16 H :    0.162665
  17 H :    0.194813
  18 H :    0.178227

  Mayer bond orders larger than 0.100000
B(  0-C ,  1-C ) :   0.8844 B(  0-C ,  8-H ) :   0.9576 B(  0-C ,  9-H ) :   0.9662
B(  0-C , 10-H ) :   0.9775 B(  1-C ,  2-O ) :   1.7923 B(  1-C ,  3-N ) :   1.2412
B(  3-N ,  4-C ) :   0.9482 B(  3-N ,  7-C ) :   0.9240 B(  4-C ,  5-C ) :   0.9457
B(  4-C , 11-H ) :   0.9427 B(  4-C , 12-H ) :   0.9509 B(  5-C ,  6-C ) :   0.8959
B(  5-C , 13-H ) :   0.9621 B(  5-C , 14-H ) :   0.9818 B(  6-C ,  7-C ) :   0.9027
B(  6-C , 15-H ) :   0.9806 B(  6-C , 16-H ) :   0.9630 B(  7-C , 17-H ) :   0.9541
B(  7-C , 18-H ) :   0.9500

Dispersion correction           -0.005556451
FINAL SINGLE POINT ENERGY      -365.154636851639

DIPOLE MOMENT
-------------

Method             : SCF
Type of density    : Electron Density
Multiplicity       :   1
Irrep              :   0
Energy             :  -365.1628485241094495 Eh
Relativity type    :
Basis              : AO
                                X                 Y                 Z
Electronic contribution:      3.818170446       3.341245938       0.286768921
Nuclear contribution   :     -5.168801056      -4.476965280      -0.347563584
                        -----------------------------------------
Total Dipole Moment    :     -1.350630610      -1.135719342      -0.060794664
                        -----------------------------------------
Magnitude (a.u.)       :      1.765717265
Magnitude (Debye)      :      4.488096613

Rotational constants in cm-1:             0.137172             0.052069             0.039644
Rotational constants in MHz :          4112.300054          1560.993847          1188.507476

                             ****ORCA TERMINATED NORMALLY****
TOTAL RUN TIME: 0 days 0 hours 0 minutes 48 seconds 685 msec
