                         Program Version 6.0.0  -   RELEASE  -
|  1> ! r2scan-3c def2/J RI DEFGRID2 scfconv6 printgap
|  2> %output
|  3>     printlevel normal
|  4> end
|  5> %cpcm
|  6>     smd true
|  7>     smdsolvent "water"
|  8> end
|  9> * xyz 0 1
| 10> C 2.1576050935 -1.1978472969 -0.1020708583
| 11> C 1.3993621171 0.1027772766 0.0063700171
| 12> O 1.9707768012 1.1977310881 0.0550417436
| 13> N 0.0682712957 0.0091466028 0.0483807225
| 14> C -0.712530273 -1.2142973981 -0.0289696191
| 15> C -2.1471983659 -0.7552489551 0.2308214997
| 16> C -2.1536996621 0.6719943447 -0.3135186059
| 17> C -0.7833789467 1.1885399992 0.1088137302
| 18> H 1.8381728591 -1.7482781285 -0.9829667069
| 19> H 1.9784489513 -1.8097117177 0.778415526
| 20> H 3.2184888696 -0.9769036071 -0.1748819683
| 21> H -0.6167633637 -1.6539318658 -1.0274853806
| 22> H -0.370109673 -1.9425721197 0.7077642228
| 23> H -2.8761503234 -1.3964593044 -0.2574192462
| 24> H -2.3478322935 -0.7438949767 1.3017932535
| 25> H -2.230745342 0.6615167987 -1.4005314096
| 26> H -2.9607860454 1.2757116991 0.0919902867
| 27> H -0.3772847259 1.966029515 -0.5411162068
| 28> H -0.7964481638 1.5774794829 1.1328144422
| 29> *
| 30>
| 31>                          ****END OF INPUT****

CARTESIAN COORDINATES (ANGSTROEM)
---------------------------------
  C      2.157605   -1.197847   -0.102071
  C      1.399362    0.102777    0.006370
  O      1.970777    1.197731    0.055042
  N      0.068271    0.009147    0.048381
  C     -0.712530   -1.214297   -0.028970
  C     -2.147198   -0.755249    0.230821
  C     -2.153700    0.671994   -0.313519
  C     -0.783379    1.188540    0.108814
  H      1.838173   -1.748278   -0.982967
  H      1.978449   -1.809712    0.778416
  H      3.218489   -0.976904   -0.174882
  H     -0.616763   -1.653932   -1.027485
  H     -0.370110   -1.942572    0.707764
  H     -2.876150   -1.396459   -0.257419
  H     -2.347832   -0.743895    1.301793
  H     -2.230745    0.661517   -1.400531
  H     -2.960786    1.275712    0.091990
  H     -0.377285    1.966030   -0.541116
  H     -0.796448    1.577479    1.132814

 Total Charge           Charge          ....    0
 Multiplicity           Mult            ....    1
 Number of Electrons    NEL             ....   62
 Basis Dimension        Dim             ....  217

ORBITAL ENERGIES
----------------

  NO   OCC          E(Eh)            E(eV)
   0   2.0000     -18.916235      -514.7369
   1   2.0000     -14.186961      -386.0468
   2   2.0000     -10.125853      -275.5385
   3   2.0000     -10.059233      -273.7256
   4   2.0000     -10.056330      -273.6466
   5   2.0000     -10.026448      -272.8335
   6   2.0000     -10.025634      -272.8114
   7   2.0000     -10.022664      -272.7306
   8   2.0000      -1.002629       -27.2829
   9   2.0000      -0.912359       -24.8266
  10   2.0000      -0.762733       -20.7550
  11   2.0000      -0.710298       -19.3282
  12   2.0000      -0.685340       -18.6490
  13   2.0000      -0.604222       -16.4417
  14   2.0000      -0.556014       -15.1299
  15   2.0000      -0.512673       -13.9506
  16   2.0000      -0.471121       -12.8199
  17   2.0000      -0.452220       -12.3055
  18   2.0000      -0.422640       -11.5006
  19   2.0000      -0.404100       -10.9961
  20   2.0000      -0.392877       -10.6907
  21   2.0000      -0.383633       -10.4392
  22   2.0000      -0.364645        -9.9225
  23   2.0000      -0.356030        -9.6881
  24   2.0000      -0.349321        -9.5055
  25   2.0000      -0.323118        -8.7925
  26   2.0000      -0.314600        -8.5607
  27   2.0000      -0.313207        -8.5228
  28   2.0000      -0.295044        -8.0286
  29   2.0000      -0.227700        -6.1960
  30   2.0000      -0.214049        -5.8246
  31   0.0000      -0.000387        -0.0105
  32   0.0000       0.075990         2.0678
  33   0.0000       0.108649         2.9565
  34   0.0000       0.116265         3.1637
  35   0.0000       0.123427         3.3586

MULLIKEN ATOMIC CHARGES
-----------------------
   0 C :   -0.558178
   1 C :    0.286793
   2 O :   -0.590939
   3 N :    0.148933
   4 C :   -0.343349
   5 C :   -0.280198
   6 C :   -0.267666
   7 C :   -0.363969
   8 H :    0.188317
   9 H :    0.197428
  10 H :    0.181596
  11 H :    0.182908
  12 H :    0.173415
  13 H :    0.170696
  14 H :    0.178132
  15 H :    0.175069
  16 H :    0.169739
  17 H :    0.174259
  18 H :    0.177014
Sum of atomic charges:    0.0000000

LOEWDIN ATOMIC CHARGES
----------------------
   0 C :   -0.348087
   1 C :    0.325057
   2 O :   -0.586782
   3 N :   -0.812434
   4 C :   -0.012996
   5 C :   -0.252524
   6 C :   -0.253119
   7 C :   -0.017478
   8 H :    0.182956
   9 H :    0.184035
  10 H :    0.174737
  11 H :    0.183834
  12 H :    0.188434
  13 H :    0.168542
  14 H :    0.166089
  15 H :    0.165748
  16 H :    0.168321
  17 H :    0.191653
  18 H :    0.184015

  Mayer bond orders larger than 0.100000
B(  0-C ,  1-C ) :   0.8993 B(  0-C ,  8-H ) :   0.9463 B(  0-C ,  9-H ) :   0.9505
B(  0-C , 10-H ) :   0.9742 B(  1-C ,  2-O ) :   1.6854 B(  1-C ,  3-N ) :   1.3107
B(  3-N ,  4-C ) :   0.9489 B(  3-N ,  7-C ) :   0.9168 B(  4-C ,  5-C ) :   0.9308
B(  4-C , 11-H ) :   0.9350 B(  4-C , 12-H ) :   0.9435 B(  5-C ,  6-C ) :   0.8899
B(  5-C , 13-H ) :   0.9574 B(  5-C , 14-H ) :   0.9819 B(  6-C ,  7-C ) :   0.9208
B(  6-C , 15-H ) :   0.9790 B(  6-C , 16-H ) :   0.9591 B(  7-C , 17-H ) :   0.9494
B(  7-C , 18-H ) :   0.9404

Dispersion correction           -0.005556451
FINAL SINGLE POINT ENERGY      -365.169542497823

DIPOLE MOMENT
-------------

Method             : SCF
Type of density    : Electron Density
Multiplicity       :   1
Irrep              :   0
Energy             :  -365.1777541702933831 Eh
Relativity type    :
Basis              : AO
                                X                 Y                 Z
Electronic contribution:      3.230210038       2.707380252       0.259339925
Nuclear contribution   :     -5.168801056      -4.476965280      -0.347563584
                        -----------------------------------------
Total Dipole Moment    :     -1.938591019      -1.769585028      -0.088223659
                        -----------------------------------------
Magnitude (a.u.)       :      2.626280587
Magnitude (Debye)      :      6.675474744

Rotational constants in cm-1:             0.137172             0.052069             0.039644
Rotational constants in MHz :          4112.300054          1560.993847          1188.507476

                             ****ORCA TERMINATED NORMALLY****
TOTAL RUN TIME: 0 days 0 hours 0 minutes 50 seconds 11 msec
