                         Program Version 6.0.0  -   RELEASE  -
|  1> ! r2scan-3c def2/J RI DEFGRID2 scfconv6 printgap
|  2> %output
|  3>     printlevel normal
|  4> end
|  5> * xyz 0 1
|  6> C 5.3323745602 -0.1658145108 -1.4362683692
|  7> C 4.5304659456 -0.5783881011 -0.2175956997
|  8> O 3.5629828449 0.4255317189 0.1457008951
|  9> P 2.0921128561 0.5076340235 -0.4623105634
| 10> S 1.9376817961 0.7749494159 -2.3928626258
| 11> O 1.5105058469 1.7009143167 0.3806361114
| 12> C 1.6311756313 1.7557098945 1.8265055009
| 13> C 0.5701389387 2.7019898716 2.3459943453
| 14> S 1.2490910867 -1.303231069 0.2782752302
| 15> C 0.1533208358 -1.766572898 -1.0980842899
| 16> S -1.5416877262 -2.0714250966 -0.5589609323
| 17> P -2.0052359413 -0.0957915838 0.0850564773
| 18> S -1.3717134951 1.3459179275 -1.0796974251
| 19> O -1.493292834 0.0428806153 1.5658164662
| 20> C -1.9110337887 -0.8714579984 2.6202653108
| 21> C -0.7261512839 -1.1404292168 3.5239213587
| 22> O -3.5778647851 -0.1747275973 0.2914255236
| 23> C -4.4828113839 -0.2505084077 -0.8293223965
| 24> C -5.8823876217 0.0063443989 -0.3092532119
| 25> H 6.0842850483 -0.9208591887 -1.6413264629
| 26> H 4.6812931658 -0.0663770468 -2.3020148445
| 27> H 5.8195183603 0.788920746 -1.2581810349
| 28> H 5.1671038854 -0.6640576595 0.6651991836
| 29> H 4.0138442681 -1.5268342727 -0.3888057996
| 30> H 1.4973264047 0.7450169997 2.2240334816
| 31> H 2.6379197585 2.107774891 2.0588449574
| 32> H -0.4181057388 2.3305588233 2.085557531
| 33> H 0.6569681738 2.7794191154 3.4249987053
| 34> H 0.6975369307 3.6842448122 1.8998095516
| 35> H 0.5089683606 -2.7027744784 -1.5209505684
| 36> H 0.1762372977 -0.9634315552 -1.8407443067
| 37> H -2.725517979 -0.3802943679 3.1543068164
| 38> H -2.2797332189 -1.7928054622 2.1613748019
| 39> H 0.0736528388 -1.61994364 2.9644026465
| 40> H -0.3571676655 -0.2096804375 3.945128783
| 41> H -1.0406372291 -1.797543373 4.3282481342
| 42> H -4.1817369275 0.4974440566 -1.5700564641
| 43> H -4.3961882421 -1.2467322336 -1.2713807125
| 44> H -6.1406632338 -0.7355426937 0.4405449751
| 45> H -5.9387560356 0.9949332168 0.1374886868
| 46> H -6.5849268213 -0.0547881072 -1.1337593427
| 47> *
| 48>
| 49>                          ****END OF INPUT****

CARTESIAN COORDINATES (ANGSTROEM)
---------------------------------
  C      5.332375   -0.165815   -1.436268
  C      4.530466   -0.578388   -0.217596
  O      3.562983    0.425532    0.145701
  P      2.092113    0.507634   -0.462311
  S      1.937682    0.774949   -2.392863
  O      1.510506    1.700914    0.380636
  C      1.631176    1.755710    1.826506
  C      0.570139    2.701990    2.345994
  S      1.249091   -1.303231    0.278275
  C      0.153321   -1.766573   -1.098084
  S     -1.541688   -2.071425   -0.558961
  P     -2.005236   -0.095792    0.085056
  S     -1.371713    1.345918   -1.079697
  O     -1.493293    0.042881    1.565816
  C     -1.911034   -0.871458    2.620265
  C     -0.726151   -1.140429    3.523921
  O     -3.577865   -0.174728    0.291426
  C     -4.482811   -0.250508   -0.829322
  C     -5.882388    0.006344   -0.309253
  H      6.084285   -0.920859   -1.641326
  H      4.681293   -0.066377   -2.302015
  H      5.819518    0.788921   -1.258181
  H      5.167104   -0.664058    0.665199
  H      4.013844   -1.526834   -0.388806
  H      1.497326    0.745017    2.224033
  H      2.637920    2.107775    2.058845
  H     -0.418106    2.330559    2.085558
  H      0.656968    2.779419    3.424999
  H      0.697537    3.684245    1.899810
  H      0.508968   -2.702774   -1.520951
  H      0.176237   -0.963432   -1.840744
  H     -2.725518   -0.380294    3.154307
  H     -2.279733   -1.792805    2.161375
  H      0.073653   -1.619944    2.964403
  H     -0.357168   -0.209680    3.945129
  H     -1.040637   -1.797543    4.328248
  H     -4.181737    0.497444   -1.570056
  H     -4.396188   -1.246732   -1.271381
  H     -6.140663   -0.735543    0.440545
  H     -5.938756    0.994933    0.137489
  H     -6.584927   -0.054788   -1.133759

 Total Charge           Charge          ....    0
 Multiplicity           Mult            ....    1
 Number of Electrons    NEL             ....  202
 Basis Dimension        Dim             ....  539

ORBITAL ENERGIES
----------------

  NO   OCC          E(Eh)            E(eV)
   0   2.0000     -88.576084     -2410.2778
   1   2.0000     -88.572262     -2410.1738
   2   2.0000     -88.512160     -2408.5383
   3   2.0000     -88.511906     -2408.5314
   4   2.0000     -76.910394     -2092.8382
   5   2.0000     -76.908107     -2092.7760
   6   2.0000     -18.993885      -516.8499
   7   2.0000     -18.992268      -516.8059
   8   2.0000     -18.987098      -516.6652
   9   2.0000     -18.982292      -516.5344
  10   2.0000     -10.105701      -274.9901
  11   2.0000     -10.103595      -274.9328
  12   2.0000     -10.099331      -274.8168
  13   2.0000     -10.096646      -274.7437
  14   2.0000     -10.095431      -274.7106
  15   2.0000     -10.036958      -273.1195
  16   2.0000     -10.034142      -273.0429
  17   2.0000     -10.022259      -272.7195
  18   2.0000     -10.020897      -272.6825
  19   2.0000      -7.870533      -214.1681
  20   2.0000      -7.866849      -214.0678
  21   2.0000      -7.806733      -212.4320
  22   2.0000      -7.806590      -212.4281
  23   2.0000      -6.588951      -179.2945
  24   2.0000      -6.586314      -179.2227
  25   2.0000      -5.817376      -158.2988
  26   2.0000      -5.814112      -158.2100
  27   2.0000      -5.813602      -158.1962
  28   2.0000      -5.810537      -158.1128
  29   2.0000      -5.807938      -158.0420
  30   2.0000      -5.804187      -157.9399
  31   2.0000      -5.754546      -156.5892
  32   2.0000      -5.754432      -156.5861
  33   2.0000      -5.747001      -156.3838
  34   2.0000      -5.746785      -156.3780
  35   2.0000      -5.746573      -156.3722
  36   2.0000      -5.746557      -156.3718
  37   2.0000      -4.734772      -128.8397
  38   2.0000      -4.734057      -128.8202
  39   2.0000      -4.732177      -128.7691
  40   2.0000      -4.732000      -128.7643
  41   2.0000      -4.731429      -128.7487
  42   2.0000      -4.729765      -128.7034
  43   2.0000      -1.052682       -28.6449
  44   2.0000      -1.045287       -28.4437
  45   2.0000      -1.011033       -27.5116
  46   2.0000      -1.001795       -27.2602
  47   2.0000      -0.798352       -21.7243
  48   2.0000      -0.759794       -20.6750
  49   2.0000      -0.749848       -20.4044
  50   2.0000      -0.738291       -20.0899
  51   2.0000      -0.727655       -19.8005
  52   2.0000      -0.708422       -19.2771
  53   2.0000      -0.680705       -18.5229
  54   2.0000      -0.662405       -18.0250
  55   2.0000      -0.616772       -16.7832
  56   2.0000      -0.611551       -16.6411
  57   2.0000      -0.607980       -16.5440
  58   2.0000      -0.598654       -16.2902
  59   2.0000      -0.597257       -16.2522
  60   2.0000      -0.538258       -14.6467
  61   2.0000      -0.526258       -14.3202
  62   2.0000      -0.502819       -13.6824
  63   2.0000      -0.494009       -13.4427
  64   2.0000      -0.469624       -12.7791
  65   2.0000      -0.465332       -12.6623
  66   2.0000      -0.456337       -12.4176
  67   2.0000      -0.452255       -12.3065
  68   2.0000      -0.447685       -12.1821
  69   2.0000      -0.434491       -11.8231
  70   2.0000      -0.421583       -11.4719
  71   2.0000      -0.413633       -11.2555
  72   2.0000      -0.408908       -11.1269
  73   2.0000      -0.397937       -10.8284
  74   2.0000      -0.394771       -10.7423
  75   2.0000      -0.382756       -10.4153
  76   2.0000      -0.375596       -10.2205
  77   2.0000      -0.370895       -10.0926
  78   2.0000      -0.366992        -9.9863
  79   2.0000      -0.364481        -9.9180
  80   2.0000      -0.361833        -9.8460
  81   2.0000      -0.359364        -9.7788
  82   2.0000      -0.354505        -9.6466
  83   2.0000      -0.344988        -9.3876
  84   2.0000      -0.344315        -9.3693
  85   2.0000      -0.329629        -8.9697
  86   2.0000      -0.323713        -8.8087
  87   2.0000      -0.319854        -8.7037
  88   2.0000      -0.316498        -8.6123
  89   2.0000      -0.308039        -8.3822
  90   2.0000      -0.305236        -8.3059
  91   2.0000      -0.290156        -7.8955
  92   2.0000      -0.282087        -7.6760
  93   2.0000      -0.275349        -7.4926
  94   2.0000      -0.269865        -7.3434
  95   2.0000      -0.248479        -6.7614
  96   2.0000      -0.234177        -6.3723
  97   2.0000      -0.222606        -6.0574
  98   2.0000      -0.211980        -5.7683
  99   2.0000      -0.203025        -5.5246
 100   2.0000      -0.194137        -5.2827
 101   0.0000      -0.041538        -1.1303
 102   0.0000      -0.031678        -0.8620
 103   0.0000      -0.004747        -0.1292
 104   0.0000       0.013895         0.3781
 105   0.0000       0.018123         0.4932

MULLIKEN ATOMIC CHARGES
-----------------------
   0 C :   -0.436822
   1 C :   -0.156598
   2 O :   -0.287572
   3 P :    0.693537
   4 S :   -0.432859
   5 O :   -0.265861
   6 C :   -0.094716
   7 C :   -0.481397
   8 S :   -0.218391
   9 C :   -0.217959
  10 S :   -0.179527
  11 P :    0.631395
  12 S :   -0.387655
  13 O :   -0.257154
  14 C :   -0.090084
  15 C :   -0.480642
  16 O :   -0.284499
  17 C :   -0.157839
  18 C :   -0.438291
  19 H :    0.141854
  20 H :    0.180071
  21 H :    0.150845
  22 H :    0.146803
  23 H :    0.152609
  24 H :    0.148524
  25 H :    0.155976
  26 H :    0.187128
  27 H :    0.138967
  28 H :    0.155146
  29 H :    0.191387
  30 H :    0.224996
  31 H :    0.156058
  32 H :    0.155112
  33 H :    0.174096
  34 H :    0.157347
  35 H :    0.147391
  36 H :    0.173388
  37 H :    0.149007
  38 H :    0.150060
  39 H :    0.158571
  40 H :    0.147598
Sum of atomic charges:   -0.0000000

LOEWDIN ATOMIC CHARGES
----------------------
   0 C :   -0.403061
   1 C :    0.019343
   2 O :   -0.672329
   3 P :    0.374473
   4 S :   -0.097340
   5 O :   -0.648953
   6 C :    0.025208
   7 C :   -0.392049
   8 S :    0.122054
   9 C :   -0.418530
  10 S :    0.117313
  11 P :    0.365276
  12 S :   -0.052184
  13 O :   -0.664250
  14 C :    0.023329
  15 C :   -0.396116
  16 O :   -0.672812
  17 C :    0.020525
  18 C :   -0.385609
  19 H :    0.156370
  20 H :    0.169778
  21 H :    0.159188
  22 H :    0.177520
  23 H :    0.174387
  24 H :    0.174015
  25 H :    0.174663
  26 H :    0.175319
  27 H :    0.156546
  28 H :    0.163154
  29 H :    0.179026
  30 H :    0.203157
  31 H :    0.176383
  32 H :    0.177079
  33 H :    0.165680
  34 H :    0.159898
  35 H :    0.159714
  36 H :    0.181852
  37 H :    0.171329
  38 H :    0.158295
  39 H :    0.161927
  40 H :    0.160435

  Mayer bond orders larger than 0.100000
B(  0-C ,  1-C ) :   0.9554 B(  0-C , 19-H ) :   0.9658 B(  0-C , 20-H ) :   0.9529
B(  0-C , 21-H ) :   0.9728 B(  1-C ,  2-O ) :   0.7940 B(  1-C , 22-H ) :   0.9656
B(  1-C , 23-H ) :   0.9584 B(  2-O ,  3-P ) :   1.0433 B(  3-P ,  4-S ) :   1.8288
B(  3-P ,  5-O ) :   1.1893 B(  3-P ,  8-S ) :   0.9856 B(  5-O ,  6-C ) :   0.7287
B(  6-C ,  7-C ) :   0.9410 B(  6-C , 24-H ) :   0.9537 B(  6-C , 25-H ) :   0.9444
B(  7-C , 26-H ) :   0.9633 B(  7-C , 27-H ) :   0.9674 B(  7-C , 28-H ) :   0.9675
B(  8-S ,  9-C ) :   0.8966 B(  9-C , 10-S ) :   0.9245 B(  9-C , 29-H ) :   0.9162
B(  9-C , 30-H ) :   0.9034 B( 10-S , 11-P ) :   0.9781 B( 11-P , 12-S ) :   1.8894
B( 11-P , 13-O ) :   1.1184 B( 11-P , 16-O ) :   1.0602 B( 13-O , 14-C ) :   0.7410
B( 14-C , 15-C ) :   0.9460 B( 14-C , 31-H ) :   0.9500 B( 14-C , 32-H ) :   0.9559
B( 15-C , 33-H ) :   0.9657 B( 15-C , 34-H ) :   0.9726 B( 15-C , 35-H ) :   0.9626
B( 16-O , 17-C ) :   0.7888 B( 17-C , 18-C ) :   0.9552 B( 17-C , 36-H ) :   0.9503
B( 17-C , 37-H ) :   0.9421 B( 18-C , 38-H ) :   0.9716 B( 18-C , 39-H ) :   0.9712
B( 18-C , 40-H ) :   0.9638

Dispersion correction           -0.021910769
FINAL SINGLE POINT ENERGY     -2932.458721029827

DIPOLE MOMENT
-------------

Method             : SCF
Type of density    : Electron Density
Multiplicity       :   1
Irrep              :   0
Energy             : -2932.4833336301012423 Eh
Relativity type    :
Basis              : AO
                                X                 Y                 Z
Electronic contribution:      1.643041996      -0.276274852     -14.266957882
Nuclear contribution   :     -2.007610144      -1.008922793      16.019701526
                        -----------------------------------------
Total Dipole Moment    :     -0.364568149      -1.285197645       1.752743644
                        -----------------------------------------
Magnitude (a.u.)       :      2.203804258
Magnitude (Debye)      :      5.601625254

Rotational constants in cm-1:             0.012883             0.005120             0.004818
Rotational constants in MHz :           386.210963           153.480642           144.428589

                             ****ORCA TERMINATED NORMALLY****
TOTAL RUN TIME: 0 days 0 hours 1 minutes 24 seconds 958 msec
