                         Program Version 6.0.0  -   RELEASE  -
|  1> ! r2scan-3c def2/J RI DEFGRID2 scfconv6 printgap
|  2> %output
|  3>     printlevel normal
|  4> end
|  5> %cpcm
|  6>     smd true
|  7>     smdsolvent "water"
|  8> end
|  9> * xyz 0 1
| 10> C 5.3323745602 -0.1658145108 -1.4362683692
| 11> C 4.5304659456 -0.5783881011 -0.2175956997
| 12> O 3.5629828449 0.4255317189 0.1457008951
| 13> P 2.0921128561 0.5076340235 -0.4623105634
| 14> S 1.9376817961 0.7749494159 -2.3928626258
| 15> O 1.5105058469 1.7009143167 0.3806361114
| 16> C 1.6311756313 1.7557098945 1.8265055009
| 17> C 0.5701389387 2.7019898716 2.3459943453
| 18> S 1.2490910867 -1.303231069 0.2782752302
| 19> C 0.1533208358 -1.766572898 -1.0980842899
| 20> S -1.5416877262 -2.0714250966 -0.5589609323
| 21> P -2.0052359413 -0.0957915838 0.0850564773
| 22> S -1.3717134951 1.3459179275 -1.0796974251
| 23> O -1.493292834 0.0428806153 1.5658164662
| 24> C -1.9110337887 -0.8714579984 2.6202653108
| 25> C -0.7261512839 -1.1404292168 3.5239213587
| 26> O -3.5778647851 -0.1747275973 0.2914255236
| 27> C -4.4828113839 -0.2505084077 -0.8293223965
| 28> C -5.8823876217 0.0063443989 -0.3092532119
| 29> H 6.0842850483 -0.9208591887 -1.6413264629
| 30> H 4.6812931658 -0.0663770468 -2.3020148445
| 31> H 5.8195183603 0.788920746 -1.2581810349
| 32> H 5.1671038854 -0.6640576595 0.6651991836
| 33> H 4.0138442681 -1.5268342727 -0.3888057996
| 34> H 1.4973264047 0.7450169997 2.2240334816
| 35> H 2.6379197585 2.107774891 2.0588449574
| 36> H -0.4181057388 2.3305588233 2.085557531
| 37> H 0.6569681738 2.7794191154 3.4249987053
| 38> H 0.6975369307 3.6842448122 1.8998095516
| 39> H 0.5089683606 -2.7027744784 -1.5209505684
| 40> H 0.1762372977 -0.9634315552 -1.8407443067
| 41> H -2.725517979 -0.3802943679 3.1543068164
| 42> H -2.2797332189 -1.7928054622 2.1613748019
| 43> H 0.0736528388 -1.61994364 2.9644026465
| 44> H -0.3571676655 -0.2096804375 3.945128783
| 45> H -1.0406372291 -1.797543373 4.3282481342
| 46> H -4.1817369275 0.4974440566 -1.5700564641
| 47> H -4.3961882421 -1.2467322336 -1.2713807125
| 48> H -6.1406632338 -0.7355426937 0.4405449751
| 49> H -5.9387560356 0.9949332168 0.1374886868
| 50> H -6.5849268213 -0.0547881072 -1.1337593427
| 51> *
| 52>
| 53>                          ****END OF INPUT****

CARTESIAN COORDINATES (ANGSTROEM)
---------------------------------
  C      5.332375   -0.165815   -1.436268
  C      4.530466   -0.578388   -0.217596
  O      3.562983    0.425532    0.145701
  P      2.092113    0.507634   -0.462311
  S      1.937682    0.774949   -2.392863
  O      1.510506    1.700914    0.380636
  C      1.631176    1.755710    1.826506
  C      0.570139    2.701990    2.345994
  S      1.249091   -1.303231    0.278275
  C      0.153321   -1.766573   -1.098084
  S     -1.541688   -2.071425   -0.558961
  P     -2.005236   -0.095792    0.085056
  S     -1.371713    1.345918   -1.079697
  O     -1.493293    0.042881    1.565816
  C     -1.911034   -0.871458    2.620265
  C     -0.726151   -1.140429    3.523921
  O     -3.577865   -0.174728    0.291426
  C     -4.482811   -0.250508   -0.829322
  C     -5.882388    0.006344   -0.309253
  H      6.084285   -0.920859   -1.641326
  H      4.681293   -0.066377   -2.302015
  H      5.819518    0.788921   -1.258181
  H      5.167104   -0.664058    0.665199
  H      4.013844   -1.526834   -0.388806
  H      1.497326    0.745017    2.224033
  H      2.637920    2.107775    2.058845
  H     -0.418106    2.330559    2.085558
  H      0.656968    2.779419    3.424999
  H      0.697537    3.684245    1.899810
  H      0.508968   -2.702774   -1.520951
  H      0.176237   -0.963432   -1.840744
  H     -2.725518   -0.380294    3.154307
  H     -2.279733   -1.792805    2.161375
  H      0.073653   -1.619944    2.964403
  H     -0.357168   -0.209680    3.945129
  H     -1.040637   -1.797543    4.328248
  H     -4.181737    0.497444   -1.570056
  H     -4.396188   -1.246732   -1.271381
  H     -6.140663   -0.735543    0.440545
  H     -5.938756    0.994933    0.137489
  H     -6.584927   -0.054788   -1.133759

 Total Charge           Charge          ....    0
 Multiplicity           Mult            ....    1
 Number of Electrons    NEL             ....  202
 Basis Dimension        Dim             ....  539

ORBITAL ENERGIES
----------------

  NO   OCC          E(Eh)            E(eV)
   0   2.0000     -88.579612     -2410.3738
   1   2.0000     -88.576540     -2410.2902
   2   2.0000     -88.525376     -2408.8980
   3   2.0000     -88.523386     -2408.8438
   4   2.0000     -76.917939     -2093.0435
   5   2.0000     -76.917022     -2093.0186
   6   2.0000     -18.994626      -516.8700
   7   2.0000     -18.994371      -516.8631
   8   2.0000     -18.992381      -516.8090
   9   2.0000     -18.991034      -516.7723
  10   2.0000     -10.102950      -274.9152
  11   2.0000     -10.092625      -274.6343
  12   2.0000     -10.091507      -274.6039
  13   2.0000     -10.090594      -274.5790
  14   2.0000     -10.089407      -274.5467
  15   2.0000     -10.019637      -272.6482
  16   2.0000     -10.019337      -272.6400
  17   2.0000     -10.018022      -272.6042
  18   2.0000     -10.015412      -272.5332
  19   2.0000      -7.873877      -214.2591
  20   2.0000      -7.870902      -214.1781
  21   2.0000      -7.820751      -212.8134
  22   2.0000      -7.818469      -212.7514
  23   2.0000      -6.596181      -179.4912
  24   2.0000      -6.595563      -179.4744
  25   2.0000      -5.820751      -158.3907
  26   2.0000      -5.817711      -158.3080
  27   2.0000      -5.817488      -158.3019
  28   2.0000      -5.814640      -158.2244
  29   2.0000      -5.811260      -158.1324
  30   2.0000      -5.808174      -158.0485
  31   2.0000      -5.768419      -156.9667
  32   2.0000      -5.766150      -156.9049
  33   2.0000      -5.761082      -156.7670
  34   2.0000      -5.760560      -156.7528
  35   2.0000      -5.758637      -156.7005
  36   2.0000      -5.758489      -156.6964
  37   2.0000      -4.741832      -129.0318
  38   2.0000      -4.741329      -129.0181
  39   2.0000      -4.741203      -129.0147
  40   2.0000      -4.740634      -128.9992
  41   2.0000      -4.739795      -128.9764
  42   2.0000      -4.738955      -128.9535
  43   2.0000      -1.053954       -28.6795
  44   2.0000      -1.052147       -28.6304
  45   2.0000      -1.011510       -27.5246
  46   2.0000      -1.008027       -27.4298
  47   2.0000      -0.800340       -21.7784
  48   2.0000      -0.755703       -20.5637
  49   2.0000      -0.747608       -20.3434
  50   2.0000      -0.726704       -19.7746
  51   2.0000      -0.723807       -19.6958
  52   2.0000      -0.709637       -19.3102
  53   2.0000      -0.686921       -18.6921
  54   2.0000      -0.670253       -18.2385
  55   2.0000      -0.616994       -16.7893
  56   2.0000      -0.609119       -16.5750
  57   2.0000      -0.597907       -16.2699
  58   2.0000      -0.597581       -16.2610
  59   2.0000      -0.596015       -16.2184
  60   2.0000      -0.535273       -14.5655
  61   2.0000      -0.525438       -14.2979
  62   2.0000      -0.497692       -13.5429
  63   2.0000      -0.494557       -13.4576
  64   2.0000      -0.467614       -12.7244
  65   2.0000      -0.466131       -12.6841
  66   2.0000      -0.449796       -12.2396
  67   2.0000      -0.448134       -12.1944
  68   2.0000      -0.445457       -12.1215
  69   2.0000      -0.433962       -11.8087
  70   2.0000      -0.419381       -11.4119
  71   2.0000      -0.414500       -11.2791
  72   2.0000      -0.402693       -10.9578
  73   2.0000      -0.398977       -10.8567
  74   2.0000      -0.386765       -10.5244
  75   2.0000      -0.379333       -10.3222
  76   2.0000      -0.372543       -10.1374
  77   2.0000      -0.365205        -9.9377
  78   2.0000      -0.363333        -9.8868
  79   2.0000      -0.356648        -9.7049
  80   2.0000      -0.355759        -9.6807
  81   2.0000      -0.354278        -9.6404
  82   2.0000      -0.347615        -9.4591
  83   2.0000      -0.344685        -9.3794
  84   2.0000      -0.342546        -9.3211
  85   2.0000      -0.327003        -8.8982
  86   2.0000      -0.321183        -8.7398
  87   2.0000      -0.315705        -8.5908
  88   2.0000      -0.313984        -8.5439
  89   2.0000      -0.310585        -8.4515
  90   2.0000      -0.304152        -8.2764
  91   2.0000      -0.286448        -7.7946
  92   2.0000      -0.284444        -7.7401
  93   2.0000      -0.277635        -7.5548
  94   2.0000      -0.273700        -7.4477
  95   2.0000      -0.251651        -6.8478
  96   2.0000      -0.243181        -6.6173
  97   2.0000      -0.235178        -6.3995
  98   2.0000      -0.224334        -6.1044
  99   2.0000      -0.214528        -5.8376
 100   2.0000      -0.207839        -5.6556
 101   0.0000      -0.045464        -1.2372
 102   0.0000      -0.038730        -1.0539
 103   0.0000      -0.009535        -0.2595
 104   0.0000       0.006729         0.1831
 105   0.0000       0.013759         0.3744

MULLIKEN ATOMIC CHARGES
-----------------------
   0 C :   -0.483983
   1 C :   -0.139725
   2 O :   -0.312115
   3 P :    0.701659
   4 S :   -0.495071
   5 O :   -0.297221
   6 C :   -0.095744
   7 C :   -0.519826
   8 S :   -0.204237
   9 C :   -0.217694
  10 S :   -0.176354
  11 P :    0.656345
  12 S :   -0.462585
  13 O :   -0.279571
  14 C :   -0.091060
  15 C :   -0.506680
  16 O :   -0.306094
  17 C :   -0.148820
  18 C :   -0.479524
  19 H :    0.168516
  20 H :    0.169399
  21 H :    0.165554
  22 H :    0.174994
  23 H :    0.163972
  24 H :    0.172643
  25 H :    0.176204
  26 H :    0.175329
  27 H :    0.171218
  28 H :    0.167181
  29 H :    0.232835
  30 H :    0.216012
  31 H :    0.178550
  32 H :    0.168216
  33 H :    0.170893
  34 H :    0.173063
  35 H :    0.170819
  36 H :    0.173383
  37 H :    0.168198
  38 H :    0.165772
  39 H :    0.166087
  40 H :    0.169461
Sum of atomic charges:   -0.0000000

LOEWDIN ATOMIC CHARGES
----------------------
   0 C :   -0.408004
   1 C :    0.026255
   2 O :   -0.681541
   3 P :    0.375395
   4 S :   -0.145349
   5 O :   -0.674463
   6 C :    0.030578
   7 C :   -0.395462
   8 S :    0.137917
   9 C :   -0.413783
  10 S :    0.127627
  11 P :    0.370122
  12 S :   -0.107373
  13 O :   -0.676035
  14 C :    0.030553
  15 C :   -0.396309
  16 O :   -0.681439
  17 C :    0.024395
  18 C :   -0.388714
  19 H :    0.166762
  20 H :    0.162698
  21 H :    0.161738
  22 H :    0.189766
  23 H :    0.179556
  24 H :    0.182408
  25 H :    0.183844
  26 H :    0.168564
  27 H :    0.170080
  28 H :    0.164008
  29 H :    0.195172
  30 H :    0.199414
  31 H :    0.185900
  32 H :    0.182066
  33 H :    0.163849
  34 H :    0.165113
  35 H :    0.168870
  36 H :    0.181307
  37 H :    0.179170
  38 H :    0.163182
  39 H :    0.163198
  40 H :    0.168967

  Mayer bond orders larger than 0.100000
B(  0-C ,  1-C ) :   0.9399 B(  0-C , 19-H ) :   0.9596 B(  0-C , 20-H ) :   0.9588
B(  0-C , 21-H ) :   0.9729 B(  1-C ,  2-O ) :   0.7839 B(  1-C , 22-H ) :   0.9553
B(  1-C , 23-H ) :   0.9523 B(  2-O ,  3-P ) :   1.0527 B(  3-P ,  4-S ) :   1.7937
B(  3-P ,  5-O ) :   1.1919 B(  3-P ,  8-S ) :   1.0141 B(  5-O ,  6-C ) :   0.7186
B(  6-C ,  7-C ) :   0.9276 B(  6-C , 24-H ) :   0.9456 B(  6-C , 25-H ) :   0.9342
B(  7-C , 26-H ) :   0.9662 B(  7-C , 27-H ) :   0.9591 B(  7-C , 28-H ) :   0.9686
B(  8-S ,  9-C ) :   0.8882 B(  9-C , 10-S ) :   0.9165 B(  9-C , 29-H ) :   0.9006
B(  9-C , 30-H ) :   0.9079 B( 10-S , 11-P ) :   1.0036 B( 11-P , 12-S ) :   1.8360
B( 11-P , 13-O ) :   1.1345 B( 11-P , 16-O ) :   1.0701 B( 13-O , 14-C ) :   0.7289
B( 14-C , 15-C ) :   0.9442 B( 14-C , 31-H ) :   0.9394 B( 14-C , 32-H ) :   0.9495
B( 15-C , 33-H ) :   0.9648 B( 15-C , 34-H ) :   0.9675 B( 15-C , 35-H ) :   0.9572
B( 16-O , 17-C ) :   0.7810 B( 17-C , 18-C ) :   0.9535 B( 17-C , 36-H ) :   0.9478
B( 17-C , 37-H ) :   0.9331 B( 18-C , 38-H ) :   0.9684 B( 18-C , 39-H ) :   0.9692
B( 18-C , 40-H ) :   0.9580

Dispersion correction           -0.021910769
FINAL SINGLE POINT ENERGY     -2932.470387880042

DIPOLE MOMENT
-------------

Method             : SCF
Type of density    : Electron Density
Multiplicity       :   1
Irrep              :   0
Energy             : -2932.4950004803163210 Eh
Relativity type    :
Basis              : AO
                                X                 Y                 Z
Electronic contribution:      1.630039920      -1.230337541     -13.451866641
Nuclear contribution   :     -2.007610144      -1.008922793      16.019701526
                        -----------------------------------------
Total Dipole Moment    :     -0.377570225      -2.239260335       2.567834885
                        -----------------------------------------
Magnitude (a.u.)       :      3.427918044
Magnitude (Debye)      :      8.713075229

Rotational constants in cm-1:             0.012883             0.005120             0.004818
Rotational constants in MHz :           386.210963           153.480642           144.428589

                             ****ORCA TERMINATED NORMALLY****
TOTAL RUN TIME: 0 days 0 hours 2 minutes 6 seconds 351 msec
