                         Program Version 6.0.0  -   RELEASE  -
|  1> ! pbe def2-sv(p) def2/J RI DEFGRID1 loosescf d4 GCP(DFT/SV(P)) printgap
|  2> %output
|  3>     printlevel normal
|  4> end
|  5> * xyz 0 1
|  6> C 4.5669670301 -1.7155236265 -0.7119546046
|  7> C 4.6533896423 -0.2790365829 -0.2378743422
|  8> O 3.4923727361 0.1198536648 0.5104536687
|  9> P 2.0587722365 0.2937876142 -0.1578241073
| 10> S 2.0955525359 1.0439644905 -1.9725254005
| 11> O 1.3004121678 1.1127597932 0.9662544339
| 12> C 1.3061401609 2.5515561089 1.0189496381
| 13> C 2.6846849906 3.1089140206 1.3013369775
| 14> S 1.1896150143 -1.6035258117 0.1000109253
| 15> C 0.0193221412 -1.6340126724 -1.3027208357
| 16> S -1.6940814117 -1.8647403218 -0.784416341
| 17> P -1.9948963666 0.0425413227 0.1024680077
| 18> S -1.3883289458 1.5666199675 -0.9645652495
| 19> O -1.3031026583 -0.0108635184 1.5154797658
| 20> C -1.5266841054 -1.0542378574 2.4981923452
| 21> C -2.614260379 -0.6567505971 3.4738360622
| 22> O -3.5403491729 0.0543368675 0.4696703245
| 23> C -4.5695565856 0.3424619764 -0.4953968481
| 24> C -5.0558403829 -0.916702167 -1.1851780338
| 25> H 3.7853719284 -1.8118976725 -1.4642511288
| 26> H 5.515889427 -2.004221951 -1.152369918
| 27> H 4.3373713897 -2.3757918534 0.1204939891
| 28> H 4.7632580159 0.3989989775 -1.0904485011
| 29> H 5.4770884561 -0.1341650322 0.462428965
| 30> H 0.9146006357 2.93351659 0.0697341505
| 31> H 0.5987104196 2.7817099347 1.8174150996
| 32> H 2.6122078384 4.1821473384 1.4474470867
| 33> H 3.1006991994 2.6460843287 2.1924990905
| 34> H 3.3447896466 2.9108353038 0.4576336754
| 35> H 0.2613851196 -2.4919451459 -1.9244886442
| 36> H 0.1176817705 -0.6999055851 -1.8629508112
| 37> H -1.7797729769 -1.9827040129 1.9784293568
| 38> H -0.5600191415 -1.1638404276 2.9941805998
| 39> H -3.5640498881 -0.550173118 2.9570531892
| 40> H -2.7033056745 -1.4263481653 4.2343505204
| 41> H -2.3644980015 0.2887475001 3.947564093
| 42> H -5.3654789539 0.8051290005 0.091020076
| 43> H -4.1805201201 1.0686329903 -1.2167524458
| 44> H -4.266439473 -1.3508091907 -1.7942111893
| 45> H -5.3699372828 -1.6491696946 -0.447024608
| 46> H -5.8976605318 -0.6664831573 -1.8228513262
| 47> *
| 48>
| 49>                          ****END OF INPUT****

CARTESIAN COORDINATES (ANGSTROEM)
---------------------------------
  C      4.566967   -1.715524   -0.711955
  C      4.653390   -0.279037   -0.237874
  O      3.492373    0.119854    0.510454
  P      2.058772    0.293788   -0.157824
  S      2.095553    1.043964   -1.972525
  O      1.300412    1.112760    0.966254
  C      1.306140    2.551556    1.018950
  C      2.684685    3.108914    1.301337
  S      1.189615   -1.603526    0.100011
  C      0.019322   -1.634013   -1.302721
  S     -1.694081   -1.864740   -0.784416
  P     -1.994896    0.042541    0.102468
  S     -1.388329    1.566620   -0.964565
  O     -1.303103   -0.010864    1.515480
  C     -1.526684   -1.054238    2.498192
  C     -2.614260   -0.656751    3.473836
  O     -3.540349    0.054337    0.469670
  C     -4.569557    0.342462   -0.495397
  C     -5.055840   -0.916702   -1.185178
  H      3.785372   -1.811898   -1.464251
  H      5.515889   -2.004222   -1.152370
  H      4.337371   -2.375792    0.120494
  H      4.763258    0.398999   -1.090449
  H      5.477088   -0.134165    0.462429
  H      0.914601    2.933517    0.069734
  H      0.598710    2.781710    1.817415
  H      2.612208    4.182147    1.447447
  H      3.100699    2.646084    2.192499
  H      3.344790    2.910835    0.457634
  H      0.261385   -2.491945   -1.924489
  H      0.117682   -0.699906   -1.862951
  H     -1.779773   -1.982704    1.978429
  H     -0.560019   -1.163840    2.994181
  H     -3.564050   -0.550173    2.957053
  H     -2.703306   -1.426348    4.234351
  H     -2.364498    0.288748    3.947564
  H     -5.365479    0.805129    0.091020
  H     -4.180520    1.068633   -1.216752
  H     -4.266439   -1.350809   -1.794211
  H     -5.369937   -1.649170   -0.447025
  H     -5.897661   -0.666483   -1.822851

 Total Charge           Charge          ....    0
 Multiplicity           Mult            ....    1
 Number of Electrons    NEL             ....  202
 Basis Dimension        Dim             ....  334

ORBITAL ENERGIES
----------------

  NO   OCC          E(Eh)            E(eV)
   0   2.0000     -88.045020     -2395.8268
   1   2.0000     -88.040468     -2395.7029
   2   2.0000     -87.982478     -2394.1249
   3   2.0000     -87.980400     -2394.0684
   4   2.0000     -76.424070     -2079.6047
   5   2.0000     -76.420419     -2079.5053
   6   2.0000     -18.796266      -511.4724
   7   2.0000     -18.789286      -511.2825
   8   2.0000     -18.788212      -511.2532
   9   2.0000     -18.778156      -510.9796
  10   2.0000      -9.954696      -270.8811
  11   2.0000      -9.953927      -270.8601
  12   2.0000      -9.951602      -270.7969
  13   2.0000      -9.948479      -270.7119
  14   2.0000      -9.937649      -270.4172
  15   2.0000      -9.887139      -269.0427
  16   2.0000      -9.884637      -268.9747
  17   2.0000      -9.881151      -268.8798
  18   2.0000      -9.875286      -268.7202
  19   2.0000      -7.690057      -209.2571
  20   2.0000      -7.685647      -209.1371
  21   2.0000      -7.627352      -207.5508
  22   2.0000      -7.625398      -207.4976
  23   2.0000      -6.421751      -174.7447
  24   2.0000      -6.417996      -174.6426
  25   2.0000      -5.717788      -155.5889
  26   2.0000      -5.714353      -155.4954
  27   2.0000      -5.713502      -155.4723
  28   2.0000      -5.710242      -155.3836
  29   2.0000      -5.707366      -155.3053
  30   2.0000      -5.702472      -155.1721
  31   2.0000      -5.656220      -153.9136
  32   2.0000      -5.654362      -153.8630
  33   2.0000      -5.648186      -153.6950
  34   2.0000      -5.647381      -153.6731
  35   2.0000      -5.645859      -153.6316
  36   2.0000      -5.645624      -153.6252
  37   2.0000      -4.644615      -126.3864
  38   2.0000      -4.643596      -126.3587
  39   2.0000      -4.641825      -126.3105
  40   2.0000      -4.640242      -126.2674
  41   2.0000      -4.639600      -126.2499
  42   2.0000      -4.638910      -126.2312
  43   2.0000      -0.988001       -26.8849
  44   2.0000      -0.979508       -26.6538
  45   2.0000      -0.945221       -25.7208
  46   2.0000      -0.936794       -25.4915
  47   2.0000      -0.762087       -20.7375
  48   2.0000      -0.719070       -19.5669
  49   2.0000      -0.706521       -19.2254
  50   2.0000      -0.690854       -18.7991
  51   2.0000      -0.682329       -18.5671
  52   2.0000      -0.672106       -18.2889
  53   2.0000      -0.648434       -17.6448
  54   2.0000      -0.631946       -17.1961
  55   2.0000      -0.599717       -16.3191
  56   2.0000      -0.590478       -16.0677
  57   2.0000      -0.573302       -15.6003
  58   2.0000      -0.565582       -15.3903
  59   2.0000      -0.559476       -15.2241
  60   2.0000      -0.500733       -13.6256
  61   2.0000      -0.485643       -13.2150
  62   2.0000      -0.478168       -13.0116
  63   2.0000      -0.464970       -12.6525
  64   2.0000      -0.450741       -12.2653
  65   2.0000      -0.443022       -12.0553
  66   2.0000      -0.440753       -11.9935
  67   2.0000      -0.434215       -11.8156
  68   2.0000      -0.428055       -11.6480
  69   2.0000      -0.413968       -11.2646
  70   2.0000      -0.408068       -11.1041
  71   2.0000      -0.391525       -10.6539
  72   2.0000      -0.387456       -10.5432
  73   2.0000      -0.383876       -10.4458
  74   2.0000      -0.381306       -10.3759
  75   2.0000      -0.376887       -10.2556
  76   2.0000      -0.366445        -9.9715
  77   2.0000      -0.357298        -9.7226
  78   2.0000      -0.353939        -9.6312
  79   2.0000      -0.350029        -9.5248
  80   2.0000      -0.347108        -9.4453
  81   2.0000      -0.342442        -9.3183
  82   2.0000      -0.335817        -9.1381
  83   2.0000      -0.335190        -9.1210
  84   2.0000      -0.331246        -9.0136
  85   2.0000      -0.318076        -8.6553
  86   2.0000      -0.307212        -8.3597
  87   2.0000      -0.293892        -7.9972
  88   2.0000      -0.290699        -7.9103
  89   2.0000      -0.290291        -7.8992
  90   2.0000      -0.275360        -7.4929
  91   2.0000      -0.270027        -7.3478
  92   2.0000      -0.264982        -7.2105
  93   2.0000      -0.261921        -7.1272
  94   2.0000      -0.256812        -6.9882
  95   2.0000      -0.237345        -6.4585
  96   2.0000      -0.219031        -5.9601
  97   2.0000      -0.213822        -5.8184
  98   2.0000      -0.203225        -5.5300
  99   2.0000      -0.192776        -5.2457
 100   2.0000      -0.185687        -5.0528
 101   0.0000      -0.038049        -1.0354
 102   0.0000      -0.029372        -0.7992
 103   0.0000      -0.009963        -0.2711
 104   0.0000       0.013916         0.3787
 105   0.0000       0.024695         0.6720

MULLIKEN ATOMIC CHARGES
-----------------------
   0 C :   -0.308628
   1 C :   -0.003131
   2 O :   -0.375503
   3 P :    0.613014
   4 S :   -0.319236
   5 O :   -0.353037
   6 C :   -0.001522
   7 C :   -0.302530
   8 S :   -0.095446
   9 C :   -0.358036
  10 S :   -0.107907
  11 P :    0.601056
  12 S :   -0.298367
  13 O :   -0.342366
  14 C :   -0.011050
  15 C :   -0.287699
  16 O :   -0.378832
  17 C :   -0.006011
  18 C :   -0.309897
  19 H :    0.120357
  20 H :    0.110776
  21 H :    0.116265
  22 H :    0.109077
  23 H :    0.103144
  24 H :    0.122605
  25 H :    0.100551
  26 H :    0.108868
  27 H :    0.111830
  28 H :    0.119089
  29 H :    0.182670
  30 H :    0.211913
  31 H :    0.100487
  32 H :    0.110112
  33 H :    0.119920
  34 H :    0.108414
  35 H :    0.117203
  36 H :    0.106952
  37 H :    0.108123
  38 H :    0.129463
  39 H :    0.113156
  40 H :    0.114151
Sum of atomic charges:    0.0000000

LOEWDIN ATOMIC CHARGES
----------------------
   0 C :   -0.369126
   1 C :   -0.120147
   2 O :   -0.245912
   3 P :    0.571758
   4 S :   -0.311757
   5 O :   -0.231177
   6 C :   -0.118507
   7 C :   -0.366022
   8 S :    0.085204
   9 C :   -0.479559
  10 S :    0.075557
  11 P :    0.562869
  12 S :   -0.290322
  13 O :   -0.224930
  14 C :   -0.117642
  15 C :   -0.360242
  16 O :   -0.246038
  17 C :   -0.118903
  18 C :   -0.367041
  19 H :    0.119535
  20 H :    0.129666
  21 H :    0.123306
  22 H :    0.109267
  23 H :    0.117593
  24 H :    0.109450
  25 H :    0.117831
  26 H :    0.128864
  27 H :    0.123790
  28 H :    0.120693
  29 H :    0.136950
  30 H :    0.127209
  31 H :    0.101304
  32 H :    0.119777
  33 H :    0.124657
  34 H :    0.128960
  35 H :    0.127471
  36 H :    0.119219
  37 H :    0.109631
  38 H :    0.119836
  39 H :    0.124731
  40 H :    0.132195

  Mayer bond orders larger than 0.100000
B(  0-C ,  1-C ) :   1.1675 B(  0-C , 19-H ) :   0.9371 B(  0-C , 20-H ) :   0.9381
B(  0-C , 21-H ) :   0.9441 B(  1-C ,  2-O ) :   0.9127 B(  1-C , 22-H ) :   0.9142
B(  1-C , 23-H ) :   0.9341 B(  2-O ,  3-P ) :   1.0956 B(  3-P ,  4-S ) :   1.5943
B(  3-P ,  5-O ) :   1.1494 B(  3-P ,  8-S ) :   0.9608 B(  4-S ,  8-S ) :   0.1155
B(  5-O ,  6-C ) :   0.9048 B(  6-C ,  7-C ) :   1.1572 B(  6-C , 24-H ) :   0.9136
B(  6-C , 25-H ) :   0.9361 B(  7-C , 26-H ) :   0.9393 B(  7-C , 27-H ) :   0.9448
B(  7-C , 28-H ) :   0.9378 B(  8-S ,  9-C ) :   0.9930 B(  9-C , 10-S ) :   1.0015
B(  9-C , 29-H ) :   0.9115 B(  9-C , 30-H ) :   0.8472 B( 10-S , 11-P ) :   0.9440
B( 10-S , 12-S ) :   0.1042 B( 11-P , 12-S ) :   1.6571 B( 11-P , 13-O ) :   1.1493
B( 11-P , 16-O ) :   1.0834 B( 13-O , 14-C ) :   0.8913 B( 14-C , 15-C ) :   1.1630
B( 14-C , 31-H ) :   0.9096 B( 14-C , 32-H ) :   0.9328 B( 15-C , 33-H ) :   0.9409
B( 15-C , 34-H ) :   0.9399 B( 15-C , 35-H ) :   0.9476 B( 16-O , 17-C ) :   0.9035
B( 17-C , 18-C ) :   1.1673 B( 17-C , 36-H ) :   0.9346 B( 17-C , 37-H ) :   0.9054
B( 18-C , 38-H ) :   0.9330 B( 18-C , 39-H ) :   0.9484 B( 18-C , 40-H ) :   0.9393

Dispersion correction           -0.067682814
FINAL SINGLE POINT ENERGY     -2929.521013942809

DIPOLE MOMENT
-------------

Method             : SCF
Type of density    : Electron Density
Multiplicity       :   1
Irrep              :   0
Energy             : -2929.6391795444706077 Eh
Relativity type    :
Basis              : AO
                                X                 Y                 Z
Electronic contribution:      0.857614932      -0.269762139      -8.658275225
Nuclear contribution   :     -1.210728401      -0.530405730       9.582498618
                        -----------------------------------------
Total Dipole Moment    :     -0.353113468      -0.800167868       0.924223393
                        -----------------------------------------
Magnitude (a.u.)       :      1.272456923
Magnitude (Debye)      :      3.234328461

Rotational constants in cm-1:             0.012998             0.005180             0.004994
Rotational constants in MHz :           389.684489           155.297161           149.718922

                             ****ORCA TERMINATED NORMALLY****
TOTAL RUN TIME: 0 days 0 hours 0 minutes 22 seconds 816 msec
