                         Program Version 6.0.1  -  RELEASE   -
|  1> ! r2scan-3c def2/J RI DEFGRID2 scfconv6 printgap
|  2> %output
|  3>     printlevel normal
|  4> end
|  5> * xyz 0 1
|  6> C 3.7975271736 -3.6420838787 -0.2804698118
|  7> C 4.3602094729 -2.3769324105 -0.9083100172
|  8> O 3.3657444969 -1.7250500075 -1.7245037227
|  9> C 2.5169066672 -0.9075102378 -1.1438631183
| 10> O 2.5225774074 -0.6262546496 0.0368461996
| 11> C 1.5290767129 -0.3220934209 -2.1314476445
| 12> C 0.380309578 0.3267749302 -1.3710372779
| 13> H -0.2539628284 0.9061208204 -2.0494746928
| 14> C 0.9340307557 1.2857297278 -0.3274044257
| 15> O 1.7795419701 2.1069617782 -0.6000860279
| 16> O 0.327852028 1.1733891944 0.8359605578
| 17> C 0.7479520457 2.0238885442 1.9221286688
| 18> C 1.6958628697 1.2699297335 2.8387813864
| 19> S -0.6659729393 -0.9638031817 -0.6054779216
| 20> P -2.1445338276 0.2986077725 0.1935861096
| 21> S -2.3967991831 2.1171568766 -0.4838143113
| 22> O -3.365534841 -0.6934435086 -0.1611094985
| 23> C -4.7188872606 -0.2860732537 0.0761456425
| 24> O -2.0722710834 0.2844148515 1.7898154718
| 25> C -1.8070392444 -0.9354008324 2.5039293871
| 26> H 2.9805017389 -3.3929411432 0.3928294622
| 27> H 3.4270790807 -4.309697162 -1.0531541404
| 28> H 4.5794165603 -4.14192039 0.2815761227
| 29> H 5.1732137912 -2.6004918512 -1.5988399017
| 30> H 4.6949355508 -1.6756552846 -0.1387807128
| 31> H 1.173372979 -1.1004368958 -2.8048608043
| 32> H 2.051744847 0.4408321889 -2.7130975883
| 33> H 1.2282832958 2.906851718 1.4915362848
| 34> H -0.1755980967 2.3068167464 2.4305474565
| 35> H 2.5346511375 0.8882411454 2.2606923039
| 36> H 2.0630207564 1.943741262 3.6054649857
| 37> H 1.1861540807 0.4333395472 3.3076729414
| 38> H -5.3376253254 -1.069232149 -0.3540810667
| 39> H -4.9127271163 0.6686606574 -0.4155312803
| 40> H -4.907237241 -0.1880294834 1.1457107703
| 41> H -0.7498117958 -1.1847847549 2.4165882932
| 42> H -2.4094599094 -1.7519837566 2.1051233931
| 43> H -2.0705821804 -0.7284448074 3.5380405784
| 44> *
| 45>
| 46>                          ****END OF INPUT****

CARTESIAN COORDINATES (ANGSTROEM)
---------------------------------
  C      3.797527   -3.642084   -0.280470
  C      4.360209   -2.376932   -0.908310
  O      3.365744   -1.725050   -1.724504
  C      2.516907   -0.907510   -1.143863
  O      2.522577   -0.626255    0.036846
  C      1.529077   -0.322093   -2.131448
  C      0.380310    0.326775   -1.371037
  H     -0.253963    0.906121   -2.049475
  C      0.934031    1.285730   -0.327404
  O      1.779542    2.106962   -0.600086
  O      0.327852    1.173389    0.835961
  C      0.747952    2.023889    1.922129
  C      1.695863    1.269930    2.838781
  S     -0.665973   -0.963803   -0.605478
  P     -2.144534    0.298608    0.193586
  S     -2.396799    2.117157   -0.483814
  O     -3.365535   -0.693444   -0.161109
  C     -4.718887   -0.286073    0.076146
  O     -2.072271    0.284415    1.789815
  C     -1.807039   -0.935401    2.503929
  H      2.980502   -3.392941    0.392829
  H      3.427079   -4.309697   -1.053154
  H      4.579417   -4.141920    0.281576
  H      5.173214   -2.600492   -1.598840
  H      4.694936   -1.675655   -0.138781
  H      1.173373   -1.100437   -2.804861
  H      2.051745    0.440832   -2.713098
  H      1.228283    2.906852    1.491536
  H     -0.175598    2.306817    2.430547
  H      2.534651    0.888241    2.260692
  H      2.063021    1.943741    3.605465
  H      1.186154    0.433340    3.307673
  H     -5.337625   -1.069232   -0.354081
  H     -4.912727    0.668661   -0.415531
  H     -4.907237   -0.188029    1.145711
  H     -0.749812   -1.184785    2.416588
  H     -2.409460   -1.751984    2.105123
  H     -2.070582   -0.728445    3.538041

 Total Charge           Charge          ....    0
 Multiplicity           Mult            ....    1
 Number of Electrons    NEL             ....  174
 Basis Dimension        Dim             ....  510

ORBITAL ENERGIES
----------------

  NO   OCC          E(Eh)            E(eV)
   0   2.0000     -88.572055     -2410.1681
   1   2.0000     -88.514337     -2408.5976
   2   2.0000     -76.910459     -2092.8400
   3   2.0000     -19.012034      -517.3438
   4   2.0000     -18.992762      -516.8193
   5   2.0000     -18.990658      -516.7621
   6   2.0000     -18.983392      -516.5644
   7   2.0000     -18.945085      -515.5220
   8   2.0000     -18.924923      -514.9733
   9   2.0000     -10.169401      -276.7235
  10   2.0000     -10.155987      -276.3585
  11   2.0000     -10.102294      -274.8974
  12   2.0000     -10.096702      -274.7452
  13   2.0000     -10.093755      -274.6650
  14   2.0000     -10.087514      -274.4952
  15   2.0000     -10.082525      -274.3594
  16   2.0000     -10.067030      -273.9378
  17   2.0000     -10.037329      -273.1296
  18   2.0000     -10.021284      -272.6930
  19   2.0000      -7.866618      -214.0616
  20   2.0000      -7.809051      -212.4951
  21   2.0000      -6.588634      -179.2858
  22   2.0000      -5.813575      -158.1954
  23   2.0000      -5.810726      -158.1179
  24   2.0000      -5.803324      -157.9165
  25   2.0000      -5.757026      -156.6566
  26   2.0000      -5.749475      -156.4512
  27   2.0000      -5.748592      -156.4271
  28   2.0000      -4.734432      -128.8305
  29   2.0000      -4.733590      -128.8075
  30   2.0000      -4.732140      -128.7681
  31   2.0000      -1.089733       -29.6531
  32   2.0000      -1.071606       -29.1599
  33   2.0000      -1.042675       -28.3726
  34   2.0000      -1.002603       -27.2822
  35   2.0000      -0.994701       -27.0672
  36   2.0000      -0.976230       -26.5646
  37   2.0000      -0.810834       -22.0639
  38   2.0000      -0.761465       -20.7205
  39   2.0000      -0.735519       -20.0145
  40   2.0000      -0.734337       -19.9823
  41   2.0000      -0.697163       -18.9708
  42   2.0000      -0.676026       -18.3956
  43   2.0000      -0.653848       -17.7921
  44   2.0000      -0.646585       -17.5945
  45   2.0000      -0.632343       -17.2069
  46   2.0000      -0.595351       -16.2003
  47   2.0000      -0.538037       -14.6407
  48   2.0000      -0.536204       -14.5909
  49   2.0000      -0.520058       -14.1515
  50   2.0000      -0.503632       -13.7045
  51   2.0000      -0.492047       -13.3893
  52   2.0000      -0.483889       -13.1673
  53   2.0000      -0.466241       -12.6871
  54   2.0000      -0.459555       -12.5051
  55   2.0000      -0.451672       -12.2906
  56   2.0000      -0.448667       -12.2089
  57   2.0000      -0.443020       -12.0552
  58   2.0000      -0.433025       -11.7832
  59   2.0000      -0.424768       -11.5585
  60   2.0000      -0.419877       -11.4254
  61   2.0000      -0.418136       -11.3781
  62   2.0000      -0.411325       -11.1927
  63   2.0000      -0.397677       -10.8213
  64   2.0000      -0.391522       -10.6538
  65   2.0000      -0.383532       -10.4364
  66   2.0000      -0.381080       -10.3697
  67   2.0000      -0.366980        -9.9860
  68   2.0000      -0.361906        -9.8480
  69   2.0000      -0.350840        -9.5468
  70   2.0000      -0.345706        -9.4071
  71   2.0000      -0.342097        -9.3089
  72   2.0000      -0.339454        -9.2370
  73   2.0000      -0.333546        -9.0762
  74   2.0000      -0.327765        -8.9189
  75   2.0000      -0.318667        -8.6714
  76   2.0000      -0.302434        -8.2297
  77   2.0000      -0.295892        -8.0516
  78   2.0000      -0.288126        -7.8403
  79   2.0000      -0.287435        -7.8215
  80   2.0000      -0.278841        -7.5877
  81   2.0000      -0.267228        -7.2716
  82   2.0000      -0.254317        -6.9203
  83   2.0000      -0.248452        -6.7607
  84   2.0000      -0.219126        -5.9627
  85   2.0000      -0.215710        -5.8698
  86   2.0000      -0.208324        -5.6688
  87   0.0000      -0.045453        -1.2368
  88   0.0000      -0.025314        -0.6888
  89   0.0000      -0.009073        -0.2469
  90   0.0000       0.008234         0.2240
  91   0.0000       0.024276         0.6606

MULLIKEN ATOMIC CHARGES
-----------------------
   0 C :   -0.468190
   1 C :   -0.136133
   2 O :   -0.161659
   3 C :    0.389775
   4 O :   -0.389397
   5 C :   -0.446158
   6 C :    0.015073
   7 H :    0.241997
   8 C :    0.223445
   9 O :   -0.382699
  10 O :   -0.106877
  11 C :   -0.162221
  12 C :   -0.467353
  13 S :   -0.179112
  14 P :    0.758363
  15 S :   -0.445118
  16 O :   -0.376694
  17 C :   -0.295917
  18 O :   -0.300768
  19 C :   -0.297968
  20 H :    0.172845
  21 H :    0.154744
  22 H :    0.150185
  23 H :    0.152688
  24 H :    0.168372
  25 H :    0.192073
  26 H :    0.203226
  27 H :    0.179747
  28 H :    0.168693
  29 H :    0.182209
  30 H :    0.147162
  31 H :    0.140720
  32 H :    0.151332
  33 H :    0.177522
  34 H :    0.149479
  35 H :    0.178318
  36 H :    0.161185
  37 H :    0.157110
Sum of atomic charges:   -0.0000000

LOEWDIN ATOMIC CHARGES
----------------------
   0 C :   -0.387765
   1 C :    0.032078
   2 O :   -0.572304
   3 C :    0.368636
   4 O :   -0.432464
   5 C :   -0.205324
   6 C :   -0.189689
   7 H :    0.207418
   8 C :    0.351580
   9 O :   -0.419425
  10 O :   -0.632256
  11 C :    0.035830
  12 C :   -0.386109
  13 S :    0.245027
  14 P :    0.403784
  15 S :   -0.081716
  16 O :   -0.707798
  17 C :   -0.058538
  18 O :   -0.668772
  19 C :   -0.061447
  20 H :    0.165869
  21 H :    0.158543
  22 H :    0.160702
  23 H :    0.180205
  24 H :    0.188545
  25 H :    0.190580
  26 H :    0.206513
  27 H :    0.195919
  28 H :    0.185405
  29 H :    0.172851
  30 H :    0.157313
  31 H :    0.152939
  32 H :    0.176317
  33 H :    0.177870
  34 H :    0.163929
  35 H :    0.175654
  36 H :    0.170960
  37 H :    0.179140

  Mayer bond orders larger than 0.100000
B(  0-C ,  1-C ) :   0.9394 B(  0-C , 20-H ) :   0.9704 B(  0-C , 21-H ) :   0.9724
B(  0-C , 22-H ) :   0.9639 B(  1-C ,  2-O ) :   0.8039 B(  1-C , 23-H ) :   0.9611
B(  1-C , 24-H ) :   0.9676 B(  2-O ,  3-C ) :   1.1361 B(  3-C ,  4-O ) :   1.7764
B(  3-C ,  5-C ) :   0.9761 B(  4-O ,  8-C ) :   0.1335 B(  5-C ,  6-C ) :   0.9151
B(  5-C ,  9-O ) :   0.1067 B(  5-C , 25-H ) :   0.9741 B(  5-C , 26-H ) :   0.9134
B(  6-C ,  7-H ) :   0.9160 B(  6-C ,  8-C ) :   0.8188 B(  6-C , 13-S ) :   0.8669
B(  8-C ,  9-O ) :   1.8975 B(  8-C , 10-O ) :   1.1439 B( 10-O , 11-C ) :   0.7589
B( 11-C , 12-C ) :   0.9204 B( 11-C , 27-H ) :   0.9624 B( 11-C , 28-H ) :   0.9581
B( 12-C , 29-H ) :   0.9689 B( 12-C , 30-H ) :   0.9722 B( 12-C , 31-H ) :   0.9750
B( 13-S , 14-P ) :   1.0582 B( 14-P , 15-S ) :   1.7986 B( 14-P , 16-O ) :   1.0651
B( 14-P , 18-O ) :   1.0638 B( 16-O , 17-C ) :   0.8365 B( 17-C , 32-H ) :   0.9671
B( 17-C , 33-H ) :   0.9549 B( 17-C , 34-H ) :   0.9631 B( 18-O , 19-C ) :   0.7971
B( 19-C , 35-H ) :   0.9556 B( 19-C , 36-H ) :   0.9613 B( 19-C , 37-H ) :   0.9645

Dispersion correction           -0.017772666
FINAL SINGLE POINT ENERGY     -1981.450552123269

DIPOLE MOMENT
-------------

Method             : SCF
Type of density    : Electron Density
Multiplicity       :   1
Irrep              :   0
Energy             : -1981.4705730422101624 Eh
Relativity type    :
Basis              : AO
                                X                 Y                 Z
Electronic contribution:    -11.350624930       9.340532829     -10.262131613
Nuclear contribution   :     11.682757865     -11.221265265      10.976602097
                        -----------------------------------------
Total Dipole Moment    :      0.332132935      -1.880732436       0.714470484
                        -----------------------------------------
Magnitude (a.u.)       :      2.039101482
Magnitude (Debye)      :      5.182984069

Rotational constants in cm-1:             0.015422             0.006364             0.005936
Rotational constants in MHz :           462.334467           190.775290           177.956277

                             ****ORCA TERMINATED NORMALLY****
TOTAL RUN TIME: 0 days 0 hours 1 minutes 17 seconds 863 msec
