                         Program Version 6.0.1  -  RELEASE   -
|  1> ! r2scan-3c def2/J RI DEFGRID2 scfconv6 printgap
|  2> %output
|  3>     printlevel normal
|  4> end
|  5> %cpcm
|  6>     smd true
|  7>     smdsolvent "water"
|  8> end
|  9> * xyz 0 1
| 10> C 3.7975271736 -3.6420838787 -0.2804698118
| 11> C 4.3602094729 -2.3769324105 -0.9083100172
| 12> O 3.3657444969 -1.7250500075 -1.7245037227
| 13> C 2.5169066672 -0.9075102378 -1.1438631183
| 14> O 2.5225774074 -0.6262546496 0.0368461996
| 15> C 1.5290767129 -0.3220934209 -2.1314476445
| 16> C 0.380309578 0.3267749302 -1.3710372779
| 17> H -0.2539628284 0.9061208204 -2.0494746928
| 18> C 0.9340307557 1.2857297278 -0.3274044257
| 19> O 1.7795419701 2.1069617782 -0.6000860279
| 20> O 0.327852028 1.1733891944 0.8359605578
| 21> C 0.7479520457 2.0238885442 1.9221286688
| 22> C 1.6958628697 1.2699297335 2.8387813864
| 23> S -0.6659729393 -0.9638031817 -0.6054779216
| 24> P -2.1445338276 0.2986077725 0.1935861096
| 25> S -2.3967991831 2.1171568766 -0.4838143113
| 26> O -3.365534841 -0.6934435086 -0.1611094985
| 27> C -4.7188872606 -0.2860732537 0.0761456425
| 28> O -2.0722710834 0.2844148515 1.7898154718
| 29> C -1.8070392444 -0.9354008324 2.5039293871
| 30> H 2.9805017389 -3.3929411432 0.3928294622
| 31> H 3.4270790807 -4.309697162 -1.0531541404
| 32> H 4.5794165603 -4.14192039 0.2815761227
| 33> H 5.1732137912 -2.6004918512 -1.5988399017
| 34> H 4.6949355508 -1.6756552846 -0.1387807128
| 35> H 1.173372979 -1.1004368958 -2.8048608043
| 36> H 2.051744847 0.4408321889 -2.7130975883
| 37> H 1.2282832958 2.906851718 1.4915362848
| 38> H -0.1755980967 2.3068167464 2.4305474565
| 39> H 2.5346511375 0.8882411454 2.2606923039
| 40> H 2.0630207564 1.943741262 3.6054649857
| 41> H 1.1861540807 0.4333395472 3.3076729414
| 42> H -5.3376253254 -1.069232149 -0.3540810667
| 43> H -4.9127271163 0.6686606574 -0.4155312803
| 44> H -4.907237241 -0.1880294834 1.1457107703
| 45> H -0.7498117958 -1.1847847549 2.4165882932
| 46> H -2.4094599094 -1.7519837566 2.1051233931
| 47> H -2.0705821804 -0.7284448074 3.5380405784
| 48> *
| 49>
| 50>                          ****END OF INPUT****

CARTESIAN COORDINATES (ANGSTROEM)
---------------------------------
  C      3.797527   -3.642084   -0.280470
  C      4.360209   -2.376932   -0.908310
  O      3.365744   -1.725050   -1.724504
  C      2.516907   -0.907510   -1.143863
  O      2.522577   -0.626255    0.036846
  C      1.529077   -0.322093   -2.131448
  C      0.380310    0.326775   -1.371037
  H     -0.253963    0.906121   -2.049475
  C      0.934031    1.285730   -0.327404
  O      1.779542    2.106962   -0.600086
  O      0.327852    1.173389    0.835961
  C      0.747952    2.023889    1.922129
  C      1.695863    1.269930    2.838781
  S     -0.665973   -0.963803   -0.605478
  P     -2.144534    0.298608    0.193586
  S     -2.396799    2.117157   -0.483814
  O     -3.365535   -0.693444   -0.161109
  C     -4.718887   -0.286073    0.076146
  O     -2.072271    0.284415    1.789815
  C     -1.807039   -0.935401    2.503929
  H      2.980502   -3.392941    0.392829
  H      3.427079   -4.309697   -1.053154
  H      4.579417   -4.141920    0.281576
  H      5.173214   -2.600492   -1.598840
  H      4.694936   -1.675655   -0.138781
  H      1.173373   -1.100437   -2.804861
  H      2.051745    0.440832   -2.713098
  H      1.228283    2.906852    1.491536
  H     -0.175598    2.306817    2.430547
  H      2.534651    0.888241    2.260692
  H      2.063021    1.943741    3.605465
  H      1.186154    0.433340    3.307673
  H     -5.337625   -1.069232   -0.354081
  H     -4.912727    0.668661   -0.415531
  H     -4.907237   -0.188029    1.145711
  H     -0.749812   -1.184785    2.416588
  H     -2.409460   -1.751984    2.105123
  H     -2.070582   -0.728445    3.538041

 Total Charge           Charge          ....    0
 Multiplicity           Mult            ....    1
 Number of Electrons    NEL             ....  174
 Basis Dimension        Dim             ....  510

ORBITAL ENERGIES
----------------

  NO   OCC          E(Eh)            E(eV)
   0   2.0000     -88.579703     -2410.3763
   1   2.0000     -88.527937     -2408.9676
   2   2.0000     -76.919228     -2093.0786
   3   2.0000     -19.010382      -517.2988
   4   2.0000     -19.007108      -517.2097
   5   2.0000     -18.993761      -516.8465
   6   2.0000     -18.988557      -516.7049
   7   2.0000     -18.952709      -515.7294
   8   2.0000     -18.947932      -515.5994
   9   2.0000     -10.174848      -276.8717
  10   2.0000     -10.173397      -276.8322
  11   2.0000     -10.098133      -274.7842
  12   2.0000     -10.087172      -274.4859
  13   2.0000     -10.085803      -274.4486
  14   2.0000     -10.082933      -274.3705
  15   2.0000     -10.078963      -274.2625
  16   2.0000     -10.061527      -273.7881
  17   2.0000     -10.019781      -272.6521
  18   2.0000     -10.019146      -272.6348
  19   2.0000      -7.874219      -214.2684
  20   2.0000      -7.823025      -212.8753
  21   2.0000      -6.597464      -179.5261
  22   2.0000      -5.821177      -158.4023
  23   2.0000      -5.818297      -158.3239
  24   2.0000      -5.810966      -158.1244
  25   2.0000      -5.770865      -157.0332
  26   2.0000      -5.763416      -156.8305
  27   2.0000      -5.762660      -156.8100
  28   2.0000      -4.743194      -129.0689
  29   2.0000      -4.742402      -129.0473
  30   2.0000      -4.741096      -129.0118
  31   2.0000      -1.091287       -29.6954
  32   2.0000      -1.086364       -29.5615
  33   2.0000      -1.046115       -28.4662
  34   2.0000      -1.005983       -27.3742
  35   2.0000      -1.001351       -27.2482
  36   2.0000      -0.996386       -27.1130
  37   2.0000      -0.814614       -22.1668
  38   2.0000      -0.755154       -20.5488
  39   2.0000      -0.738727       -20.1018
  40   2.0000      -0.732240       -19.9253
  41   2.0000      -0.695205       -18.9175
  42   2.0000      -0.671668       -18.2770
  43   2.0000      -0.656241       -17.8572
  44   2.0000      -0.648757       -17.6536
  45   2.0000      -0.628625       -17.1058
  46   2.0000      -0.594838       -16.1864
  47   2.0000      -0.539294       -14.6749
  48   2.0000      -0.531099       -14.4519
  49   2.0000      -0.523231       -14.2378
  50   2.0000      -0.507030       -13.7970
  51   2.0000      -0.490570       -13.3491
  52   2.0000      -0.485633       -13.2147
  53   2.0000      -0.469628       -12.7792
  54   2.0000      -0.462398       -12.5825
  55   2.0000      -0.455060       -12.3828
  56   2.0000      -0.451695       -12.2913
  57   2.0000      -0.443916       -12.0796
  58   2.0000      -0.439449       -11.9580
  59   2.0000      -0.424317       -11.5463
  60   2.0000      -0.418629       -11.3915
  61   2.0000      -0.411400       -11.1948
  62   2.0000      -0.410016       -11.1571
  63   2.0000      -0.398948       -10.8559
  64   2.0000      -0.389436       -10.5971
  65   2.0000      -0.385922       -10.5015
  66   2.0000      -0.373897       -10.1742
  67   2.0000      -0.368972       -10.0402
  68   2.0000      -0.355219        -9.6660
  69   2.0000      -0.350756        -9.5446
  70   2.0000      -0.346090        -9.4176
  71   2.0000      -0.340691        -9.2707
  72   2.0000      -0.338942        -9.2231
  73   2.0000      -0.336948        -9.1688
  74   2.0000      -0.329332        -8.9616
  75   2.0000      -0.309121        -8.4116
  76   2.0000      -0.306855        -8.3499
  77   2.0000      -0.301970        -8.2170
  78   2.0000      -0.289459        -7.8766
  79   2.0000      -0.288770        -7.8578
  80   2.0000      -0.282961        -7.6998
  81   2.0000      -0.279722        -7.6116
  82   2.0000      -0.266020        -7.2388
  83   2.0000      -0.261490        -7.1155
  84   2.0000      -0.233182        -6.3452
  85   2.0000      -0.229018        -6.2319
  86   2.0000      -0.223480        -6.0812
  87   0.0000      -0.052924        -1.4401
  88   0.0000      -0.029425        -0.8007
  89   0.0000      -0.024725        -0.6728
  90   0.0000       0.004308         0.1172
  91   0.0000       0.018324         0.4986

MULLIKEN ATOMIC CHARGES
-----------------------
   0 C :   -0.497112
   1 C :   -0.138605
   2 O :   -0.171845
   3 C :    0.424922
   4 O :   -0.452120
   5 C :   -0.484260
   6 C :    0.024454
   7 H :    0.270263
   8 C :    0.218501
   9 O :   -0.450275
  10 O :   -0.122831
  11 C :   -0.143240
  12 C :   -0.511213
  13 S :   -0.185268
  14 P :    0.780430
  15 S :   -0.503500
  16 O :   -0.400433
  17 C :   -0.315230
  18 O :   -0.331872
  19 C :   -0.301290
  20 H :    0.170879
  21 H :    0.167784
  22 H :    0.172708
  23 H :    0.177655
  24 H :    0.174695
  25 H :    0.226011
  26 H :    0.237486
  27 H :    0.182159
  28 H :    0.181614
  29 H :    0.172942
  30 H :    0.173544
  31 H :    0.171765
  32 H :    0.177193
  33 H :    0.176938
  34 H :    0.177155
  35 H :    0.184036
  36 H :    0.182052
  37 H :    0.183908
Sum of atomic charges:    0.0000000

LOEWDIN ATOMIC CHARGES
----------------------
   0 C :   -0.390487
   1 C :    0.037475
   2 O :   -0.572090
   3 C :    0.375882
   4 O :   -0.475329
   5 C :   -0.197112
   6 C :   -0.185922
   7 H :    0.216381
   8 C :    0.352131
   9 O :   -0.471660
  10 O :   -0.637060
  11 C :    0.039825
  12 C :   -0.388160
  13 S :    0.247996
  14 P :    0.406389
  15 S :   -0.124829
  16 O :   -0.719980
  17 C :   -0.054543
  18 O :   -0.682770
  19 C :   -0.050982
  20 H :    0.163547
  21 H :    0.162819
  22 H :    0.169021
  23 H :    0.191031
  24 H :    0.190756
  25 H :    0.204982
  26 H :    0.216707
  27 H :    0.196156
  28 H :    0.191792
  29 H :    0.167145
  30 H :    0.168070
  31 H :    0.162620
  32 H :    0.187466
  33 H :    0.177159
  34 H :    0.175022
  35 H :    0.179224
  36 H :    0.179781
  37 H :    0.191545

  Mayer bond orders larger than 0.100000
B(  0-C ,  1-C ) :   0.9360 B(  0-C , 20-H ) :   0.9687 B(  0-C , 21-H ) :   0.9692
B(  0-C , 22-H ) :   0.9588 B(  1-C ,  2-O ) :   0.7867 B(  1-C , 23-H ) :   0.9515
B(  1-C , 24-H ) :   0.9627 B(  2-O ,  3-C ) :   1.1511 B(  3-C ,  4-O ) :   1.7265
B(  3-C ,  5-C ) :   0.9516 B(  4-O ,  8-C ) :   0.1353 B(  5-C ,  6-C ) :   0.8901
B(  5-C , 25-H ) :   0.9624 B(  5-C , 26-H ) :   0.9219 B(  6-C ,  7-H ) :   0.9038
B(  6-C ,  8-C ) :   0.8204 B(  6-C , 13-S ) :   0.8645 B(  8-C ,  9-O ) :   1.8387
B(  8-C , 10-O ) :   1.1545 B( 10-O , 11-C ) :   0.7468 B( 11-C , 12-C ) :   0.9081
B( 11-C , 27-H ) :   0.9562 B( 11-C , 28-H ) :   0.9498 B( 12-C , 29-H ) :   0.9705
B( 12-C , 30-H ) :   0.9639 B( 12-C , 31-H ) :   0.9705 B( 13-S , 14-P ) :   1.0694
B( 14-P , 15-S ) :   1.7675 B( 14-P , 16-O ) :   1.0732 B( 14-P , 18-O ) :   1.0741
B( 16-O , 17-C ) :   0.8244 B( 17-C , 32-H ) :   0.9570 B( 17-C , 33-H ) :   0.9523
B( 17-C , 34-H ) :   0.9554 B( 18-O , 19-C ) :   0.7864 B( 19-C , 35-H ) :   0.9483
B( 19-C , 36-H ) :   0.9521 B( 19-C , 37-H ) :   0.9539

Dispersion correction           -0.017772666
FINAL SINGLE POINT ENERGY     -1981.466388223834

DIPOLE MOMENT
-------------

Method             : SCF
Type of density    : Electron Density
Multiplicity       :   1
Irrep              :   0
Energy             : -1981.4864091427759831 Eh
Relativity type    :
Basis              : AO
                                X                 Y                 Z
Electronic contribution:    -11.442246191       8.600868834     -10.101138140
Nuclear contribution   :     11.682757865     -11.221265265      10.976602097
                        -----------------------------------------
Total Dipole Moment    :      0.240511674      -2.620396431       0.875463957
                        -----------------------------------------
Magnitude (a.u.)       :      2.773222036
Magnitude (Debye)      :      7.048970224

Rotational constants in cm-1:             0.015422             0.006364             0.005936
Rotational constants in MHz :           462.334467           190.775290           177.956277

                             ****ORCA TERMINATED NORMALLY****
TOTAL RUN TIME: 0 days 0 hours 1 minutes 57 seconds 340 msec
