                         Program Version 6.0.0  -   RELEASE  -
|  1> ! pbe def2-sv(p) def2/J RI DEFGRID1 loosescf d4 GCP(DFT/SV(P)) printgap
|  2> %output
|  3>     printlevel normal
|  4> end
|  5> * xyz 0 1
|  6> C 4.3417329086 -1.2148491744 -2.3089337101
|  7> C 4.8750074651 -0.9306448384 -0.91980762
|  8> O 3.8440798831 -0.9780719519 0.0832137802
|  9> P 2.6520926266 0.071122123 0.1376689145
| 10> S 3.1215188712 1.9308044838 -0.2421611714
| 11> O 2.0946755938 -0.0889615297 1.6020342379
| 12> C 1.6586773127 -1.3439666889 2.1804516004
| 13> C 2.7771281224 -1.9954265452 2.9671865461
| 14> S 1.1538723825 -0.7831324406 -1.1211869808
| 15> C 0.0638540999 0.657131781 -1.0916134739
| 16> S -0.8997514561 0.7825380755 0.4370558544
| 17> P -2.8482572671 0.2969742995 -0.329383532
| 18> S -2.9740297251 -0.0389924641 -2.2497283486
| 19> O -3.7320837945 1.5182577636 0.1267676919
| 20> C -3.843791288 1.9192620071 1.517222734
| 21> C -4.1418954138 3.4033524492 1.5529414435
| 22> O -3.4047834954 -0.8601944718 0.6133563542
| 23> C -3.2028760462 -2.2573249455 0.3354239842
| 24> C -1.7571605363 -2.6726151426 0.5144604031
| 25> H 3.6977161698 -0.4001168825 -2.6367344276
| 26> H 5.17347918 -1.3024704087 -3.0005551961
| 27> H 3.7685259883 -2.1385933102 -2.3140876795
| 28> H 5.3464487269 0.0561481577 -0.8828361431
| 29> H 5.5853464429 -1.693507769 -0.5981539225
| 30> H 0.8252891468 -1.0620016807 2.826884871
| 31> H 1.3056907277 -1.9997295459 1.379586893
| 32> H 3.1506173319 -1.3087844824 3.7218841814
| 33> H 2.3954765786 -2.8885280668 3.4519807887
| 34> H 3.5945156925 -2.2676569715 2.305132322
| 35> H -0.6220534851 0.5630456116 -1.9367777118
| 36> H 0.6767094143 1.5557572827 -1.1737701321
| 37> H -4.6500461852 1.3335959182 1.9622923821
| 38> H -2.9031003248 1.6881626813 2.0258658076
| 39> H -4.2730651176 3.7163967829 2.583713709
| 40> H -3.3216330135 3.9619427036 1.1101691702
| 41> H -5.0491278185 3.6129743824 0.9936039156
| 42> H -3.8572569376 -2.7599954004 1.0491381674
| 43> H -3.5398978997 -2.459370445 -0.6858792574
| 44> H -1.1373354119 -2.2157913858 -0.2565335722
| 45> H -1.3969110173 -2.3650590924 1.4929377443
| 46> H -1.6809758706 -3.7513625531 0.4252208686
| 47> *
| 48>
| 49>                          ****END OF INPUT****

CARTESIAN COORDINATES (ANGSTROEM)
---------------------------------
  C      4.341733   -1.214849   -2.308934
  C      4.875007   -0.930645   -0.919808
  O      3.844080   -0.978072    0.083214
  P      2.652093    0.071122    0.137669
  S      3.121519    1.930804   -0.242161
  O      2.094676   -0.088962    1.602034
  C      1.658677   -1.343967    2.180452
  C      2.777128   -1.995427    2.967187
  S      1.153872   -0.783132   -1.121187
  C      0.063854    0.657132   -1.091613
  S     -0.899751    0.782538    0.437056
  P     -2.848257    0.296974   -0.329384
  S     -2.974030   -0.038992   -2.249728
  O     -3.732084    1.518258    0.126768
  C     -3.843791    1.919262    1.517223
  C     -4.141895    3.403352    1.552941
  O     -3.404783   -0.860194    0.613356
  C     -3.202876   -2.257325    0.335424
  C     -1.757161   -2.672615    0.514460
  H      3.697716   -0.400117   -2.636734
  H      5.173479   -1.302470   -3.000555
  H      3.768526   -2.138593   -2.314088
  H      5.346449    0.056148   -0.882836
  H      5.585346   -1.693508   -0.598154
  H      0.825289   -1.062002    2.826885
  H      1.305691   -1.999730    1.379587
  H      3.150617   -1.308784    3.721884
  H      2.395477   -2.888528    3.451981
  H      3.594516   -2.267657    2.305132
  H     -0.622053    0.563046   -1.936778
  H      0.676709    1.555757   -1.173770
  H     -4.650046    1.333596    1.962292
  H     -2.903100    1.688163    2.025866
  H     -4.273065    3.716397    2.583714
  H     -3.321633    3.961943    1.110169
  H     -5.049128    3.612974    0.993604
  H     -3.857257   -2.759995    1.049138
  H     -3.539898   -2.459370   -0.685879
  H     -1.137335   -2.215791   -0.256534
  H     -1.396911   -2.365059    1.492938
  H     -1.680976   -3.751363    0.425221

 Total Charge           Charge          ....    0
 Multiplicity           Mult            ....    1
 Number of Electrons    NEL             ....  202
 Basis Dimension        Dim             ....  334

ORBITAL ENERGIES
----------------

  NO   OCC          E(Eh)            E(eV)
   0   2.0000     -88.044862     -2395.8225
   1   2.0000     -88.041686     -2395.7361
   2   2.0000     -87.992644     -2394.4016
   3   2.0000     -87.987240     -2394.2545
   4   2.0000     -76.428363     -2079.7215
   5   2.0000     -76.427885     -2079.7085
   6   2.0000     -18.799273      -511.5542
   7   2.0000     -18.794263      -511.4179
   8   2.0000     -18.793891      -511.4078
   9   2.0000     -18.792771      -511.3773
  10   2.0000      -9.960013      -271.0257
  11   2.0000      -9.957607      -270.9603
  12   2.0000      -9.957114      -270.9468
  13   2.0000      -9.955631      -270.9065
  14   2.0000      -9.948867      -270.7224
  15   2.0000      -9.889826      -269.1158
  16   2.0000      -9.888485      -269.0794
  17   2.0000      -9.887221      -269.0450
  18   2.0000      -9.886805      -269.0337
  19   2.0000      -7.689273      -209.2358
  20   2.0000      -7.686319      -209.1554
  21   2.0000      -7.637780      -207.8346
  22   2.0000      -7.632498      -207.6908
  23   2.0000      -6.426064      -174.8621
  24   2.0000      -6.425725      -174.8529
  25   2.0000      -5.716867      -155.5639
  26   2.0000      -5.714103      -155.4886
  27   2.0000      -5.713890      -155.4828
  28   2.0000      -5.710902      -155.4015
  29   2.0000      -5.706523      -155.2824
  30   2.0000      -5.703391      -155.1971
  31   2.0000      -5.666671      -154.1979
  32   2.0000      -5.661494      -154.0571
  33   2.0000      -5.658339      -153.9712
  34   2.0000      -5.657992      -153.9618
  35   2.0000      -5.653035      -153.8269
  36   2.0000      -5.652632      -153.8159
  37   2.0000      -4.649025      -126.5064
  38   2.0000      -4.648444      -126.4906
  39   2.0000      -4.647714      -126.4707
  40   2.0000      -4.647242      -126.4579
  41   2.0000      -4.646249      -126.4309
  42   2.0000      -4.646241      -126.4307
  43   2.0000      -0.992164       -26.9982
  44   2.0000      -0.990307       -26.9476
  45   2.0000      -0.950075       -25.8528
  46   2.0000      -0.946277       -25.7495
  47   2.0000      -0.762026       -20.7358
  48   2.0000      -0.724453       -19.7134
  49   2.0000      -0.714581       -19.4447
  50   2.0000      -0.693817       -18.8797
  51   2.0000      -0.691931       -18.8284
  52   2.0000      -0.678999       -18.4765
  53   2.0000      -0.652853       -17.7650
  54   2.0000      -0.639768       -17.4090
  55   2.0000      -0.600435       -16.3387
  56   2.0000      -0.593794       -16.1580
  57   2.0000      -0.578137       -15.7319
  58   2.0000      -0.575507       -15.6604
  59   2.0000      -0.558942       -15.2096
  60   2.0000      -0.510484       -13.8910
  61   2.0000      -0.500648       -13.6233
  62   2.0000      -0.479019       -13.0348
  63   2.0000      -0.477090       -12.9823
  64   2.0000      -0.460292       -12.5252
  65   2.0000      -0.451210       -12.2781
  66   2.0000      -0.443531       -12.0691
  67   2.0000      -0.440334       -11.9821
  68   2.0000      -0.433241       -11.7891
  69   2.0000      -0.427902       -11.6438
  70   2.0000      -0.410874       -11.1805
  71   2.0000      -0.396173       -10.7804
  72   2.0000      -0.396066       -10.7775
  73   2.0000      -0.389589       -10.6012
  74   2.0000      -0.378390       -10.2965
  75   2.0000      -0.370417       -10.0796
  76   2.0000      -0.368183       -10.0188
  77   2.0000      -0.361621        -9.8402
  78   2.0000      -0.358176        -9.7465
  79   2.0000      -0.355538        -9.6747
  80   2.0000      -0.352538        -9.5930
  81   2.0000      -0.348145        -9.4735
  82   2.0000      -0.343689        -9.3522
  83   2.0000      -0.341775        -9.3002
  84   2.0000      -0.340078        -9.2540
  85   2.0000      -0.320479        -8.7207
  86   2.0000      -0.315634        -8.5888
  87   2.0000      -0.304764        -8.2930
  88   2.0000      -0.300722        -8.1831
  89   2.0000      -0.297728        -8.1016
  90   2.0000      -0.294917        -8.0251
  91   2.0000      -0.276793        -7.5319
  92   2.0000      -0.271920        -7.3993
  93   2.0000      -0.266534        -7.2528
  94   2.0000      -0.258903        -7.0451
  95   2.0000      -0.233114        -6.3434
  96   2.0000      -0.221318        -6.0224
  97   2.0000      -0.213676        -5.8144
  98   2.0000      -0.208926        -5.6852
  99   2.0000      -0.206524        -5.6198
 100   2.0000      -0.200466        -5.4550
 101   0.0000      -0.042799        -1.1646
 102   0.0000      -0.033036        -0.8989
 103   0.0000      -0.016222        -0.4414
 104   0.0000       0.003243         0.0883
 105   0.0000       0.013993         0.3808

MULLIKEN ATOMIC CHARGES
-----------------------
   0 C :   -0.322223
   1 C :   -0.000543
   2 O :   -0.381371
   3 P :    0.598638
   4 S :   -0.309097
   5 O :   -0.350965
   6 C :   -0.028222
   7 C :   -0.285417
   8 S :   -0.097470
   9 C :   -0.358263
  10 S :   -0.110571
  11 P :    0.598504
  12 S :   -0.300746
  13 O :   -0.358287
  14 C :   -0.018494
  15 C :   -0.277693
  16 O :   -0.384394
  17 C :    0.007416
  18 C :   -0.336255
  19 H :    0.133211
  20 H :    0.116424
  21 H :    0.118075
  22 H :    0.115086
  23 H :    0.105845
  24 H :    0.113640
  25 H :    0.115013
  26 H :    0.119808
  27 H :    0.108472
  28 H :    0.120967
  29 H :    0.194594
  30 H :    0.195605
  31 H :    0.110984
  32 H :    0.109208
  33 H :    0.111350
  34 H :    0.123851
  35 H :    0.123795
  36 H :    0.103226
  37 H :    0.112628
  38 H :    0.135623
  39 H :    0.116835
  40 H :    0.111216
Sum of atomic charges:   -0.0000000

LOEWDIN ATOMIC CHARGES
----------------------
   0 C :   -0.371528
   1 C :   -0.115850
   2 O :   -0.246365
   3 P :    0.570273
   4 S :   -0.307854
   5 O :   -0.232985
   6 C :   -0.118224
   7 C :   -0.359279
   8 S :    0.087788
   9 C :   -0.491033
  10 S :    0.064673
  11 P :    0.569635
  12 S :   -0.293028
  13 O :   -0.239879
  14 C :   -0.112971
  15 C :   -0.349855
  16 O :   -0.251720
  17 C :   -0.115531
  18 C :   -0.372620
  19 H :    0.123675
  20 H :    0.132928
  21 H :    0.123592
  22 H :    0.114490
  23 H :    0.118807
  24 H :    0.119089
  25 H :    0.105476
  26 H :    0.128871
  27 H :    0.129090
  28 H :    0.125891
  29 H :    0.125608
  30 H :    0.127490
  31 H :    0.117282
  32 H :    0.104291
  33 H :    0.130720
  34 H :    0.131294
  35 H :    0.131139
  36 H :    0.118094
  37 H :    0.112196
  38 H :    0.113924
  39 H :    0.122033
  40 H :    0.130376

  Mayer bond orders larger than 0.100000
B(  0-C ,  1-C ) :   1.1659 B(  0-C , 19-H ) :   0.9341 B(  0-C , 20-H ) :   0.9369
B(  0-C , 21-H ) :   0.9437 B(  1-C ,  2-O ) :   0.9032 B(  1-C , 22-H ) :   0.9188
B(  1-C , 23-H ) :   0.9339 B(  2-O ,  3-P ) :   1.0880 B(  3-P ,  4-S ) :   1.6387
B(  3-P ,  5-O ) :   1.1439 B(  3-P ,  8-S ) :   0.9498 B(  4-S ,  8-S ) :   0.1072
B(  5-O ,  6-C ) :   0.8914 B(  6-C ,  7-C ) :   1.1598 B(  6-C , 24-H ) :   0.9323
B(  6-C , 25-H ) :   0.9073 B(  7-C , 26-H ) :   0.9468 B(  7-C , 27-H ) :   0.9400
B(  7-C , 28-H ) :   0.9413 B(  8-S ,  9-C ) :   1.0051 B(  9-C , 10-S ) :   1.0068
B(  9-C , 29-H ) :   0.8488 B(  9-C , 30-H ) :   0.8650 B( 10-S , 11-P ) :   0.9453
B( 10-S , 12-S ) :   0.1153 B( 11-P , 12-S ) :   1.6345 B( 11-P , 13-O ) :   1.1430
B( 11-P , 16-O ) :   1.0803 B( 12-S , 29-H ) :   0.1186 B( 13-O , 14-C ) :   0.8905
B( 14-C , 15-C ) :   1.1643 B( 14-C , 31-H ) :   0.9310 B( 14-C , 32-H ) :   0.9134
B( 15-C , 33-H ) :   0.9404 B( 15-C , 34-H ) :   0.9490 B( 15-C , 35-H ) :   0.9490
B( 16-O , 17-C ) :   0.9149 B( 17-C , 18-C ) :   1.1613 B( 17-C , 36-H ) :   0.9336
B( 17-C , 37-H ) :   0.9176 B( 18-C , 38-H ) :   0.9274 B( 18-C , 39-H ) :   0.9405
B( 18-C , 40-H ) :   0.9372

Dispersion correction           -0.062715126
FINAL SINGLE POINT ENERGY     -2929.519255906115

DIPOLE MOMENT
-------------

Method             : SCF
Type of density    : Electron Density
Multiplicity       :   1
Irrep              :   0
Energy             : -2929.6413175105931259 Eh
Relativity type    :
Basis              : AO
                                X                 Y                 Z
Electronic contribution:     -2.960055314      10.344012306     -10.135519689
Nuclear contribution   :      3.043365725     -11.764979626      11.410001581
                        -----------------------------------------
Total Dipole Moment    :      0.083310412      -1.420967320       1.274481893
                        -----------------------------------------
Magnitude (a.u.)       :      1.910600127
Magnitude (Debye)      :      4.856359581

Rotational constants in cm-1:             0.012176             0.004197             0.004135
Rotational constants in MHz :           365.041777           125.814782           123.955426

                             ****ORCA TERMINATED NORMALLY****
TOTAL RUN TIME: 0 days 0 hours 0 minutes 21 seconds 125 msec
