                         Program Version 6.0.0  -   RELEASE  -
|  1> ! pbe def2-sv(p) def2/J RI DEFGRID1 loosescf d4 GCP(DFT/SV(P)) printgap
|  2> %output
|  3>     printlevel normal
|  4> end
|  5> * xyz 0 1
|  6> C 2.676304477 -0.2892894864 -2.9411846295
|  7> C 3.1934089256 0.5973906646 -1.8258090583
|  8> O 2.1592522745 0.83605499 -0.8341263802
|  9> P 2.0232932034 0.0779312195 0.5330828287
| 10> S 0.6580209049 0.8899080097 1.6767067247
| 11> O 3.4973119879 0.1500831603 1.1180667037
| 12> C 3.810787488 -0.3483226895 2.4355081936
| 13> C 5.1330469045 0.2581288352 2.8589276992
| 14> S 1.8394839348 -2.0082612866 0.1407787979
| 15> C 0.2072432735 -2.0427966153 -0.6389567484
| 16> S -1.1780985053 -1.7894428967 0.5231323371
| 17> P -2.0959593794 -0.1200623954 -0.387987887
| 18> S -1.0247153192 0.8491026136 -1.7202091859
| 19> O -2.7380400089 0.764584369 0.7607058679
| 20> C -2.3372301528 2.0929229697 1.1325118296
| 21> C -3.5545290447 2.9953607705 1.0999847244
| 22> O -3.3656358261 -0.9078213236 -0.928544143
| 23> C -4.6198168019 -0.2910626845 -1.2861539128
| 24> C -4.5080733121 0.5638908533 -2.5322922407
| 25> H 2.5430866676 -1.3113617617 -2.5951891493
| 26> H 1.7237155255 0.0933081703 -3.3018705096
| 27> H 3.3924462367 -0.2840400934 -3.7566730124
| 28> H 3.4320914663 1.5956484165 -2.1954507833
| 29> H 4.0649463181 0.1636114812 -1.3336322442
| 30> H 3.0019170516 -0.0642372175 3.1167161811
| 31> H 3.8674604861 -1.4385207692 2.3801323139
| 32> H 5.0544593782 1.3414064993 2.8855316146
| 33> H 5.3904456001 -0.1071454661 3.8475790569
| 34> H 5.9127735619 -0.021980456 2.1568987358
| 35> H 0.1079219607 -3.037546759 -1.064455046
| 36> H 0.1535701232 -1.2687558377 -1.4097191436
| 37> H -1.9049182972 2.0273072182 2.1333767674
| 38> H -1.5631757228 2.4412216353 0.440317538
| 39> H -3.9459574977 3.0644587686 0.0877091839
| 40> H -4.3261145326 2.6010067776 1.7551332619
| 41> H -3.267093479 3.9851195245 1.4389326667
| 42> H -5.2834208414 -1.1426411911 -1.4453169921
| 43> H -4.9713722665 0.2974568032 -0.4351115582
| 44> H -4.1101708387 -0.0221719808 -3.3568366451
| 45> H -5.4903564194 0.9410303614 -2.7989726752
| 46> H -3.8390517783 1.4050788887 -2.3569766099
| 47> *
| 48>
| 49>                          ****END OF INPUT****

CARTESIAN COORDINATES (ANGSTROEM)
---------------------------------
  C      2.676304   -0.289289   -2.941185
  C      3.193409    0.597391   -1.825809
  O      2.159252    0.836055   -0.834126
  P      2.023293    0.077931    0.533083
  S      0.658021    0.889908    1.676707
  O      3.497312    0.150083    1.118067
  C      3.810787   -0.348323    2.435508
  C      5.133047    0.258129    2.858928
  S      1.839484   -2.008261    0.140779
  C      0.207243   -2.042797   -0.638957
  S     -1.178099   -1.789443    0.523132
  P     -2.095959   -0.120062   -0.387988
  S     -1.024715    0.849103   -1.720209
  O     -2.738040    0.764584    0.760706
  C     -2.337230    2.092923    1.132512
  C     -3.554529    2.995361    1.099985
  O     -3.365636   -0.907821   -0.928544
  C     -4.619817   -0.291063   -1.286154
  C     -4.508073    0.563891   -2.532292
  H      2.543087   -1.311362   -2.595189
  H      1.723716    0.093308   -3.301871
  H      3.392446   -0.284040   -3.756673
  H      3.432091    1.595648   -2.195451
  H      4.064946    0.163611   -1.333632
  H      3.001917   -0.064237    3.116716
  H      3.867460   -1.438521    2.380132
  H      5.054459    1.341406    2.885532
  H      5.390446   -0.107145    3.847579
  H      5.912774   -0.021980    2.156899
  H      0.107922   -3.037547   -1.064455
  H      0.153570   -1.268756   -1.409719
  H     -1.904918    2.027307    2.133377
  H     -1.563176    2.441222    0.440318
  H     -3.945957    3.064459    0.087709
  H     -4.326115    2.601007    1.755133
  H     -3.267093    3.985120    1.438933
  H     -5.283421   -1.142641   -1.445317
  H     -4.971372    0.297457   -0.435112
  H     -4.110171   -0.022172   -3.356837
  H     -5.490356    0.941030   -2.798973
  H     -3.839052    1.405079   -2.356977

 Total Charge           Charge          ....    0
 Multiplicity           Mult            ....    1
 Number of Electrons    NEL             ....  202
 Basis Dimension        Dim             ....  334

ORBITAL ENERGIES
----------------

  NO   OCC          E(Eh)            E(eV)
   0   2.0000     -88.039325     -2395.6718
   1   2.0000     -88.030225     -2395.4242
   2   2.0000     -87.981338     -2394.0939
   3   2.0000     -87.975425     -2393.9330
   4   2.0000     -76.421359     -2079.5309
   5   2.0000     -76.419701     -2079.4858
   6   2.0000     -18.790749      -511.3223
   7   2.0000     -18.788673      -511.2658
   8   2.0000     -18.787632      -511.2375
   9   2.0000     -18.778433      -510.9871
  10   2.0000      -9.953994      -270.8620
  11   2.0000      -9.952839      -270.8305
  12   2.0000      -9.950956      -270.7793
  13   2.0000      -9.948673      -270.7171
  14   2.0000      -9.942199      -270.5410
  15   2.0000      -9.888421      -269.0776
  16   2.0000      -9.882860      -268.9263
  17   2.0000      -9.882842      -268.9258
  18   2.0000      -9.879076      -268.8233
  19   2.0000      -7.684451      -209.1045
  20   2.0000      -7.675697      -208.8663
  21   2.0000      -7.626210      -207.5197
  22   2.0000      -7.620437      -207.3626
  23   2.0000      -6.418854      -174.6659
  24   2.0000      -6.417126      -174.6189
  25   2.0000      -5.712000      -155.4314
  26   2.0000      -5.709010      -155.3500
  27   2.0000      -5.703746      -155.2068
  28   2.0000      -5.701713      -155.1515
  29   2.0000      -5.700455      -155.1173
  30   2.0000      -5.692151      -154.8913
  31   2.0000      -5.654910      -153.8779
  32   2.0000      -5.649444      -153.7292
  33   2.0000      -5.647271      -153.6700
  34   2.0000      -5.646095      -153.6381
  35   2.0000      -5.641114      -153.5025
  36   2.0000      -5.640411      -153.4834
  37   2.0000      -4.641904      -126.3126
  38   2.0000      -4.640697      -126.2798
  39   2.0000      -4.639957      -126.2597
  40   2.0000      -4.638806      -126.2283
  41   2.0000      -4.638453      -126.2187
  42   2.0000      -4.637804      -126.2011
  43   2.0000      -0.985987       -26.8301
  44   2.0000      -0.979632       -26.6571
  45   2.0000      -0.942646       -25.6507
  46   2.0000      -0.935313       -25.4512
  47   2.0000      -0.755793       -20.5662
  48   2.0000      -0.719373       -19.5751
  49   2.0000      -0.708692       -19.2845
  50   2.0000      -0.690438       -18.7878
  51   2.0000      -0.683662       -18.6034
  52   2.0000      -0.668468       -18.1899
  53   2.0000      -0.646133       -17.5822
  54   2.0000      -0.629914       -17.1408
  55   2.0000      -0.591809       -16.1039
  56   2.0000      -0.581823       -15.8322
  57   2.0000      -0.572090       -15.5674
  58   2.0000      -0.568965       -15.4823
  59   2.0000      -0.557281       -15.1644
  60   2.0000      -0.507921       -13.8212
  61   2.0000      -0.494702       -13.4615
  62   2.0000      -0.476149       -12.9567
  63   2.0000      -0.469146       -12.7661
  64   2.0000      -0.450554       -12.2602
  65   2.0000      -0.444518       -12.0959
  66   2.0000      -0.436946       -11.8899
  67   2.0000      -0.433669       -11.8007
  68   2.0000      -0.429004       -11.6738
  69   2.0000      -0.412549       -11.2260
  70   2.0000      -0.403565       -10.9816
  71   2.0000      -0.392792       -10.6884
  72   2.0000      -0.385130       -10.4799
  73   2.0000      -0.381145       -10.3715
  74   2.0000      -0.379349       -10.3226
  75   2.0000      -0.368749       -10.0342
  76   2.0000      -0.364856        -9.9282
  77   2.0000      -0.352488        -9.5917
  78   2.0000      -0.348991        -9.4965
  79   2.0000      -0.347102        -9.4451
  80   2.0000      -0.344355        -9.3704
  81   2.0000      -0.342655        -9.3241
  82   2.0000      -0.335795        -9.1374
  83   2.0000      -0.334899        -9.1131
  84   2.0000      -0.333558        -9.0766
  85   2.0000      -0.317289        -8.6339
  86   2.0000      -0.306818        -8.3489
  87   2.0000      -0.300048        -8.1647
  88   2.0000      -0.293398        -7.9838
  89   2.0000      -0.286360        -7.7923
  90   2.0000      -0.281194        -7.6517
  91   2.0000      -0.270873        -7.3708
  92   2.0000      -0.269032        -7.3207
  93   2.0000      -0.257439        -7.0053
  94   2.0000      -0.254256        -6.9187
  95   2.0000      -0.236473        -6.4348
  96   2.0000      -0.220179        -5.9914
  97   2.0000      -0.204172        -5.5558
  98   2.0000      -0.195963        -5.3324
  99   2.0000      -0.184125        -5.0103
 100   2.0000      -0.180324        -4.9069
 101   0.0000      -0.034934        -0.9506
 102   0.0000      -0.026632        -0.7247
 103   0.0000      -0.006884        -0.1873
 104   0.0000       0.007422         0.2020
 105   0.0000       0.021450         0.5837

MULLIKEN ATOMIC CHARGES
-----------------------
   0 C :   -0.306750
   1 C :   -0.008143
   2 O :   -0.346645
   3 P :    0.617347
   4 S :   -0.324259
   5 O :   -0.385778
   6 C :   -0.013100
   7 C :   -0.280904
   8 S :   -0.126890
   9 C :   -0.365551
  10 S :   -0.063062
  11 P :    0.637435
  12 S :   -0.328449
  13 O :   -0.383314
  14 C :   -0.028225
  15 C :   -0.282384
  16 O :   -0.370399
  17 C :   -0.009702
  18 C :   -0.312993
  19 H :    0.120095
  20 H :    0.136297
  21 H :    0.109191
  22 H :    0.111066
  23 H :    0.105853
  24 H :    0.107629
  25 H :    0.105597
  26 H :    0.122343
  27 H :    0.112746
  28 H :    0.113940
  29 H :    0.182619
  30 H :    0.203088
  31 H :    0.117039
  32 H :    0.126337
  33 H :    0.113684
  34 H :    0.113976
  35 H :    0.113206
  36 H :    0.105294
  37 H :    0.106512
  38 H :    0.118930
  39 H :    0.106115
  40 H :    0.130207
Sum of atomic charges:    0.0000000

LOEWDIN ATOMIC CHARGES
----------------------
   0 C :   -0.365827
   1 C :   -0.108218
   2 O :   -0.226141
   3 P :    0.565279
   4 S :   -0.306794
   5 O :   -0.251397
   6 C :   -0.119762
   7 C :   -0.350579
   8 S :    0.055559
   9 C :   -0.482562
  10 S :    0.090668
  11 P :    0.572050
  12 S :   -0.303335
  13 O :   -0.238489
  14 C :   -0.124450
  15 C :   -0.355020
  16 O :   -0.250788
  17 C :   -0.114288
  18 C :   -0.367977
  19 H :    0.118441
  20 H :    0.131419
  21 H :    0.129350
  22 H :    0.123089
  23 H :    0.110443
  24 H :    0.110367
  25 H :    0.109468
  26 H :    0.129994
  27 H :    0.131336
  28 H :    0.125467
  29 H :    0.137008
  30 H :    0.119960
  31 H :    0.113358
  32 H :    0.109521
  33 H :    0.122766
  34 H :    0.124236
  35 H :    0.131826
  36 H :    0.119386
  37 H :    0.109585
  38 H :    0.128544
  39 H :    0.127013
  40 H :    0.119492

  Mayer bond orders larger than 0.100000
B(  0-C ,  1-C ) :   1.1703 B(  0-C , 19-H ) :   0.9326 B(  0-C , 20-H ) :   0.9367
B(  0-C , 21-H ) :   0.9381 B(  1-C ,  2-O ) :   0.8937 B(  1-C , 22-H ) :   0.9349
B(  1-C , 23-H ) :   0.9195 B(  2-O ,  3-P ) :   1.1502 B(  3-P ,  4-S ) :   1.6557
B(  3-P ,  5-O ) :   1.0817 B(  3-P ,  8-S ) :   0.9498 B(  4-S ,  8-S ) :   0.1141
B(  5-O ,  6-C ) :   0.9039 B(  6-C ,  7-C ) :   1.1612 B(  6-C , 24-H ) :   0.9077
B(  6-C , 25-H ) :   0.9295 B(  7-C , 26-H ) :   0.9506 B(  7-C , 27-H ) :   0.9416
B(  7-C , 28-H ) :   0.9514 B(  8-S ,  9-C ) :   0.9845 B(  9-C , 10-S ) :   1.0140
B(  9-C , 29-H ) :   0.9117 B(  9-C , 30-H ) :   0.8455 B( 10-S , 11-P ) :   0.9628
B( 10-S , 12-S ) :   0.1200 B( 11-P , 12-S ) :   1.5965 B( 11-P , 13-O ) :   1.1127
B( 11-P , 16-O ) :   1.1120 B( 12-S , 30-H ) :   0.1059 B( 13-O , 14-C ) :   0.8970
B( 14-C , 15-C ) :   1.1512 B( 14-C , 31-H ) :   0.9284 B( 14-C , 32-H ) :   0.9040
B( 15-C , 33-H ) :   0.9453 B( 15-C , 34-H ) :   0.9482 B( 15-C , 35-H ) :   0.9416
B( 16-O , 17-C ) :   0.9199 B( 17-C , 18-C ) :   1.1634 B( 17-C , 36-H ) :   0.9362
B( 17-C , 37-H ) :   0.9256 B( 18-C , 38-H ) :   0.9456 B( 18-C , 39-H ) :   0.9376
B( 18-C , 40-H ) :   0.9328

Dispersion correction           -0.065616862
FINAL SINGLE POINT ENERGY     -2929.512014628644

DIPOLE MOMENT
-------------

Method             : SCF
Type of density    : Electron Density
Multiplicity       :   1
Irrep              :   0
Energy             : -2929.6305240911565306 Eh
Relativity type    :
Basis              : AO
                                X                 Y                 Z
Electronic contribution:      0.362876439     -10.701421207       5.325962662
Nuclear contribution   :     -0.003510271      10.671896929      -5.594669059
                        -----------------------------------------
Total Dipole Moment    :      0.359366168      -0.029524278      -0.268706397
                        -----------------------------------------
Magnitude (a.u.)       :      0.449687507
Magnitude (Debye)      :      1.143014806

Rotational constants in cm-1:             0.013036             0.004902             0.004554
Rotational constants in MHz :           390.799322           146.957302           136.512817

                             ****ORCA TERMINATED NORMALLY****
TOTAL RUN TIME: 0 days 0 hours 0 minutes 20 seconds 878 msec
