                         Program Version 6.0.1  -  RELEASE   -
|  1> ! pbe def2-sv(p) def2/J RI DEFGRID1 loosescf d4 GCP(DFT/SV(P)) printgap
|  2> %output
|  3>     printlevel normal
|  4> end
|  5> * xyz 0 1
|  6> C 3.4071599582 -3.3076222391 0.3448896212
|  7> C 2.901192955 -1.9769661171 0.8778904311
|  8> O 2.7047471602 -1.0307387403 -0.1902609749
|  9> C 1.6000306876 -1.0935754657 -0.9023441216
| 10> O 0.696917048 -1.8849021474 -0.7176355849
| 11> C 1.5688693459 -0.0323317564 -1.9831697969
| 12> C 0.3898302055 0.9184264083 -1.7595425874
| 13> H 0.3398117393 1.6355274232 -2.5839371687
| 14> C 0.49748531 1.6878160361 -0.4578459162
| 15> O -0.4517336969 1.8256383766 0.292863428
| 16> O 1.6945978324 2.1523596789 -0.2476070299
| 17> C 1.9452275746 2.8904478902 0.9692798576
| 18> C 1.5465246686 4.3479982921 0.8125221197
| 19> S -1.2299114979 0.0706695548 -1.7825334578
| 20> P -1.673927989 -0.3379555058 0.2583353824
| 21> S -0.4647791847 -0.6321914302 1.7896655556
| 22> O -2.9165329021 0.6063148958 0.5687712243
| 23> C -2.9620249474 1.6136803066 1.577777024
| 24> O -2.6004327697 -1.6244828195 0.0112321704
| 25> C -2.0941659204 -2.9268411726 -0.2749310708
| 26> H 3.6092893517 -3.9709237385 1.1792141634
| 27> H 2.6559840987 -3.7657217559 -0.2945387442
| 28> H 4.3193284094 -3.1588592787 -0.2264535471
| 29> H 3.6371842204 -1.500477619 1.5249901545
| 30> H 1.9561758212 -2.0985593979 1.4158568342
| 31> H 1.4346800974 -0.5266367085 -2.9455699879
| 32> H 2.5029207658 0.5276379097 -1.9636479264
| 33> H 1.3932435006 2.4137381679 1.7843394659
| 34> H 3.0184325849 2.7834599617 1.1244644848
| 35> H 2.0684930121 4.790452784 -0.0311954719
| 36> H 0.4740793067 4.4309648404 0.6520901943
| 37> H 1.8073234365 4.8864293806 1.717458219
| 38> H -2.2214607142 1.4094616526 2.3535107126
| 39> H -3.966529052 1.5796712151 1.9936252855
| 40> H -2.760571553 2.5830030107 1.12505459
| 41> H -2.9477215212 -3.5948141309 -0.1905969152
| 42> H -1.320621868 -3.1967548738 0.4454013023
| 43> H -1.6734800922 -2.9581027455 -1.2796995529
| 44> *
| 45>
| 46>                          ****END OF INPUT****

CARTESIAN COORDINATES (ANGSTROEM)
---------------------------------
  C      3.407160   -3.307622    0.344890
  C      2.901193   -1.976966    0.877890
  O      2.704747   -1.030739   -0.190261
  C      1.600031   -1.093575   -0.902344
  O      0.696917   -1.884902   -0.717636
  C      1.568869   -0.032332   -1.983170
  C      0.389830    0.918426   -1.759543
  H      0.339812    1.635527   -2.583937
  C      0.497485    1.687816   -0.457846
  O     -0.451734    1.825638    0.292863
  O      1.694598    2.152360   -0.247607
  C      1.945228    2.890448    0.969280
  C      1.546525    4.347998    0.812522
  S     -1.229911    0.070670   -1.782533
  P     -1.673928   -0.337956    0.258335
  S     -0.464779   -0.632191    1.789666
  O     -2.916533    0.606315    0.568771
  C     -2.962025    1.613680    1.577777
  O     -2.600433   -1.624483    0.011232
  C     -2.094166   -2.926841   -0.274931
  H      3.609289   -3.970924    1.179214
  H      2.655984   -3.765722   -0.294539
  H      4.319328   -3.158859   -0.226454
  H      3.637184   -1.500478    1.524990
  H      1.956176   -2.098559    1.415857
  H      1.434680   -0.526637   -2.945570
  H      2.502921    0.527638   -1.963648
  H      1.393244    2.413738    1.784339
  H      3.018433    2.783460    1.124464
  H      2.068493    4.790453   -0.031195
  H      0.474079    4.430965    0.652090
  H      1.807323    4.886429    1.717458
  H     -2.221461    1.409462    2.353511
  H     -3.966529    1.579671    1.993625
  H     -2.760572    2.583003    1.125055
  H     -2.947722   -3.594814   -0.190597
  H     -1.320622   -3.196755    0.445401
  H     -1.673480   -2.958103   -1.279700

 Total Charge           Charge          ....    0
 Multiplicity           Mult            ....    1
 Number of Electrons    NEL             ....  174
 Basis Dimension        Dim             ....  316

ORBITAL ENERGIES
----------------

  NO   OCC          E(Eh)            E(eV)
   0   2.0000     -88.026044     -2395.3104
   1   2.0000     -87.964291     -2393.6300
   2   2.0000     -76.412160     -2079.2806
   3   2.0000     -18.826739      -512.3016
   4   2.0000     -18.803399      -511.6665
   5   2.0000     -18.765111      -510.6246
   6   2.0000     -18.763686      -510.5858
   7   2.0000     -18.762736      -510.5600
   8   2.0000     -18.736526      -509.8468
   9   2.0000     -10.031710      -272.9767
  10   2.0000     -10.009601      -272.3751
  11   2.0000      -9.961008      -271.0528
  12   2.0000      -9.955784      -270.9107
  13   2.0000      -9.941758      -270.5290
  14   2.0000      -9.922703      -270.0105
  15   2.0000      -9.917035      -269.8562
  16   2.0000      -9.914333      -269.7827
  17   2.0000      -9.898167      -269.3428
  18   2.0000      -9.884085      -268.9596
  19   2.0000      -7.671271      -208.7459
  20   2.0000      -7.609311      -207.0599
  21   2.0000      -6.407020      -174.3439
  22   2.0000      -5.699685      -155.0963
  23   2.0000      -5.695979      -154.9955
  24   2.0000      -5.687414      -154.7624
  25   2.0000      -5.638491      -153.4311
  26   2.0000      -5.629927      -153.1981
  27   2.0000      -5.629124      -153.1763
  28   2.0000      -4.629636      -125.9788
  29   2.0000      -4.629248      -125.9682
  30   2.0000      -4.627554      -125.9221
  31   2.0000      -1.036958       -28.2171
  32   2.0000      -1.009412       -27.4675
  33   2.0000      -0.960348       -26.1324
  34   2.0000      -0.940991       -25.6057
  35   2.0000      -0.915270       -24.9058
  36   2.0000      -0.913373       -24.8541
  37   2.0000      -0.767342       -20.8804
  38   2.0000      -0.716583       -19.4992
  39   2.0000      -0.706529       -19.2256
  40   2.0000      -0.681632       -18.5482
  41   2.0000      -0.650151       -17.6915
  42   2.0000      -0.628509       -17.1026
  43   2.0000      -0.612919       -16.6784
  44   2.0000      -0.599256       -16.3066
  45   2.0000      -0.597049       -16.2465
  46   2.0000      -0.570195       -15.5158
  47   2.0000      -0.515902       -14.0384
  48   2.0000      -0.499899       -13.6029
  49   2.0000      -0.496593       -13.5130
  50   2.0000      -0.481849       -13.1118
  51   2.0000      -0.460985       -12.5440
  52   2.0000      -0.453101       -12.3295
  53   2.0000      -0.449726       -12.2377
  54   2.0000      -0.437667       -11.9095
  55   2.0000      -0.429995       -11.7008
  56   2.0000      -0.422765       -11.5040
  57   2.0000      -0.419029       -11.4024
  58   2.0000      -0.403701       -10.9853
  59   2.0000      -0.398538       -10.8448
  60   2.0000      -0.392116       -10.6700
  61   2.0000      -0.389427       -10.5968
  62   2.0000      -0.387911       -10.5556
  63   2.0000      -0.378246       -10.2926
  64   2.0000      -0.375662       -10.2223
  65   2.0000      -0.371210       -10.1011
  66   2.0000      -0.365824        -9.9546
  67   2.0000      -0.354889        -9.6570
  68   2.0000      -0.353927        -9.6308
  69   2.0000      -0.342429        -9.3180
  70   2.0000      -0.337578        -9.1860
  71   2.0000      -0.331330        -9.0159
  72   2.0000      -0.321019        -8.7354
  73   2.0000      -0.312126        -8.4934
  74   2.0000      -0.297034        -8.0827
  75   2.0000      -0.291906        -7.9432
  76   2.0000      -0.287015        -7.8101
  77   2.0000      -0.279701        -7.6110
  78   2.0000      -0.266518        -7.2523
  79   2.0000      -0.261867        -7.1258
  80   2.0000      -0.254177        -6.9165
  81   2.0000      -0.241737        -6.5780
  82   2.0000      -0.236581        -6.4377
  83   2.0000      -0.229071        -6.2333
  84   2.0000      -0.195746        -5.3265
  85   2.0000      -0.179774        -4.8919
  86   2.0000      -0.175982        -4.7887
  87   0.0000      -0.051075        -1.3898
  88   0.0000      -0.038371        -1.0441
  89   0.0000      -0.028847        -0.7850
  90   0.0000       0.008363         0.2276
  91   0.0000       0.034176         0.9300

MULLIKEN ATOMIC CHARGES
-----------------------
   0 C :   -0.308058
   1 C :   -0.025548
   2 O :   -0.225262
   3 C :    0.089404
   4 O :   -0.192467
   5 C :   -0.017536
   6 C :   -0.324442
   7 H :    0.156310
   8 C :    0.218972
   9 O :   -0.193954
  10 O :   -0.214704
  11 C :   -0.012571
  12 C :   -0.312365
  13 S :   -0.081836
  14 P :    0.641421
  15 S :   -0.356785
  16 O :   -0.372657
  17 C :   -0.083995
  18 O :   -0.379062
  19 C :   -0.089146
  20 H :    0.113611
  21 H :    0.127112
  22 H :    0.108565
  23 H :    0.097060
  24 H :    0.134496
  25 H :    0.121129
  26 H :    0.112039
  27 H :    0.126824
  28 H :    0.109572
  29 H :    0.116334
  30 H :    0.130822
  31 H :    0.120704
  32 H :    0.111227
  33 H :    0.113886
  34 H :    0.105822
  35 H :    0.111407
  36 H :    0.112409
  37 H :    0.111262
Sum of atomic charges:    0.0000000

LOEWDIN ATOMIC CHARGES
----------------------
   0 C :   -0.357410
   1 C :   -0.115018
   2 O :   -0.050391
   3 C :    0.023317
   4 O :   -0.164885
   5 C :   -0.249094
   6 C :   -0.261778
   7 H :    0.152843
   8 C :    0.021112
   9 O :   -0.150125
  10 O :   -0.031390
  11 C :   -0.105568
  12 C :   -0.356354
  13 S :    0.109473
  14 P :    0.595980
  15 S :   -0.332530
  16 O :   -0.246441
  17 C :   -0.211120
  18 O :   -0.256307
  19 C :   -0.214942
  20 H :    0.131282
  21 H :    0.129780
  22 H :    0.121966
  23 H :    0.116289
  24 H :    0.120797
  25 H :    0.145318
  26 H :    0.137431
  27 H :    0.127914
  28 H :    0.122060
  29 H :    0.126021
  30 H :    0.131338
  31 H :    0.134993
  32 H :    0.104513
  33 H :    0.114932
  34 H :    0.107519
  35 H :    0.114138
  36 H :    0.107501
  37 H :    0.106835

  Mayer bond orders larger than 0.100000
B(  0-C ,  1-C ) :   1.1672 B(  0-C , 20-H ) :   0.9445 B(  0-C , 21-H ) :   0.9455
B(  0-C , 22-H ) :   0.9479 B(  1-C ,  2-O ) :   0.9093 B(  1-C , 23-H ) :   0.9388
B(  1-C , 24-H ) :   0.9051 B(  2-O ,  3-C ) :   1.2484 B(  3-C ,  4-O ) :   1.9826
B(  3-C ,  5-C ) :   1.0040 B(  5-C ,  6-C ) :   1.0223 B(  5-C , 25-H ) :   0.8898
B(  5-C , 26-H ) :   0.8839 B(  6-C ,  7-H ) :   0.8724 B(  6-C ,  8-C ) :   0.9044
B(  6-C , 13-S ) :   1.0476 B(  8-C ,  9-O ) :   1.9180 B(  8-C , 10-O ) :   1.2837
B(  9-O , 14-P ) :   0.1169 B( 10-O , 11-C ) :   0.8951 B( 11-C , 12-C ) :   1.1723
B( 11-C , 27-H ) :   0.9133 B( 11-C , 28-H ) :   0.9362 B( 12-C , 29-H ) :   0.9474
B( 12-C , 30-H ) :   0.9450 B( 12-C , 31-H ) :   0.9433 B( 13-S , 14-P ) :   0.9198
B( 13-S , 15-S ) :   0.1235 B( 14-P , 15-S ) :   1.5166 B( 14-P , 16-O ) :   1.1215
B( 14-P , 18-O ) :   1.0947 B( 16-O , 17-C ) :   0.9392 B( 17-C , 32-H ) :   0.9290
B( 17-C , 33-H ) :   0.9561 B( 17-C , 34-H ) :   0.9540 B( 18-O , 19-C ) :   0.9434
B( 19-C , 35-H ) :   0.9574 B( 19-C , 36-H ) :   0.9389 B( 19-C , 37-H ) :   0.9469

Dispersion correction           -0.055424743
FINAL SINGLE POINT ENERGY     -1979.000494642619

DIPOLE MOMENT
-------------

Method             : SCF
Type of density    : Electron Density
Multiplicity       :   1
Irrep              :   0
Energy             : -1979.1296748103241043 Eh
Relativity type    :
Basis              : AO
                                X                 Y                 Z
Electronic contribution:    -13.292716912      -1.450068069      -5.526109645
Nuclear contribution   :     14.972573001       2.448051476       5.206520356
                        -----------------------------------------
Total Dipole Moment    :      1.679856089       0.997983407      -0.319589289
                        -----------------------------------------
Magnitude (a.u.)       :      1.979905218
Magnitude (Debye)      :      5.032519124

Rotational constants in cm-1:             0.010831             0.010230             0.007101
Rotational constants in MHz :           324.713970           306.694589           212.883651

                             ****ORCA TERMINATED NORMALLY****
TOTAL RUN TIME: 0 days 0 hours 0 minutes 42 seconds 695 msec
