                         Program Version 6.0.0  -   RELEASE  -
|  1> ! pbe def2-sv(p) def2/J RI DEFGRID1 loosescf d4 GCP(DFT/SV(P)) printgap
|  2> %output
|  3>     printlevel normal
|  4> end
|  5> * xyz 0 1
|  6> C 2.1113486336 -1.5976937648 2.3626275034
|  7> C 2.1930433093 -0.1030133344 2.12647541
|  8> O 1.6070023141 0.2769281234 0.8679712126
|  9> P 2.3150173035 -0.104768993 -0.5147697055
| 10> S 4.269205991 0.0028687451 -0.4738665174
| 11> O 1.5786569208 0.8495769434 -1.5433271168
| 12> C 2.0760156316 2.1646270803 -1.8570237391
| 13> C 1.9089554944 3.123147376 -0.6977169511
| 14> S 1.488810685 -1.9475679271 -1.125670005
| 15> C -0.2764074055 -1.532490649 -1.2417986987
| 16> S -1.0747583872 -1.3295165187 0.3763288564
| 17> P -2.2492888172 0.3984489894 -0.0457246057
| 18> S -1.5697615277 1.6055530542 -1.4268392319
| 19> O -2.5001343272 1.0357764603 1.3880205292
| 20> C -1.4301369198 1.506828314 2.2334761429
| 21> C -1.3148430506 0.6094470925 3.4508368274
| 22> O -3.6940249515 -0.0996502682 -0.4261183188
| 23> C -4.4776424877 -0.9992305873 0.4012175512
| 24> C -4.5128600335 -2.3838718699 -0.2142443184
| 25> H 2.7324553112 -2.1218993424 1.6364098397
| 26> H 2.4717983681 -1.8225138876 3.3610628134
| 27> H 1.0862201598 -1.9458069885 2.2599763215
| 28> H 3.2366477338 0.2280913699 2.1314321623
| 29> H 1.6208316394 0.4562776417 2.8670577205
| 30> H 3.1294344228 2.0747968011 -2.1409448796
| 31> H 1.4771391537 2.4688320562 -2.7167768383
| 32> H 2.5170961074 2.7980760844 0.1450977802
| 33> H 2.2270087327 4.114337779 -1.0045651388
| 34> H 0.8642578906 3.1582031686 -0.3974280809
| 35> H -0.7249416539 -2.379094973 -1.7554509982
| 36> H -0.4001316892 -0.6067798997 -1.807706767
| 37> H -0.4987372229 1.5312328942 1.6603718807
| 38> H -1.7055147495 2.5255986158 2.5136033975
| 39> H -0.5672299165 1.0136779341 4.1258034499
| 40> H -2.2699193008 0.5661693106 3.9667211693
| 41> H -1.0284955379 -0.396698547 3.1535879838
| 42> H -4.0558535705 -1.0201078529 1.4075639445
| 43> H -5.4719258234 -0.5511657753 0.4284868921
| 44> H -4.8487164336 -2.3237688319 -1.2458774242
| 45> H -3.5268983346 -2.8410211414 -0.1882425711
| 46> H -5.2030104376 -3.0032029437 0.3498439047
| 47> *
| 48>
| 49>                          ****END OF INPUT****

CARTESIAN COORDINATES (ANGSTROEM)
---------------------------------
  C      2.111349   -1.597694    2.362628
  C      2.193043   -0.103013    2.126475
  O      1.607002    0.276928    0.867971
  P      2.315017   -0.104769   -0.514770
  S      4.269206    0.002869   -0.473867
  O      1.578657    0.849577   -1.543327
  C      2.076016    2.164627   -1.857024
  C      1.908955    3.123147   -0.697717
  S      1.488811   -1.947568   -1.125670
  C     -0.276407   -1.532491   -1.241799
  S     -1.074758   -1.329517    0.376329
  P     -2.249289    0.398449   -0.045725
  S     -1.569762    1.605553   -1.426839
  O     -2.500134    1.035776    1.388021
  C     -1.430137    1.506828    2.233476
  C     -1.314843    0.609447    3.450837
  O     -3.694025   -0.099650   -0.426118
  C     -4.477642   -0.999231    0.401218
  C     -4.512860   -2.383872   -0.214244
  H      2.732455   -2.121899    1.636410
  H      2.471798   -1.822514    3.361063
  H      1.086220   -1.945807    2.259976
  H      3.236648    0.228091    2.131432
  H      1.620832    0.456278    2.867058
  H      3.129434    2.074797   -2.140945
  H      1.477139    2.468832   -2.716777
  H      2.517096    2.798076    0.145098
  H      2.227009    4.114338   -1.004565
  H      0.864258    3.158203   -0.397428
  H     -0.724942   -2.379095   -1.755451
  H     -0.400132   -0.606780   -1.807707
  H     -0.498737    1.531233    1.660372
  H     -1.705515    2.525599    2.513603
  H     -0.567230    1.013678    4.125803
  H     -2.269919    0.566169    3.966721
  H     -1.028496   -0.396699    3.153588
  H     -4.055854   -1.020108    1.407564
  H     -5.471926   -0.551166    0.428487
  H     -4.848716   -2.323769   -1.245877
  H     -3.526898   -2.841021   -0.188243
  H     -5.203010   -3.003203    0.349844

 Total Charge           Charge          ....    0
 Multiplicity           Mult            ....    1
 Number of Electrons    NEL             ....  202
 Basis Dimension        Dim             ....  334

ORBITAL ENERGIES
----------------

  NO   OCC          E(Eh)            E(eV)
   0   2.0000     -88.048971     -2395.9343
   1   2.0000     -88.044986     -2395.8259
   2   2.0000     -87.988411     -2394.2864
   3   2.0000     -87.988043     -2394.2764
   4   2.0000     -76.430359     -2079.7758
   5   2.0000     -76.425184     -2079.6350
   6   2.0000     -18.799988      -511.5737
   7   2.0000     -18.794636      -511.4281
   8   2.0000     -18.791323      -511.3379
   9   2.0000     -18.786144      -511.1970
  10   2.0000      -9.961657      -271.0705
  11   2.0000      -9.961021      -271.0532
  12   2.0000      -9.957601      -270.9601
  13   2.0000      -9.952774      -270.8288
  14   2.0000      -9.945659      -270.6351
  15   2.0000      -9.897079      -269.3132
  16   2.0000      -9.891304      -269.1561
  17   2.0000      -9.883681      -268.9486
  18   2.0000      -9.876200      -268.7451
  19   2.0000      -7.693436      -209.3490
  20   2.0000      -7.690324      -209.2644
  21   2.0000      -7.633568      -207.7199
  22   2.0000      -7.633172      -207.7092
  23   2.0000      -6.428012      -174.9151
  24   2.0000      -6.423057      -174.7803
  25   2.0000      -5.721221      -155.6823
  26   2.0000      -5.718664      -155.6128
  27   2.0000      -5.717969      -155.5939
  28   2.0000      -5.714501      -155.4995
  29   2.0000      -5.710545      -155.3918
  30   2.0000      -5.707131      -155.2989
  31   2.0000      -5.662572      -154.0864
  32   2.0000      -5.662085      -154.0732
  33   2.0000      -5.654143      -153.8571
  34   2.0000      -5.653898      -153.8504
  35   2.0000      -5.653600      -153.8423
  36   2.0000      -5.653248      -153.8327
  37   2.0000      -4.650835      -126.5556
  38   2.0000      -4.649871      -126.5294
  39   2.0000      -4.648157      -126.4828
  40   2.0000      -4.645388      -126.4074
  41   2.0000      -4.644989      -126.3966
  42   2.0000      -4.643558      -126.3576
  43   2.0000      -0.993590       -27.0370
  44   2.0000      -0.983819       -26.7711
  45   2.0000      -0.949724       -25.8433
  46   2.0000      -0.943628       -25.6774
  47   2.0000      -0.764232       -20.7958
  48   2.0000      -0.726013       -19.7558
  49   2.0000      -0.711767       -19.3682
  50   2.0000      -0.697409       -18.9775
  51   2.0000      -0.685991       -18.6668
  52   2.0000      -0.676652       -18.4126
  53   2.0000      -0.654696       -17.8152
  54   2.0000      -0.639443       -17.4001
  55   2.0000      -0.598995       -16.2995
  56   2.0000      -0.594306       -16.1719
  57   2.0000      -0.580136       -15.7863
  58   2.0000      -0.569111       -15.4863
  59   2.0000      -0.565459       -15.3869
  60   2.0000      -0.512870       -13.9559
  61   2.0000      -0.491325       -13.3696
  62   2.0000      -0.485294       -13.2055
  63   2.0000      -0.470446       -12.8015
  64   2.0000      -0.460676       -12.5356
  65   2.0000      -0.451684       -12.2909
  66   2.0000      -0.445767       -12.1299
  67   2.0000      -0.440430       -11.9847
  68   2.0000      -0.429682       -11.6923
  69   2.0000      -0.417108       -11.3501
  70   2.0000      -0.411706       -11.2031
  71   2.0000      -0.406174       -11.0525
  72   2.0000      -0.396092       -10.7782
  73   2.0000      -0.387904       -10.5554
  74   2.0000      -0.386598       -10.5199
  75   2.0000      -0.372690       -10.1414
  76   2.0000      -0.368467       -10.0265
  77   2.0000      -0.363262        -9.8849
  78   2.0000      -0.358488        -9.7550
  79   2.0000      -0.355515        -9.6741
  80   2.0000      -0.350892        -9.5482
  81   2.0000      -0.346728        -9.4350
  82   2.0000      -0.344804        -9.3826
  83   2.0000      -0.338229        -9.2037
  84   2.0000      -0.328130        -8.9289
  85   2.0000      -0.321033        -8.7357
  86   2.0000      -0.317669        -8.6442
  87   2.0000      -0.304227        -8.2784
  88   2.0000      -0.300083        -8.1657
  89   2.0000      -0.295667        -8.0455
  90   2.0000      -0.282872        -7.6973
  91   2.0000      -0.281805        -7.6683
  92   2.0000      -0.270829        -7.3696
  93   2.0000      -0.268104        -7.2955
  94   2.0000      -0.265404        -7.2220
  95   2.0000      -0.229703        -6.2505
  96   2.0000      -0.221826        -6.0362
  97   2.0000      -0.211451        -5.7539
  98   2.0000      -0.207904        -5.6573
  99   2.0000      -0.203133        -5.5275
 100   2.0000      -0.200078        -5.4444
 101   0.0000      -0.043615        -1.1868
 102   0.0000      -0.030511        -0.8302
 103   0.0000      -0.024498        -0.6666
 104   0.0000       0.000855         0.0233
 105   0.0000       0.009834         0.2676

MULLIKEN ATOMIC CHARGES
-----------------------
   0 C :   -0.323610
   1 C :   -0.015218
   2 O :   -0.372739
   3 P :    0.621478
   4 S :   -0.322218
   5 O :   -0.368776
   6 C :    0.004266
   7 C :   -0.323477
   8 S :   -0.079705
   9 C :   -0.349987
  10 S :   -0.126164
  11 P :    0.587935
  12 S :   -0.292169
  13 O :   -0.378096
  14 C :   -0.043309
  15 C :   -0.311321
  16 O :   -0.354878
  17 C :   -0.009480
  18 C :   -0.291244
  19 H :    0.125563
  20 H :    0.110536
  21 H :    0.130914
  22 H :    0.113967
  23 H :    0.100407
  24 H :    0.110953
  25 H :    0.107812
  26 H :    0.114868
  27 H :    0.108431
  28 H :    0.133534
  29 H :    0.182710
  30 H :    0.212766
  31 H :    0.146766
  32 H :    0.113159
  33 H :    0.120642
  34 H :    0.118993
  35 H :    0.129847
  36 H :    0.102077
  37 H :    0.114025
  38 H :    0.121576
  39 H :    0.118510
  40 H :    0.110655
Sum of atomic charges:    0.0000000

LOEWDIN ATOMIC CHARGES
----------------------
   0 C :   -0.371201
   1 C :   -0.123931
   2 O :   -0.245886
   3 P :    0.571401
   4 S :   -0.317515
   5 O :   -0.235599
   6 C :   -0.114845
   7 C :   -0.369409
   8 S :    0.094692
   9 C :   -0.479628
  10 S :    0.071722
  11 P :    0.562902
  12 S :   -0.288682
  13 O :   -0.245686
  14 C :   -0.119219
  15 C :   -0.361186
  16 O :   -0.237977
  17 C :   -0.112396
  18 C :   -0.361128
  19 H :    0.121885
  20 H :    0.129927
  21 H :    0.117619
  22 H :    0.109653
  23 H :    0.111848
  24 H :    0.110116
  25 H :    0.120391
  26 H :    0.119101
  27 H :    0.129277
  28 H :    0.123073
  29 H :    0.136375
  30 H :    0.127840
  31 H :    0.116054
  32 H :    0.122330
  33 H :    0.129791
  34 H :    0.127487
  35 H :    0.121297
  36 H :    0.107026
  37 H :    0.123575
  38 H :    0.129748
  39 H :    0.118833
  40 H :    0.130325

  Mayer bond orders larger than 0.100000
B(  0-C ,  1-C ) :   1.1658 B(  0-C , 19-H ) :   0.9337 B(  0-C , 20-H ) :   0.9379
B(  0-C , 21-H ) :   0.9365 B(  1-C ,  2-O ) :   0.9086 B(  1-C , 22-H ) :   0.9121
B(  1-C , 23-H ) :   0.9232 B(  2-O ,  3-P ) :   1.0658 B(  3-P ,  4-S ) :   1.6379
B(  3-P ,  5-O ) :   1.1247 B(  3-P ,  8-S ) :   0.9669 B(  5-O ,  6-C ) :   0.8985
B(  6-C ,  7-C ) :   1.1673 B(  6-C , 24-H ) :   0.9189 B(  6-C , 25-H ) :   0.9313
B(  7-C , 26-H ) :   0.9377 B(  7-C , 27-H ) :   0.9379 B(  7-C , 28-H ) :   0.9338
B(  8-S ,  9-C ) :   1.0009 B(  9-C , 10-S ) :   0.9873 B(  9-C , 29-H ) :   0.9101
B(  9-C , 30-H ) :   0.8470 B( 10-S , 11-P ) :   0.9362 B( 10-S , 12-S ) :   0.1172
B( 11-P , 12-S ) :   1.6614 B( 11-P , 13-O ) :   1.0970 B( 11-P , 16-O ) :   1.1387
B( 12-S , 30-H ) :   0.1007 B( 13-O , 14-C ) :   0.8960 B( 14-C , 15-C ) :   1.1642
B( 14-C , 31-H ) :   0.8967 B( 14-C , 32-H ) :   0.9318 B( 15-C , 33-H ) :   0.9333
B( 15-C , 34-H ) :   0.9430 B( 15-C , 35-H ) :   0.9382 B( 16-O , 17-C ) :   0.8901
B( 17-C , 18-C ) :   1.1641 B( 17-C , 36-H ) :   0.9174 B( 17-C , 37-H ) :   0.9344
B( 18-C , 38-H ) :   0.9462 B( 18-C , 39-H ) :   0.9374 B( 18-C , 40-H ) :   0.9398

Dispersion correction           -0.067279445
FINAL SINGLE POINT ENERGY     -2929.518781342108

DIPOLE MOMENT
-------------

Method             : SCF
Type of density    : Electron Density
Multiplicity       :   1
Irrep              :   0
Energy             : -2929.6389506390164570 Eh
Relativity type    :
Basis              : AO
                                X                 Y                 Z
Electronic contribution:      7.283596292      -1.872184280     -16.700510387
Nuclear contribution   :     -8.579246913       1.620769926      18.172506187
                        -----------------------------------------
Total Dipole Moment    :     -1.295650621      -0.251414354       1.471995800
                        -----------------------------------------
Magnitude (a.u.)       :      1.977041058
Magnitude (Debye)      :      5.025239007

Rotational constants in cm-1:             0.011893             0.005435             0.005287
Rotational constants in MHz :           356.536309           162.922666           158.498633

                             ****ORCA TERMINATED NORMALLY****
TOTAL RUN TIME: 0 days 0 hours 0 minutes 22 seconds 108 msec
