                         Program Version 6.0.0  -   RELEASE  -
|  1> ! wb97x-v def2-tzvp def2/J RIJCOSX DEFGRID2 scfconv7 GCP(DFT/TZ) printgap
|  2> %output
|  3>     printlevel normal
|  4> end
|  5> * xyz 0 1
|  6> C -1.845476608692685 -0.7582588378408738 -0.1251417961990003
|  7> C -1.8463380179310664 0.7577687101222894 0.124834674637314
|  8> C -0.5302688559671248 1.2963196017664245 -0.42682296019330757
|  9> S 0.698398386803767 0.000144112111665928 0.0002694896092980776
| 10> C -0.5300944025855322 -1.2952450616675526 0.42946737169256616
| 11> O 1.4793731605691176 0.3916969143923647 1.2058985137605671
| 12> O 1.4759973986539858 -0.39210484836419 -1.2073839043557784
| 13> H -1.9143628971031454 -0.961369749007623 -1.1989729786747572
| 14> H -2.6879501447905265 -1.247401235149064 0.3695216139317186
| 15> H -2.6882323778124313 1.2462549680568815 -0.3714563582303212
| 16> H -1.9176298537073064 0.9605346695849485 1.1985595772611684
| 17> H -0.5358169437462362 1.3633052683895401 -1.5183523964303904
| 18> H -0.19180058869964994 2.237087338672416 0.011835676101742677
| 19> H -0.19076275220456795 -2.2371072981873548 -0.006181403294686408
| 20> H -0.5371405968738047 -1.3592017294830006 1.5211824864208032
| 21> *
| 22>
| 23>                          ****END OF INPUT****

CARTESIAN COORDINATES (ANGSTROEM)
---------------------------------
  C     -1.845477   -0.758259   -0.125142
  C     -1.846338    0.757769    0.124835
  C     -0.530269    1.296320   -0.426823
  S      0.698398    0.000144    0.000269
  C     -0.530094   -1.295245    0.429467
  O      1.479373    0.391697    1.205899
  O      1.475997   -0.392105   -1.207384
  H     -1.914363   -0.961370   -1.198973
  H     -2.687950   -1.247401    0.369522
  H     -2.688232    1.246255   -0.371456
  H     -1.917630    0.960535    1.198560
  H     -0.535817    1.363305   -1.518352
  H     -0.191801    2.237087    0.011836
  H     -0.190763   -2.237107   -0.006181
  H     -0.537141   -1.359202    1.521182

 Total Charge           Charge          ....    0
 Multiplicity           Mult            ....    1
 Number of Electrons    NEL             ....   64
 Basis Dimension        Dim             ....  271

ORBITAL ENERGIES
----------------

  NO   OCC          E(Eh)            E(eV)
   0   2.0000     -94.312716     -2566.3795
   1   2.0000     -21.657117      -589.3201
   2   2.0000     -21.657076      -589.3190
   3   2.0000     -12.097246      -329.1828
   4   2.0000     -12.096889      -329.1731
   5   2.0000     -12.085226      -328.8557
   6   2.0000     -12.084123      -328.8257
   7   2.0000      -9.795640      -266.5529
   8   2.0000      -7.776825      -211.6182
   9   2.0000      -7.775200      -211.5740
  10   2.0000      -7.774796      -211.5630
  11   2.0000      -1.718522       -46.7634
  12   2.0000      -1.651834       -44.9487
  13   2.0000      -1.384423       -37.6721
  14   2.0000      -1.271964       -34.6119
  15   2.0000      -1.256279       -34.1851
  16   2.0000      -1.123280       -30.5660
  17   2.0000      -1.098330       -29.8871
  18   2.0000      -1.034330       -28.1456
  19   2.0000      -1.005016       -27.3479
  20   2.0000      -0.971260       -26.4293
  21   2.0000      -0.927919       -25.2499
  22   2.0000      -0.923693       -25.1350
  23   2.0000      -0.908645       -24.7255
  24   2.0000      -0.880947       -23.9718
  25   2.0000      -0.877077       -23.8665
  26   2.0000      -0.868985       -23.6463
  27   2.0000      -0.849236       -23.1089
  28   2.0000      -0.839850       -22.8535
  29   2.0000      -0.834533       -22.7088
  30   2.0000      -0.798372       -21.7248
  31   2.0000      -0.789062       -21.4715
  32   0.0000      -0.299122        -8.1395
  33   0.0000      -0.247913        -6.7461
  34   0.0000      -0.235609        -6.4112
  35   0.0000      -0.215683        -5.8690
  36   0.0000      -0.055021        -1.4972

MULLIKEN ATOMIC CHARGES
-----------------------
   0 C :   -0.205254
   1 C :   -0.205307
   2 C :   -0.252739
   3 S :    0.778450
   4 C :   -0.252782
   5 O :   -0.475524
   6 O :   -0.475612
   7 H :    0.122651
   8 H :    0.120926
   9 H :    0.120968
  10 H :    0.122541
  11 H :    0.148522
  12 H :    0.152329
  13 H :    0.152390
  14 H :    0.148440
Sum of atomic charges:   -0.0000000

LOEWDIN ATOMIC CHARGES
----------------------
   0 C :   -0.274512
   1 C :   -0.274470
   2 C :   -0.336233
   3 S :    0.790734
   4 C :   -0.336325
   5 O :   -0.340371
   6 O :   -0.340435
   7 H :    0.141494
   8 H :    0.139161
   9 H :    0.139161
  10 H :    0.141462
  11 H :    0.138750
  12 H :    0.136405
  13 H :    0.136431
  14 H :    0.138747

  Mayer bond orders larger than 0.100000
B(  0-C ,  1-C ) :   0.9618 B(  0-C ,  4-C ) :   0.9875 B(  0-C ,  7-H ) :   0.9698
B(  0-C ,  8-H ) :   0.9599 B(  1-C ,  2-C ) :   0.9876 B(  1-C ,  9-H ) :   0.9599
B(  1-C , 10-H ) :   0.9699 B(  2-C ,  3-S ) :   0.8626 B(  2-C , 11-H ) :   0.9501
B(  2-C , 12-H ) :   0.9510 B(  3-S ,  4-C ) :   0.8627 B(  3-S ,  5-O ) :   1.8463
B(  3-S ,  6-O ) :   1.8459 B(  4-C , 13-H ) :   0.9510 B(  4-C , 14-H ) :   0.9501

FINAL SINGLE POINT ENERGY      -705.839174204601

DIPOLE MOMENT
-------------

Method             : SCF
Type of density    : Electron Density
Multiplicity       :   1
Irrep              :   0
Energy             :  -705.8499436494006432 Eh
Relativity type    :
Basis              : AO
                                X                 Y                 Z
Electronic contribution:      7.822662324      -0.000841130      -0.002380050
Nuclear contribution   :    -10.096260137       0.001510313       0.004531927
                        -----------------------------------------
Total Dipole Moment    :     -2.273597814       0.000669183       0.002151876
                        -----------------------------------------
Magnitude (a.u.)       :      2.273598931
Magnitude (Debye)      :      5.779029215

Rotational constants in cm-1:             0.122986             0.065900             0.061374
Rotational constants in MHz :          3687.028709          1975.628828          1839.931907

                             ****ORCA TERMINATED NORMALLY****
TOTAL RUN TIME: 0 days 0 hours 2 minutes 10 seconds 799 msec
