                         Program Version 6.0.0  -   RELEASE  -
|  1> ! wb97x-v def2-tzvp def2/J RIJCOSX DEFGRID2 scfconv7 GCP(DFT/TZ) printgap
|  2> %output
|  3>     printlevel normal
|  4> end
|  5> %cpcm
|  6>     smd true
|  7>     smdsolvent "water"
|  8> end
|  9> * xyz 0 1
| 10> C -1.845476608692685 -0.7582588378408738 -0.1251417961990003
| 11> C -1.8463380179310664 0.7577687101222894 0.124834674637314
| 12> C -0.5302688559671248 1.2963196017664245 -0.42682296019330757
| 13> S 0.698398386803767 0.000144112111665928 0.0002694896092980776
| 14> C -0.5300944025855322 -1.2952450616675526 0.42946737169256616
| 15> O 1.4793731605691176 0.3916969143923647 1.2058985137605671
| 16> O 1.4759973986539858 -0.39210484836419 -1.2073839043557784
| 17> H -1.9143628971031454 -0.961369749007623 -1.1989729786747572
| 18> H -2.6879501447905265 -1.247401235149064 0.3695216139317186
| 19> H -2.6882323778124313 1.2462549680568815 -0.3714563582303212
| 20> H -1.9176298537073064 0.9605346695849485 1.1985595772611684
| 21> H -0.5358169437462362 1.3633052683895401 -1.5183523964303904
| 22> H -0.19180058869964994 2.237087338672416 0.011835676101742677
| 23> H -0.19076275220456795 -2.2371072981873548 -0.006181403294686408
| 24> H -0.5371405968738047 -1.3592017294830006 1.5211824864208032
| 25> *
| 26>
| 27>                          ****END OF INPUT****

CARTESIAN COORDINATES (ANGSTROEM)
---------------------------------
  C     -1.845477   -0.758259   -0.125142
  C     -1.846338    0.757769    0.124835
  C     -0.530269    1.296320   -0.426823
  S      0.698398    0.000144    0.000269
  C     -0.530094   -1.295245    0.429467
  O      1.479373    0.391697    1.205899
  O      1.475997   -0.392105   -1.207384
  H     -1.914363   -0.961370   -1.198973
  H     -2.687950   -1.247401    0.369522
  H     -2.688232    1.246255   -0.371456
  H     -1.917630    0.960535    1.198560
  H     -0.535817    1.363305   -1.518352
  H     -0.191801    2.237087    0.011836
  H     -0.190763   -2.237107   -0.006181
  H     -0.537141   -1.359202    1.521182

 Total Charge           Charge          ....    0
 Multiplicity           Mult            ....    1
 Number of Electrons    NEL             ....   64
 Basis Dimension        Dim             ....  271

ORBITAL ENERGIES
----------------

  NO   OCC          E(Eh)            E(eV)
   0   2.0000     -94.319052     -2566.5519
   1   2.0000     -21.673080      -589.7545
   2   2.0000     -21.673033      -589.7532
   3   2.0000     -12.081613      -328.7574
   4   2.0000     -12.081282      -328.7484
   5   2.0000     -12.057179      -328.0925
   6   2.0000     -12.056088      -328.0628
   7   2.0000      -9.802875      -266.7498
   8   2.0000      -7.783505      -211.7999
   9   2.0000      -7.782819      -211.7813
  10   2.0000      -7.781885      -211.7558
  11   2.0000      -1.736068       -47.2408
  12   2.0000      -1.670983       -45.4698
  13   2.0000      -1.368442       -37.2372
  14   2.0000      -1.252796       -34.0903
  15   2.0000      -1.248926       -33.9850
  16   2.0000      -1.120353       -30.4864
  17   2.0000      -1.077831       -29.3293
  18   2.0000      -1.055735       -28.7280
  19   2.0000      -1.003760       -27.3137
  20   2.0000      -0.972729       -26.4693
  21   2.0000      -0.917420       -24.9643
  22   2.0000      -0.913525       -24.8583
  23   2.0000      -0.912611       -24.8334
  24   2.0000      -0.892878       -24.2964
  25   2.0000      -0.876652       -23.8549
  26   2.0000      -0.870583       -23.6898
  27   2.0000      -0.829630       -22.5754
  28   2.0000      -0.820880       -22.3373
  29   2.0000      -0.810629       -22.0583
  30   2.0000      -0.784276       -21.3412
  31   2.0000      -0.770809       -20.9748
  32   0.0000      -0.306818        -8.3490
  33   0.0000      -0.245526        -6.6811
  34   0.0000      -0.237080        -6.4513
  35   0.0000      -0.208364        -5.6699
  36   0.0000      -0.035740        -0.9725

MULLIKEN ATOMIC CHARGES
-----------------------
   0 C :   -0.209388
   1 C :   -0.209292
   2 C :   -0.257629
   3 S :    0.824727
   4 C :   -0.257738
   5 O :   -0.573570
   6 O :   -0.573656
   7 H :    0.138285
   8 H :    0.141732
   9 H :    0.141738
  10 H :    0.138241
  11 H :    0.172022
  12 H :    0.176207
  13 H :    0.176291
  14 H :    0.172029
Sum of atomic charges:   -0.0000000

LOEWDIN ATOMIC CHARGES
----------------------
   0 C :   -0.264297
   1 C :   -0.264236
   2 C :   -0.323450
   3 S :    0.811795
   4 C :   -0.323557
   5 O :   -0.405085
   6 O :   -0.405145
   7 H :    0.146519
   8 H :    0.148060
   9 H :    0.148045
  10 H :    0.146533
  11 H :    0.148183
  12 H :    0.144202
  13 H :    0.144219
  14 H :    0.148213

  Mayer bond orders larger than 0.100000
B(  0-C ,  1-C ) :   0.9625 B(  0-C ,  4-C ) :   0.9848 B(  0-C ,  7-H ) :   0.9672
B(  0-C ,  8-H ) :   0.9505 B(  1-C ,  2-C ) :   0.9849 B(  1-C ,  9-H ) :   0.9505
B(  1-C , 10-H ) :   0.9672 B(  2-C ,  3-S ) :   0.8784 B(  2-C , 11-H ) :   0.9395
B(  2-C , 12-H ) :   0.9390 B(  3-S ,  4-C ) :   0.8785 B(  3-S ,  5-O ) :   1.7581
B(  3-S ,  6-O ) :   1.7579 B(  4-C , 13-H ) :   0.9390 B(  4-C , 14-H ) :   0.9395

FINAL SINGLE POINT ENERGY      -705.861789475232

DIPOLE MOMENT
-------------

Method             : SCF
Type of density    : Electron Density
Multiplicity       :   1
Irrep              :   0
Energy             :  -705.8725589200323611 Eh
Relativity type    :
Basis              : AO
                                X                 Y                 Z
Electronic contribution:      6.970762631      -0.000495786      -0.001280756
Nuclear contribution   :    -10.096260137       0.001510313       0.004531927
                        -----------------------------------------
Total Dipole Moment    :     -3.125497507       0.001014528       0.003251171
                        -----------------------------------------
Magnitude (a.u.)       :      3.125499362
Magnitude (Debye)      :      7.944388028

Rotational constants in cm-1:             0.122986             0.065900             0.061374
Rotational constants in MHz :          3687.028709          1975.628828          1839.931907

                             ****ORCA TERMINATED NORMALLY****
TOTAL RUN TIME: 0 days 0 hours 2 minutes 32 seconds 757 msec
