                         Program Version 6.0.0  -   RELEASE  -
|  1> ! pbe def2-sv(p) def2/J RI DEFGRID1 loosescf d4 GCP(DFT/SV(P)) printgap
|  2> %output
|  3>     printlevel normal
|  4> end
|  5> * xyz 0 1
|  6> C 2.8738860021 -1.5182165918 -2.9105924766
|  7> C 3.2231470725 -0.4123523114 -1.9348368791
|  8> O 2.8652953109 -0.8303643633 -0.6028547567
|  9> P 2.1095688124 0.0446770337 0.4774777328
| 10> S 1.4705133459 1.7904054334 -0.1887436861
| 11> O 3.2517221972 0.1740621389 1.5757903299
| 12> C 3.0389177932 0.3399582004 2.9894761071
| 13> C 2.0604937521 1.4509805407 3.3107029932
| 14> S 0.8316851243 -1.3802053881 1.3754017207
| 15> C -0.0736137672 -2.0314488037 -0.0690333757
| 16> S -0.3389090426 -0.8493451663 -1.4189840901
| 17> P -1.8784502305 0.3191839692 -0.5918369985
| 18> S -2.4906407125 1.8632518509 -1.6287545813
| 19> O -1.2613251925 0.6097750877 0.8372976324
| 20> C -1.9704080179 1.4019962706 1.8150247324
| 21> C -2.5772403991 0.5025339233 2.8721229129
| 22> O -3.0438151065 -0.7104842458 -0.2189977993
| 23> C -4.1146998558 -1.0031748233 -1.1304283604
| 24> C -3.6376634165 -1.8038720565 -2.3252522232
| 25> H 3.3580428152 -2.4424036874 -2.6091774948
| 26> H 1.7972607147 -1.6693432682 -2.9408511844
| 27> H 3.2203730743 -1.2364382659 -3.8994209672
| 28> H 2.693868055 0.5175127377 -2.1716258163
| 29> H 4.2978014437 -0.2180932016 -1.9221070031
| 30> H 2.6864661372 -0.6139683991 3.3924381395
| 31> H 4.0352608318 0.5604868936 3.3766792276
| 32> H 1.9755519686 1.5614580508 4.3868860227
| 33> H 2.395181595 2.3897208886 2.8744522503
| 34> H 1.0809773814 1.2098282703 2.8976144401
| 35> H -1.0323167745 -2.3829027998 0.3070275157
| 36> H 0.5054068314 -2.8434779592 -0.5031340186
| 37> H -1.2176952087 2.0731615256 2.2358794678
| 38> H -2.7306012206 2.0006011307 1.3022128702
| 39> H -1.8026815061 -0.1144002387 3.3205730001
| 40> H -3.0386153722 1.1176111649 3.6380514576
| 41> H -3.3295181394 -0.1440354497 2.4279788568
| 42> H -4.8313209185 -1.5624935228 -0.5275938187
| 43> H -4.5569433624 -0.0566651399 -1.4568677742
| 44> H -2.9372997791 -1.2088106004 -2.9113374312
| 45> H -3.1422086666 -2.7160822432 -2.003498587
| 46> H -4.488561966 -2.0576780788 -2.9490936065
| 47> *
| 48>
| 49>                          ****END OF INPUT****

CARTESIAN COORDINATES (ANGSTROEM)
---------------------------------
  C      2.873886   -1.518217   -2.910592
  C      3.223147   -0.412352   -1.934837
  O      2.865295   -0.830364   -0.602855
  P      2.109569    0.044677    0.477478
  S      1.470513    1.790405   -0.188744
  O      3.251722    0.174062    1.575790
  C      3.038918    0.339958    2.989476
  C      2.060494    1.450981    3.310703
  S      0.831685   -1.380205    1.375402
  C     -0.073614   -2.031449   -0.069033
  S     -0.338909   -0.849345   -1.418984
  P     -1.878450    0.319184   -0.591837
  S     -2.490641    1.863252   -1.628755
  O     -1.261325    0.609775    0.837298
  C     -1.970408    1.401996    1.815025
  C     -2.577240    0.502534    2.872123
  O     -3.043815   -0.710484   -0.218998
  C     -4.114700   -1.003175   -1.130428
  C     -3.637663   -1.803872   -2.325252
  H      3.358043   -2.442404   -2.609177
  H      1.797261   -1.669343   -2.940851
  H      3.220373   -1.236438   -3.899421
  H      2.693868    0.517513   -2.171626
  H      4.297801   -0.218093   -1.922107
  H      2.686466   -0.613968    3.392438
  H      4.035261    0.560487    3.376679
  H      1.975552    1.561458    4.386886
  H      2.395182    2.389721    2.874452
  H      1.080977    1.209828    2.897614
  H     -1.032317   -2.382903    0.307028
  H      0.505407   -2.843478   -0.503134
  H     -1.217695    2.073162    2.235879
  H     -2.730601    2.000601    1.302213
  H     -1.802682   -0.114400    3.320573
  H     -3.038615    1.117611    3.638051
  H     -3.329518   -0.144035    2.427979
  H     -4.831321   -1.562494   -0.527594
  H     -4.556943   -0.056665   -1.456868
  H     -2.937300   -1.208811   -2.911337
  H     -3.142209   -2.716082   -2.003499
  H     -4.488562   -2.057678   -2.949094

 Total Charge           Charge          ....    0
 Multiplicity           Mult            ....    1
 Number of Electrons    NEL             ....  202
 Basis Dimension        Dim             ....  334

ORBITAL ENERGIES
----------------

  NO   OCC          E(Eh)            E(eV)
   0   2.0000     -88.049285     -2395.9429
   1   2.0000     -88.038069     -2395.6376
   2   2.0000     -87.984538     -2394.1810
   3   2.0000     -87.973822     -2393.8894
   4   2.0000     -76.425526     -2079.6443
   5   2.0000     -76.422564     -2079.5637
   6   2.0000     -18.796391      -511.4758
   7   2.0000     -18.788377      -511.2577
   8   2.0000     -18.787100      -511.2230
   9   2.0000     -18.784441      -511.1506
  10   2.0000      -9.965407      -271.1725
  11   2.0000      -9.955346      -270.8987
  12   2.0000      -9.952577      -270.8234
  13   2.0000      -9.949099      -270.7287
  14   2.0000      -9.945715      -270.6367
  15   2.0000      -9.887301      -269.0471
  16   2.0000      -9.884888      -268.9815
  17   2.0000      -9.884596      -268.9735
  18   2.0000      -9.884525      -268.9716
  19   2.0000      -7.693779      -209.3584
  20   2.0000      -7.683479      -209.0781
  21   2.0000      -7.629751      -207.6161
  22   2.0000      -7.618485      -207.3095
  23   2.0000      -6.423202      -174.7842
  24   2.0000      -6.419144      -174.6738
  25   2.0000      -5.722125      -155.7069
  26   2.0000      -5.717993      -155.5945
  27   2.0000      -5.711638      -155.4216
  28   2.0000      -5.710547      -155.3919
  29   2.0000      -5.707958      -155.3214
  30   2.0000      -5.700079      -155.1070
  31   2.0000      -5.658734      -153.9820
  32   2.0000      -5.650572      -153.7599
  33   2.0000      -5.649651      -153.7348
  34   2.0000      -5.647643      -153.6802
  35   2.0000      -5.639134      -153.4486
  36   2.0000      -5.638477      -153.4308
  37   2.0000      -4.645686      -126.4155
  38   2.0000      -4.645149      -126.4009
  39   2.0000      -4.643554      -126.3575
  40   2.0000      -4.641789      -126.3095
  41   2.0000      -4.641313      -126.2966
  42   2.0000      -4.639273      -126.2410
  43   2.0000      -0.986848       -26.8535
  44   2.0000      -0.980390       -26.6778
  45   2.0000      -0.944027       -25.6883
  46   2.0000      -0.939952       -25.5774
  47   2.0000      -0.766068       -20.8458
  48   2.0000      -0.720223       -19.5983
  49   2.0000      -0.709132       -19.2965
  50   2.0000      -0.688293       -18.7294
  51   2.0000      -0.685248       -18.6465
  52   2.0000      -0.673719       -18.3328
  53   2.0000      -0.650052       -17.6888
  54   2.0000      -0.635998       -17.3064
  55   2.0000      -0.597120       -16.2485
  56   2.0000      -0.588480       -16.0134
  57   2.0000      -0.576723       -15.6934
  58   2.0000      -0.570439       -15.5224
  59   2.0000      -0.562841       -15.3157
  60   2.0000      -0.499912       -13.6033
  61   2.0000      -0.497628       -13.5411
  62   2.0000      -0.473505       -12.8847
  63   2.0000      -0.467887       -12.7318
  64   2.0000      -0.463884       -12.6229
  65   2.0000      -0.443489       -12.0679
  66   2.0000      -0.441092       -12.0027
  67   2.0000      -0.429402       -11.6846
  68   2.0000      -0.426194       -11.5973
  69   2.0000      -0.418220       -11.3803
  70   2.0000      -0.413746       -11.2586
  71   2.0000      -0.401230       -10.9180
  72   2.0000      -0.393483       -10.7072
  73   2.0000      -0.385981       -10.5031
  74   2.0000      -0.380707       -10.3596
  75   2.0000      -0.375610       -10.2209
  76   2.0000      -0.368731       -10.0337
  77   2.0000      -0.356502        -9.7009
  78   2.0000      -0.355625        -9.6770
  79   2.0000      -0.349925        -9.5220
  80   2.0000      -0.347584        -9.4582
  81   2.0000      -0.343928        -9.3588
  82   2.0000      -0.341285        -9.2868
  83   2.0000      -0.336482        -9.1561
  84   2.0000      -0.331612        -9.0236
  85   2.0000      -0.319989        -8.7074
  86   2.0000      -0.313486        -8.5304
  87   2.0000      -0.297048        -8.0831
  88   2.0000      -0.295076        -8.0294
  89   2.0000      -0.288170        -7.8415
  90   2.0000      -0.283385        -7.7113
  91   2.0000      -0.275845        -7.5061
  92   2.0000      -0.271149        -7.3783
  93   2.0000      -0.263996        -7.1837
  94   2.0000      -0.251652        -6.8478
  95   2.0000      -0.234831        -6.3901
  96   2.0000      -0.216098        -5.8803
  97   2.0000      -0.207709        -5.6520
  98   2.0000      -0.199206        -5.4207
  99   2.0000      -0.188835        -5.1385
 100   2.0000      -0.179120        -4.8741
 101   0.0000      -0.051896        -1.4122
 102   0.0000      -0.029361        -0.7990
 103   0.0000      -0.018761        -0.5105
 104   0.0000      -0.005437        -0.1479
 105   0.0000       0.013820         0.3761

MULLIKEN ATOMIC CHARGES
-----------------------
   0 C :   -0.302741
   1 C :   -0.000743
   2 O :   -0.373533
   3 P :    0.600686
   4 S :   -0.310785
   5 O :   -0.366667
   6 C :   -0.006960
   7 C :   -0.338355
   8 S :   -0.126124
   9 C :   -0.312619
  10 S :   -0.090087
  11 P :    0.630309
  12 S :   -0.302868
  13 O :   -0.365083
  14 C :   -0.007320
  15 C :   -0.292283
  16 O :   -0.387062
  17 C :   -0.005587
  18 C :   -0.309795
  19 H :    0.112527
  20 H :    0.124178
  21 H :    0.111895
  22 H :    0.117337
  23 H :    0.103413
  24 H :    0.111274
  25 H :    0.110405
  26 H :    0.108698
  27 H :    0.130350
  28 H :    0.147398
  29 H :    0.182317
  30 H :    0.186258
  31 H :    0.120723
  32 H :    0.101771
  33 H :    0.115728
  34 H :    0.108145
  35 H :    0.112785
  36 H :    0.101790
  37 H :    0.111894
  38 H :    0.126050
  39 H :    0.109417
  40 H :    0.113267
Sum of atomic charges:   -0.0000000

LOEWDIN ATOMIC CHARGES
----------------------
   0 C :   -0.357614
   1 C :   -0.118047
   2 O :   -0.246379
   3 P :    0.562225
   4 S :   -0.308588
   5 O :   -0.248093
   6 C :   -0.114885
   7 C :   -0.372918
   8 S :    0.067625
   9 C :   -0.465823
  10 S :    0.119273
  11 P :    0.569613
  12 S :   -0.307194
  13 O :   -0.237942
  14 C :   -0.114073
  15 C :   -0.358953
  16 O :   -0.253681
  17 C :   -0.123806
  18 C :   -0.367304
  19 H :    0.124042
  20 H :    0.114982
  21 H :    0.131571
  22 H :    0.108851
  23 H :    0.115834
  24 H :    0.106847
  25 H :    0.122286
  26 H :    0.128316
  27 H :    0.131533
  28 H :    0.120479
  29 H :    0.132750
  30 H :    0.137123
  31 H :    0.119264
  32 H :    0.108038
  33 H :    0.123614
  34 H :    0.128231
  35 H :    0.123387
  36 H :    0.116324
  37 H :    0.110058
  38 H :    0.120949
  39 H :    0.120991
  40 H :    0.131090

  Mayer bond orders larger than 0.100000
B(  0-C ,  1-C ) :   1.1598 B(  0-C , 19-H ) :   0.9487 B(  0-C , 20-H ) :   0.9412
B(  0-C , 21-H ) :   0.9407 B(  1-C ,  2-O ) :   0.8995 B(  1-C , 22-H ) :   0.8994
B(  1-C , 23-H ) :   0.9340 B(  2-O ,  3-P ) :   1.1168 B(  3-P ,  4-S ) :   1.6229
B(  3-P ,  5-O ) :   1.1118 B(  3-P ,  8-S ) :   0.9502 B(  4-S ,  8-S ) :   0.1198
B(  5-O ,  6-C ) :   0.9251 B(  6-C ,  7-C ) :   1.1630 B(  6-C , 24-H ) :   0.9237
B(  6-C , 25-H ) :   0.9340 B(  7-C , 26-H ) :   0.9342 B(  7-C , 27-H ) :   0.9399
B(  7-C , 28-H ) :   0.9263 B(  8-S ,  9-C ) :   0.9833 B(  9-C , 10-S ) :   1.0072
B(  9-C , 29-H ) :   0.9013 B(  9-C , 30-H ) :   0.9088 B( 10-S , 11-P ) :   0.9509
B( 11-P , 12-S ) :   1.6686 B( 11-P , 13-O ) :   1.1267 B( 11-P , 16-O ) :   1.0484
B( 13-O , 14-C ) :   0.8932 B( 14-C , 15-C ) :   1.1683 B( 14-C , 31-H ) :   0.9213
B( 14-C , 32-H ) :   0.9080 B( 15-C , 33-H ) :   0.9476 B( 15-C , 34-H ) :   0.9409
B( 15-C , 35-H ) :   0.9432 B( 16-O , 17-C ) :   0.9128 B( 17-C , 18-C ) :   1.1638
B( 17-C , 36-H ) :   0.9334 B( 17-C , 37-H ) :   0.9112 B( 18-C , 38-H ) :   0.9348
B( 18-C , 39-H ) :   0.9470 B( 18-C , 40-H ) :   0.9385

Dispersion correction           -0.068656614
FINAL SINGLE POINT ENERGY     -2929.505746606779

DIPOLE MOMENT
-------------

Method             : SCF
Type of density    : Electron Density
Multiplicity       :   1
Irrep              :   0
Energy             : -2929.6223388456210159 Eh
Relativity type    :
Basis              : AO
                                X                 Y                 Z
Electronic contribution:      4.626163596       6.230212038      -5.229423638
Nuclear contribution   :     -4.913030284      -7.729447948       6.057346806
                        -----------------------------------------
Total Dipole Moment    :     -0.286866688      -1.499235910       0.827923168
                        -----------------------------------------
Magnitude (a.u.)       :      1.736507294
Magnitude (Debye)      :      4.413850767

Rotational constants in cm-1:             0.011060             0.006292             0.005223
Rotational constants in MHz :           331.568084           188.614765           156.571938

                             ****ORCA TERMINATED NORMALLY****
TOTAL RUN TIME: 0 days 0 hours 0 minutes 23 seconds 785 msec
