                         Program Version 6.0.0  -   RELEASE  -
|  1> ! r2scan-3c def2/J RI DEFGRID2 scfconv6 printgap
|  2> %output
|  3>     printlevel normal
|  4> end
|  5> * xyz 0 1
|  6> C 3.0100109162 -2.4831241486 1.748532093
|  7> C 1.7469740529 -2.2966993964 0.935138861
|  8> O 1.3501034423 -0.9117245002 0.9016093513
|  9> P 2.1427211845 0.1709610334 0.0665022715
| 10> S 3.2012338037 -0.4760996586 -1.4560280014
| 11> O 2.962195615 0.9011740052 1.2106635085
| 12> C 3.8976966386 1.9587769378 0.9144050504
| 13> C 4.7690357774 2.1623035925 2.1372077695
| 14> S 0.626968656 1.5748822233 -0.4028015207
| 15> C 0.0756728124 0.7617145368 -1.9233295714
| 16> S -0.6136220878 -0.8859931353 -1.6108700698
| 17> P -2.3312836463 -0.2450776386 -0.5568950683
| 18> S -3.1076393527 1.4471356793 -1.18231175
| 19> O -2.0291841404 -0.2877756452 1.0071997333
| 20> C -1.9843109852 0.869364176 1.869759956
| 21> C -0.8668444848 0.7014002954 2.8782141825
| 22> O -3.1275514166 -1.5954866966 -0.7863492449
| 23> C -4.2204767567 -2.0379322369 0.046934422
| 24> C -5.4134945869 -1.1066079046 -0.0267823645
| 25> H 3.8359218724 -1.9640134475 1.2632063532
| 26> H 2.8778298615 -2.0769282317 2.7476198384
| 27> H 3.2464718684 -3.5404821121 1.8132182313
| 28> H 0.8914232117 -2.8054247756 1.3811809908
| 29> H 1.8875322397 -2.6454737984 -0.0932021727
| 30> H 4.4894835108 1.6655470049 0.0408479305
| 31> H 3.3286411456 2.8608237027 0.6736248641
| 32> H 5.3282693895 1.2568613318 2.3544376961
| 33> H 5.4628635844 2.9747300137 1.9480336827
| 34> H 4.1501021889 2.4088676709 2.9947301993
| 35> H 0.9235480173 0.6275671517 -2.5945542631
| 36> H -0.6874664032 1.4032601773 -2.3644854538
| 37> H -1.8472144904 1.7684569961 1.2613392651
| 38> H -2.954561392 0.9257814878 2.3698040257
| 39> H 0.0983520396 0.6665551038 2.37939589
| 40> H -0.8823737235 1.5448831523 3.5606136341
| 41> H -1.0052033955 -0.2191695402 3.4378121018
| 42> H -4.4593627926 -3.0253438099 -0.3517527352
| 43> H -3.8574508738 -2.130068283 1.0734028248
| 44> H -5.15159343 -0.1251723703 0.3670517072
| 45> H -5.7340699797 -0.9854755482 -1.058749943
| 46> H -6.2303386109 -1.5184451572 0.5575852264
| 47> *
| 48>
| 49>                          ****END OF INPUT****

CARTESIAN COORDINATES (ANGSTROEM)
---------------------------------
  C      3.010011   -2.483124    1.748532
  C      1.746974   -2.296699    0.935139
  O      1.350103   -0.911725    0.901609
  P      2.142721    0.170961    0.066502
  S      3.201234   -0.476100   -1.456028
  O      2.962196    0.901174    1.210664
  C      3.897697    1.958777    0.914405
  C      4.769036    2.162304    2.137208
  S      0.626969    1.574882   -0.402802
  C      0.075673    0.761715   -1.923330
  S     -0.613622   -0.885993   -1.610870
  P     -2.331284   -0.245078   -0.556895
  S     -3.107639    1.447136   -1.182312
  O     -2.029184   -0.287776    1.007200
  C     -1.984311    0.869364    1.869760
  C     -0.866844    0.701400    2.878214
  O     -3.127551   -1.595487   -0.786349
  C     -4.220477   -2.037932    0.046934
  C     -5.413495   -1.106608   -0.026782
  H      3.835922   -1.964013    1.263206
  H      2.877830   -2.076928    2.747620
  H      3.246472   -3.540482    1.813218
  H      0.891423   -2.805425    1.381181
  H      1.887532   -2.645474   -0.093202
  H      4.489484    1.665547    0.040848
  H      3.328641    2.860824    0.673625
  H      5.328269    1.256861    2.354438
  H      5.462864    2.974730    1.948034
  H      4.150102    2.408868    2.994730
  H      0.923548    0.627567   -2.594554
  H     -0.687466    1.403260   -2.364485
  H     -1.847214    1.768457    1.261339
  H     -2.954561    0.925781    2.369804
  H      0.098352    0.666555    2.379396
  H     -0.882374    1.544883    3.560614
  H     -1.005203   -0.219170    3.437812
  H     -4.459363   -3.025344   -0.351753
  H     -3.857451   -2.130068    1.073403
  H     -5.151593   -0.125172    0.367052
  H     -5.734070   -0.985476   -1.058750
  H     -6.230339   -1.518445    0.557585

 Total Charge           Charge          ....    0
 Multiplicity           Mult            ....    1
 Number of Electrons    NEL             ....  202
 Basis Dimension        Dim             ....  539

ORBITAL ENERGIES
----------------

  NO   OCC          E(Eh)            E(eV)
   0   2.0000     -88.576277     -2410.2830
   1   2.0000     -88.570936     -2410.1377
   2   2.0000     -88.522912     -2408.8309
   3   2.0000     -88.517895     -2408.6944
   4   2.0000     -76.915680     -2092.9821
   5   2.0000     -76.913090     -2092.9116
   6   2.0000     -18.996841      -516.9303
   7   2.0000     -18.991357      -516.7811
   8   2.0000     -18.990876      -516.7680
   9   2.0000     -18.990281      -516.7518
  10   2.0000     -10.102949      -274.9152
  11   2.0000     -10.102458      -274.9019
  12   2.0000     -10.101621      -274.8791
  13   2.0000     -10.097550      -274.7683
  14   2.0000     -10.094372      -274.6818
  15   2.0000     -10.036663      -273.1115
  16   2.0000     -10.029711      -272.9223
  17   2.0000     -10.029187      -272.9081
  18   2.0000     -10.025146      -272.7981
  19   2.0000      -7.870660      -214.1715
  20   2.0000      -7.865109      -214.0205
  21   2.0000      -7.817627      -212.7285
  22   2.0000      -7.812756      -212.5959
  23   2.0000      -6.594413      -179.4431
  24   2.0000      -6.591157      -179.3545
  25   2.0000      -5.817430      -158.3003
  26   2.0000      -5.814507      -158.2208
  27   2.0000      -5.812071      -158.1545
  28   2.0000      -5.809012      -158.0713
  29   2.0000      -5.807899      -158.0410
  30   2.0000      -5.802121      -157.8837
  31   2.0000      -5.765213      -156.8794
  32   2.0000      -5.760414      -156.7488
  33   2.0000      -5.757895      -156.6803
  34   2.0000      -5.757715      -156.6754
  35   2.0000      -5.753212      -156.5529
  36   2.0000      -5.752567      -156.5353
  37   2.0000      -4.739746      -128.9751
  38   2.0000      -4.739363      -128.9646
  39   2.0000      -4.738227      -128.9337
  40   2.0000      -4.736948      -128.8989
  41   2.0000      -4.735835      -128.8686
  42   2.0000      -4.734918      -128.8437
  43   2.0000      -1.053786       -28.6750
  44   2.0000      -1.048167       -28.5221
  45   2.0000      -1.014526       -27.6067
  46   2.0000      -1.007036       -27.4028
  47   2.0000      -0.801874       -21.8201
  48   2.0000      -0.761803       -20.7297
  49   2.0000      -0.750635       -20.4258
  50   2.0000      -0.734247       -19.9799
  51   2.0000      -0.732480       -19.9318
  52   2.0000      -0.708138       -19.2694
  53   2.0000      -0.684649       -18.6303
  54   2.0000      -0.667776       -18.1711
  55   2.0000      -0.632789       -17.2191
  56   2.0000      -0.624062       -16.9816
  57   2.0000      -0.605364       -16.4728
  58   2.0000      -0.601960       -16.3802
  59   2.0000      -0.590180       -16.0596
  60   2.0000      -0.532625       -14.4935
  61   2.0000      -0.524880       -14.2827
  62   2.0000      -0.499536       -13.5931
  63   2.0000      -0.493159       -13.4195
  64   2.0000      -0.478164       -13.0115
  65   2.0000      -0.466419       -12.6919
  66   2.0000      -0.456044       -12.4096
  67   2.0000      -0.450712       -12.2645
  68   2.0000      -0.444023       -12.0825
  69   2.0000      -0.433555       -11.7976
  70   2.0000      -0.428519       -11.6606
  71   2.0000      -0.414251       -11.2723
  72   2.0000      -0.405777       -11.0418
  73   2.0000      -0.400668       -10.9027
  74   2.0000      -0.395150       -10.7526
  75   2.0000      -0.389777       -10.6064
  76   2.0000      -0.383610       -10.4386
  77   2.0000      -0.375876       -10.2281
  78   2.0000      -0.369648       -10.0586
  79   2.0000      -0.364961        -9.9311
  80   2.0000      -0.364217        -9.9109
  81   2.0000      -0.362031        -9.8514
  82   2.0000      -0.358205        -9.7473
  83   2.0000      -0.352795        -9.6000
  84   2.0000      -0.347576        -9.4580
  85   2.0000      -0.337845        -9.1932
  86   2.0000      -0.324595        -8.8327
  87   2.0000      -0.319186        -8.6855
  88   2.0000      -0.308586        -8.3970
  89   2.0000      -0.307417        -8.3652
  90   2.0000      -0.302390        -8.2285
  91   2.0000      -0.292233        -7.9521
  92   2.0000      -0.289097        -7.8667
  93   2.0000      -0.281291        -7.6543
  94   2.0000      -0.271146        -7.3782
  95   2.0000      -0.246127        -6.6975
  96   2.0000      -0.228677        -6.2226
  97   2.0000      -0.227648        -6.1946
  98   2.0000      -0.219456        -5.9717
  99   2.0000      -0.213415        -5.8073
 100   2.0000      -0.209409        -5.6983
 101   0.0000      -0.047866        -1.3025
 102   0.0000      -0.024509        -0.6669
 103   0.0000      -0.000169        -0.0046
 104   0.0000       0.002340         0.0637
 105   0.0000       0.012815         0.3487

MULLIKEN ATOMIC CHARGES
-----------------------
   0 C :   -0.446305
   1 C :   -0.154049
   2 O :   -0.261578
   3 P :    0.708341
   4 S :   -0.483549
   5 O :   -0.289703
   6 C :   -0.159742
   7 C :   -0.438097
   8 S :   -0.167386
   9 C :   -0.222984
  10 S :   -0.120389
  11 P :    0.684420
  12 S :   -0.464387
  13 O :   -0.294732
  14 C :   -0.103188
  15 C :   -0.468094
  16 O :   -0.306914
  17 C :   -0.150938
  18 C :   -0.433760
  19 H :    0.169046
  20 H :    0.154849
  21 H :    0.147949
  22 H :    0.155271
  23 H :    0.175378
  24 H :    0.171574
  25 H :    0.153280
  26 H :    0.155542
  27 H :    0.148267
  28 H :    0.153465
  29 H :    0.213427
  30 H :    0.212414
  31 H :    0.173506
  32 H :    0.144786
  33 H :    0.174356
  34 H :    0.144071
  35 H :    0.144994
  36 H :    0.149826
  37 H :    0.157621
  38 H :    0.163616
  39 H :    0.163707
  40 H :    0.146089
Sum of atomic charges:   -0.0000000

LOEWDIN ATOMIC CHARGES
----------------------
   0 C :   -0.399280
   1 C :    0.017773
   2 O :   -0.680535
   3 P :    0.372297
   4 S :   -0.128418
   5 O :   -0.664824
   6 C :    0.020711
   7 C :   -0.384986
   8 S :    0.157267
   9 C :   -0.420878
  10 S :    0.194052
  11 P :    0.386428
  12 S :   -0.130211
  13 O :   -0.666995
  14 C :    0.011093
  15 C :   -0.394949
  16 O :   -0.667944
  17 C :    0.030645
  18 C :   -0.401523
  19 H :    0.165391
  20 H :    0.159470
  21 H :    0.159877
  22 H :    0.181289
  23 H :    0.182435
  24 H :    0.180878
  25 H :    0.172516
  26 H :    0.160567
  27 H :    0.160603
  28 H :    0.160011
  29 H :    0.190529
  30 H :    0.191877
  31 H :    0.183001
  32 H :    0.170188
  33 H :    0.172018
  34 H :    0.158406
  35 H :    0.157954
  36 H :    0.181615
  37 H :    0.174372
  38 H :    0.164380
  39 H :    0.165134
  40 H :    0.157763

  Mayer bond orders larger than 0.100000
B(  0-C ,  1-C ) :   0.9192 B(  0-C , 19-H ) :   0.9603 B(  0-C , 20-H ) :   0.9737
B(  0-C , 21-H ) :   0.9632 B(  1-C ,  2-O ) :   0.7758 B(  1-C , 22-H ) :   0.9629
B(  1-C , 23-H ) :   0.9596 B(  2-O ,  3-P ) :   1.1354 B(  3-P ,  4-S ) :   1.7611
B(  3-P ,  5-O ) :   1.0841 B(  3-P ,  8-S ) :   1.0416 B(  5-O ,  6-C ) :   0.7791
B(  6-C ,  7-C ) :   0.9562 B(  6-C , 24-H ) :   0.9511 B(  6-C , 25-H ) :   0.9450
B(  7-C , 26-H ) :   0.9711 B(  7-C , 27-H ) :   0.9642 B(  7-C , 28-H ) :   0.9715
B(  8-S ,  9-C ) :   0.8956 B(  9-C , 10-S ) :   0.8994 B(  9-C , 29-H ) :   0.9072
B(  9-C , 30-H ) :   0.9051 B( 10-S , 11-P ) :   1.0817 B( 11-P , 12-S ) :   1.7791
B( 11-P , 13-O ) :   1.0513 B( 11-P , 16-O ) :   1.1489 B( 13-O , 14-C ) :   0.7398
B( 14-C , 15-C ) :   0.9394 B( 14-C , 31-H ) :   0.9568 B( 14-C , 32-H ) :   0.9509
B( 15-C , 33-H ) :   0.9624 B( 15-C , 34-H ) :   0.9696 B( 15-C , 35-H ) :   0.9687
B( 16-O , 17-C ) :   0.7983 B( 17-C , 18-C ) :   0.9440 B( 17-C , 36-H ) :   0.9585
B( 17-C , 37-H ) :   0.9700 B( 18-C , 38-H ) :   0.9533 B( 18-C , 39-H ) :   0.9670
B( 18-C , 40-H ) :   0.9644

Dispersion correction           -0.021659280
FINAL SINGLE POINT ENERGY     -2932.463742336603

DIPOLE MOMENT
-------------

Method             : SCF
Type of density    : Electron Density
Multiplicity       :   1
Irrep              :   0
Energy             : -2932.4885935562401755 Eh
Relativity type    :
Basis              : AO
                                X                 Y                 Z
Electronic contribution:     -3.518605659       2.390154565     -21.106886647
Nuclear contribution   :      3.634251118      -2.761216396      22.899435560
                        -----------------------------------------
Total Dipole Moment    :      0.115645459      -0.371061831       1.792548914
                        -----------------------------------------
Magnitude (a.u.)       :      1.834200742
Magnitude (Debye)      :      4.662167778

Rotational constants in cm-1:             0.013561             0.004718             0.004683
Rotational constants in MHz :           406.555100           141.447002           140.386635

                             ****ORCA TERMINATED NORMALLY****
TOTAL RUN TIME: 0 days 0 hours 1 minutes 20 seconds 768 msec
