                         Program Version 6.0.0  -   RELEASE  -
|  1> ! r2scan-3c def2/J RI DEFGRID2 scfconv6 printgap
|  2> %output
|  3>     printlevel normal
|  4> end
|  5> %cpcm
|  6>     smd true
|  7>     smdsolvent "water"
|  8> end
|  9> * xyz 0 1
| 10> C 3.0100109162 -2.4831241486 1.748532093
| 11> C 1.7469740529 -2.2966993964 0.935138861
| 12> O 1.3501034423 -0.9117245002 0.9016093513
| 13> P 2.1427211845 0.1709610334 0.0665022715
| 14> S 3.2012338037 -0.4760996586 -1.4560280014
| 15> O 2.962195615 0.9011740052 1.2106635085
| 16> C 3.8976966386 1.9587769378 0.9144050504
| 17> C 4.7690357774 2.1623035925 2.1372077695
| 18> S 0.626968656 1.5748822233 -0.4028015207
| 19> C 0.0756728124 0.7617145368 -1.9233295714
| 20> S -0.6136220878 -0.8859931353 -1.6108700698
| 21> P -2.3312836463 -0.2450776386 -0.5568950683
| 22> S -3.1076393527 1.4471356793 -1.18231175
| 23> O -2.0291841404 -0.2877756452 1.0071997333
| 24> C -1.9843109852 0.869364176 1.869759956
| 25> C -0.8668444848 0.7014002954 2.8782141825
| 26> O -3.1275514166 -1.5954866966 -0.7863492449
| 27> C -4.2204767567 -2.0379322369 0.046934422
| 28> C -5.4134945869 -1.1066079046 -0.0267823645
| 29> H 3.8359218724 -1.9640134475 1.2632063532
| 30> H 2.8778298615 -2.0769282317 2.7476198384
| 31> H 3.2464718684 -3.5404821121 1.8132182313
| 32> H 0.8914232117 -2.8054247756 1.3811809908
| 33> H 1.8875322397 -2.6454737984 -0.0932021727
| 34> H 4.4894835108 1.6655470049 0.0408479305
| 35> H 3.3286411456 2.8608237027 0.6736248641
| 36> H 5.3282693895 1.2568613318 2.3544376961
| 37> H 5.4628635844 2.9747300137 1.9480336827
| 38> H 4.1501021889 2.4088676709 2.9947301993
| 39> H 0.9235480173 0.6275671517 -2.5945542631
| 40> H -0.6874664032 1.4032601773 -2.3644854538
| 41> H -1.8472144904 1.7684569961 1.2613392651
| 42> H -2.954561392 0.9257814878 2.3698040257
| 43> H 0.0983520396 0.6665551038 2.37939589
| 44> H -0.8823737235 1.5448831523 3.5606136341
| 45> H -1.0052033955 -0.2191695402 3.4378121018
| 46> H -4.4593627926 -3.0253438099 -0.3517527352
| 47> H -3.8574508738 -2.130068283 1.0734028248
| 48> H -5.15159343 -0.1251723703 0.3670517072
| 49> H -5.7340699797 -0.9854755482 -1.058749943
| 50> H -6.2303386109 -1.5184451572 0.5575852264
| 51> *
| 52>
| 53>                          ****END OF INPUT****

CARTESIAN COORDINATES (ANGSTROEM)
---------------------------------
  C      3.010011   -2.483124    1.748532
  C      1.746974   -2.296699    0.935139
  O      1.350103   -0.911725    0.901609
  P      2.142721    0.170961    0.066502
  S      3.201234   -0.476100   -1.456028
  O      2.962196    0.901174    1.210664
  C      3.897697    1.958777    0.914405
  C      4.769036    2.162304    2.137208
  S      0.626969    1.574882   -0.402802
  C      0.075673    0.761715   -1.923330
  S     -0.613622   -0.885993   -1.610870
  P     -2.331284   -0.245078   -0.556895
  S     -3.107639    1.447136   -1.182312
  O     -2.029184   -0.287776    1.007200
  C     -1.984311    0.869364    1.869760
  C     -0.866844    0.701400    2.878214
  O     -3.127551   -1.595487   -0.786349
  C     -4.220477   -2.037932    0.046934
  C     -5.413495   -1.106608   -0.026782
  H      3.835922   -1.964013    1.263206
  H      2.877830   -2.076928    2.747620
  H      3.246472   -3.540482    1.813218
  H      0.891423   -2.805425    1.381181
  H      1.887532   -2.645474   -0.093202
  H      4.489484    1.665547    0.040848
  H      3.328641    2.860824    0.673625
  H      5.328269    1.256861    2.354438
  H      5.462864    2.974730    1.948034
  H      4.150102    2.408868    2.994730
  H      0.923548    0.627567   -2.594554
  H     -0.687466    1.403260   -2.364485
  H     -1.847214    1.768457    1.261339
  H     -2.954561    0.925781    2.369804
  H      0.098352    0.666555    2.379396
  H     -0.882374    1.544883    3.560614
  H     -1.005203   -0.219170    3.437812
  H     -4.459363   -3.025344   -0.351753
  H     -3.857451   -2.130068    1.073403
  H     -5.151593   -0.125172    0.367052
  H     -5.734070   -0.985476   -1.058750
  H     -6.230339   -1.518445    0.557585

 Total Charge           Charge          ....    0
 Multiplicity           Mult            ....    1
 Number of Electrons    NEL             ....  202
 Basis Dimension        Dim             ....  539

ORBITAL ENERGIES
----------------

  NO   OCC          E(Eh)            E(eV)
   0   2.0000     -88.580386     -2410.3948
   1   2.0000     -88.578659     -2410.3479
   2   2.0000     -88.529593     -2409.0127
   3   2.0000     -88.527563     -2408.9575
   4   2.0000     -76.920357     -2093.1093
   5   2.0000     -76.920140     -2093.1034
   6   2.0000     -18.997378      -516.9449
   7   2.0000     -18.994516      -516.8670
   8   2.0000     -18.994407      -516.8641
   9   2.0000     -18.994114      -516.8561
  10   2.0000     -10.103771      -274.9376
  11   2.0000     -10.091225      -274.5962
  12   2.0000     -10.091196      -274.5954
  13   2.0000     -10.089895      -274.5600
  14   2.0000     -10.088270      -274.5158
  15   2.0000     -10.020081      -272.6603
  16   2.0000     -10.018696      -272.6226
  17   2.0000     -10.018480      -272.6167
  18   2.0000     -10.016967      -272.5755
  19   2.0000      -7.874778      -214.2836
  20   2.0000      -7.872910      -214.2328
  21   2.0000      -7.824593      -212.9180
  22   2.0000      -7.822727      -212.8672
  23   2.0000      -6.598891      -179.5650
  24   2.0000      -6.598445      -179.5528
  25   2.0000      -5.821536      -158.4121
  26   2.0000      -5.819803      -158.3649
  27   2.0000      -5.818629      -158.3329
  28   2.0000      -5.816753      -158.2819
  29   2.0000      -5.812025      -158.1533
  30   2.0000      -5.810054      -158.0996
  31   2.0000      -5.772118      -157.0673
  32   2.0000      -5.770316      -157.0183
  33   2.0000      -5.764851      -156.8696
  34   2.0000      -5.764698      -156.8654
  35   2.0000      -5.763108      -156.8222
  36   2.0000      -5.762624      -156.8090
  37   2.0000      -4.744180      -129.0957
  38   2.0000      -4.744178      -129.0956
  39   2.0000      -4.743844      -129.0866
  40   2.0000      -4.743123      -129.0670
  41   2.0000      -4.742784      -129.0577
  42   2.0000      -4.742297      -129.0444
  43   2.0000      -1.055094       -28.7106
  44   2.0000      -1.051444       -28.6112
  45   2.0000      -1.015250       -27.6263
  46   2.0000      -1.009884       -27.4803
  47   2.0000      -0.806072       -21.9343
  48   2.0000      -0.758844       -20.6492
  49   2.0000      -0.744449       -20.2575
  50   2.0000      -0.725142       -19.7321
  51   2.0000      -0.724521       -19.7152
  52   2.0000      -0.708093       -19.2682
  53   2.0000      -0.688621       -18.7383
  54   2.0000      -0.674977       -18.3671
  55   2.0000      -0.630890       -17.1674
  56   2.0000      -0.620737       -16.8911
  57   2.0000      -0.599902       -16.3242
  58   2.0000      -0.593217       -16.1423
  59   2.0000      -0.589689       -16.0463
  60   2.0000      -0.529129       -14.3983
  61   2.0000      -0.522153       -14.2085
  62   2.0000      -0.496926       -13.5220
  63   2.0000      -0.489496       -13.3199
  64   2.0000      -0.477969       -13.0062
  65   2.0000      -0.462075       -12.5737
  66   2.0000      -0.449306       -12.2262
  67   2.0000      -0.446750       -12.1567
  68   2.0000      -0.439758       -11.9664
  69   2.0000      -0.432954       -11.7813
  70   2.0000      -0.427261       -11.6264
  71   2.0000      -0.409820       -11.1518
  72   2.0000      -0.403979       -10.9928
  73   2.0000      -0.400111       -10.8876
  74   2.0000      -0.394998       -10.7484
  75   2.0000      -0.385051       -10.4778
  76   2.0000      -0.383490       -10.4353
  77   2.0000      -0.365208        -9.9378
  78   2.0000      -0.362648        -9.8682
  79   2.0000      -0.359440        -9.7809
  80   2.0000      -0.357738        -9.7346
  81   2.0000      -0.353742        -9.6258
  82   2.0000      -0.350591        -9.5401
  83   2.0000      -0.346732        -9.4351
  84   2.0000      -0.342478        -9.3193
  85   2.0000      -0.333026        -9.0621
  86   2.0000      -0.322794        -8.7837
  87   2.0000      -0.314590        -8.5604
  88   2.0000      -0.307762        -8.3746
  89   2.0000      -0.303485        -8.2582
  90   2.0000      -0.300536        -8.1780
  91   2.0000      -0.291421        -7.9300
  92   2.0000      -0.288659        -7.8548
  93   2.0000      -0.280308        -7.6276
  94   2.0000      -0.273729        -7.4486
  95   2.0000      -0.250668        -6.8210
  96   2.0000      -0.237205        -6.4547
  97   2.0000      -0.235580        -6.4105
  98   2.0000      -0.227313        -6.1855
  99   2.0000      -0.221944        -6.0394
 100   2.0000      -0.218937        -5.9576
 101   0.0000      -0.054391        -1.4801
 102   0.0000      -0.031899        -0.8680
 103   0.0000      -0.006139        -0.1670
 104   0.0000      -0.002058        -0.0560
 105   0.0000       0.011232         0.3056

MULLIKEN ATOMIC CHARGES
-----------------------
   0 C :   -0.487192
   1 C :   -0.146478
   2 O :   -0.286665
   3 P :    0.739207
   4 S :   -0.528847
   5 O :   -0.315341
   6 C :   -0.149774
   7 C :   -0.481585
   8 S :   -0.169227
   9 C :   -0.236015
  10 S :   -0.144384
  11 P :    0.707090
  12 S :   -0.510426
  13 O :   -0.316732
  14 C :   -0.090125
  15 C :   -0.512705
  16 O :   -0.338552
  17 C :   -0.134443
  18 C :   -0.484603
  19 H :    0.167764
  20 H :    0.170490
  21 H :    0.172877
  22 H :    0.180501
  23 H :    0.176402
  24 H :    0.173644
  25 H :    0.171714
  26 H :    0.166474
  27 H :    0.170092
  28 H :    0.166284
  29 H :    0.234489
  30 H :    0.230627
  31 H :    0.169984
  32 H :    0.173394
  33 H :    0.166903
  34 H :    0.170038
  35 H :    0.167109
  36 H :    0.174008
  37 H :    0.174855
  38 H :    0.166642
  39 H :    0.170509
  40 H :    0.171996
Sum of atomic charges:   -0.0000000

LOEWDIN ATOMIC CHARGES
----------------------
   0 C :   -0.402080
   1 C :    0.021603
   2 O :   -0.693965
   3 P :    0.377368
   4 S :   -0.157430
   5 O :   -0.674886
   6 C :    0.025853
   7 C :   -0.388487
   8 S :    0.158008
   9 C :   -0.416373
  10 S :    0.177788
  11 P :    0.387398
  12 S :   -0.160797
  13 O :   -0.673847
  14 C :    0.016182
  15 C :   -0.398579
  16 O :   -0.684232
  17 C :    0.038112
  18 C :   -0.405105
  19 H :    0.162710
  20 H :    0.163978
  21 H :    0.169118
  22 H :    0.191167
  23 H :    0.182602
  24 H :    0.181960
  25 H :    0.180012
  26 H :    0.162975
  27 H :    0.169221
  28 H :    0.163568
  29 H :    0.196630
  30 H :    0.197048
  31 H :    0.182005
  32 H :    0.181846
  33 H :    0.167169
  34 H :    0.168697
  35 H :    0.163710
  36 H :    0.191764
  37 H :    0.182923
  38 H :    0.162642
  39 H :    0.163479
  40 H :    0.168241

  Mayer bond orders larger than 0.100000
B(  0-C ,  1-C ) :   0.9116 B(  0-C , 19-H ) :   0.9603 B(  0-C , 20-H ) :   0.9717
B(  0-C , 21-H ) :   0.9572 B(  1-C ,  2-O ) :   0.7629 B(  1-C , 22-H ) :   0.9526
B(  1-C , 23-H ) :   0.9551 B(  2-O ,  3-P ) :   1.1424 B(  3-P ,  4-S ) :   1.7234
B(  3-P ,  5-O ) :   1.0926 B(  3-P ,  8-S ) :   1.0552 B(  5-O ,  6-C ) :   0.7726
B(  6-C ,  7-C ) :   0.9520 B(  6-C , 24-H ) :   0.9477 B(  6-C , 25-H ) :   0.9361
B(  7-C , 26-H ) :   0.9690 B(  7-C , 27-H ) :   0.9582 B(  7-C , 28-H ) :   0.9689
B(  8-S ,  9-C ) :   0.8897 B(  9-C , 10-S ) :   0.8892 B(  9-C , 29-H ) :   0.9013
B(  9-C , 30-H ) :   0.9013 B( 10-S , 11-P ) :   1.0918 B( 11-P , 12-S ) :   1.7486
B( 11-P , 13-O ) :   1.0586 B( 11-P , 16-O ) :   1.1584 B( 13-O , 14-C ) :   0.7308
B( 14-C , 15-C ) :   0.9301 B( 14-C , 31-H ) :   0.9542 B( 14-C , 32-H ) :   0.9418
B( 15-C , 33-H ) :   0.9636 B( 15-C , 34-H ) :   0.9626 B( 15-C , 35-H ) :   0.9666
B( 16-O , 17-C ) :   0.7904 B( 17-C , 18-C ) :   0.9237 B( 17-C , 36-H ) :   0.9509
B( 17-C , 37-H ) :   0.9607 B( 18-C , 38-H ) :   0.9557 B( 18-C , 39-H ) :   0.9699
B( 18-C , 40-H ) :   0.9571

Dispersion correction           -0.021659280
FINAL SINGLE POINT ENERGY     -2932.472450828802

DIPOLE MOMENT
-------------

Method             : SCF
Type of density    : Electron Density
Multiplicity       :   1
Irrep              :   0
Energy             : -2932.4973020484394510 Eh
Relativity type    :
Basis              : AO
                                X                 Y                 Z
Electronic contribution:     -3.557344281       2.371076232     -20.478582713
Nuclear contribution   :      3.634251118      -2.761216396      22.899435560
                        -----------------------------------------
Total Dipole Moment    :      0.076906836      -0.390140164       2.420852847
                        -----------------------------------------
Magnitude (a.u.)       :      2.453294217
Magnitude (Debye)      :      6.235778335

Rotational constants in cm-1:             0.013561             0.004718             0.004683
Rotational constants in MHz :           406.555100           141.447002           140.386635

                             ****ORCA TERMINATED NORMALLY****
TOTAL RUN TIME: 0 days 0 hours 1 minutes 57 seconds 81 msec
