                         Program Version 6.0.0  -   RELEASE  -
|  1> ! pbe def2-sv(p) def2/J RI DEFGRID1 loosescf d4 GCP(DFT/SV(P)) printgap
|  2> %output
|  3>     printlevel normal
|  4> end
|  5> * xyz 0 1
|  6> C 2.7494939831 -0.5931383797 -3.1298284782
|  7> C 2.9316458767 0.1653687031 -1.8328462217
|  8> O 2.2408053498 -0.5628695159 -0.7926005732
|  9> P 1.884558169 0.1204153207 0.5857496737
| 10> S 1.2803454635 1.9918079797 0.5696038331
| 11> O 3.2528064217 -0.0394486185 1.3886290734
| 12> C 3.5934639218 0.7147657926 2.5646635796
| 13> C 5.0714746916 1.0490898959 2.5107142595
| 14> S 0.7281828861 -1.4117822654 1.4625430868
| 15> C -0.2471956188 -2.1117296564 0.0849717824
| 16> S -2.015620436 -1.7722572959 0.2003239223
| 17> P -1.9971078001 0.1686339183 -0.6694938318
| 18> S -0.6667775444 0.4298625171 -2.078484401
| 19> O -1.7916288382 1.2312111962 0.4736159862
| 20> C -2.6239692263 1.3429818468 1.6555782651
| 21> C -1.8933897966 0.8029052664 2.8688825292
| 22> O -3.5237870983 0.405679848 -1.0388349151
| 23> C -4.3653920046 -0.5219611366 -1.7520940408
| 24> C -3.7813300133 -0.9412784964 -3.0843067389
| 25> H 3.1122853269 -1.6106799849 -3.0187846511
| 26> H 1.6959806508 -0.6138220586 -3.3986150738
| 27> H 3.3067632455 -0.0917080197 -3.9139959273
| 28> H 2.5039294323 1.1719655888 -1.895032453
| 29> H 3.9837939238 0.2363073779 -1.5473750001
| 30> H 2.9822249003 1.6238089914 2.587605796
| 31> H 3.356594627 0.093417288 3.4315308081
| 32> H 5.2796995541 1.6888175314 1.6571218207
| 33> H 5.3513271883 1.567770195 3.4216769544
| 34> H 5.654565725 0.1371657266 2.420214798
| 35> H -0.1354608442 -3.1906920922 0.1455730495
| 36> H 0.134360983 -1.7182455365 -0.8582102632
| 37> H -2.8125322221 2.4132806123 1.7530636881
| 38> H -3.5643257212 0.8153158706 1.4830047995
| 39> H -1.750369485 -0.2728577459 2.793545556
| 40> H -0.9186945387 1.2792109591 2.9513769349
| 41> H -2.4739268823 1.0228612934 3.7588746014
| 42> H -4.5314608967 -1.3918733768 -1.1110208094
| 43> H -5.2981418597 0.0299711096 -1.880741073
| 44> H -3.5524967805 -0.0676987785 -3.6903496922
| 45> H -2.8611523057 -1.5032569963 -2.9321655998
| 46> H -4.4962861745 -1.5664321299 -3.6092585992
| 47> *
| 48>
| 49>                          ****END OF INPUT****

CARTESIAN COORDINATES (ANGSTROEM)
---------------------------------
  C      2.749494   -0.593138   -3.129828
  C      2.931646    0.165369   -1.832846
  O      2.240805   -0.562870   -0.792601
  P      1.884558    0.120415    0.585750
  S      1.280345    1.991808    0.569604
  O      3.252806   -0.039449    1.388629
  C      3.593464    0.714766    2.564664
  C      5.071475    1.049090    2.510714
  S      0.728183   -1.411782    1.462543
  C     -0.247196   -2.111730    0.084972
  S     -2.015620   -1.772257    0.200324
  P     -1.997108    0.168634   -0.669494
  S     -0.666778    0.429863   -2.078484
  O     -1.791629    1.231211    0.473616
  C     -2.623969    1.342982    1.655578
  C     -1.893390    0.802905    2.868883
  O     -3.523787    0.405680   -1.038835
  C     -4.365392   -0.521961   -1.752094
  C     -3.781330   -0.941278   -3.084307
  H      3.112285   -1.610680   -3.018785
  H      1.695981   -0.613822   -3.398615
  H      3.306763   -0.091708   -3.913996
  H      2.503929    1.171966   -1.895032
  H      3.983794    0.236307   -1.547375
  H      2.982225    1.623809    2.587606
  H      3.356595    0.093417    3.431531
  H      5.279700    1.688818    1.657122
  H      5.351327    1.567770    3.421677
  H      5.654566    0.137166    2.420215
  H     -0.135461   -3.190692    0.145573
  H      0.134361   -1.718246   -0.858210
  H     -2.812532    2.413281    1.753064
  H     -3.564326    0.815316    1.483005
  H     -1.750369   -0.272858    2.793546
  H     -0.918695    1.279211    2.951377
  H     -2.473927    1.022861    3.758875
  H     -4.531461   -1.391873   -1.111021
  H     -5.298142    0.029971   -1.880741
  H     -3.552497   -0.067699   -3.690350
  H     -2.861152   -1.503257   -2.932166
  H     -4.496286   -1.566432   -3.609259

 Total Charge           Charge          ....    0
 Multiplicity           Mult            ....    1
 Number of Electrons    NEL             ....  202
 Basis Dimension        Dim             ....  334

ORBITAL ENERGIES
----------------

  NO   OCC          E(Eh)            E(eV)
   0   2.0000     -88.045963     -2395.8525
   1   2.0000     -88.036345     -2395.5907
   2   2.0000     -87.981540     -2394.0994
   3   2.0000     -87.973226     -2393.8732
   4   2.0000     -76.424678     -2079.6212
   5   2.0000     -76.417350     -2079.4218
   6   2.0000     -18.794313      -511.4192
   7   2.0000     -18.785656      -511.1837
   8   2.0000     -18.782856      -511.1075
   9   2.0000     -18.780578      -511.0455
  10   2.0000      -9.959400      -271.0091
  11   2.0000      -9.957683      -270.9623
  12   2.0000      -9.948750      -270.7193
  13   2.0000      -9.944764      -270.6108
  14   2.0000      -9.943909      -270.5875
  15   2.0000      -9.883771      -268.9511
  16   2.0000      -9.882234      -268.9093
  17   2.0000      -9.878831      -268.8167
  18   2.0000      -9.873534      -268.6725
  19   2.0000      -7.691038      -209.2838
  20   2.0000      -7.682003      -209.0379
  21   2.0000      -7.626621      -207.5309
  22   2.0000      -7.618151      -207.3004
  23   2.0000      -6.421925      -174.7495
  24   2.0000      -6.415054      -174.5625
  25   2.0000      -5.718661      -155.6127
  26   2.0000      -5.715429      -155.5247
  27   2.0000      -5.710234      -155.3834
  28   2.0000      -5.708378      -155.3329
  29   2.0000      -5.706301      -155.2763
  30   2.0000      -5.698689      -155.0692
  31   2.0000      -5.655574      -153.8960
  32   2.0000      -5.647210      -153.6684
  33   2.0000      -5.647103      -153.6655
  34   2.0000      -5.646685      -153.6541
  35   2.0000      -5.638958      -153.4438
  36   2.0000      -5.638095      -153.4204
  37   2.0000      -4.644670      -126.3879
  38   2.0000      -4.643992      -126.3694
  39   2.0000      -4.641998      -126.3152
  40   2.0000      -4.637646      -126.1968
  41   2.0000      -4.636907      -126.1767
  42   2.0000      -4.635357      -126.1345
  43   2.0000      -0.985824       -26.8256
  44   2.0000      -0.978785       -26.6341
  45   2.0000      -0.940432       -25.5904
  46   2.0000      -0.937047       -25.4983
  47   2.0000      -0.761199       -20.7133
  48   2.0000      -0.719125       -19.5684
  49   2.0000      -0.708524       -19.2799
  50   2.0000      -0.687049       -18.6956
  51   2.0000      -0.682605       -18.5746
  52   2.0000      -0.670969       -18.2580
  53   2.0000      -0.646648       -17.5962
  54   2.0000      -0.628919       -17.1138
  55   2.0000      -0.590967       -16.0810
  56   2.0000      -0.584053       -15.8929
  57   2.0000      -0.571745       -15.5580
  58   2.0000      -0.562928       -15.3181
  59   2.0000      -0.559564       -15.2265
  60   2.0000      -0.502374       -13.6703
  61   2.0000      -0.499040       -13.5796
  62   2.0000      -0.475657       -12.9433
  63   2.0000      -0.469062       -12.7638
  64   2.0000      -0.452872       -12.3233
  65   2.0000      -0.441509       -12.0141
  66   2.0000      -0.436401       -11.8751
  67   2.0000      -0.431577       -11.7438
  68   2.0000      -0.430572       -11.7165
  69   2.0000      -0.418713       -11.3937
  70   2.0000      -0.410181       -11.1616
  71   2.0000      -0.396400       -10.7866
  72   2.0000      -0.388308       -10.5664
  73   2.0000      -0.381366       -10.3775
  74   2.0000      -0.376686       -10.2501
  75   2.0000      -0.363538        -9.8924
  76   2.0000      -0.354597        -9.6491
  77   2.0000      -0.351712        -9.5706
  78   2.0000      -0.350491        -9.5374
  79   2.0000      -0.344954        -9.3867
  80   2.0000      -0.343161        -9.3379
  81   2.0000      -0.342618        -9.3231
  82   2.0000      -0.338340        -9.2067
  83   2.0000      -0.333084        -9.0637
  84   2.0000      -0.325535        -8.8583
  85   2.0000      -0.313099        -8.5199
  86   2.0000      -0.307548        -8.3688
  87   2.0000      -0.297014        -8.0822
  88   2.0000      -0.292573        -7.9613
  89   2.0000      -0.287956        -7.8357
  90   2.0000      -0.282882        -7.6976
  91   2.0000      -0.273248        -7.4355
  92   2.0000      -0.267321        -7.2742
  93   2.0000      -0.261392        -7.1128
  94   2.0000      -0.253212        -6.8902
  95   2.0000      -0.235186        -6.3997
  96   2.0000      -0.219230        -5.9655
  97   2.0000      -0.208382        -5.6704
  98   2.0000      -0.199627        -5.4321
  99   2.0000      -0.187250        -5.0953
 100   2.0000      -0.176464        -4.8018
 101   0.0000      -0.040682        -1.1070
 102   0.0000      -0.026174        -0.7122
 103   0.0000      -0.022433        -0.6104
 104   0.0000       0.002229         0.0607
 105   0.0000       0.017522         0.4768

MULLIKEN ATOMIC CHARGES
-----------------------
   0 C :   -0.290600
   1 C :   -0.004913
   2 O :   -0.374263
   3 P :    0.622420
   4 S :   -0.304980
   5 O :   -0.384478
   6 C :   -0.006290
   7 C :   -0.284792
   8 S :   -0.103580
   9 C :   -0.353985
  10 S :   -0.122921
  11 P :    0.604505
  12 S :   -0.305194
  13 O :   -0.332379
  14 C :   -0.004421
  15 C :   -0.294315
  16 O :   -0.378578
  17 C :   -0.010503
  18 C :   -0.305927
  19 H :    0.110933
  20 H :    0.134043
  21 H :    0.108460
  22 H :    0.115848
  23 H :    0.100291
  24 H :    0.101385
  25 H :    0.096456
  26 H :    0.115253
  27 H :    0.108997
  28 H :    0.114601
  29 H :    0.184264
  30 H :    0.213644
  31 H :    0.110348
  32 H :    0.093675
  33 H :    0.123274
  34 H :    0.122237
  35 H :    0.100822
  36 H :    0.111772
  37 H :    0.109736
  38 H :    0.127657
  39 H :    0.121114
  40 H :    0.110387
Sum of atomic charges:   -0.0000000

LOEWDIN ATOMIC CHARGES
----------------------
   0 C :   -0.354387
   1 C :   -0.116283
   2 O :   -0.240063
   3 P :    0.560910
   4 S :   -0.299711
   5 O :   -0.253661
   6 C :   -0.124411
   7 C :   -0.352381
   8 S :    0.073542
   9 C :   -0.475863
  10 S :    0.061795
  11 P :    0.567868
  12 S :   -0.288309
  13 O :   -0.221311
  14 C :   -0.109468
  15 C :   -0.365487
  16 O :   -0.244554
  17 C :   -0.114877
  18 C :   -0.369302
  19 H :    0.124435
  20 H :    0.125205
  21 H :    0.129743
  22 H :    0.112111
  23 H :    0.110883
  24 H :    0.102337
  25 H :    0.110014
  26 H :    0.126317
  27 H :    0.129247
  28 H :    0.125188
  29 H :    0.138984
  30 H :    0.130075
  31 H :    0.122721
  32 H :    0.103976
  33 H :    0.114264
  34 H :    0.126350
  35 H :    0.125282
  36 H :    0.107015
  37 H :    0.121580
  38 H :    0.130927
  39 H :    0.119661
  40 H :    0.129638

  Mayer bond orders larger than 0.100000
B(  0-C ,  1-C ) :   1.1647 B(  0-C , 19-H ) :   0.9491 B(  0-C , 20-H ) :   0.9429
B(  0-C , 21-H ) :   0.9409 B(  1-C ,  2-O ) :   0.8883 B(  1-C , 22-H ) :   0.9097
B(  1-C , 23-H ) :   0.9312 B(  2-O ,  3-P ) :   1.1223 B(  3-P ,  4-S ) :   1.6517
B(  3-P ,  5-O ) :   1.0845 B(  3-P ,  8-S ) :   0.9595 B(  4-S ,  8-S ) :   0.1074
B(  5-O ,  6-C ) :   0.9156 B(  6-C ,  7-C ) :   1.1620 B(  6-C , 24-H ) :   0.8953
B(  6-C , 25-H ) :   0.9323 B(  7-C , 26-H ) :   0.9505 B(  7-C , 27-H ) :   0.9421
B(  7-C , 28-H ) :   0.9513 B(  8-S ,  9-C ) :   0.9996 B(  9-C , 10-S ) :   1.0107
B(  9-C , 29-H ) :   0.9102 B(  9-C , 30-H ) :   0.8539 B( 10-S , 11-P ) :   0.9252
B( 10-S , 12-S ) :   0.1083 B( 11-P , 12-S ) :   1.6328 B( 11-P , 13-O ) :   1.1640
B( 11-P , 16-O ) :   1.0919 B( 13-O , 14-C ) :   0.8900 B( 14-C , 15-C ) :   1.1674
B( 14-C , 31-H ) :   0.9338 B( 14-C , 32-H ) :   0.9196 B( 15-C , 33-H ) :   0.9331
B( 15-C , 34-H ) :   0.9388 B( 15-C , 35-H ) :   0.9375 B( 16-O , 17-C ) :   0.9115
B( 17-C , 18-C ) :   1.1676 B( 17-C , 36-H ) :   0.9260 B( 17-C , 37-H ) :   0.9333
B( 18-C , 38-H ) :   0.9430 B( 18-C , 39-H ) :   0.9323 B( 18-C , 40-H ) :   0.9348

Dispersion correction           -0.066677602
FINAL SINGLE POINT ENERGY     -2929.511612262754

DIPOLE MOMENT
-------------

Method             : SCF
Type of density    : Electron Density
Multiplicity       :   1
Irrep              :   0
Energy             : -2929.6294621399842981 Eh
Relativity type    :
Basis              : AO
                                X                 Y                 Z
Electronic contribution:     -5.240152787      -0.646575443       1.556908097
Nuclear contribution   :      4.782306371      -0.171504198      -1.291363512
                        -----------------------------------------
Total Dipole Moment    :     -0.457846416      -0.818079641       0.265544585
                        -----------------------------------------
Magnitude (a.u.)       :      0.974367265
Magnitude (Debye)      :      2.476644765

Rotational constants in cm-1:             0.012428             0.005511             0.004804
Rotational constants in MHz :           372.571747           165.224634           144.015274

                             ****ORCA TERMINATED NORMALLY****
TOTAL RUN TIME: 0 days 0 hours 0 minutes 21 seconds 296 msec
