                         Program Version 6.0.0  -   RELEASE  -
|  1> ! pbe def2-sv(p) def2/J RI DEFGRID1 loosescf d4 GCP(DFT/SV(P)) printgap
|  2> %output
|  3>     printlevel normal
|  4> end
|  5> * xyz 0 1
|  6> C 1.3333309235 -1.4629618479 3.1992052658
|  7> C 2.0731614544 -0.186207571 2.8537019165
|  8> O 1.6462663337 0.3157245681 1.5618329862
|  9> P 2.4712190091 0.0174273968 0.2432070288
| 10> S 3.2249314257 -1.7874386218 0.056465485
| 11> O 3.5628880128 1.1731588009 0.2940016763
| 12> C 4.7501299992 1.1437440371 -0.5172516399
| 13> C 4.4375771408 1.330849545 -1.9878048974
| 14> S 1.0692777149 0.6293085836 -1.2091164518
| 15> C 0.2028674386 -0.9621390998 -1.3118505116
| 16> S -0.9577966313 -1.2103315248 0.0456704552
| 17> P -2.3741326034 0.2630128251 -0.5829764263
| 18> S -2.5444357712 0.3988301023 -2.5296823526
| 19> O -2.0006655561 1.6475651125 0.065858846
| 20> C -2.2888415933 2.0614185523 1.4251488688
| 21> C -1.6204158221 1.1760201829 2.4544717297
| 22> O -3.6942924101 -0.1449686627 0.197253957
| 23> C -4.4503834804 -1.3119612629 -0.1909802646
| 24> C -5.8329404767 -1.1938541331 0.417304054
| 25> H 1.6101937916 -1.7750248345 4.2009558983
| 26> H 0.2604163175 -1.3012748854 3.1526026464
| 27> H 1.5950241586 -2.2508923154 2.4963547296
| 28> H 3.1536842547 -0.3513202239 2.8349351646
| 29> H 1.8385392871 0.6171405189 3.553725258
| 30> H 5.356376369 1.9615020017 -0.1255580224
| 31> H 5.2584845208 0.1882880171 -0.3515179515
| 32> H 3.8770163757 0.4745915693 -2.361528506
| 33> H 3.842270699 2.2283095924 -2.1371633579
| 34> H 5.3646219243 1.414956715 -2.5457610768
| 35> H 0.9290513442 -1.774899629 -1.270925776
| 36> H -0.3441102282 -0.9599301365 -2.255286338
| 37> H -1.9014449148 3.0809923425 1.4583835495
| 38> H -3.3724766904 2.0682752193 1.5548880085
| 39> H -0.5522824499 1.1180529683 2.2597146222
| 40> H -1.7834621325 1.5944662008 3.4428284175
| 41> H -2.0413850315 0.1728097484 2.4181933383
| 42> H -4.4941774931 -1.3501631738 -1.2843344371
| 43> H -3.9231541703 -2.1957185182 0.177473564
| 44> H -6.4150167002 -2.068443008 0.1462960018
| 45> H -5.7609727303 -1.1311616433 1.4990645369
| 46> H -6.330726783 -0.3034978266 0.0434594861
| 47> *
| 48>
| 49>                          ****END OF INPUT****

CARTESIAN COORDINATES (ANGSTROEM)
---------------------------------
  C      1.333331   -1.462962    3.199205
  C      2.073161   -0.186208    2.853702
  O      1.646266    0.315725    1.561833
  P      2.471219    0.017427    0.243207
  S      3.224931   -1.787439    0.056465
  O      3.562888    1.173159    0.294002
  C      4.750130    1.143744   -0.517252
  C      4.437577    1.330850   -1.987805
  S      1.069278    0.629309   -1.209116
  C      0.202867   -0.962139   -1.311851
  S     -0.957797   -1.210332    0.045670
  P     -2.374133    0.263013   -0.582976
  S     -2.544436    0.398830   -2.529682
  O     -2.000666    1.647565    0.065859
  C     -2.288842    2.061419    1.425149
  C     -1.620416    1.176020    2.454472
  O     -3.694292   -0.144969    0.197254
  C     -4.450383   -1.311961   -0.190980
  C     -5.832940   -1.193854    0.417304
  H      1.610194   -1.775025    4.200956
  H      0.260416   -1.301275    3.152603
  H      1.595024   -2.250892    2.496355
  H      3.153684   -0.351320    2.834935
  H      1.838539    0.617141    3.553725
  H      5.356376    1.961502   -0.125558
  H      5.258485    0.188288   -0.351518
  H      3.877016    0.474592   -2.361529
  H      3.842271    2.228310   -2.137163
  H      5.364622    1.414957   -2.545761
  H      0.929051   -1.774900   -1.270926
  H     -0.344110   -0.959930   -2.255286
  H     -1.901445    3.080992    1.458384
  H     -3.372477    2.068275    1.554888
  H     -0.552282    1.118053    2.259715
  H     -1.783462    1.594466    3.442828
  H     -2.041385    0.172810    2.418193
  H     -4.494177   -1.350163   -1.284334
  H     -3.923154   -2.195719    0.177474
  H     -6.415017   -2.068443    0.146296
  H     -5.760973   -1.131162    1.499065
  H     -6.330727   -0.303498    0.043459

 Total Charge           Charge          ....    0
 Multiplicity           Mult            ....    1
 Number of Electrons    NEL             ....  202
 Basis Dimension        Dim             ....  334

ORBITAL ENERGIES
----------------

  NO   OCC          E(Eh)            E(eV)
   0   2.0000     -88.041322     -2395.7262
   1   2.0000     -88.038634     -2395.6530
   2   2.0000     -87.990329     -2394.3386
   3   2.0000     -87.982622     -2394.1289
   4   2.0000     -76.427545     -2079.6992
   5   2.0000     -76.426124     -2079.6606
   6   2.0000     -18.799805      -511.5687
   7   2.0000     -18.794857      -511.4341
   8   2.0000     -18.792314      -511.3648
   9   2.0000     -18.790779      -511.3231
  10   2.0000      -9.956740      -270.9367
  11   2.0000      -9.956691      -270.9353
  12   2.0000      -9.955905      -270.9139
  13   2.0000      -9.952556      -270.8228
  14   2.0000      -9.948493      -270.7123
  15   2.0000      -9.892140      -269.1788
  16   2.0000      -9.886256      -269.0187
  17   2.0000      -9.883410      -268.9413
  18   2.0000      -9.881587      -268.8917
  19   2.0000      -7.686525      -209.1610
  20   2.0000      -7.683618      -209.0819
  21   2.0000      -7.635239      -207.7654
  22   2.0000      -7.627934      -207.5666
  23   2.0000      -6.425405      -174.8442
  24   2.0000      -6.423591      -174.7948
  25   2.0000      -5.714345      -155.4952
  26   2.0000      -5.711324      -155.4130
  27   2.0000      -5.711248      -155.4110
  28   2.0000      -5.708254      -155.3295
  29   2.0000      -5.703302      -155.1947
  30   2.0000      -5.700668      -155.1231
  31   2.0000      -5.663959      -154.1242
  32   2.0000      -5.656910      -153.9323
  33   2.0000      -5.656015      -153.9080
  34   2.0000      -5.655449      -153.8926
  35   2.0000      -5.648604      -153.7063
  36   2.0000      -5.647939      -153.6882
  37   2.0000      -4.647961      -126.4774
  38   2.0000      -4.647058      -126.4529
  39   2.0000      -4.646726      -126.4438
  40   2.0000      -4.645928      -126.4221
  41   2.0000      -4.645152      -126.4010
  42   2.0000      -4.643713      -126.3619
  43   2.0000      -0.991178       -26.9713
  44   2.0000      -0.988586       -26.9008
  45   2.0000      -0.946901       -25.7665
  46   2.0000      -0.946644       -25.7595
  47   2.0000      -0.763370       -20.7724
  48   2.0000      -0.722847       -19.6697
  49   2.0000      -0.710880       -19.3440
  50   2.0000      -0.695173       -18.9166
  51   2.0000      -0.686656       -18.6849
  52   2.0000      -0.675779       -18.3889
  53   2.0000      -0.650049       -17.6887
  54   2.0000      -0.635954       -17.3052
  55   2.0000      -0.599333       -16.3087
  56   2.0000      -0.592019       -16.1097
  57   2.0000      -0.575888       -15.6707
  58   2.0000      -0.574871       -15.6430
  59   2.0000      -0.557012       -15.1571
  60   2.0000      -0.508334       -13.8325
  61   2.0000      -0.502049       -13.6615
  62   2.0000      -0.475935       -12.9508
  63   2.0000      -0.470750       -12.8098
  64   2.0000      -0.461053       -12.5459
  65   2.0000      -0.447264       -12.1707
  66   2.0000      -0.442214       -12.0332
  67   2.0000      -0.439148       -11.9498
  68   2.0000      -0.430652       -11.7186
  69   2.0000      -0.418235       -11.3808
  70   2.0000      -0.408212       -11.1080
  71   2.0000      -0.401036       -10.9127
  72   2.0000      -0.396639       -10.7931
  73   2.0000      -0.381589       -10.3836
  74   2.0000      -0.378256       -10.2929
  75   2.0000      -0.372972       -10.1491
  76   2.0000      -0.370048       -10.0695
  77   2.0000      -0.358808        -9.7637
  78   2.0000      -0.356279        -9.6948
  79   2.0000      -0.352431        -9.5901
  80   2.0000      -0.349575        -9.5124
  81   2.0000      -0.346009        -9.4154
  82   2.0000      -0.343018        -9.3340
  83   2.0000      -0.340165        -9.2564
  84   2.0000      -0.334762        -9.1093
  85   2.0000      -0.323249        -8.7960
  86   2.0000      -0.308199        -8.3865
  87   2.0000      -0.305384        -8.3099
  88   2.0000      -0.297724        -8.1015
  89   2.0000      -0.294860        -8.0236
  90   2.0000      -0.288570        -7.8524
  91   2.0000      -0.280409        -7.6303
  92   2.0000      -0.273934        -7.4541
  93   2.0000      -0.265087        -7.2134
  94   2.0000      -0.256135        -6.9698
  95   2.0000      -0.233466        -6.3529
  96   2.0000      -0.219007        -5.9595
  97   2.0000      -0.212484        -5.7820
  98   2.0000      -0.203083        -5.5262
  99   2.0000      -0.202267        -5.5040
 100   2.0000      -0.195589        -5.3222
 101   0.0000      -0.045113        -1.2276
 102   0.0000      -0.025208        -0.6859
 103   0.0000      -0.003292        -0.0896
 104   0.0000       0.000695         0.0189
 105   0.0000       0.014264         0.3881

MULLIKEN ATOMIC CHARGES
-----------------------
   0 C :   -0.296615
   1 C :   -0.000800
   2 O :   -0.362923
   3 P :    0.605441
   4 S :   -0.338664
   5 O :   -0.373059
   6 C :   -0.005193
   7 C :   -0.316911
   8 S :   -0.050978
   9 C :   -0.382995
  10 S :   -0.099571
  11 P :    0.613841
  12 S :   -0.318317
  13 O :   -0.354228
  14 C :    0.017407
  15 C :   -0.369814
  16 O :   -0.390099
  17 C :   -0.010932
  18 C :   -0.281403
  19 H :    0.106240
  20 H :    0.122495
  21 H :    0.125608
  22 H :    0.106593
  23 H :    0.106581
  24 H :    0.105249
  25 H :    0.111671
  26 H :    0.128165
  27 H :    0.120233
  28 H :    0.113803
  29 H :    0.190048
  30 H :    0.199045
  31 H :    0.110617
  32 H :    0.108316
  33 H :    0.163031
  34 H :    0.109591
  35 H :    0.122935
  36 H :    0.109256
  37 H :    0.105461
  38 H :    0.114730
  39 H :    0.114064
  40 H :    0.122081
Sum of atomic charges:    0.0000000

LOEWDIN ATOMIC CHARGES
----------------------
   0 C :   -0.362725
   1 C :   -0.112131
   2 O :   -0.240495
   3 P :    0.573708
   4 S :   -0.323661
   5 O :   -0.245825
   6 C :   -0.120131
   7 C :   -0.368962
   8 S :    0.105160
   9 C :   -0.491596
  10 S :    0.069959
  11 P :    0.570923
  12 S :   -0.311683
  13 O :   -0.232759
  14 C :   -0.103758
  15 C :   -0.378044
  16 O :   -0.250290
  17 C :   -0.119782
  18 C :   -0.350418
  19 H :    0.127979
  20 H :    0.124709
  21 H :    0.124772
  22 H :    0.110824
  23 H :    0.117176
  24 H :    0.118689
  25 H :    0.110084
  26 H :    0.121934
  27 H :    0.125791
  28 H :    0.131544
  29 H :    0.126744
  30 H :    0.128464
  31 H :    0.123581
  32 H :    0.113833
  33 H :    0.132282
  34 H :    0.129279
  35 H :    0.116176
  36 H :    0.111131
  37 H :    0.110005
  38 H :    0.132475
  39 H :    0.125423
  40 H :    0.129610

  Mayer bond orders larger than 0.100000
B(  0-C ,  1-C ) :   1.1745 B(  0-C , 19-H ) :   0.9390 B(  0-C , 20-H ) :   0.9436
B(  0-C , 21-H ) :   0.9335 B(  1-C ,  2-O ) :   0.8741 B(  1-C , 22-H ) :   0.9149
B(  1-C , 23-H ) :   0.9327 B(  2-O ,  3-P ) :   1.1263 B(  3-P ,  4-S ) :   1.5788
B(  3-P ,  5-O ) :   1.1135 B(  3-P ,  8-S ) :   0.9747 B(  4-S ,  8-S ) :   0.1102
B(  5-O ,  6-C ) :   0.9076 B(  6-C ,  7-C ) :   1.1647 B(  6-C , 24-H ) :   0.9334
B(  6-C , 25-H ) :   0.9149 B(  7-C , 26-H ) :   0.9349 B(  7-C , 27-H ) :   0.9451
B(  7-C , 28-H ) :   0.9380 B(  8-S ,  9-C ) :   1.0034 B(  9-C , 10-S ) :   1.0107
B(  9-C , 29-H ) :   0.8669 B(  9-C , 30-H ) :   0.8660 B( 10-S , 11-P ) :   0.9414
B( 10-S , 12-S ) :   0.1138 B( 11-P , 12-S ) :   1.6433 B( 11-P , 13-O ) :   1.1469
B( 11-P , 16-O ) :   1.0748 B( 13-O , 14-C ) :   0.8975 B( 14-C , 15-C ) :   1.1691
B( 14-C , 31-H ) :   0.9333 B( 14-C , 32-H ) :   0.9294 B( 15-C , 33-H ) :   0.9174
B( 15-C , 34-H ) :   0.9340 B( 15-C , 35-H ) :   0.9364 B( 16-O , 17-C ) :   0.8985
B( 17-C , 18-C ) :   1.1601 B( 17-C , 36-H ) :   0.9092 B( 17-C , 37-H ) :   0.9286
B( 18-C , 38-H ) :   0.9415 B( 18-C , 39-H ) :   0.9514 B( 18-C , 40-H ) :   0.9505

Dispersion correction           -0.064795418
FINAL SINGLE POINT ENERGY     -2929.521663789811

DIPOLE MOMENT
-------------

Method             : SCF
Type of density    : Electron Density
Multiplicity       :   1
Irrep              :   0
Energy             : -2929.6420654308926714 Eh
Relativity type    :
Basis              : AO
                                X                 Y                 Z
Electronic contribution:      3.532954943       0.889890090     -14.712689827
Nuclear contribution   :     -3.713377544      -0.658627207      16.301721902
                        -----------------------------------------
Total Dipole Moment    :     -0.180422601       0.231262883       1.589032074
                        -----------------------------------------
Magnitude (a.u.)       :      1.615876781
Magnitude (Debye)      :      4.107232369

Rotational constants in cm-1:             0.013260             0.004694             0.004258
Rotational constants in MHz :           397.530242           140.733891           127.655229

                             ****ORCA TERMINATED NORMALLY****
TOTAL RUN TIME: 0 days 0 hours 0 minutes 20 seconds 940 msec
