                         Program Version 6.0.0  -   RELEASE  -
|  1> ! wb97x-v def2-tzvp def2/J RIJCOSX DEFGRID2 scfconv7 GCP(DFT/TZ) printgap
|  2> %output
|  3>     printlevel normal
|  4> end
|  5> * xyz 0 1
|  6> C 4.9400362498234034e-05 1.817115322239022 0.0035596632050055857
|  7> C 1.8625976635356356e-05 0.49405170192425596 0.0002697325557408531
|  8> Cl 1.4582781305354124 -0.46179713191760857 -0.0008409096441660338
|  9> Cl -1.4582852861211864 -0.4617298195871569 -0.0010750435325371896
| 10> H -0.9347927193074634 2.365249692025336 0.003652738084254232
| 11> H 0.9349184357803266 2.3652053833432305 0.0038188240575293074
| 12> *
| 13>
| 14>                          ****END OF INPUT****

CARTESIAN COORDINATES (ANGSTROEM)
---------------------------------
  C      0.000049    1.817115    0.003560
  C      0.000019    0.494052    0.000270
  Cl     1.458278   -0.461797   -0.000841
  Cl    -1.458285   -0.461730   -0.001075
  H     -0.934793    2.365250    0.003653
  H      0.934918    2.365205    0.003819

 Total Charge           Charge          ....    0
 Multiplicity           Mult            ....    1
 Number of Electrons    NEL             ....   48
 Basis Dimension        Dim             ....  148

ORBITAL ENERGIES
----------------

  NO   OCC          E(Eh)            E(eV)
   0   2.0000    -107.164200     -2916.0861
   1   2.0000    -107.164165     -2916.0852
   2   2.0000     -12.179394      -331.4181
   3   2.0000     -12.075242      -328.5840
   4   2.0000     -11.317387      -307.9618
   5   2.0000     -11.317269      -307.9585
   6   2.0000      -9.109822      -247.8908
   7   2.0000      -9.108115      -247.8444
   8   2.0000      -9.106306      -247.7952
   9   2.0000      -9.106275      -247.7943
  10   2.0000      -9.105678      -247.7781
  11   2.0000      -9.105474      -247.7726
  12   2.0000      -1.469432       -39.9853
  13   2.0000      -1.406873       -38.2830
  14   2.0000      -1.300909       -35.3995
  15   2.0000      -1.067427       -29.0462
  16   2.0000      -0.968368       -26.3506
  17   2.0000      -0.955005       -25.9870
  18   2.0000      -0.858427       -23.3590
  19   2.0000      -0.857135       -23.3238
  20   2.0000      -0.818882       -22.2829
  21   2.0000      -0.809411       -22.0252
  22   2.0000      -0.800752       -21.7896
  23   2.0000      -0.692085       -18.8326
  24   0.0000      -0.318910        -8.6780
  25   0.0000      -0.253994        -6.9115
  26   0.0000      -0.237396        -6.4599
  27   0.0000      -0.002280        -0.0620
  28   0.0000       0.047093         1.2815

MULLIKEN ATOMIC CHARGES
-----------------------
   0 C :   -0.278412
   1 C :    0.068252
   2 Cl:   -0.047989
   3 Cl:   -0.047986
   4 H :    0.153066
   5 H :    0.153068
Sum of atomic charges:   -0.0000000

LOEWDIN ATOMIC CHARGES
----------------------
   0 C :   -0.233086
   1 C :   -0.790001
   2 Cl:    0.378969
   3 Cl:    0.378969
   4 H :    0.132574
   5 H :    0.132575

  Mayer bond orders larger than 0.100000
B(  0-C ,  1-C ) :   1.8797 B(  0-C ,  4-H ) :   0.9481 B(  0-C ,  5-H ) :   0.9481
B(  1-C ,  2-Cl) :   1.1470 B(  1-C ,  3-Cl) :   1.1470

FINAL SINGLE POINT ENERGY      -997.677412392154

DIPOLE MOMENT
-------------

Method             : SCF
Type of density    : Electron Density
Multiplicity       :   1
Irrep              :   0
Energy             :  -997.6802789983540833 Eh
Relativity type    :
Basis              : AO
                                X                 Y                 Z
Electronic contribution:     -0.000119576      -5.111437163      -0.008776392
Nuclear contribution   :      0.000133301       5.675781751       0.009461220
                        -----------------------------------------
Total Dipole Moment    :      0.000013725       0.564344588       0.000684828
                        -----------------------------------------
Magnitude (a.u.)       :      0.564345004
Magnitude (Debye)      :      1.434451001

Rotational constants in cm-1:             0.244357             0.110506             0.076094
Rotational constants in MHz :          7325.635670          3312.886871          2281.238136

                             ****ORCA TERMINATED NORMALLY****
TOTAL RUN TIME: 0 days 0 hours 0 minutes 33 seconds 117 msec
