                         Program Version 6.0.0  -   RELEASE  -
|  1> ! wb97x-v def2-tzvp def2/J RIJCOSX DEFGRID2 scfconv7 GCP(DFT/TZ) printgap
|  2> %output
|  3>     printlevel normal
|  4> end
|  5> %cpcm
|  6>     smd true
|  7>     smdsolvent "water"
|  8> end
|  9> * xyz 0 1
| 10> C 4.9400362498234034e-05 1.817115322239022 0.0035596632050055857
| 11> C 1.8625976635356356e-05 0.49405170192425596 0.0002697325557408531
| 12> Cl 1.4582781305354124 -0.46179713191760857 -0.0008409096441660338
| 13> Cl -1.4582852861211864 -0.4617298195871569 -0.0010750435325371896
| 14> H -0.9347927193074634 2.365249692025336 0.003652738084254232
| 15> H 0.9349184357803266 2.3652053833432305 0.0038188240575293074
| 16> *
| 17>
| 18>                          ****END OF INPUT****

CARTESIAN COORDINATES (ANGSTROEM)
---------------------------------
  C      0.000049    1.817115    0.003560
  C      0.000019    0.494052    0.000270
  Cl     1.458278   -0.461797   -0.000841
  Cl    -1.458285   -0.461730   -0.001075
  H     -0.934793    2.365250    0.003653
  H      0.934918    2.365205    0.003819

 Total Charge           Charge          ....    0
 Multiplicity           Mult            ....    1
 Number of Electrons    NEL             ....   48
 Basis Dimension        Dim             ....  148

ORBITAL ENERGIES
----------------

  NO   OCC          E(Eh)            E(eV)
   0   2.0000    -107.163056     -2916.0550
   1   2.0000    -107.163021     -2916.0541
   2   2.0000     -12.172417      -331.2283
   3   2.0000     -12.065052      -328.3068
   4   2.0000     -11.316312      -307.9325
   5   2.0000     -11.316192      -307.9292
   6   2.0000      -9.108746      -247.8616
   7   2.0000      -9.107015      -247.8145
   8   2.0000      -9.105245      -247.7663
   9   2.0000      -9.105236      -247.7661
  10   2.0000      -9.104646      -247.7500
  11   2.0000      -9.104438      -247.7443
  12   2.0000      -1.467305       -39.9274
  13   2.0000      -1.405930       -38.2573
  14   2.0000      -1.293741       -35.2045
  15   2.0000      -1.061587       -28.8873
  16   2.0000      -0.964022       -26.2324
  17   2.0000      -0.945783       -25.7361
  18   2.0000      -0.855770       -23.2867
  19   2.0000      -0.847753       -23.0685
  20   2.0000      -0.818013       -22.2593
  21   2.0000      -0.809326       -22.0229
  22   2.0000      -0.800042       -21.7702
  23   2.0000      -0.686632       -18.6842
  24   0.0000      -0.316669        -8.6170
  25   0.0000      -0.245514        -6.6808
  26   0.0000      -0.231794        -6.3074
  27   0.0000       0.015571         0.4237
  28   0.0000       0.049636         1.3507

MULLIKEN ATOMIC CHARGES
-----------------------
   0 C :   -0.316274
   1 C :    0.053800
   2 Cl:   -0.063874
   3 Cl:   -0.063871
   4 H :    0.195108
   5 H :    0.195111
Sum of atomic charges:   -0.0000000

LOEWDIN ATOMIC CHARGES
----------------------
   0 C :   -0.215386
   1 C :   -0.802033
   2 Cl:    0.364512
   3 Cl:    0.364512
   4 H :    0.144197
   5 H :    0.144198

  Mayer bond orders larger than 0.100000
B(  0-C ,  1-C ) :   1.8702 B(  0-C ,  4-H ) :   0.9397 B(  0-C ,  5-H ) :   0.9397
B(  1-C ,  2-Cl) :   1.1384 B(  1-C ,  3-Cl) :   1.1384

FINAL SINGLE POINT ENERGY      -997.676657751094

DIPOLE MOMENT
-------------

Method             : SCF
Type of density    : Electron Density
Multiplicity       :   1
Irrep              :   0
Energy             :  -997.6795243572936442 Eh
Relativity type    :
Basis              : AO
                                X                 Y                 Z
Electronic contribution:     -0.000112665      -4.839749273      -0.008378708
Nuclear contribution   :      0.000133301       5.675781751       0.009461220
                        -----------------------------------------
Total Dipole Moment    :      0.000020636       0.836032479       0.001082512
                        -----------------------------------------
Magnitude (a.u.)       :      0.836033180
Magnitude (Debye)      :      2.125027464

Rotational constants in cm-1:             0.244357             0.110506             0.076094
Rotational constants in MHz :          7325.635670          3312.886871          2281.238136

                             ****ORCA TERMINATED NORMALLY****
TOTAL RUN TIME: 0 days 0 hours 0 minutes 34 seconds 612 msec
