                         Program Version 6.0.1  -  RELEASE   -
|  1> ! pbe def2-sv(p) def2/J RI DEFGRID1 loosescf d4 GCP(DFT/SV(P)) printgap
|  2> %output
|  3>     printlevel normal
|  4> end
|  5> * xyz 0 1
|  6> C 3.2613537056 -2.3524800471 0.8152975573
|  7> C 2.517200124 -2.6201548113 -0.481695031
|  8> O 1.8465288847 -1.4173700455 -0.9077793625
|  9> C 2.0991086139 -0.9188890987 -2.1060210829
| 10> O 2.8619091675 -1.4127661173 -2.9053695188
| 11> C 1.3347750099 0.3615341991 -2.3723422183
| 12> C 0.3247733707 0.7088567897 -1.2878814592
| 13> H -0.0994696561 1.7014020131 -1.4735226609
| 14> C 0.9373716436 0.7253218837 0.0979095747
| 15> O 0.3758889157 0.2343223009 1.0588641337
| 16> O 2.0790786132 1.350328625 0.1309040459
| 17> C 2.7018334751 1.564143494 1.4167146037
| 18> C 2.1554549623 2.8253963981 2.0648805957
| 19> S -1.0606584733 -0.4772131562 -1.2543813251
| 20> P -2.0653288195 0.2903500673 0.4703562349
| 21> S -1.8081998257 2.1551834533 1.0256037338
| 22> O -3.5789983241 0.2446099755 -0.0291421278
| 23> C -4.2147823462 -0.9373890741 -0.5391840684
| 24> O -2.1758680462 -0.8794977259 1.5515223899
| 25> C -1.2096081352 -1.4987300765 2.3972781765
| 26> H 2.5722614669 -1.9794323223 1.5690824012
| 27> H 3.7074069854 -3.2762953621 1.168236547
| 28> H 4.0457513765 -1.6167410577 0.6574341956
| 29> H 1.7354724514 -3.3703776309 -0.3412364784
| 30> H 3.1946301185 -2.9371690308 -1.2794107985
| 31> H 0.8369838658 0.261164291 -3.3380713373
| 32> H 2.0678575029 1.1675954933 -2.4549309266
| 33> H 2.5168326513 0.6899975828 2.0455325642
| 34> H 3.7639734021 1.6576580204 1.1910943981
| 35> H 2.3484396148 3.6878520339 1.4333444636
| 36> H 1.079624688 2.7394958951 2.2114570802
| 37> H 2.6326801576 2.971899068 3.027969321
| 38> H -4.3951209128 -1.6398714981 0.2723174113
| 39> H -3.58916908 -1.398719365 -1.3045433243
| 40> H -5.1531868598 -0.5953612613 -0.9683859896
| 41> H -0.7412947356 -0.7612012839 3.046065033
| 42> H -0.4494228621 -1.9965185903 1.7974648648
| 43> H -1.7751464733 -2.2226019598 2.9809213492
| 44> *
| 45>
| 46>                          ****END OF INPUT****

CARTESIAN COORDINATES (ANGSTROEM)
---------------------------------
  C      3.261354   -2.352480    0.815298
  C      2.517200   -2.620155   -0.481695
  O      1.846529   -1.417370   -0.907779
  C      2.099109   -0.918889   -2.106021
  O      2.861909   -1.412766   -2.905370
  C      1.334775    0.361534   -2.372342
  C      0.324773    0.708857   -1.287881
  H     -0.099470    1.701402   -1.473523
  C      0.937372    0.725322    0.097910
  O      0.375889    0.234322    1.058864
  O      2.079079    1.350329    0.130904
  C      2.701833    1.564143    1.416715
  C      2.155455    2.825396    2.064881
  S     -1.060658   -0.477213   -1.254381
  P     -2.065329    0.290350    0.470356
  S     -1.808200    2.155183    1.025604
  O     -3.578998    0.244610   -0.029142
  C     -4.214782   -0.937389   -0.539184
  O     -2.175868   -0.879498    1.551522
  C     -1.209608   -1.498730    2.397278
  H      2.572261   -1.979432    1.569082
  H      3.707407   -3.276295    1.168237
  H      4.045751   -1.616741    0.657434
  H      1.735472   -3.370378   -0.341236
  H      3.194630   -2.937169   -1.279411
  H      0.836984    0.261164   -3.338071
  H      2.067858    1.167595   -2.454931
  H      2.516833    0.689998    2.045533
  H      3.763973    1.657658    1.191094
  H      2.348440    3.687852    1.433344
  H      1.079625    2.739496    2.211457
  H      2.632680    2.971899    3.027969
  H     -4.395121   -1.639871    0.272317
  H     -3.589169   -1.398719   -1.304543
  H     -5.153187   -0.595361   -0.968386
  H     -0.741295   -0.761201    3.046065
  H     -0.449423   -1.996519    1.797465
  H     -1.775146   -2.222602    2.980921

 Total Charge           Charge          ....    0
 Multiplicity           Mult            ....    1
 Number of Electrons    NEL             ....  174
 Basis Dimension        Dim             ....  316

ORBITAL ENERGIES
----------------

  NO   OCC          E(Eh)            E(eV)
   0   2.0000     -88.033169     -2395.5043
   1   2.0000     -87.964803     -2393.6440
   2   2.0000     -76.418804     -2079.4614
   3   2.0000     -18.824279      -512.2347
   4   2.0000     -18.815620      -511.9991
   5   2.0000     -18.785325      -511.1747
   6   2.0000     -18.769761      -510.7512
   7   2.0000     -18.758342      -510.4404
   8   2.0000     -18.742624      -510.0127
   9   2.0000     -10.030048      -272.9315
  10   2.0000     -10.020948      -272.6839
  11   2.0000      -9.960704      -271.0445
  12   2.0000      -9.956591      -270.9326
  13   2.0000      -9.950994      -270.7803
  14   2.0000      -9.940999      -270.5083
  15   2.0000      -9.937500      -270.4131
  16   2.0000      -9.924404      -270.0568
  17   2.0000      -9.899420      -269.3769
  18   2.0000      -9.888779      -269.0874
  19   2.0000      -7.678073      -208.9310
  20   2.0000      -7.610240      -207.0852
  21   2.0000      -6.413996      -174.5337
  22   2.0000      -5.705996      -155.2680
  23   2.0000      -5.702920      -155.1844
  24   2.0000      -5.694696      -154.9605
  25   2.0000      -5.639750      -153.4654
  26   2.0000      -5.631070      -153.2292
  27   2.0000      -5.629513      -153.1868
  28   2.0000      -4.636936      -126.1775
  29   2.0000      -4.636184      -126.1570
  30   2.0000      -4.634242      -126.1041
  31   2.0000      -1.035082       -28.1660
  32   2.0000      -1.019693       -27.7472
  33   2.0000      -0.972182       -26.4544
  34   2.0000      -0.938631       -25.5415
  35   2.0000      -0.925174       -25.1753
  36   2.0000      -0.923189       -25.1213
  37   2.0000      -0.772802       -21.0290
  38   2.0000      -0.718088       -19.5402
  39   2.0000      -0.713578       -19.4174
  40   2.0000      -0.692878       -18.8542
  41   2.0000      -0.661652       -18.0045
  42   2.0000      -0.631387       -17.1809
  43   2.0000      -0.626626       -17.0514
  44   2.0000      -0.603805       -16.4304
  45   2.0000      -0.601354       -16.3637
  46   2.0000      -0.573066       -15.5939
  47   2.0000      -0.516927       -14.0663
  48   2.0000      -0.514107       -13.9895
  49   2.0000      -0.508128       -13.8269
  50   2.0000      -0.490077       -13.3357
  51   2.0000      -0.470511       -12.8032
  52   2.0000      -0.468172       -12.7396
  53   2.0000      -0.455142       -12.3850
  54   2.0000      -0.445587       -12.1250
  55   2.0000      -0.433577       -11.7982
  56   2.0000      -0.426494       -11.6055
  57   2.0000      -0.418164       -11.3788
  58   2.0000      -0.412762       -11.2318
  59   2.0000      -0.411383       -11.1943
  60   2.0000      -0.405506       -11.0344
  61   2.0000      -0.403470       -10.9790
  62   2.0000      -0.393535       -10.7086
  63   2.0000      -0.389792       -10.6068
  64   2.0000      -0.377890       -10.2829
  65   2.0000      -0.374394       -10.1878
  66   2.0000      -0.367977       -10.0132
  67   2.0000      -0.360077        -9.7982
  68   2.0000      -0.354654        -9.6506
  69   2.0000      -0.349324        -9.5056
  70   2.0000      -0.338227        -9.2036
  71   2.0000      -0.336984        -9.1698
  72   2.0000      -0.328144        -8.9293
  73   2.0000      -0.311713        -8.4821
  74   2.0000      -0.309085        -8.4106
  75   2.0000      -0.301796        -8.2123
  76   2.0000      -0.292855        -7.9690
  77   2.0000      -0.280735        -7.6392
  78   2.0000      -0.280561        -7.6345
  79   2.0000      -0.268157        -7.2969
  80   2.0000      -0.260411        -7.0861
  81   2.0000      -0.256090        -6.9686
  82   2.0000      -0.245579        -6.6825
  83   2.0000      -0.231256        -6.2928
  84   2.0000      -0.209674        -5.7055
  85   2.0000      -0.188112        -5.1188
  86   2.0000      -0.175654        -4.7798
  87   0.0000      -0.043290        -1.1780
  88   0.0000      -0.038253        -1.0409
  89   0.0000      -0.029380        -0.7995
  90   0.0000       0.003121         0.0849
  91   0.0000       0.019761         0.5377

MULLIKEN ATOMIC CHARGES
-----------------------
   0 C :   -0.315119
   1 C :   -0.021060
   2 O :   -0.238807
   3 C :    0.111617
   4 O :   -0.193343
   5 C :   -0.116538
   6 C :   -0.261124
   7 H :    0.155390
   8 C :    0.237989
   9 O :   -0.206978
  10 O :   -0.224643
  11 C :   -0.025909
  12 C :   -0.308521
  13 S :   -0.125445
  14 P :    0.644611
  15 S :   -0.343242
  16 O :   -0.368850
  17 C :   -0.109054
  18 O :   -0.397790
  19 C :   -0.080338
  20 H :    0.134907
  21 H :    0.116750
  22 H :    0.116615
  23 H :    0.110540
  24 H :    0.122069
  25 H :    0.140787
  26 H :    0.143446
  27 H :    0.115272
  28 H :    0.106995
  29 H :    0.115620
  30 H :    0.146169
  31 H :    0.112502
  32 H :    0.114581
  33 H :    0.114391
  34 H :    0.127517
  35 H :    0.119604
  36 H :    0.113266
  37 H :    0.116121
Sum of atomic charges:   -0.0000000

LOEWDIN ATOMIC CHARGES
----------------------
   0 C :   -0.354288
   1 C :   -0.109091
   2 O :   -0.049591
   3 C :    0.032695
   4 O :   -0.160297
   5 C :   -0.247495
   6 C :   -0.267696
   7 H :    0.149669
   8 C :    0.019060
   9 O :   -0.160030
  10 O :   -0.036375
  11 C :   -0.106531
  12 C :   -0.358445
  13 S :    0.075766
  14 P :    0.587011
  15 S :   -0.336828
  16 O :   -0.254643
  17 C :   -0.214629
  18 O :   -0.250248
  19 C :   -0.203984
  20 H :    0.126035
  21 H :    0.132652
  22 H :    0.126222
  23 H :    0.119933
  24 H :    0.123979
  25 H :    0.152160
  26 H :    0.157528
  27 H :    0.119561
  28 H :    0.119173
  29 H :    0.126724
  30 H :    0.134026
  31 H :    0.131254
  32 H :    0.111321
  33 H :    0.101636
  34 H :    0.123854
  35 H :    0.115561
  36 H :    0.108274
  37 H :    0.116075

  Mayer bond orders larger than 0.100000
B(  0-C ,  1-C ) :   1.1711 B(  0-C , 20-H ) :   0.9404 B(  0-C , 21-H ) :   0.9417
B(  0-C , 22-H ) :   0.9481 B(  1-C ,  2-O ) :   0.9028 B(  1-C , 23-H ) :   0.9321
B(  1-C , 24-H ) :   0.9069 B(  2-O ,  3-C ) :   1.2119 B(  3-C ,  4-O ) :   2.0761
B(  3-C ,  5-C ) :   1.0000 B(  5-C ,  6-C ) :   1.0599 B(  5-C , 25-H ) :   0.8974
B(  5-C , 26-H ) :   0.8821 B(  6-C ,  7-H ) :   0.8489 B(  6-C ,  8-C ) :   0.8877
B(  6-C , 13-S ) :   1.0405 B(  8-C ,  9-O ) :   1.9071 B(  8-C , 10-O ) :   1.2771
B(  9-O , 14-P ) :   0.1202 B( 10-O , 11-C ) :   0.8967 B( 11-C , 12-C ) :   1.1775
B( 11-C , 27-H ) :   0.9117 B( 11-C , 28-H ) :   0.9357 B( 12-C , 29-H ) :   0.9479
B( 12-C , 30-H ) :   0.9294 B( 12-C , 31-H ) :   0.9413 B( 13-S , 14-P ) :   0.9173
B( 13-S , 15-S ) :   0.1099 B( 14-P , 15-S ) :   1.5846 B( 14-P , 16-O ) :   1.0956
B( 14-P , 18-O ) :   1.0819 B( 16-O , 17-C ) :   0.9375 B( 17-C , 32-H ) :   0.9482
B( 17-C , 33-H ) :   0.9362 B( 17-C , 34-H ) :   0.9610 B( 18-O , 19-C ) :   0.9315
B( 19-C , 35-H ) :   0.9503 B( 19-C , 36-H ) :   0.9490 B( 19-C , 37-H ) :   0.9523

Dispersion correction           -0.053737254
FINAL SINGLE POINT ENERGY     -1979.004765981656

DIPOLE MOMENT
-------------

Method             : SCF
Type of density    : Electron Density
Multiplicity       :   1
Irrep              :   0
Energy             : -1979.1355515811337682 Eh
Relativity type    :
Basis              : AO
                                X                 Y                 Z
Electronic contribution:    -14.183253103       5.715199797      -8.596676956
Nuclear contribution   :     15.364304082      -6.825395412       9.177692557
                        -----------------------------------------
Total Dipole Moment    :      1.181050979      -1.110195615       0.581015601
                        -----------------------------------------
Magnitude (a.u.)       :      1.721916039
Magnitude (Debye)      :      4.376762745

Rotational constants in cm-1:             0.013179             0.007801             0.006651
Rotational constants in MHz :           395.106760           233.881520           199.380328

                             ****ORCA TERMINATED NORMALLY****
TOTAL RUN TIME: 0 days 0 hours 0 minutes 40 seconds 838 msec
