                         Program Version 6.0.0  -   RELEASE  -
|  1> ! r2scan-3c def2/J RI DEFGRID2 scfconv6 printgap
|  2> %output
|  3>     printlevel normal
|  4> end
|  5> * xyz 0 1
|  6> C 3.3290691532 0.0352530947 -2.621963288
|  7> C 1.9173690671 0.4141988231 -2.2314767432
|  8> O 1.3727075872 -0.4873948401 -1.2480219901
|  9> P 1.9601188098 -0.5976536006 0.2151037819
| 10> S 2.6487179864 1.0401088667 1.0527673574
| 11> O 3.009803081 -1.7768323405 0.0157988667
| 12> C 3.8401401317 -2.2562911868 1.0921427172
| 13> C 5.2076800243 -1.6022714474 1.0496995845
| 14> S 0.427838041 -1.5940843741 1.2606521318
| 15> C -0.3281442366 -0.2097576839 2.1797164663
| 16> S -2.0741346755 0.0148292471 1.7823311986
| 17> P -1.8301139789 0.7302392648 -0.2065812361
| 18> S -0.4964053026 2.1442945853 -0.4263602083
| 19> O -3.3148206343 1.1300212475 -0.5986426562
| 20> C -3.9548341048 2.2823323243 -0.0104473133
| 21> C -5.2084256026 2.5747473526 -0.8091902258
| 22> O -1.5416306045 -0.5144696553 -1.1221502229
| 23> C -2.371690668 -1.7050399523 -1.1541770457
| 24> C -3.3674361267 -1.6330399993 -2.2923201239
| 25> H 3.6633941005 0.6805975985 -3.4282671322
| 26> H 3.9924587961 0.1625939194 -1.7671442168
| 27> H 3.36329132 -1.0021484351 -2.9443917892
| 28> H 1.221032732 0.3336804411 -3.0676182261
| 29> H 1.8804443493 1.4315314526 -1.8270895899
| 30> H 3.3434887439 -2.0614236276 2.0470457461
| 31> H 3.9078191829 -3.3335496514 0.9302259327
| 32> H 5.8282519336 -2.0201652454 1.835610321
| 33> H 5.6778155111 -1.7801155649 0.0866156821
| 34> H 5.1149385425 -0.5294444864 1.2048439035
| 35> H 0.2288769984 0.7052283684 1.9572194252
| 36> H -0.2868017535 -0.4467247545 3.2396130196
| 37> H -4.1884044322 2.0474372711 1.0313310784
| 38> H -3.2523024646 3.1215179674 -0.0395004796
| 39> H -5.7066336097 3.4390675587 -0.3827367113
| 40> H -4.9520426653 2.7836893829 -1.8439734253
| 41> H -5.8788945412 1.7210434955 -0.7754689467
| 42> H -1.6615333154 -2.5234385701 -1.2887323905
| 43> H -2.8765164743 -1.8113999016 -0.1898346017
| 44> H -3.929530677 -2.56105826 -2.3280072773
| 45> H -4.0518682694 -0.8027349307 -2.1410217056
| 46> H -2.8474247551 -1.4914684604 -3.2357748641
| 47> *
| 48>
| 49>                          ****END OF INPUT****

CARTESIAN COORDINATES (ANGSTROEM)
---------------------------------
  C      3.329069    0.035253   -2.621963
  C      1.917369    0.414199   -2.231477
  O      1.372708   -0.487395   -1.248022
  P      1.960119   -0.597654    0.215104
  S      2.648718    1.040109    1.052767
  O      3.009803   -1.776832    0.015799
  C      3.840140   -2.256291    1.092143
  C      5.207680   -1.602271    1.049700
  S      0.427838   -1.594084    1.260652
  C     -0.328144   -0.209758    2.179716
  S     -2.074135    0.014829    1.782331
  P     -1.830114    0.730239   -0.206581
  S     -0.496405    2.144295   -0.426360
  O     -3.314821    1.130021   -0.598643
  C     -3.954834    2.282332   -0.010447
  C     -5.208426    2.574747   -0.809190
  O     -1.541631   -0.514470   -1.122150
  C     -2.371691   -1.705040   -1.154177
  C     -3.367436   -1.633040   -2.292320
  H      3.663394    0.680598   -3.428267
  H      3.992459    0.162594   -1.767144
  H      3.363291   -1.002148   -2.944392
  H      1.221033    0.333680   -3.067618
  H      1.880444    1.431531   -1.827090
  H      3.343489   -2.061424    2.047046
  H      3.907819   -3.333550    0.930226
  H      5.828252   -2.020165    1.835610
  H      5.677816   -1.780116    0.086616
  H      5.114939   -0.529444    1.204844
  H      0.228877    0.705228    1.957219
  H     -0.286802   -0.446725    3.239613
  H     -4.188404    2.047437    1.031331
  H     -3.252302    3.121518   -0.039500
  H     -5.706634    3.439068   -0.382737
  H     -4.952043    2.783689   -1.843973
  H     -5.878895    1.721043   -0.775469
  H     -1.661533   -2.523439   -1.288732
  H     -2.876516   -1.811400   -0.189835
  H     -3.929531   -2.561058   -2.328007
  H     -4.051868   -0.802735   -2.141022
  H     -2.847425   -1.491468   -3.235775

 Total Charge           Charge          ....    0
 Multiplicity           Mult            ....    1
 Number of Electrons    NEL             ....  202
 Basis Dimension        Dim             ....  539

ORBITAL ENERGIES
----------------

  NO   OCC          E(Eh)            E(eV)
   0   2.0000     -88.575134     -2410.2519
   1   2.0000     -88.572464     -2410.1793
   2   2.0000     -88.513105     -2408.5640
   3   2.0000     -88.512223     -2408.5400
   4   2.0000     -76.910586     -2092.8434
   5   2.0000     -76.907904     -2092.7705
   6   2.0000     -18.993688      -516.8445
   7   2.0000     -18.989549      -516.7319
   8   2.0000     -18.985619      -516.6249
   9   2.0000     -18.979156      -516.4491
  10   2.0000     -10.104559      -274.9590
  11   2.0000     -10.100515      -274.8490
  12   2.0000     -10.099312      -274.8162
  13   2.0000     -10.095666      -274.7170
  14   2.0000     -10.084648      -274.4172
  15   2.0000     -10.035460      -273.0788
  16   2.0000     -10.030349      -272.9397
  17   2.0000     -10.022411      -272.7237
  18   2.0000     -10.019650      -272.6485
  19   2.0000      -7.869659      -214.1443
  20   2.0000      -7.867008      -214.0722
  21   2.0000      -7.807883      -212.4633
  22   2.0000      -7.807070      -212.4412
  23   2.0000      -6.589154      -179.3000
  24   2.0000      -6.586238      -179.2206
  25   2.0000      -5.816445      -158.2735
  26   2.0000      -5.813802      -158.2016
  27   2.0000      -5.813304      -158.1880
  28   2.0000      -5.810824      -158.1205
  29   2.0000      -5.807035      -158.0175
  30   2.0000      -5.804194      -157.9401
  31   2.0000      -5.755529      -156.6159
  32   2.0000      -5.754874      -156.5981
  33   2.0000      -5.748350      -156.4205
  34   2.0000      -5.747707      -156.4031
  35   2.0000      -5.747231      -156.3901
  36   2.0000      -5.747026      -156.3845
  37   2.0000      -4.734979      -128.8453
  38   2.0000      -4.734279      -128.8263
  39   2.0000      -4.732379      -128.7746
  40   2.0000      -4.731615      -128.7538
  41   2.0000      -4.731099      -128.7398
  42   2.0000      -4.730172      -128.7145
  43   2.0000      -1.051016       -28.5996
  44   2.0000      -1.042383       -28.3647
  45   2.0000      -1.010560       -27.4987
  46   2.0000      -1.001892       -27.2629
  47   2.0000      -0.798227       -21.7209
  48   2.0000      -0.757749       -20.6194
  49   2.0000      -0.746034       -20.3006
  50   2.0000      -0.736957       -20.0536
  51   2.0000      -0.723832       -19.6965
  52   2.0000      -0.707404       -19.2495
  53   2.0000      -0.681743       -18.5512
  54   2.0000      -0.662120       -18.0172
  55   2.0000      -0.624099       -16.9826
  56   2.0000      -0.618473       -16.8295
  57   2.0000      -0.603853       -16.4317
  58   2.0000      -0.598563       -16.2877
  59   2.0000      -0.591432       -16.0937
  60   2.0000      -0.533239       -14.5102
  61   2.0000      -0.517310       -14.0767
  62   2.0000      -0.500108       -13.6086
  63   2.0000      -0.485593       -13.2137
  64   2.0000      -0.465309       -12.6617
  65   2.0000      -0.463524       -12.6131
  66   2.0000      -0.453496       -12.3403
  67   2.0000      -0.451552       -12.2874
  68   2.0000      -0.448914       -12.2156
  69   2.0000      -0.429185       -11.6787
  70   2.0000      -0.419759       -11.4222
  71   2.0000      -0.412499       -11.2247
  72   2.0000      -0.406181       -11.0527
  73   2.0000      -0.398199       -10.8355
  74   2.0000      -0.397124       -10.8063
  75   2.0000      -0.384114       -10.4523
  76   2.0000      -0.379693       -10.3320
  77   2.0000      -0.372387       -10.1332
  78   2.0000      -0.368413       -10.0250
  79   2.0000      -0.366320        -9.9681
  80   2.0000      -0.359784        -9.7902
  81   2.0000      -0.356271        -9.6946
  82   2.0000      -0.352183        -9.5834
  83   2.0000      -0.347841        -9.4652
  84   2.0000      -0.342660        -9.3243
  85   2.0000      -0.330045        -8.9810
  86   2.0000      -0.322643        -8.7796
  87   2.0000      -0.316410        -8.6099
  88   2.0000      -0.307090        -8.3563
  89   2.0000      -0.304999        -8.2994
  90   2.0000      -0.292685        -7.9644
  91   2.0000      -0.287445        -7.8218
  92   2.0000      -0.278590        -7.5808
  93   2.0000      -0.275266        -7.4904
  94   2.0000      -0.270792        -7.3686
  95   2.0000      -0.248571        -6.7640
  96   2.0000      -0.233299        -6.3484
  97   2.0000      -0.225065        -6.1243
  98   2.0000      -0.214388        -5.8338
  99   2.0000      -0.203859        -5.5473
 100   2.0000      -0.196014        -5.3338
 101   0.0000      -0.039998        -1.0884
 102   0.0000      -0.029215        -0.7950
 103   0.0000      -0.004797        -0.1305
 104   0.0000       0.017348         0.4721
 105   0.0000       0.019266         0.5243

MULLIKEN ATOMIC CHARGES
-----------------------
   0 C :   -0.453904
   1 C :   -0.146150
   2 O :   -0.267525
   3 P :    0.640784
   4 S :   -0.457989
   5 O :   -0.290021
   6 C :   -0.128693
   7 C :   -0.462616
   8 S :   -0.143513
   9 C :   -0.211165
  10 S :   -0.180635
  11 P :    0.675424
  12 S :   -0.421923
  13 O :   -0.295881
  14 C :   -0.160519
  15 C :   -0.440734
  16 O :   -0.257606
  17 C :   -0.113440
  18 C :   -0.460359
  19 H :    0.146083
  20 H :    0.167788
  21 H :    0.155599
  22 H :    0.154292
  23 H :    0.181787
  24 H :    0.153246
  25 H :    0.148730
  26 H :    0.143716
  27 H :    0.150866
  28 H :    0.184369
  29 H :    0.219005
  30 H :    0.194477
  31 H :    0.149173
  32 H :    0.173844
  33 H :    0.148085
  34 H :    0.159552
  35 H :    0.150534
  36 H :    0.164266
  37 H :    0.163530
  38 H :    0.146190
  39 H :    0.165178
  40 H :    0.156150
Sum of atomic charges:    0.0000000

LOEWDIN ATOMIC CHARGES
----------------------
   0 C :   -0.401602
   1 C :    0.013584
   2 O :   -0.661275
   3 P :    0.370473
   4 S :   -0.126202
   5 O :   -0.667444
   6 C :    0.018436
   7 C :   -0.403078
   8 S :    0.168086
   9 C :   -0.413536
  10 S :    0.118134
  11 P :    0.374151
  12 S :   -0.073544
  13 O :   -0.675377
  14 C :    0.019542
  15 C :   -0.386191
  16 O :   -0.651137
  17 C :    0.018427
  18 C :   -0.393525
  19 H :    0.158757
  20 H :    0.164965
  21 H :    0.160129
  22 H :    0.182654
  23 H :    0.184715
  24 H :    0.176123
  25 H :    0.177391
  26 H :    0.157509
  27 H :    0.157198
  28 H :    0.169120
  29 H :    0.202743
  30 H :    0.180022
  31 H :    0.171601
  32 H :    0.182204
  33 H :    0.160781
  34 H :    0.162149
  35 H :    0.158143
  36 H :    0.183368
  37 H :    0.177093
  38 H :    0.158501
  39 H :    0.166047
  40 H :    0.160865

  Mayer bond orders larger than 0.100000
B(  0-C ,  1-C ) :   0.9102 B(  0-C , 19-H ) :   0.9614 B(  0-C , 20-H ) :   0.9607
B(  0-C , 21-H ) :   0.9726 B(  1-C ,  2-O ) :   0.8027 B(  1-C , 22-H ) :   0.9619
B(  1-C , 23-H ) :   0.9625 B(  2-O ,  3-P ) :   1.1863 B(  3-P ,  4-S ) :   1.7618
B(  3-P ,  5-O ) :   1.0492 B(  3-P ,  8-S ) :   1.1191 B(  5-O ,  6-C ) :   0.7849
B(  6-C ,  7-C ) :   0.9489 B(  6-C , 24-H ) :   0.9653 B(  6-C , 25-H ) :   0.9646
B(  7-C , 26-H ) :   0.9646 B(  7-C , 27-H ) :   0.9742 B(  7-C , 28-H ) :   0.9589
B(  8-S ,  9-C ) :   0.8962 B(  9-C , 10-S ) :   0.9191 B(  9-C , 29-H ) :   0.9045
B(  9-C , 30-H ) :   0.9142 B( 10-S , 11-P ) :   0.9939 B( 11-P , 12-S ) :   1.8383
B( 11-P , 13-O ) :   1.0548 B( 11-P , 16-O ) :   1.1415 B( 13-O , 14-C ) :   0.7905
B( 14-C , 15-C ) :   0.9561 B( 14-C , 31-H ) :   0.9425 B( 14-C , 32-H ) :   0.9494
B( 15-C , 33-H ) :   0.9631 B( 15-C , 34-H ) :   0.9711 B( 15-C , 35-H ) :   0.9718
B( 16-O , 17-C ) :   0.7375 B( 17-C , 18-C ) :   0.9366 B( 17-C , 36-H ) :   0.9613
B( 17-C , 37-H ) :   0.9641 B( 18-C , 38-H ) :   0.9664 B( 18-C , 39-H ) :   0.9662
B( 18-C , 40-H ) :   0.9735

Dispersion correction           -0.021799385
FINAL SINGLE POINT ENERGY     -2932.460405415425

DIPOLE MOMENT
-------------

Method             : SCF
Type of density    : Electron Density
Multiplicity       :   1
Irrep              :   0
Energy             : -2932.4851317415996164 Eh
Relativity type    :
Basis              : AO
                                X                 Y                 Z
Electronic contribution:      0.520161060       2.806114102      12.028193640
Nuclear contribution   :     -1.460781251      -3.883197040     -12.285367982
                        -----------------------------------------
Total Dipole Moment    :     -0.940620191      -1.077082938      -0.257174342
                        -----------------------------------------
Magnitude (a.u.)       :      1.452932428
Magnitude (Debye)      :      3.693060740

Rotational constants in cm-1:             0.013949             0.004825             0.004731
Rotational constants in MHz :           418.189901           144.639881           141.834847

                             ****ORCA TERMINATED NORMALLY****
TOTAL RUN TIME: 0 days 0 hours 1 minutes 20 seconds 269 msec
