                         Program Version 6.0.0  -   RELEASE  -
|  1> ! r2scan-3c def2/J RI DEFGRID2 scfconv6 printgap
|  2> %output
|  3>     printlevel normal
|  4> end
|  5> %cpcm
|  6>     smd true
|  7>     smdsolvent "water"
|  8> end
|  9> * xyz 0 1
| 10> C 3.3290691532 0.0352530947 -2.621963288
| 11> C 1.9173690671 0.4141988231 -2.2314767432
| 12> O 1.3727075872 -0.4873948401 -1.2480219901
| 13> P 1.9601188098 -0.5976536006 0.2151037819
| 14> S 2.6487179864 1.0401088667 1.0527673574
| 15> O 3.009803081 -1.7768323405 0.0157988667
| 16> C 3.8401401317 -2.2562911868 1.0921427172
| 17> C 5.2076800243 -1.6022714474 1.0496995845
| 18> S 0.427838041 -1.5940843741 1.2606521318
| 19> C -0.3281442366 -0.2097576839 2.1797164663
| 20> S -2.0741346755 0.0148292471 1.7823311986
| 21> P -1.8301139789 0.7302392648 -0.2065812361
| 22> S -0.4964053026 2.1442945853 -0.4263602083
| 23> O -3.3148206343 1.1300212475 -0.5986426562
| 24> C -3.9548341048 2.2823323243 -0.0104473133
| 25> C -5.2084256026 2.5747473526 -0.8091902258
| 26> O -1.5416306045 -0.5144696553 -1.1221502229
| 27> C -2.371690668 -1.7050399523 -1.1541770457
| 28> C -3.3674361267 -1.6330399993 -2.2923201239
| 29> H 3.6633941005 0.6805975985 -3.4282671322
| 30> H 3.9924587961 0.1625939194 -1.7671442168
| 31> H 3.36329132 -1.0021484351 -2.9443917892
| 32> H 1.221032732 0.3336804411 -3.0676182261
| 33> H 1.8804443493 1.4315314526 -1.8270895899
| 34> H 3.3434887439 -2.0614236276 2.0470457461
| 35> H 3.9078191829 -3.3335496514 0.9302259327
| 36> H 5.8282519336 -2.0201652454 1.835610321
| 37> H 5.6778155111 -1.7801155649 0.0866156821
| 38> H 5.1149385425 -0.5294444864 1.2048439035
| 39> H 0.2288769984 0.7052283684 1.9572194252
| 40> H -0.2868017535 -0.4467247545 3.2396130196
| 41> H -4.1884044322 2.0474372711 1.0313310784
| 42> H -3.2523024646 3.1215179674 -0.0395004796
| 43> H -5.7066336097 3.4390675587 -0.3827367113
| 44> H -4.9520426653 2.7836893829 -1.8439734253
| 45> H -5.8788945412 1.7210434955 -0.7754689467
| 46> H -1.6615333154 -2.5234385701 -1.2887323905
| 47> H -2.8765164743 -1.8113999016 -0.1898346017
| 48> H -3.929530677 -2.56105826 -2.3280072773
| 49> H -4.0518682694 -0.8027349307 -2.1410217056
| 50> H -2.8474247551 -1.4914684604 -3.2357748641
| 51> *
| 52>
| 53>                          ****END OF INPUT****

CARTESIAN COORDINATES (ANGSTROEM)
---------------------------------
  C      3.329069    0.035253   -2.621963
  C      1.917369    0.414199   -2.231477
  O      1.372708   -0.487395   -1.248022
  P      1.960119   -0.597654    0.215104
  S      2.648718    1.040109    1.052767
  O      3.009803   -1.776832    0.015799
  C      3.840140   -2.256291    1.092143
  C      5.207680   -1.602271    1.049700
  S      0.427838   -1.594084    1.260652
  C     -0.328144   -0.209758    2.179716
  S     -2.074135    0.014829    1.782331
  P     -1.830114    0.730239   -0.206581
  S     -0.496405    2.144295   -0.426360
  O     -3.314821    1.130021   -0.598643
  C     -3.954834    2.282332   -0.010447
  C     -5.208426    2.574747   -0.809190
  O     -1.541631   -0.514470   -1.122150
  C     -2.371691   -1.705040   -1.154177
  C     -3.367436   -1.633040   -2.292320
  H      3.663394    0.680598   -3.428267
  H      3.992459    0.162594   -1.767144
  H      3.363291   -1.002148   -2.944392
  H      1.221033    0.333680   -3.067618
  H      1.880444    1.431531   -1.827090
  H      3.343489   -2.061424    2.047046
  H      3.907819   -3.333550    0.930226
  H      5.828252   -2.020165    1.835610
  H      5.677816   -1.780116    0.086616
  H      5.114939   -0.529444    1.204844
  H      0.228877    0.705228    1.957219
  H     -0.286802   -0.446725    3.239613
  H     -4.188404    2.047437    1.031331
  H     -3.252302    3.121518   -0.039500
  H     -5.706634    3.439068   -0.382737
  H     -4.952043    2.783689   -1.843973
  H     -5.878895    1.721043   -0.775469
  H     -1.661533   -2.523439   -1.288732
  H     -2.876516   -1.811400   -0.189835
  H     -3.929531   -2.561058   -2.328007
  H     -4.051868   -0.802735   -2.141022
  H     -2.847425   -1.491468   -3.235775

 Total Charge           Charge          ....    0
 Multiplicity           Mult            ....    1
 Number of Electrons    NEL             ....  202
 Basis Dimension        Dim             ....  539

ORBITAL ENERGIES
----------------

  NO   OCC          E(Eh)            E(eV)
   0   2.0000     -88.579061     -2410.3588
   1   2.0000     -88.578230     -2410.3362
   2   2.0000     -88.524719     -2408.8801
   3   2.0000     -88.523413     -2408.8445
   4   2.0000     -76.917670     -2093.0362
   5   2.0000     -76.917571     -2093.0335
   6   2.0000     -18.995212      -516.8860
   7   2.0000     -18.994910      -516.8778
   8   2.0000     -18.992282      -516.8063
   9   2.0000     -18.989969      -516.7433
  10   2.0000     -10.104858      -274.9672
  11   2.0000     -10.091565      -274.6054
  12   2.0000     -10.091005      -274.5902
  13   2.0000     -10.089739      -274.5558
  14   2.0000     -10.086694      -274.4729
  15   2.0000     -10.019997      -272.6580
  16   2.0000     -10.018341      -272.6129
  17   2.0000     -10.017549      -272.5914
  18   2.0000     -10.016081      -272.5514
  19   2.0000      -7.873502      -214.2489
  20   2.0000      -7.872727      -214.2278
  21   2.0000      -7.819807      -212.7878
  22   2.0000      -7.818614      -212.7553
  23   2.0000      -6.596180      -179.4912
  24   2.0000      -6.596052      -179.4877
  25   2.0000      -5.820298      -158.3784
  26   2.0000      -5.819529      -158.3574
  27   2.0000      -5.817163      -158.2931
  28   2.0000      -5.816555      -158.2765
  29   2.0000      -5.810866      -158.1217
  30   2.0000      -5.809905      -158.0956
  31   2.0000      -5.767390      -156.9387
  32   2.0000      -5.766299      -156.9090
  33   2.0000      -5.760268      -156.7449
  34   2.0000      -5.759641      -156.7278
  35   2.0000      -5.758813      -156.7053
  36   2.0000      -5.758581      -156.6990
  37   2.0000      -4.741952      -129.0351
  38   2.0000      -4.741397      -129.0200
  39   2.0000      -4.741261      -129.0163
  40   2.0000      -4.740920      -129.0070
  41   2.0000      -4.740037      -128.9830
  42   2.0000      -4.739542      -128.9695
  43   2.0000      -1.054261       -28.6879
  44   2.0000      -1.050677       -28.5904
  45   2.0000      -1.013348       -27.5746
  46   2.0000      -1.009871       -27.4800
  47   2.0000      -0.801321       -21.8051
  48   2.0000      -0.756124       -20.5752
  49   2.0000      -0.744706       -20.2645
  50   2.0000      -0.727329       -19.7916
  51   2.0000      -0.721904       -19.6440
  52   2.0000      -0.709513       -19.3068
  53   2.0000      -0.687804       -18.7161
  54   2.0000      -0.670032       -18.2325
  55   2.0000      -0.627667       -17.0797
  56   2.0000      -0.615343       -16.7443
  57   2.0000      -0.600515       -16.3409
  58   2.0000      -0.594416       -16.1749
  59   2.0000      -0.591676       -16.1003
  60   2.0000      -0.531317       -14.4579
  61   2.0000      -0.518284       -14.1032
  62   2.0000      -0.497710       -13.5434
  63   2.0000      -0.489594       -13.3225
  64   2.0000      -0.467748       -12.7281
  65   2.0000      -0.461391       -12.5551
  66   2.0000      -0.454276       -12.3615
  67   2.0000      -0.451733       -12.2923
  68   2.0000      -0.444328       -12.0908
  69   2.0000      -0.430685       -11.7195
  70   2.0000      -0.418075       -11.3764
  71   2.0000      -0.414059       -11.2671
  72   2.0000      -0.404146       -10.9974
  73   2.0000      -0.399307       -10.8657
  74   2.0000      -0.391599       -10.6560
  75   2.0000      -0.385906       -10.5010
  76   2.0000      -0.378779       -10.3071
  77   2.0000      -0.366601        -9.9757
  78   2.0000      -0.363714        -9.8972
  79   2.0000      -0.359516        -9.7829
  80   2.0000      -0.353120        -9.6089
  81   2.0000      -0.351870        -9.5749
  82   2.0000      -0.348668        -9.4877
  83   2.0000      -0.347679        -9.4608
  84   2.0000      -0.342391        -9.3169
  85   2.0000      -0.325945        -8.8694
  86   2.0000      -0.325436        -8.8556
  87   2.0000      -0.314525        -8.5586
  88   2.0000      -0.305014        -8.2999
  89   2.0000      -0.303232        -8.2514
  90   2.0000      -0.296872        -8.0783
  91   2.0000      -0.290286        -7.8991
  92   2.0000      -0.282605        -7.6901
  93   2.0000      -0.279234        -7.5983
  94   2.0000      -0.274425        -7.4675
  95   2.0000      -0.253523        -6.8987
  96   2.0000      -0.241580        -6.5737
  97   2.0000      -0.236362        -6.4317
  98   2.0000      -0.226204        -6.1553
  99   2.0000      -0.214093        -5.8258
 100   2.0000      -0.208095        -5.6625
 101   0.0000      -0.045342        -1.2338
 102   0.0000      -0.036638        -0.9970
 103   0.0000      -0.009669        -0.2631
 104   0.0000       0.009205         0.2505
 105   0.0000       0.014385         0.3914

MULLIKEN ATOMIC CHARGES
-----------------------
   0 C :   -0.496213
   1 C :   -0.144331
   2 O :   -0.297421
   3 P :    0.673329
   4 S :   -0.510201
   5 O :   -0.318118
   6 C :   -0.127273
   7 C :   -0.496799
   8 S :   -0.142320
   9 C :   -0.211856
  10 S :   -0.178572
  11 P :    0.685865
  12 S :   -0.477017
  13 O :   -0.315348
  14 C :   -0.150178
  15 C :   -0.480137
  16 O :   -0.289815
  17 C :   -0.098156
  18 C :   -0.502126
  19 H :    0.171636
  20 H :    0.168902
  21 H :    0.170837
  22 H :    0.177275
  23 H :    0.180561
  24 H :    0.164695
  25 H :    0.175729
  26 H :    0.169088
  27 H :    0.166193
  28 H :    0.173179
  29 H :    0.212097
  30 H :    0.236160
  31 H :    0.168577
  32 H :    0.174015
  33 H :    0.169549
  34 H :    0.166848
  35 H :    0.166189
  36 H :    0.180841
  37 H :    0.175936
  38 H :    0.171334
  39 H :    0.169081
  40 H :    0.167965
Sum of atomic charges:   -0.0000000

LOEWDIN ATOMIC CHARGES
----------------------
   0 C :   -0.403563
   1 C :    0.014330
   2 O :   -0.680989
   3 P :    0.374341
   4 S :   -0.158395
   5 O :   -0.680906
   6 C :    0.023852
   7 C :   -0.406446
   8 S :    0.171969
   9 C :   -0.408274
  10 S :    0.127812
  11 P :    0.375561
  12 S :   -0.114708
  13 O :   -0.682258
  14 C :    0.024031
  15 C :   -0.388962
  16 O :   -0.672435
  17 C :    0.025193
  18 C :   -0.395601
  19 H :    0.168516
  20 H :    0.163215
  21 H :    0.164253
  22 H :    0.190678
  23 H :    0.183419
  24 H :    0.180167
  25 H :    0.188978
  26 H :    0.167006
  27 H :    0.161739
  28 H :    0.162908
  29 H :    0.199590
  30 H :    0.196615
  31 H :    0.179468
  32 H :    0.181805
  33 H :    0.169133
  34 H :    0.163539
  35 H :    0.163196
  36 H :    0.190178
  37 H :    0.182891
  38 H :    0.168878
  39 H :    0.165761
  40 H :    0.163514

  Mayer bond orders larger than 0.100000
B(  0-C ,  1-C ) :   0.9067 B(  0-C , 19-H ) :   0.9546 B(  0-C , 20-H ) :   0.9602
B(  0-C , 21-H ) :   0.9708 B(  1-C ,  2-O ) :   0.7874 B(  1-C , 22-H ) :   0.9502
B(  1-C , 23-H ) :   0.9589 B(  2-O ,  3-P ) :   1.1828 B(  3-P ,  4-S ) :   1.7124
B(  3-P ,  5-O ) :   1.0566 B(  3-P ,  8-S ) :   1.1441 B(  5-O ,  6-C ) :   0.7708
B(  6-C ,  7-C ) :   0.9406 B(  6-C , 24-H ) :   0.9586 B(  6-C , 25-H ) :   0.9539
B(  7-C , 26-H ) :   0.9593 B(  7-C , 27-H ) :   0.9709 B(  7-C , 28-H ) :   0.9632
B(  8-S ,  9-C ) :   0.8903 B(  9-C , 10-S ) :   0.9118 B(  9-C , 29-H ) :   0.9090
B(  9-C , 30-H ) :   0.8981 B( 10-S , 11-P ) :   1.0155 B( 11-P , 12-S ) :   1.8094
B( 11-P , 13-O ) :   1.0659 B( 11-P , 16-O ) :   1.1426 B( 13-O , 14-C ) :   0.7820
B( 14-C , 15-C ) :   0.9559 B( 14-C , 31-H ) :   0.9335 B( 14-C , 32-H ) :   0.9462
B( 15-C , 33-H ) :   0.9575 B( 15-C , 34-H ) :   0.9689 B( 15-C , 35-H ) :   0.9682
B( 16-O , 17-C ) :   0.7268 B( 17-C , 18-C ) :   0.9303 B( 17-C , 36-H ) :   0.9523
B( 17-C , 37-H ) :   0.9544 B( 18-C , 38-H ) :   0.9593 B( 18-C , 39-H ) :   0.9655
B( 18-C , 40-H ) :   0.9716

Dispersion correction           -0.021799385
FINAL SINGLE POINT ENERGY     -2932.469939239757

DIPOLE MOMENT
-------------

Method             : SCF
Type of density    : Electron Density
Multiplicity       :   1
Irrep              :   0
Energy             : -2932.4946655659318822 Eh
Relativity type    :
Basis              : AO
                                X                 Y                 Z
Electronic contribution:      0.158380119       2.248297994      12.253792272
Nuclear contribution   :     -1.460781251      -3.883197040     -12.285367982
                        -----------------------------------------
Total Dipole Moment    :     -1.302401132      -1.634899046      -0.031575710
                        -----------------------------------------
Magnitude (a.u.)       :      2.090488130
Magnitude (Debye)      :      5.313598549

Rotational constants in cm-1:             0.013949             0.004825             0.004731
Rotational constants in MHz :           418.189901           144.639881           141.834847

                             ****ORCA TERMINATED NORMALLY****
TOTAL RUN TIME: 0 days 0 hours 1 minutes 55 seconds 727 msec
