                         Program Version 6.0.0  -   RELEASE  -
|  1> ! r2scan-3c def2/J RI DEFGRID2 scfconv6 printgap
|  2> %output
|  3>     printlevel normal
|  4> end
|  5> * xyz 0 1
|  6> C 4.5068187946 1.2380556261 -1.9525942726
|  7> C 5.0191038017 0.351766508 -0.8346478701
|  8> O 4.0611554952 -0.6511499171 -0.4501974206
|  9> P 2.71465162 -0.2811510927 0.287113282
| 10> S 2.8096918077 1.185873498 1.5898669562
| 11> O 2.4747818807 -1.7266558315 0.8871346519
| 12> C 1.3772337301 -2.0507851824 1.761889253
| 13> C 0.3328769711 -2.868070142 1.0253605311
| 14> S 1.2918642729 -0.0222626251 -1.285218941
| 15> C 0.3052992146 1.3015014601 -0.5310828005
| 16> S -0.8183950586 0.7290797415 0.7712663034
| 17> P -2.4103540793 0.1186318632 -0.520600091
| 18> S -1.9829019813 -1.2287454126 -1.8716589299
| 19> O -2.9135054628 1.4622428283 -1.172764522
| 20> C -3.4272008382 2.5857526456 -0.411135819
| 21> C -4.9372451174 2.5239726022 -0.3124670607
| 22> O -3.57994433 -0.2681263348 0.4800196129
| 23> C -3.6195314077 -1.5353768418 1.1644311871
| 24> C -3.0040105012 -1.4249778304 2.5456157521
| 25> H 4.1518432012 0.631782971 -2.7824064189
| 26> H 3.6857576195 1.8563133692 -1.5920985635
| 27> H 5.3093929914 1.8836284 -2.2947190528
| 28> H 5.2690784081 0.9503490591 0.0473770331
| 29> H 5.8892665132 -0.2269234797 -1.1476410347
| 30> H 1.8244844972 -2.6315919094 2.5713212398
| 31> H 0.9539090028 -1.1280607283 2.1746443719
| 32> H 0.7990723825 -3.7382671352 0.5722586763
| 33> H -0.4276708861 -3.1934979069 1.7278707514
| 34> H -0.1378317811 -2.2860153501 0.2345689801
| 35> H -0.2689505751 1.7541845972 -1.3362311688
| 36> H 0.9728718598 2.0209346532 -0.0562609588
| 37> H -2.9646022794 2.5850212149 0.5794034326
| 38> H -3.1030962652 3.4643093785 -0.9722266915
| 39> H -5.2955644469 3.4162550664 0.1915098896
| 40> H -5.3733255524 2.4737960731 -1.306469916
| 41> H -5.2437604677 1.6462476353 0.2494251143
| 42> H -4.6807705599 -1.783609177 1.223593812
| 43> H -3.1061001401 -2.2831436215 0.5514252378
| 44> H -1.9550791271 -1.1453601669 2.4755092165
| 45> H -3.5254576684 -0.670342861 3.1274208897
| 46> H -3.0855435517 -2.3829334486 3.0490256044
| 47> *
| 48>
| 49>                          ****END OF INPUT****

CARTESIAN COORDINATES (ANGSTROEM)
---------------------------------
  C      4.506819    1.238056   -1.952594
  C      5.019104    0.351767   -0.834648
  O      4.061155   -0.651150   -0.450197
  P      2.714652   -0.281151    0.287113
  S      2.809692    1.185873    1.589867
  O      2.474782   -1.726656    0.887135
  C      1.377234   -2.050785    1.761889
  C      0.332877   -2.868070    1.025361
  S      1.291864   -0.022263   -1.285219
  C      0.305299    1.301501   -0.531083
  S     -0.818395    0.729080    0.771266
  P     -2.410354    0.118632   -0.520600
  S     -1.982902   -1.228745   -1.871659
  O     -2.913505    1.462243   -1.172765
  C     -3.427201    2.585753   -0.411136
  C     -4.937245    2.523973   -0.312467
  O     -3.579944   -0.268126    0.480020
  C     -3.619531   -1.535377    1.164431
  C     -3.004011   -1.424978    2.545616
  H      4.151843    0.631783   -2.782406
  H      3.685758    1.856313   -1.592099
  H      5.309393    1.883628   -2.294719
  H      5.269078    0.950349    0.047377
  H      5.889267   -0.226923   -1.147641
  H      1.824484   -2.631592    2.571321
  H      0.953909   -1.128061    2.174644
  H      0.799072   -3.738267    0.572259
  H     -0.427671   -3.193498    1.727871
  H     -0.137832   -2.286015    0.234569
  H     -0.268951    1.754185   -1.336231
  H      0.972872    2.020935   -0.056261
  H     -2.964602    2.585021    0.579403
  H     -3.103096    3.464309   -0.972227
  H     -5.295564    3.416255    0.191510
  H     -5.373326    2.473796   -1.306470
  H     -5.243760    1.646248    0.249425
  H     -4.680771   -1.783609    1.223594
  H     -3.106100   -2.283144    0.551425
  H     -1.955079   -1.145360    2.475509
  H     -3.525458   -0.670343    3.127421
  H     -3.085544   -2.382933    3.049026

 Total Charge           Charge          ....    0
 Multiplicity           Mult            ....    1
 Number of Electrons    NEL             ....  202
 Basis Dimension        Dim             ....  539

ORBITAL ENERGIES
----------------

  NO   OCC          E(Eh)            E(eV)
   0   2.0000     -88.578049     -2410.3312
   1   2.0000     -88.572801     -2410.1884
   2   2.0000     -88.522024     -2408.8067
   3   2.0000     -88.520698     -2408.7706
   4   2.0000     -76.918313     -2093.0537
   5   2.0000     -76.911583     -2092.8706
   6   2.0000     -19.001817      -517.0657
   7   2.0000     -18.998912      -516.9867
   8   2.0000     -18.989426      -516.7285
   9   2.0000     -18.984841      -516.6038
  10   2.0000     -10.108265      -275.0599
  11   2.0000     -10.107695      -275.0444
  12   2.0000     -10.107674      -275.0438
  13   2.0000     -10.097332      -274.7624
  14   2.0000     -10.093504      -274.6582
  15   2.0000     -10.039652      -273.1928
  16   2.0000     -10.035625      -273.0832
  17   2.0000     -10.027067      -272.8504
  18   2.0000     -10.019995      -272.6579
  19   2.0000      -7.872261      -214.2151
  20   2.0000      -7.866656      -214.0626
  21   2.0000      -7.816866      -212.7077
  22   2.0000      -7.815320      -212.6657
  23   2.0000      -6.596705      -179.5055
  24   2.0000      -6.590244      -179.3297
  25   2.0000      -5.818962      -158.3420
  26   2.0000      -5.816075      -158.2634
  27   2.0000      -5.813607      -158.1963
  28   2.0000      -5.810500      -158.1117
  29   2.0000      -5.809599      -158.0872
  30   2.0000      -5.803785      -157.9290
  31   2.0000      -5.764366      -156.8564
  32   2.0000      -5.763115      -156.8223
  33   2.0000      -5.757287      -156.6637
  34   2.0000      -5.756859      -156.6521
  35   2.0000      -5.755674      -156.6199
  36   2.0000      -5.755136      -156.6052
  37   2.0000      -4.742722      -129.0560
  38   2.0000      -4.741767      -129.0300
  39   2.0000      -4.739815      -128.9769
  40   2.0000      -4.735552      -128.8609
  41   2.0000      -4.735250      -128.8527
  42   2.0000      -4.734051      -128.8201
  43   2.0000      -1.058977       -28.8162
  44   2.0000      -1.049597       -28.5610
  45   2.0000      -1.019193       -27.7337
  46   2.0000      -1.006433       -27.3864
  47   2.0000      -0.800498       -21.7827
  48   2.0000      -0.762311       -20.7435
  49   2.0000      -0.751753       -20.4562
  50   2.0000      -0.743081       -20.2203
  51   2.0000      -0.724824       -19.7235
  52   2.0000      -0.711296       -19.3554
  53   2.0000      -0.687026       -18.6949
  54   2.0000      -0.670009       -18.2319
  55   2.0000      -0.633209       -17.2305
  56   2.0000      -0.628058       -17.0903
  57   2.0000      -0.613975       -16.7071
  58   2.0000      -0.595852       -16.2140
  59   2.0000      -0.592773       -16.1302
  60   2.0000      -0.535581       -14.5739
  61   2.0000      -0.520531       -14.1644
  62   2.0000      -0.507040       -13.7973
  63   2.0000      -0.488226       -13.2853
  64   2.0000      -0.482042       -13.1170
  65   2.0000      -0.470566       -12.8048
  66   2.0000      -0.458994       -12.4899
  67   2.0000      -0.454705       -12.3732
  68   2.0000      -0.444339       -12.0911
  69   2.0000      -0.436886       -11.8883
  70   2.0000      -0.426364       -11.6020
  71   2.0000      -0.415709       -11.3120
  72   2.0000      -0.409245       -11.1361
  73   2.0000      -0.407571       -11.0906
  74   2.0000      -0.399820       -10.8797
  75   2.0000      -0.391512       -10.6536
  76   2.0000      -0.381602       -10.3839
  77   2.0000      -0.378725       -10.3056
  78   2.0000      -0.376807       -10.2534
  79   2.0000      -0.370358       -10.0779
  80   2.0000      -0.367981       -10.0133
  81   2.0000      -0.363854        -9.9010
  82   2.0000      -0.356918        -9.7122
  83   2.0000      -0.349766        -9.5176
  84   2.0000      -0.346561        -9.4304
  85   2.0000      -0.340134        -9.2555
  86   2.0000      -0.326387        -8.8814
  87   2.0000      -0.316834        -8.6215
  88   2.0000      -0.313489        -8.5305
  89   2.0000      -0.309299        -8.4165
  90   2.0000      -0.303050        -8.2464
  91   2.0000      -0.294242        -8.0067
  92   2.0000      -0.282785        -7.6950
  93   2.0000      -0.281935        -7.6718
  94   2.0000      -0.272987        -7.4284
  95   2.0000      -0.253381        -6.8948
  96   2.0000      -0.228759        -6.2248
  97   2.0000      -0.225392        -6.1332
  98   2.0000      -0.221330        -6.0227
  99   2.0000      -0.215300        -5.8586
 100   2.0000      -0.207562        -5.6480
 101   0.0000      -0.044984        -1.2241
 102   0.0000      -0.031519        -0.8577
 103   0.0000      -0.010088        -0.2745
 104   0.0000       0.000882         0.0240
 105   0.0000       0.005750         0.1565

MULLIKEN ATOMIC CHARGES
-----------------------
   0 C :   -0.436634
   1 C :   -0.150230
   2 O :   -0.315487
   3 P :    0.678513
   4 S :   -0.472266
   5 O :   -0.287713
   6 C :   -0.123519
   7 C :   -0.460200
   8 S :   -0.088055
   9 C :   -0.245731
  10 S :   -0.193829
  11 P :    0.652961
  12 S :   -0.398867
  13 O :   -0.298979
  14 C :   -0.107096
  15 C :   -0.460323
  16 O :   -0.286139
  17 C :   -0.161699
  18 C :   -0.433444
  19 H :    0.158216
  20 H :    0.166684
  21 H :    0.146981
  22 H :    0.172256
  23 H :    0.150206
  24 H :    0.149909
  25 H :    0.160165
  26 H :    0.152795
  27 H :    0.140644
  28 H :    0.189263
  29 H :    0.198206
  30 H :    0.220239
  31 H :    0.166736
  32 H :    0.151642
  33 H :    0.147658
  34 H :    0.158591
  35 H :    0.166442
  36 H :    0.153548
  37 H :    0.174467
  38 H :    0.155421
  39 H :    0.157340
  40 H :    0.151330
Sum of atomic charges:    0.0000000

LOEWDIN ATOMIC CHARGES
----------------------
   0 C :   -0.406426
   1 C :    0.023860
   2 O :   -0.648968
   3 P :    0.387070
   4 S :   -0.132376
   5 O :   -0.647095
   6 C :    0.019625
   7 C :   -0.410045
   8 S :    0.153686
   9 C :   -0.423720
  10 S :    0.114230
  11 P :    0.370960
  12 S :   -0.085110
  13 O :   -0.659333
  14 C :    0.023080
  15 C :   -0.392277
  16 O :   -0.669364
  17 C :    0.022537
  18 C :   -0.401309
  19 H :    0.162236
  20 H :    0.161850
  21 H :    0.158472
  22 H :    0.179192
  23 H :    0.180786
  24 H :    0.177349
  25 H :    0.177423
  26 H :    0.160893
  27 H :    0.156036
  28 H :    0.171458
  29 H :    0.187616
  30 H :    0.194384
  31 H :    0.177737
  32 H :    0.179685
  33 H :    0.159498
  34 H :    0.162146
  35 H :    0.166830
  36 H :    0.180303
  37 H :    0.182858
  38 H :    0.162462
  39 H :    0.160295
  40 H :    0.161466

  Mayer bond orders larger than 0.100000
B(  0-C ,  1-C ) :   0.9192 B(  0-C , 19-H ) :   0.9664 B(  0-C , 20-H ) :   0.9665
B(  0-C , 21-H ) :   0.9596 B(  1-C ,  2-O ) :   0.8179 B(  1-C , 22-H ) :   0.9708
B(  1-C , 23-H ) :   0.9593 B(  2-O ,  3-P ) :   1.1285 B(  3-P ,  4-S ) :   1.7480
B(  3-P ,  5-O ) :   1.1312 B(  3-P ,  8-S ) :   1.0513 B(  5-O ,  6-C ) :   0.7694
B(  6-C ,  7-C ) :   0.9311 B(  6-C , 24-H ) :   0.9658 B(  6-C , 25-H ) :   0.9663
B(  7-C , 26-H ) :   0.9681 B(  7-C , 27-H ) :   0.9659 B(  7-C , 28-H ) :   0.9497
B(  8-S ,  9-C ) :   0.9196 B(  9-C , 10-S ) :   0.8765 B(  9-C , 29-H ) :   0.9175
B(  9-C , 30-H ) :   0.9084 B( 10-S , 11-P ) :   0.9757 B( 11-P , 12-S ) :   1.8948
B( 11-P , 13-O ) :   1.1399 B( 11-P , 16-O ) :   1.0352 B( 13-O , 14-C ) :   0.7546
B( 14-C , 15-C ) :   0.9459 B( 14-C , 31-H ) :   0.9639 B( 14-C , 32-H ) :   0.9586
B( 15-C , 33-H ) :   0.9649 B( 15-C , 34-H ) :   0.9704 B( 15-C , 35-H ) :   0.9675
B( 16-O , 17-C ) :   0.7719 B( 17-C , 18-C ) :   0.9356 B( 17-C , 36-H ) :   0.9651
B( 17-C , 37-H ) :   0.9590 B( 18-C , 38-H ) :   0.9565 B( 18-C , 39-H ) :   0.9701
B( 18-C , 40-H ) :   0.9659

Dispersion correction           -0.021709239
FINAL SINGLE POINT ENERGY     -2932.461323079619

DIPOLE MOMENT
-------------

Method             : SCF
Type of density    : Electron Density
Multiplicity       :   1
Irrep              :   0
Energy             : -2932.4860781344518728 Eh
Relativity type    :
Basis              : AO
                                X                 Y                 Z
Electronic contribution:      9.122128185      -0.697948756      -6.442810152
Nuclear contribution   :     -9.983400769       1.246535992       7.064607560
                        -----------------------------------------
Total Dipole Moment    :     -0.861272584       0.548587235       0.621797408
                        -----------------------------------------
Magnitude (a.u.)       :      1.195562811
Magnitude (Debye)      :      3.038879161

Rotational constants in cm-1:             0.013064             0.004667             0.004272
Rotational constants in MHz :           391.649341           139.899273           128.076733

                             ****ORCA TERMINATED NORMALLY****
TOTAL RUN TIME: 0 days 0 hours 1 minutes 22 seconds 203 msec
