                         Program Version 6.0.0  -   RELEASE  -
|  1> ! r2scan-3c def2/J RI DEFGRID2 scfconv6 printgap
|  2> %output
|  3>     printlevel normal
|  4> end
|  5> %cpcm
|  6>     smd true
|  7>     smdsolvent "water"
|  8> end
|  9> * xyz 0 1
| 10> C 4.5068187946 1.2380556261 -1.9525942726
| 11> C 5.0191038017 0.351766508 -0.8346478701
| 12> O 4.0611554952 -0.6511499171 -0.4501974206
| 13> P 2.71465162 -0.2811510927 0.287113282
| 14> S 2.8096918077 1.185873498 1.5898669562
| 15> O 2.4747818807 -1.7266558315 0.8871346519
| 16> C 1.3772337301 -2.0507851824 1.761889253
| 17> C 0.3328769711 -2.868070142 1.0253605311
| 18> S 1.2918642729 -0.0222626251 -1.285218941
| 19> C 0.3052992146 1.3015014601 -0.5310828005
| 20> S -0.8183950586 0.7290797415 0.7712663034
| 21> P -2.4103540793 0.1186318632 -0.520600091
| 22> S -1.9829019813 -1.2287454126 -1.8716589299
| 23> O -2.9135054628 1.4622428283 -1.172764522
| 24> C -3.4272008382 2.5857526456 -0.411135819
| 25> C -4.9372451174 2.5239726022 -0.3124670607
| 26> O -3.57994433 -0.2681263348 0.4800196129
| 27> C -3.6195314077 -1.5353768418 1.1644311871
| 28> C -3.0040105012 -1.4249778304 2.5456157521
| 29> H 4.1518432012 0.631782971 -2.7824064189
| 30> H 3.6857576195 1.8563133692 -1.5920985635
| 31> H 5.3093929914 1.8836284 -2.2947190528
| 32> H 5.2690784081 0.9503490591 0.0473770331
| 33> H 5.8892665132 -0.2269234797 -1.1476410347
| 34> H 1.8244844972 -2.6315919094 2.5713212398
| 35> H 0.9539090028 -1.1280607283 2.1746443719
| 36> H 0.7990723825 -3.7382671352 0.5722586763
| 37> H -0.4276708861 -3.1934979069 1.7278707514
| 38> H -0.1378317811 -2.2860153501 0.2345689801
| 39> H -0.2689505751 1.7541845972 -1.3362311688
| 40> H 0.9728718598 2.0209346532 -0.0562609588
| 41> H -2.9646022794 2.5850212149 0.5794034326
| 42> H -3.1030962652 3.4643093785 -0.9722266915
| 43> H -5.2955644469 3.4162550664 0.1915098896
| 44> H -5.3733255524 2.4737960731 -1.306469916
| 45> H -5.2437604677 1.6462476353 0.2494251143
| 46> H -4.6807705599 -1.783609177 1.223593812
| 47> H -3.1061001401 -2.2831436215 0.5514252378
| 48> H -1.9550791271 -1.1453601669 2.4755092165
| 49> H -3.5254576684 -0.670342861 3.1274208897
| 50> H -3.0855435517 -2.3829334486 3.0490256044
| 51> *
| 52>
| 53>                          ****END OF INPUT****

CARTESIAN COORDINATES (ANGSTROEM)
---------------------------------
  C      4.506819    1.238056   -1.952594
  C      5.019104    0.351767   -0.834648
  O      4.061155   -0.651150   -0.450197
  P      2.714652   -0.281151    0.287113
  S      2.809692    1.185873    1.589867
  O      2.474782   -1.726656    0.887135
  C      1.377234   -2.050785    1.761889
  C      0.332877   -2.868070    1.025361
  S      1.291864   -0.022263   -1.285219
  C      0.305299    1.301501   -0.531083
  S     -0.818395    0.729080    0.771266
  P     -2.410354    0.118632   -0.520600
  S     -1.982902   -1.228745   -1.871659
  O     -2.913505    1.462243   -1.172765
  C     -3.427201    2.585753   -0.411136
  C     -4.937245    2.523973   -0.312467
  O     -3.579944   -0.268126    0.480020
  C     -3.619531   -1.535377    1.164431
  C     -3.004011   -1.424978    2.545616
  H      4.151843    0.631783   -2.782406
  H      3.685758    1.856313   -1.592099
  H      5.309393    1.883628   -2.294719
  H      5.269078    0.950349    0.047377
  H      5.889267   -0.226923   -1.147641
  H      1.824484   -2.631592    2.571321
  H      0.953909   -1.128061    2.174644
  H      0.799072   -3.738267    0.572259
  H     -0.427671   -3.193498    1.727871
  H     -0.137832   -2.286015    0.234569
  H     -0.268951    1.754185   -1.336231
  H      0.972872    2.020935   -0.056261
  H     -2.964602    2.585021    0.579403
  H     -3.103096    3.464309   -0.972227
  H     -5.295564    3.416255    0.191510
  H     -5.373326    2.473796   -1.306470
  H     -5.243760    1.646248    0.249425
  H     -4.680771   -1.783609    1.223594
  H     -3.106100   -2.283144    0.551425
  H     -1.955079   -1.145360    2.475509
  H     -3.525458   -0.670343    3.127421
  H     -3.085544   -2.382933    3.049026

 Total Charge           Charge          ....    0
 Multiplicity           Mult            ....    1
 Number of Electrons    NEL             ....  202
 Basis Dimension        Dim             ....  539

ORBITAL ENERGIES
----------------

  NO   OCC          E(Eh)            E(eV)
   0   2.0000     -88.577424     -2410.3143
   1   2.0000     -88.577275     -2410.3102
   2   2.0000     -88.531037     -2409.0520
   3   2.0000     -88.528275     -2408.9768
   4   2.0000     -76.920632     -2093.1168
   5   2.0000     -76.919157     -2093.0767
   6   2.0000     -18.998090      -516.9643
   7   2.0000     -18.997182      -516.9396
   8   2.0000     -18.995849      -516.9033
   9   2.0000     -18.992896      -516.8230
  10   2.0000     -10.104853      -274.9670
  11   2.0000     -10.092194      -274.6226
  12   2.0000     -10.092058      -274.6188
  13   2.0000     -10.090866      -274.5864
  14   2.0000     -10.090032      -274.5637
  15   2.0000     -10.020110      -272.6610
  16   2.0000     -10.018447      -272.6158
  17   2.0000     -10.018362      -272.6135
  18   2.0000     -10.015047      -272.5233
  19   2.0000      -7.871631      -214.1980
  20   2.0000      -7.871176      -214.1856
  21   2.0000      -7.826117      -212.9595
  22   2.0000      -7.823311      -212.8831
  23   2.0000      -6.599030      -179.5687
  24   2.0000      -6.597928      -179.5388
  25   2.0000      -5.818376      -158.3261
  26   2.0000      -5.818138      -158.3196
  27   2.0000      -5.815473      -158.2471
  28   2.0000      -5.815006      -158.2343
  29   2.0000      -5.808902      -158.0683
  30   2.0000      -5.808327      -158.0526
  31   2.0000      -5.773575      -157.1070
  32   2.0000      -5.770970      -157.0361
  33   2.0000      -5.766480      -156.9139
  34   2.0000      -5.766163      -156.9053
  35   2.0000      -5.763618      -156.8360
  36   2.0000      -5.763232      -156.8255
  37   2.0000      -4.744966      -129.1171
  38   2.0000      -4.744065      -129.0926
  39   2.0000      -4.743245      -129.0702
  40   2.0000      -4.742946      -129.0621
  41   2.0000      -4.742306      -129.0447
  42   2.0000      -4.741720      -129.0288
  43   2.0000      -1.056711       -28.7546
  44   2.0000      -1.055867       -28.7316
  45   2.0000      -1.015381       -27.6299
  46   2.0000      -1.012831       -27.5605
  47   2.0000      -0.800182       -21.7741
  48   2.0000      -0.756047       -20.5731
  49   2.0000      -0.747256       -20.3339
  50   2.0000      -0.727659       -19.8006
  51   2.0000      -0.719837       -19.5878
  52   2.0000      -0.710061       -19.3217
  53   2.0000      -0.689190       -18.7538
  54   2.0000      -0.675390       -18.3783
  55   2.0000      -0.632313       -17.2061
  56   2.0000      -0.620569       -16.8865
  57   2.0000      -0.602574       -16.3969
  58   2.0000      -0.593186       -16.1414
  59   2.0000      -0.589203       -16.0330
  60   2.0000      -0.527849       -14.3635
  61   2.0000      -0.519627       -14.1398
  62   2.0000      -0.497865       -13.5476
  63   2.0000      -0.488918       -13.3041
  64   2.0000      -0.479586       -13.0502
  65   2.0000      -0.464776       -12.6472
  66   2.0000      -0.455230       -12.3874
  67   2.0000      -0.446272       -12.1437
  68   2.0000      -0.439573       -11.9614
  69   2.0000      -0.434292       -11.8177
  70   2.0000      -0.418425       -11.3859
  71   2.0000      -0.411915       -11.2088
  72   2.0000      -0.406112       -11.0509
  73   2.0000      -0.402961       -10.9651
  74   2.0000      -0.396954       -10.8017
  75   2.0000      -0.386195       -10.5089
  76   2.0000      -0.376436       -10.2433
  77   2.0000      -0.370858       -10.0916
  78   2.0000      -0.366503        -9.9731
  79   2.0000      -0.364195        -9.9102
  80   2.0000      -0.356660        -9.7052
  81   2.0000      -0.355523        -9.6743
  82   2.0000      -0.350792        -9.5455
  83   2.0000      -0.344680        -9.3792
  84   2.0000      -0.343672        -9.3518
  85   2.0000      -0.335176        -9.1206
  86   2.0000      -0.324929        -8.8418
  87   2.0000      -0.308311        -8.3896
  88   2.0000      -0.304859        -8.2956
  89   2.0000      -0.303992        -8.2720
  90   2.0000      -0.302858        -8.2412
  91   2.0000      -0.288019        -7.8374
  92   2.0000      -0.284847        -7.7511
  93   2.0000      -0.281061        -7.6481
  94   2.0000      -0.277150        -7.5416
  95   2.0000      -0.255243        -6.9455
  96   2.0000      -0.235855        -6.4179
  97   2.0000      -0.234139        -6.3712
  98   2.0000      -0.229872        -6.2551
  99   2.0000      -0.220475        -5.9994
 100   2.0000      -0.216043        -5.8788
 101   0.0000      -0.049469        -1.3461
 102   0.0000      -0.036264        -0.9868
 103   0.0000      -0.011143        -0.3032
 104   0.0000      -0.001672        -0.0455
 105   0.0000       0.000763         0.0208

MULLIKEN ATOMIC CHARGES
-----------------------
   0 C :   -0.472802
   1 C :   -0.150627
   2 O :   -0.347736
   3 P :    0.702162
   4 S :   -0.508475
   5 O :   -0.323010
   6 C :   -0.117361
   7 C :   -0.496567
   8 S :   -0.108953
   9 C :   -0.248926
  10 S :   -0.196231
  11 P :    0.682923
  12 S :   -0.471874
  13 O :   -0.324061
  14 C :   -0.095628
  15 C :   -0.500803
  16 O :   -0.305451
  17 C :   -0.150560
  18 C :   -0.462489
  19 H :    0.167192
  20 H :    0.170609
  21 H :    0.172239
  22 H :    0.178380
  23 H :    0.175870
  24 H :    0.174649
  25 H :    0.164692
  26 H :    0.165066
  27 H :    0.173283
  28 H :    0.175147
  29 H :    0.233404
  30 H :    0.234339
  31 H :    0.174937
  32 H :    0.177673
  33 H :    0.171408
  34 H :    0.167025
  35 H :    0.170232
  36 H :    0.177728
  37 H :    0.171977
  38 H :    0.155100
  39 H :    0.172377
  40 H :    0.173143
Sum of atomic charges:    0.0000000

LOEWDIN ATOMIC CHARGES
----------------------
   0 C :   -0.408843
   1 C :    0.028429
   2 O :   -0.667851
   3 P :    0.388688
   4 S :   -0.156436
   5 O :   -0.669101
   6 C :    0.024006
   7 C :   -0.413314
   8 S :    0.142845
   9 C :   -0.414139
  10 S :    0.119638
  11 P :    0.378721
  12 S :   -0.138056
  13 O :   -0.674254
  14 C :    0.031468
  15 C :   -0.396039
  16 O :   -0.673310
  17 C :    0.028439
  18 C :   -0.401745
  19 H :    0.163956
  20 H :    0.160924
  21 H :    0.167974
  22 H :    0.181536
  23 H :    0.191531
  24 H :    0.187617
  25 H :    0.179990
  26 H :    0.162639
  27 H :    0.169128
  28 H :    0.165044
  29 H :    0.199887
  30 H :    0.199892
  31 H :    0.182491
  32 H :    0.190584
  33 H :    0.169049
  34 H :    0.163406
  35 H :    0.165985
  36 H :    0.190571
  37 H :    0.182622
  38 H :    0.161419
  39 H :    0.164203
  40 H :    0.170404

  Mayer bond orders larger than 0.100000
B(  0-C ,  1-C ) :   0.9088 B(  0-C , 19-H ) :   0.9649 B(  0-C , 20-H ) :   0.9653
B(  0-C , 21-H ) :   0.9539 B(  1-C ,  2-O ) :   0.8068 B(  1-C , 22-H ) :   0.9668
B(  1-C , 23-H ) :   0.9494 B(  2-O ,  3-P ) :   1.1303 B(  3-P ,  4-S ) :   1.7287
B(  3-P ,  5-O ) :   1.1289 B(  3-P ,  8-S ) :   1.0632 B(  5-O ,  6-C ) :   0.7588
B(  6-C ,  7-C ) :   0.9277 B(  6-C , 24-H ) :   0.9558 B(  6-C , 25-H ) :   0.9586
B(  7-C , 26-H ) :   0.9685 B(  7-C , 27-H ) :   0.9587 B(  7-C , 28-H ) :   0.9547
B(  8-S ,  9-C ) :   0.9091 B(  9-C , 10-S ) :   0.8717 B(  9-C , 29-H ) :   0.9052
B(  9-C , 30-H ) :   0.9058 B( 10-S , 11-P ) :   0.9881 B( 11-P , 12-S ) :   1.8469
B( 11-P , 13-O ) :   1.1541 B( 11-P , 16-O ) :   1.0524 B( 13-O , 14-C ) :   0.7445
B( 14-C , 15-C ) :   0.9328 B( 14-C , 31-H ) :   0.9570 B( 14-C , 32-H ) :   0.9502
B( 15-C , 33-H ) :   0.9587 B( 15-C , 34-H ) :   0.9695 B( 15-C , 35-H ) :   0.9669
B( 16-O , 17-C ) :   0.7629 B( 17-C , 18-C ) :   0.9356 B( 17-C , 36-H ) :   0.9544
B( 17-C , 37-H ) :   0.9562 B( 18-C , 38-H ) :   0.9534 B( 18-C , 39-H ) :   0.9693
B( 18-C , 40-H ) :   0.9592

Dispersion correction           -0.021709239
FINAL SINGLE POINT ENERGY     -2932.471513869484

DIPOLE MOMENT
-------------

Method             : SCF
Type of density    : Electron Density
Multiplicity       :   1
Irrep              :   0
Energy             : -2932.4962689243175191 Eh
Relativity type    :
Basis              : AO
                                X                 Y                 Z
Electronic contribution:      8.875522992      -0.307657143      -6.031713237
Nuclear contribution   :     -9.983400769       1.246535992       7.064607560
                        -----------------------------------------
Total Dipole Moment    :     -1.107877777       0.938878848       1.032894323
                        -----------------------------------------
Magnitude (a.u.)       :      1.782065471
Magnitude (Debye)      :      4.529650450

Rotational constants in cm-1:             0.013064             0.004667             0.004272
Rotational constants in MHz :           391.649341           139.899273           128.076733

                             ****ORCA TERMINATED NORMALLY****
TOTAL RUN TIME: 0 days 0 hours 1 minutes 53 seconds 502 msec
