                         Program Version 6.0.1  -  RELEASE   -
|  1> ! pbe def2-sv(p) def2/J RI DEFGRID1 loosescf d4 GCP(DFT/SV(P)) printgap
|  2> %output
|  3>     printlevel normal
|  4> end
|  5> * xyz 0 1
|  6> C 4.0045160572 -2.8397782978 0.5132107903
|  7> C 2.5063262958 -2.8456412487 0.2577722745
|  8> O 2.1728742122 -2.0209466522 -0.8754784706
|  9> C 2.029497743 -0.7282984346 -0.6973045422
| 10> O 2.1329527625 -0.1499497696 0.3663236848
| 11> C 1.7063787691 0.0001128673 -1.9878513086
| 12> C 0.4823127232 0.8963196183 -1.781278053
| 13> H 0.4101831651 1.6231626462 -2.5931678005
| 14> C 0.5578497067 1.6320541705 -0.4585813777
| 15> O -0.2745459626 1.4625503805 0.4204368714
| 16> O 1.5383799921 2.4773235204 -0.4090704407
| 17> C 1.7603983201 3.2107993915 0.8171503906
| 18> C 0.8620011921 4.4333411977 0.8944530016
| 19> S -1.0823537005 -0.0485527304 -1.8257487034
| 20> P -1.6457406904 -0.4184733852 0.1816042491
| 21> S -0.5940846096 -1.2167949387 1.6454273267
| 22> O -2.7773952958 0.6136476667 0.6582232455
| 23> C -2.6688495922 1.5292243324 1.7454077174
| 24> O -2.6345472738 -1.5413880079 -0.4356744589
| 25> C -3.4861258266 -2.3343175108 0.3892147368
| 26> H 4.5368831736 -3.1512991601 -0.3812696276
| 27> H 4.3311840458 -1.8417619362 0.7961223999
| 28> H 4.228992886 -3.525374112 1.3233808765
| 29> H 1.9549913756 -2.4801708065 1.1300804468
| 30> H 2.1502327835 -3.8379725727 -0.0188303197
| 31> H 1.5210966428 -0.7163557488 -2.7856829197
| 32> H 2.5651875572 0.6266006505 -2.2376403038
| 33> H 1.5884479806 2.5319410937 1.6565988381
| 34> H 2.8125317223 3.4897910334 0.7674358239
| 35> H 1.0178682605 5.068181296 0.0268340759
| 36> H -0.1826576027 4.1337807992 0.9339640086
| 37> H 1.099173879 4.991286615 1.7940378789
| 38> H -1.9023906765 1.1943583531 2.4462095381
| 39> H -3.6445389862 1.5437632156 2.227022752
| 40> H -2.41409397 2.5158379672 1.363066393
| 41> H -4.3476780691 -1.7483691583 0.7085787007
| 42> H -2.9353747597 -2.689772716 1.2635357393
| 43> H -3.8000334094 -3.1724473822 -0.228127306
| 44> *
| 45>
| 46>                          ****END OF INPUT****

CARTESIAN COORDINATES (ANGSTROEM)
---------------------------------
  C      4.004516   -2.839778    0.513211
  C      2.506326   -2.845641    0.257772
  O      2.172874   -2.020947   -0.875478
  C      2.029498   -0.728298   -0.697305
  O      2.132953   -0.149950    0.366324
  C      1.706379    0.000113   -1.987851
  C      0.482313    0.896320   -1.781278
  H      0.410183    1.623163   -2.593168
  C      0.557850    1.632054   -0.458581
  O     -0.274546    1.462550    0.420437
  O      1.538380    2.477324   -0.409070
  C      1.760398    3.210799    0.817150
  C      0.862001    4.433341    0.894453
  S     -1.082354   -0.048553   -1.825749
  P     -1.645741   -0.418473    0.181604
  S     -0.594085   -1.216795    1.645427
  O     -2.777395    0.613648    0.658223
  C     -2.668850    1.529224    1.745408
  O     -2.634547   -1.541388   -0.435674
  C     -3.486126   -2.334318    0.389215
  H      4.536883   -3.151299   -0.381270
  H      4.331184   -1.841762    0.796122
  H      4.228993   -3.525374    1.323381
  H      1.954991   -2.480171    1.130080
  H      2.150233   -3.837973   -0.018830
  H      1.521097   -0.716356   -2.785683
  H      2.565188    0.626601   -2.237640
  H      1.588448    2.531941    1.656599
  H      2.812532    3.489791    0.767436
  H      1.017868    5.068181    0.026834
  H     -0.182658    4.133781    0.933964
  H      1.099174    4.991287    1.794038
  H     -1.902391    1.194358    2.446210
  H     -3.644539    1.543763    2.227023
  H     -2.414094    2.515838    1.363066
  H     -4.347678   -1.748369    0.708579
  H     -2.935375   -2.689773    1.263536
  H     -3.800033   -3.172447   -0.228127

 Total Charge           Charge          ....    0
 Multiplicity           Mult            ....    1
 Number of Electrons    NEL             ....  174
 Basis Dimension        Dim             ....  316

ORBITAL ENERGIES
----------------

  NO   OCC          E(Eh)            E(eV)
   0   2.0000     -88.029214     -2395.3967
   1   2.0000     -87.957404     -2393.4426
   2   2.0000     -76.411412     -2079.2602
   3   2.0000     -18.822485      -512.1859
   4   2.0000     -18.804679      -511.7013
   5   2.0000     -18.770716      -510.7772
   6   2.0000     -18.767291      -510.6839
   7   2.0000     -18.758324      -510.4399
   8   2.0000     -18.739270      -509.9215
   9   2.0000     -10.035309      -273.0747
  10   2.0000     -10.012606      -272.4569
  11   2.0000      -9.958436      -270.9828
  12   2.0000      -9.953168      -270.8395
  13   2.0000      -9.939227      -270.4601
  14   2.0000      -9.926988      -270.1271
  15   2.0000      -9.920584      -269.9528
  16   2.0000      -9.916330      -269.8371
  17   2.0000      -9.896809      -269.3059
  18   2.0000      -9.883186      -268.9352
  19   2.0000      -7.674305      -208.8285
  20   2.0000      -7.602528      -206.8753
  21   2.0000      -6.406012      -174.3164
  22   2.0000      -5.702821      -155.1816
  23   2.0000      -5.698597      -155.0667
  24   2.0000      -5.690812      -154.8549
  25   2.0000      -5.631694      -153.2462
  26   2.0000      -5.623329      -153.0186
  27   2.0000      -5.622180      -152.9873
  28   2.0000      -4.628920      -125.9593
  29   2.0000      -4.628079      -125.9364
  30   2.0000      -4.626556      -125.8950
  31   2.0000      -1.035986       -28.1906
  32   2.0000      -1.010894       -27.5078
  33   2.0000      -0.959249       -26.1025
  34   2.0000      -0.941504       -25.6196
  35   2.0000      -0.918042       -24.9812
  36   2.0000      -0.913170       -24.8486
  37   2.0000      -0.766987       -20.8708
  38   2.0000      -0.716339       -19.4926
  39   2.0000      -0.705595       -19.2002
  40   2.0000      -0.683951       -18.6113
  41   2.0000      -0.648254       -17.6399
  42   2.0000      -0.626969       -17.0607
  43   2.0000      -0.611653       -16.6439
  44   2.0000      -0.606330       -16.4991
  45   2.0000      -0.595316       -16.1994
  46   2.0000      -0.564259       -15.3543
  47   2.0000      -0.513879       -13.9834
  48   2.0000      -0.501349       -13.6424
  49   2.0000      -0.497253       -13.5309
  50   2.0000      -0.485056       -13.1990
  51   2.0000      -0.464785       -12.6474
  52   2.0000      -0.457944       -12.4613
  53   2.0000      -0.448422       -12.2022
  54   2.0000      -0.435120       -11.8402
  55   2.0000      -0.431874       -11.7519
  56   2.0000      -0.423695       -11.5293
  57   2.0000      -0.419046       -11.4028
  58   2.0000      -0.406170       -11.0524
  59   2.0000      -0.398359       -10.8399
  60   2.0000      -0.395652       -10.7662
  61   2.0000      -0.391792       -10.6612
  62   2.0000      -0.385662       -10.4944
  63   2.0000      -0.382183       -10.3997
  64   2.0000      -0.379701       -10.3322
  65   2.0000      -0.365060        -9.9338
  66   2.0000      -0.360972        -9.8225
  67   2.0000      -0.354612        -9.6495
  68   2.0000      -0.346982        -9.4419
  69   2.0000      -0.342141        -9.3101
  70   2.0000      -0.337558        -9.1854
  71   2.0000      -0.329859        -8.9759
  72   2.0000      -0.318079        -8.6554
  73   2.0000      -0.310239        -8.4420
  74   2.0000      -0.294938        -8.0257
  75   2.0000      -0.290494        -7.9048
  76   2.0000      -0.286668        -7.8006
  77   2.0000      -0.282816        -7.6958
  78   2.0000      -0.266156        -7.2425
  79   2.0000      -0.258817        -7.0428
  80   2.0000      -0.255539        -6.9536
  81   2.0000      -0.249431        -6.7874
  82   2.0000      -0.238879        -6.5002
  83   2.0000      -0.226904        -6.1744
  84   2.0000      -0.208491        -5.6733
  85   2.0000      -0.177470        -4.8292
  86   2.0000      -0.170211        -4.6317
  87   0.0000      -0.045230        -1.2308
  88   0.0000      -0.033918        -0.9230
  89   0.0000      -0.027264        -0.7419
  90   0.0000       0.011605         0.3158
  91   0.0000       0.034754         0.9457

MULLIKEN ATOMIC CHARGES
-----------------------
   0 C :   -0.307393
   1 C :   -0.023212
   2 O :   -0.214486
   3 C :    0.104262
   4 O :   -0.200701
   5 C :   -0.028472
   6 C :   -0.307224
   7 H :    0.146423
   8 C :    0.241200
   9 O :   -0.219358
  10 O :   -0.213737
  11 C :   -0.006612
  12 C :   -0.321578
  13 S :   -0.078197
  14 P :    0.665468
  15 S :   -0.348035
  16 O :   -0.395485
  17 C :   -0.092958
  18 O :   -0.410381
  19 C :   -0.090496
  20 H :    0.109437
  21 H :    0.123042
  22 H :    0.114578
  23 H :    0.136188
  24 H :    0.104447
  25 H :    0.118600
  26 H :    0.122716
  27 H :    0.130898
  28 H :    0.108345
  29 H :    0.115773
  30 H :    0.137681
  31 H :    0.119644
  32 H :    0.115631
  33 H :    0.111753
  34 H :    0.110697
  35 H :    0.101814
  36 H :    0.106147
  37 H :    0.113579
Sum of atomic charges:   -0.0000000

LOEWDIN ATOMIC CHARGES
----------------------
   0 C :   -0.357255
   1 C :   -0.112187
   2 O :   -0.040707
   3 C :    0.031024
   4 O :   -0.155358
   5 C :   -0.246766
   6 C :   -0.263086
   7 H :    0.147472
   8 C :    0.035750
   9 O :   -0.147927
  10 O :   -0.028622
  11 C :   -0.101366
  12 C :   -0.357440
  13 S :    0.118223
  14 P :    0.584700
  15 S :   -0.339298
  16 O :   -0.258376
  17 C :   -0.215290
  18 O :   -0.282639
  19 C :   -0.217891
  20 H :    0.122212
  21 H :    0.128169
  22 H :    0.131719
  23 H :    0.122754
  24 H :    0.120059
  25 H :    0.137793
  26 H :    0.146406
  27 H :    0.131463
  28 H :    0.122090
  29 H :    0.126091
  30 H :    0.129660
  31 H :    0.134573
  32 H :    0.108380
  33 H :    0.113838
  34 H :    0.105910
  35 H :    0.106229
  36 H :    0.103300
  37 H :    0.116394

  Mayer bond orders larger than 0.100000
B(  0-C ,  1-C ) :   1.1652 B(  0-C , 20-H ) :   0.9478 B(  0-C , 21-H ) :   0.9465
B(  0-C , 22-H ) :   0.9449 B(  1-C ,  2-O ) :   0.9048 B(  1-C , 23-H ) :   0.9053
B(  1-C , 24-H ) :   0.9387 B(  2-O ,  3-C ) :   1.2736 B(  3-C ,  4-O ) :   1.9517
B(  3-C ,  5-C ) :   0.9968 B(  4-O ,  8-C ) :   0.1201 B(  5-C ,  6-C ) :   1.0165
B(  5-C , 25-H ) :   0.9041 B(  5-C , 26-H ) :   0.8765 B(  6-C ,  7-H ) :   0.8772
B(  6-C ,  8-C ) :   0.9141 B(  6-C , 13-S ) :   1.0427 B(  8-C ,  9-O ) :   1.8280
B(  8-C , 10-O ) :   1.2876 B(  9-O , 14-P ) :   0.1846 B( 10-O , 11-C ) :   0.8934
B( 11-C , 12-C ) :   1.1718 B( 11-C , 27-H ) :   0.9168 B( 11-C , 28-H ) :   0.9375
B( 12-C , 29-H ) :   0.9460 B( 12-C , 30-H ) :   0.9411 B( 12-C , 31-H ) :   0.9428
B( 13-S , 14-P ) :   0.9282 B( 13-S , 15-S ) :   0.1081 B( 14-P , 15-S ) :   1.5678
B( 14-P , 16-O ) :   1.0717 B( 14-P , 18-O ) :   1.0324 B( 16-O , 17-C ) :   0.9389
B( 17-C , 32-H ) :   0.9307 B( 17-C , 33-H ) :   0.9535 B( 17-C , 34-H ) :   0.9522
B( 18-O , 19-C ) :   0.9491 B( 19-C , 35-H ) :   0.9519 B( 19-C , 36-H ) :   0.9283
B( 19-C , 37-H ) :   0.9610

Dispersion correction           -0.053808431
FINAL SINGLE POINT ENERGY     -1979.005495038385

DIPOLE MOMENT
-------------

Method             : SCF
Type of density    : Electron Density
Multiplicity       :   1
Irrep              :   0
Energy             : -1979.1360290988750421 Eh
Relativity type    :
Basis              : AO
                                X                 Y                 Z
Electronic contribution:     -9.033212076      -3.610666140      -7.803555925
Nuclear contribution   :      9.955512366       4.696537155       7.524518508
                        -----------------------------------------
Total Dipole Moment    :      0.922300291       1.085871015      -0.279037417
                        -----------------------------------------
Magnitude (a.u.)       :      1.451762917
Magnitude (Debye)      :      3.690088079

Rotational constants in cm-1:             0.010757             0.009533             0.006687
Rotational constants in MHz :           322.492713           285.794217           200.471606

                             ****ORCA TERMINATED NORMALLY****
TOTAL RUN TIME: 0 days 0 hours 0 minutes 37 seconds 749 msec
