                         Program Version 6.0.0  -   RELEASE  -
|  1> ! pbe def2-sv(p) def2/J RI DEFGRID1 loosescf d4 GCP(DFT/SV(P)) printgap
|  2> %output
|  3>     printlevel normal
|  4> end
|  5> * xyz 0 1
|  6> C 2.7421456967 -0.5450624129 -2.7149695178
|  7> C 1.5341262093 0.1269110738 -2.0992740078
|  8> O 1.0748361867 -0.568031606 -0.9246466332
|  9> P 1.9207083003 -0.569567173 0.4231231043
| 10> S 3.0355029987 1.0117747633 0.7650369272
| 11> O 2.7336360358 -1.9273883441 0.2694837536
| 12> C 3.888918589 -2.2310087154 1.0711532887
| 13> C 3.5273569794 -2.4841877467 2.5205316756
| 14> S 0.4316746217 -1.0893080813 1.8118212308
| 15> C -0.3302641158 0.5450778735 2.0923190562
| 16> S -0.4442169058 1.6045320188 0.625748857
| 17> P -1.9837301181 0.6752157653 -0.4829148693
| 18> S -2.0705043505 1.1528495297 -2.381095502
| 19> O -3.3490541863 0.9512923617 0.3051214787
| 20> C -4.1757166414 2.0892642148 0.0207345895
| 21> C -3.5350676466 3.3811611269 0.48682275
| 22> O -1.735448005 -0.8341128781 -0.088396555
| 23> C -2.4961925927 -1.9207322178 -0.6633185579
| 24> C -1.7747249472 -2.5014143004 -1.8626249468
| 25> H 3.5909755052 -0.4714526867 -2.0359338921
| 26> H 2.5316576049 -1.5939493594 -2.9064627961
| 27> H 2.9904271537 -0.0480319118 -3.6474284625
| 28> H 0.6735694087 0.1171702614 -2.7715573954
| 29> H 1.7622584799 1.1624368371 -1.8221394511
| 30> H 4.3093189171 -3.1194606293 0.5980947731
| 31> H 4.5930121697 -1.3963517812 0.991680349
| 32> H 3.1706989636 -1.5638704286 2.9807844298
| 33> H 2.7449496942 -3.2356959656 2.5893627735
| 34> H 4.4074472408 -2.8274132806 3.0548377153
| 35> H 0.2836088018 1.1076035377 2.7935209407
| 36> H -1.3219118335 0.3562436592 2.4960768441
| 37> H -4.3616980815 2.1213173053 -1.0578141151
| 38> H -5.1053067289 1.8828512852 0.5528704206
| 39> H -3.2934034567 3.3272493684 1.5450758002
| 40> H -2.6173519483 3.5623179252 -0.0731495826
| 41> H -4.2201434535 4.2050998939 0.3152917457
| 42> H -2.5728769726 -2.6491343186 0.1460525627
| 43> H -3.492135147 -1.5602228268 -0.9333777362
| 44> H -0.7578761468 -2.7686702418 -1.5856226119
| 45> H -2.3008806596 -3.3863593533 -2.2060496429
| 46> H -1.7368112423 -1.7731355089 -2.6701054987
| 47> *
| 48>
| 49>                          ****END OF INPUT****

CARTESIAN COORDINATES (ANGSTROEM)
---------------------------------
  C      2.742146   -0.545062   -2.714970
  C      1.534126    0.126911   -2.099274
  O      1.074836   -0.568032   -0.924647
  P      1.920708   -0.569567    0.423123
  S      3.035503    1.011775    0.765037
  O      2.733636   -1.927388    0.269484
  C      3.888919   -2.231009    1.071153
  C      3.527357   -2.484188    2.520532
  S      0.431675   -1.089308    1.811821
  C     -0.330264    0.545078    2.092319
  S     -0.444217    1.604532    0.625749
  P     -1.983730    0.675216   -0.482915
  S     -2.070504    1.152850   -2.381096
  O     -3.349054    0.951292    0.305121
  C     -4.175717    2.089264    0.020735
  C     -3.535068    3.381161    0.486823
  O     -1.735448   -0.834113   -0.088397
  C     -2.496193   -1.920732   -0.663319
  C     -1.774725   -2.501414   -1.862625
  H      3.590976   -0.471453   -2.035934
  H      2.531658   -1.593949   -2.906463
  H      2.990427   -0.048032   -3.647428
  H      0.673569    0.117170   -2.771557
  H      1.762258    1.162437   -1.822139
  H      4.309319   -3.119461    0.598095
  H      4.593012   -1.396352    0.991680
  H      3.170699   -1.563870    2.980784
  H      2.744950   -3.235696    2.589363
  H      4.407447   -2.827413    3.054838
  H      0.283609    1.107604    2.793521
  H     -1.321912    0.356244    2.496077
  H     -4.361698    2.121317   -1.057814
  H     -5.105307    1.882851    0.552870
  H     -3.293403    3.327249    1.545076
  H     -2.617352    3.562318   -0.073150
  H     -4.220143    4.205100    0.315292
  H     -2.572877   -2.649134    0.146053
  H     -3.492135   -1.560223   -0.933378
  H     -0.757876   -2.768670   -1.585623
  H     -2.300881   -3.386359   -2.206050
  H     -1.736811   -1.773136   -2.670105

 Total Charge           Charge          ....    0
 Multiplicity           Mult            ....    1
 Number of Electrons    NEL             ....  202
 Basis Dimension        Dim             ....  334

ORBITAL ENERGIES
----------------

  NO   OCC          E(Eh)            E(eV)
   0   2.0000     -88.045818     -2395.8485
   1   2.0000     -88.039774     -2395.6841
   2   2.0000     -87.990979     -2394.3563
   3   2.0000     -87.983917     -2394.1641
   4   2.0000     -76.427384     -2079.6948
   5   2.0000     -76.424103     -2079.6056
   6   2.0000     -18.792119      -511.3595
   7   2.0000     -18.791746      -511.3494
   8   2.0000     -18.789547      -511.2896
   9   2.0000     -18.782586      -511.1002
  10   2.0000      -9.962684      -271.0984
  11   2.0000      -9.955033      -270.8902
  12   2.0000      -9.951259      -270.7875
  13   2.0000      -9.950690      -270.7720
  14   2.0000      -9.936303      -270.3806
  15   2.0000      -9.884466      -268.9700
  16   2.0000      -9.883262      -268.9372
  17   2.0000      -9.878421      -268.8055
  18   2.0000      -9.874700      -268.7042
  19   2.0000      -7.690457      -209.2680
  20   2.0000      -7.685026      -209.1202
  21   2.0000      -7.635981      -207.7856
  22   2.0000      -7.628868      -207.5920
  23   2.0000      -6.424970      -174.8323
  24   2.0000      -6.421173      -174.7290
  25   2.0000      -5.718889      -155.6189
  26   2.0000      -5.714682      -155.5044
  27   2.0000      -5.713151      -155.4627
  28   2.0000      -5.709635      -155.3671
  29   2.0000      -5.707132      -155.2990
  30   2.0000      -5.701556      -155.1472
  31   2.0000      -5.664818      -154.1475
  32   2.0000      -5.657746      -153.9551
  33   2.0000      -5.656822      -153.9300
  34   2.0000      -5.656005      -153.9077
  35   2.0000      -5.649504      -153.7308
  36   2.0000      -5.649119      -153.7203
  37   2.0000      -4.647459      -126.4638
  38   2.0000      -4.646883      -126.4481
  39   2.0000      -4.645421      -126.4083
  40   2.0000      -4.643561      -126.3577
  41   2.0000      -4.642980      -126.3419
  42   2.0000      -4.641856      -126.3113
  43   2.0000      -0.987525       -26.8719
  44   2.0000      -0.982112       -26.7246
  45   2.0000      -0.944402       -25.6985
  46   2.0000      -0.940147       -25.5827
  47   2.0000      -0.764659       -20.8074
  48   2.0000      -0.719956       -19.5910
  49   2.0000      -0.704771       -19.1778
  50   2.0000      -0.685503       -18.6535
  51   2.0000      -0.681913       -18.5558
  52   2.0000      -0.672563       -18.3014
  53   2.0000      -0.654453       -17.8086
  54   2.0000      -0.638743       -17.3811
  55   2.0000      -0.599384       -16.3101
  56   2.0000      -0.590359       -16.0645
  57   2.0000      -0.575129       -15.6501
  58   2.0000      -0.566829       -15.4242
  59   2.0000      -0.562901       -15.3173
  60   2.0000      -0.502028       -13.6609
  61   2.0000      -0.488126       -13.2826
  62   2.0000      -0.469368       -12.7721
  63   2.0000      -0.468717       -12.7544
  64   2.0000      -0.459697       -12.5090
  65   2.0000      -0.439447       -11.9580
  66   2.0000      -0.437694       -11.9103
  67   2.0000      -0.433734       -11.8025
  68   2.0000      -0.426147       -11.5960
  69   2.0000      -0.417291       -11.3551
  70   2.0000      -0.411479       -11.1969
  71   2.0000      -0.397299       -10.8111
  72   2.0000      -0.388546       -10.5729
  73   2.0000      -0.384928       -10.4744
  74   2.0000      -0.382316       -10.4034
  75   2.0000      -0.374930       -10.2024
  76   2.0000      -0.369876       -10.0648
  77   2.0000      -0.355954        -9.6860
  78   2.0000      -0.351953        -9.5771
  79   2.0000      -0.348263        -9.4767
  80   2.0000      -0.346741        -9.4353
  81   2.0000      -0.343782        -9.3548
  82   2.0000      -0.337943        -9.1959
  83   2.0000      -0.336575        -9.1587
  84   2.0000      -0.327516        -8.9122
  85   2.0000      -0.317247        -8.6327
  86   2.0000      -0.307710        -8.3732
  87   2.0000      -0.297266        -8.0890
  88   2.0000      -0.293697        -7.9919
  89   2.0000      -0.292910        -7.9705
  90   2.0000      -0.278857        -7.5881
  91   2.0000      -0.272092        -7.4040
  92   2.0000      -0.265347        -7.2205
  93   2.0000      -0.264024        -7.1845
  94   2.0000      -0.260164        -7.0794
  95   2.0000      -0.228943        -6.2299
  96   2.0000      -0.220637        -6.0038
  97   2.0000      -0.211456        -5.7540
  98   2.0000      -0.205832        -5.6010
  99   2.0000      -0.197102        -5.3634
 100   2.0000      -0.196023        -5.3341
 101   0.0000      -0.046690        -1.2705
 102   0.0000      -0.026515        -0.7215
 103   0.0000      -0.011635        -0.3166
 104   0.0000       0.001068         0.0291
 105   0.0000       0.014408         0.3921

MULLIKEN ATOMIC CHARGES
-----------------------
   0 C :   -0.300280
   1 C :   -0.017436
   2 O :   -0.363629
   3 P :    0.611374
   4 S :   -0.333677
   5 O :   -0.372491
   6 C :   -0.004532
   7 C :   -0.314973
   8 S :   -0.084927
   9 C :   -0.321636
  10 S :   -0.072862
  11 P :    0.627550
  12 S :   -0.325931
  13 O :   -0.381042
  14 C :   -0.008295
  15 C :   -0.307919
  16 O :   -0.364982
  17 C :   -0.000567
  18 C :   -0.298145
  19 H :    0.116537
  20 H :    0.111491
  21 H :    0.110218
  22 H :    0.116000
  23 H :    0.111384
  24 H :    0.104767
  25 H :    0.111285
  26 H :    0.126107
  27 H :    0.116652
  28 H :    0.112631
  29 H :    0.190922
  30 H :    0.180147
  31 H :    0.110874
  32 H :    0.102508
  33 H :    0.112413
  34 H :    0.124676
  35 H :    0.112845
  36 H :    0.104903
  37 H :    0.101322
  38 H :    0.125658
  39 H :    0.104705
  40 H :    0.126356
Sum of atomic charges:    0.0000000

LOEWDIN ATOMIC CHARGES
----------------------
   0 C :   -0.364488
   1 C :   -0.127817
   2 O :   -0.237318
   3 P :    0.567938
   4 S :   -0.332002
   5 O :   -0.244408
   6 C :   -0.120241
   7 C :   -0.369992
   8 S :    0.093184
   9 C :   -0.467073
  10 S :    0.116754
  11 P :    0.569975
  12 S :   -0.311544
  13 O :   -0.255094
  14 C :   -0.123892
  15 C :   -0.366270
  16 O :   -0.236712
  17 C :   -0.107992
  18 C :   -0.362946
  19 H :    0.119148
  20 H :    0.123658
  21 H :    0.129710
  22 H :    0.112682
  23 H :    0.109381
  24 H :    0.118361
  25 H :    0.110201
  26 H :    0.121047
  27 H :    0.123492
  28 H :    0.130836
  29 H :    0.139240
  30 H :    0.134919
  31 H :    0.108432
  32 H :    0.117008
  33 H :    0.123057
  34 H :    0.120157
  35 H :    0.130696
  36 H :    0.118706
  37 H :    0.109676
  38 H :    0.128965
  39 H :    0.126904
  40 H :    0.123659

  Mayer bond orders larger than 0.100000
B(  0-C ,  1-C ) :   1.1618 B(  0-C , 19-H ) :   0.9361 B(  0-C , 20-H ) :   0.9470
B(  0-C , 21-H ) :   0.9402 B(  1-C ,  2-O ) :   0.8944 B(  1-C , 22-H ) :   0.9180
B(  1-C , 23-H ) :   0.9165 B(  2-O ,  3-P ) :   1.1114 B(  3-P ,  4-S ) :   1.5906
B(  3-P ,  5-O ) :   1.1051 B(  3-P ,  8-S ) :   0.9805 B(  4-S ,  8-S ) :   0.1119
B(  5-O ,  6-C ) :   0.9088 B(  6-C ,  7-C ) :   1.1669 B(  6-C , 24-H ) :   0.9338
B(  6-C , 25-H ) :   0.9142 B(  7-C , 26-H ) :   0.9352 B(  7-C , 27-H ) :   0.9446
B(  7-C , 28-H ) :   0.9379 B(  8-S ,  9-C ) :   0.9785 B(  9-C , 10-S ) :   1.0024
B(  9-C , 29-H ) :   0.9033 B(  9-C , 30-H ) :   0.9072 B( 10-S , 11-P ) :   0.9583
B( 11-P , 12-S ) :   1.6246 B( 11-P , 13-O ) :   1.0688 B( 11-P , 16-O ) :   1.1284
B( 13-O , 14-C ) :   0.9178 B( 14-C , 15-C ) :   1.1627 B( 14-C , 31-H ) :   0.9127
B( 14-C , 32-H ) :   0.9334 B( 15-C , 33-H ) :   0.9462 B( 15-C , 34-H ) :   0.9368
B( 15-C , 35-H ) :   0.9390 B( 16-O , 17-C ) :   0.8895 B( 17-C , 18-C ) :   1.1726
B( 17-C , 36-H ) :   0.9340 B( 17-C , 37-H ) :   0.9190 B( 18-C , 38-H ) :   0.9415
B( 18-C , 39-H ) :   0.9387 B( 18-C , 40-H ) :   0.9349

Dispersion correction           -0.068535513
FINAL SINGLE POINT ENERGY     -2929.520186843540

DIPOLE MOMENT
-------------

Method             : SCF
Type of density    : Electron Density
Multiplicity       :   1
Irrep              :   0
Energy             : -2929.6375084049686848 Eh
Relativity type    :
Basis              : AO
                                X                 Y                 Z
Electronic contribution:     -0.070197080       7.365728796       4.025141035
Nuclear contribution   :     -0.667961513      -8.229930875      -3.397417303
                        -----------------------------------------
Total Dipole Moment    :     -0.738158593      -0.864202079       0.627723732
                        -----------------------------------------
Magnitude (a.u.)       :      1.298368371
Magnitude (Debye)      :      3.300190128

Rotational constants in cm-1:             0.012868             0.005404             0.005153
Rotational constants in MHz :           385.765920           162.009384           154.491350

                             ****ORCA TERMINATED NORMALLY****
TOTAL RUN TIME: 0 days 0 hours 0 minutes 21 seconds 773 msec
