                         Program Version 6.0.0  -   RELEASE  -
|  1> ! pbe def2-sv(p) def2/J RI DEFGRID1 loosescf d4 GCP(DFT/SV(P)) printgap
|  2> %output
|  3>     printlevel normal
|  4> end
|  5> * xyz 0 1
|  6> C 2.0958002897 6.4146e-06 0.0123802813
|  7> N 0.6587020123 0.0003592393 -0.0174794476
|  8> C -0.131807499 1.102265535 -0.0050763645
|  9> C -1.4423801102 0.7033498339 0.0066301511
| 10> C -1.4419703236 -0.7039325666 0.006742795
| 11> C -0.1311993711 -1.102076189 -0.0050975575
| 12> H 2.4622959776 -0.0226046317 1.0416913868
| 13> H 2.472729479 -0.8758045659 -0.5132927292
| 14> H 2.4712551078 0.8986109182 -0.4739863182
| 15> H 0.2881912069 2.0888030564 -0.0100403956
| 16> H -2.3039225825 1.342734687 0.0116297039
| 17> H -2.3031696709 -1.3438277535 0.0117111491
| 18> H 0.2895352381 -2.088292626 -0.0104569384
| 19> *
| 20>
| 21>                          ****END OF INPUT****

CARTESIAN COORDINATES (ANGSTROEM)
---------------------------------
  C      2.095800    0.000006    0.012380
  N      0.658702    0.000359   -0.017479
  C     -0.131807    1.102266   -0.005076
  C     -1.442380    0.703350    0.006630
  C     -1.441970   -0.703933    0.006743
  C     -0.131199   -1.102076   -0.005098
  H      2.462296   -0.022605    1.041691
  H      2.472729   -0.875805   -0.513293
  H      2.471255    0.898611   -0.473986
  H      0.288191    2.088803   -0.010040
  H     -2.303923    1.342735    0.011630
  H     -2.303170   -1.343828    0.011711
  H      0.289535   -2.088293   -0.010457

 Total Charge           Charge          ....    0
 Multiplicity           Mult            ....    1
 Number of Electrons    NEL             ....   44
 Basis Dimension        Dim             ....   98

ORBITAL ENERGIES
----------------

  NO   OCC          E(Eh)            E(eV)
   0   2.0000     -14.036326      -381.9478
   1   2.0000      -9.929381      -270.1922
   2   2.0000      -9.892871      -269.1987
   3   2.0000      -9.892736      -269.1950
   4   2.0000      -9.862287      -268.3665
   5   2.0000      -9.862104      -268.3615
   6   2.0000      -0.898026       -24.4365
   7   2.0000      -0.724491       -19.7144
   8   2.0000      -0.641381       -17.4529
   9   2.0000      -0.616607       -16.7787
  10   2.0000      -0.509074       -13.8526
  11   2.0000      -0.485911       -13.2223
  12   2.0000      -0.476929       -12.9779
  13   2.0000      -0.418477       -11.3873
  14   2.0000      -0.391397       -10.6505
  15   2.0000      -0.371826       -10.1179
  16   2.0000      -0.358837        -9.7645
  17   2.0000      -0.329652        -8.9703
  18   2.0000      -0.327158        -8.9024
  19   2.0000      -0.321825        -8.7573
  20   2.0000      -0.200674        -5.4606
  21   2.0000      -0.177824        -4.8388
  22   0.0000       0.012140         0.3303
  23   0.0000       0.041575         1.1313
  24   0.0000       0.054015         1.4698
  25   0.0000       0.070252         1.9116
  26   0.0000       0.083018         2.2590

MULLIKEN ATOMIC CHARGES
-----------------------
   0 C :   -0.171280
   1 N :   -0.132837
   2 C :   -0.034745
   3 C :   -0.099799
   4 C :   -0.098976
   5 C :   -0.034896
   6 H :    0.125609
   7 H :    0.122149
   8 H :    0.122121
   9 H :    0.053670
  10 H :    0.047784
  11 H :    0.047808
  12 H :    0.053391
Sum of atomic charges:   -0.0000000

LOEWDIN ATOMIC CHARGES
----------------------
   0 C :   -0.241804
   1 N :    0.052852
   2 C :   -0.143990
   3 C :   -0.185873
   4 C :   -0.185398
   5 C :   -0.144235
   6 H :    0.122989
   7 H :    0.127165
   8 H :    0.127380
   9 H :    0.115461
  10 H :    0.120001
  11 H :    0.120003
  12 H :    0.115449

  Mayer bond orders larger than 0.100000
B(  0-C ,  1-N ) :   1.0074 B(  0-C ,  6-H ) :   0.9509 B(  0-C ,  7-H ) :   0.9534
B(  0-C ,  8-H ) :   0.9536 B(  1-N ,  2-C ) :   1.2186 B(  1-N ,  5-C ) :   1.2189
B(  2-C ,  3-C ) :   1.4615 B(  2-C ,  9-H ) :   0.9682 B(  3-C ,  4-C ) :   1.3208
B(  3-C , 10-H ) :   0.9879 B(  4-C ,  5-C ) :   1.4613 B(  4-C , 11-H ) :   0.9879
B(  5-C , 12-H ) :   0.9686

Dispersion correction           -0.010759357
FINAL SINGLE POINT ENERGY      -248.917374634228

DIPOLE MOMENT
-------------

Method             : SCF
Type of density    : Electron Density
Multiplicity       :   1
Irrep              :   0
Energy             :  -248.9587963668003567 Eh
Relativity type    :
Basis              : AO
                                X                 Y                 Z
Electronic contribution:     -2.291043106       0.000875452      -0.055242268
Nuclear contribution   :      3.171759478      -0.000355386       0.053619655
                        -----------------------------------------
Total Dipole Moment    :      0.880716372       0.000520066      -0.001622613
                        -----------------------------------------
Magnitude (a.u.)       :      0.880718020
Magnitude (Debye)      :      2.238607301

Rotational constants in cm-1:             0.297374             0.120323             0.087073
Rotational constants in MHz :          8915.051000          3607.200590          2610.390477

                             ****ORCA TERMINATED NORMALLY****
TOTAL RUN TIME: 0 days 0 hours 0 minutes 8 seconds 136 msec
