                         Program Version 6.0.1  -  RELEASE   -
|  1> ! pbe def2-sv(p) def2/J RI DEFGRID1 loosescf d4 GCP(DFT/SV(P)) printgap
|  2> %output
|  3>     printlevel normal
|  4> end
|  5> * xyz 0 1
|  6> C 4.7447051259 -1.6832191171 0.930680718
|  7> C 4.3084494039 -2.4925959339 -0.279767874
|  8> O 2.8872268995 -2.3633103689 -0.4762380636
|  9> C 2.4464107335 -1.4445336262 -1.3082120659
| 10> O 3.1461823742 -0.7414405516 -2.0054586953
| 11> C 0.9274932983 -1.4094780119 -1.3408204989
| 12> C 0.4819596471 0.0464075076 -1.3996388384
| 13> H 0.9532865156 0.5235897743 -2.2675584929
| 14> C 0.9661003386 0.8065761562 -0.1780280137
| 15> O 1.9763088763 0.5016682463 0.4133485149
| 16> O 0.2163463764 1.8530435984 0.0930846359
| 17> C 0.5957745384 2.7053517123 1.1932091345
| 18> C 0.0406661482 4.0906494644 0.9289516767
| 19> S -1.3078065621 0.2428078854 -1.683144391
| 20> P -2.0392488557 0.10837517 0.2780269522
| 21> S -0.9281993057 -0.7305605226 1.6767743063
| 22> O -2.5378853593 1.586206151 0.5661549717
| 23> C -3.2602539175 1.8787095713 1.7757981166
| 24> O -3.45007294 -0.6265530233 0.0992014143
| 25> C -3.5464386946 -2.0464232725 -0.0571249795
| 26> H 4.236822883 -2.0409251302 1.8218845265
| 27> H 5.817747475 -1.773676314 1.0620535095
| 28> H 4.4847034927 -0.6367489943 0.7850999283
| 29> H 4.4755088534 -3.5596588067 -0.1293000917
| 30> H 4.8165066619 -2.1476814397 -1.184919615
| 31> H 0.5469604082 -1.9122203046 -0.4510032364
| 32> H 0.5845119695 -1.9314607409 -2.2349826355
| 33> H 0.179305508 2.2657856227 2.1055263198
| 34> H 1.6870015009 2.6989893072 1.2697349159
| 35> H -1.0294708354 4.0282554848 0.7546707552
| 36> H 0.2332962826 4.7225804498 1.7892014025
| 37> H 0.5122916551 4.5234730875 0.0515292447
| 38> H -2.7392482737 1.4586593663 2.6381076413
| 39> H -4.264993891 1.4635409013 1.7146618005
| 40> H -3.2961057126 2.9630676042 1.8422663111
| 41> H -4.5865451684 -2.2945497988 0.138487601
| 42> H -2.8943302632 -2.547208117 0.6608822083
| 43> H -3.2701382432 -2.3267163162 -1.0728304343
| 44> *
| 45>
| 46>                          ****END OF INPUT****

CARTESIAN COORDINATES (ANGSTROEM)
---------------------------------
  C      4.744705   -1.683219    0.930681
  C      4.308449   -2.492596   -0.279768
  O      2.887227   -2.363310   -0.476238
  C      2.446411   -1.444534   -1.308212
  O      3.146182   -0.741441   -2.005459
  C      0.927493   -1.409478   -1.340820
  C      0.481960    0.046408   -1.399639
  H      0.953287    0.523590   -2.267558
  C      0.966100    0.806576   -0.178028
  O      1.976309    0.501668    0.413349
  O      0.216346    1.853044    0.093085
  C      0.595775    2.705352    1.193209
  C      0.040666    4.090649    0.928952
  S     -1.307807    0.242808   -1.683144
  P     -2.039249    0.108375    0.278027
  S     -0.928199   -0.730561    1.676774
  O     -2.537885    1.586206    0.566155
  C     -3.260254    1.878710    1.775798
  O     -3.450073   -0.626553    0.099201
  C     -3.546439   -2.046423   -0.057125
  H      4.236823   -2.040925    1.821885
  H      5.817747   -1.773676    1.062054
  H      4.484703   -0.636749    0.785100
  H      4.475509   -3.559659   -0.129300
  H      4.816507   -2.147681   -1.184920
  H      0.546960   -1.912220   -0.451003
  H      0.584512   -1.931461   -2.234983
  H      0.179306    2.265786    2.105526
  H      1.687002    2.698989    1.269735
  H     -1.029471    4.028255    0.754671
  H      0.233296    4.722580    1.789201
  H      0.512292    4.523473    0.051529
  H     -2.739248    1.458659    2.638108
  H     -4.264994    1.463541    1.714662
  H     -3.296106    2.963068    1.842266
  H     -4.586545   -2.294550    0.138488
  H     -2.894330   -2.547208    0.660882
  H     -3.270138   -2.326716   -1.072830

 Total Charge           Charge          ....    0
 Multiplicity           Mult            ....    1
 Number of Electrons    NEL             ....  174
 Basis Dimension        Dim             ....  316

ORBITAL ENERGIES
----------------

  NO   OCC          E(Eh)            E(eV)
   0   2.0000     -88.046889     -2395.8776
   1   2.0000     -87.991561     -2394.3721
   2   2.0000     -76.431959     -2079.8193
   3   2.0000     -18.809086      -511.8212
   4   2.0000     -18.798721      -511.5392
   5   2.0000     -18.796936      -511.4906
   6   2.0000     -18.788316      -511.2561
   7   2.0000     -18.739537      -509.9287
   8   2.0000     -18.724504      -509.5197
   9   2.0000     -10.019067      -272.6327
  10   2.0000      -9.999142      -272.0905
  11   2.0000      -9.952699      -270.8267
  12   2.0000      -9.949426      -270.7376
  13   2.0000      -9.948322      -270.7076
  14   2.0000      -9.947344      -270.6810
  15   2.0000      -9.934906      -270.3425
  16   2.0000      -9.899997      -269.3926
  17   2.0000      -9.888732      -269.0861
  18   2.0000      -9.871856      -268.6268
  19   2.0000      -7.692159      -209.3143
  20   2.0000      -7.636211      -207.7919
  21   2.0000      -6.429268      -174.9493
  22   2.0000      -5.720241      -155.6557
  23   2.0000      -5.716610      -155.5569
  24   2.0000      -5.708918      -155.3476
  25   2.0000      -5.665041      -154.1536
  26   2.0000      -5.656917      -153.9325
  27   2.0000      -5.656393      -153.9183
  28   2.0000      -4.651837      -126.5829
  29   2.0000      -4.651054      -126.5616
  30   2.0000      -4.649765      -126.5265
  31   2.0000      -1.017033       -27.6749
  32   2.0000      -0.996741       -27.1227
  33   2.0000      -0.991656       -26.9843
  34   2.0000      -0.947886       -25.7933
  35   2.0000      -0.921613       -25.0784
  36   2.0000      -0.902116       -24.5478
  37   2.0000      -0.767272       -20.8785
  38   2.0000      -0.708285       -19.2734
  39   2.0000      -0.707103       -19.2413
  40   2.0000      -0.689991       -18.7756
  41   2.0000      -0.653029       -17.7698
  42   2.0000      -0.639210       -17.3938
  43   2.0000      -0.635481       -17.2923
  44   2.0000      -0.614332       -16.7168
  45   2.0000      -0.587055       -15.9746
  46   2.0000      -0.556543       -15.1443
  47   2.0000      -0.519446       -14.1349
  48   2.0000      -0.509310       -13.8590
  49   2.0000      -0.488849       -13.3022
  50   2.0000      -0.483205       -13.1487
  51   2.0000      -0.477066       -12.9816
  52   2.0000      -0.457416       -12.4469
  53   2.0000      -0.441398       -12.0110
  54   2.0000      -0.438007       -11.9188
  55   2.0000      -0.431245       -11.7348
  56   2.0000      -0.421804       -11.4779
  57   2.0000      -0.419576       -11.4172
  58   2.0000      -0.414176       -11.2703
  59   2.0000      -0.408487       -11.1155
  60   2.0000      -0.406913       -11.0727
  61   2.0000      -0.395768       -10.7694
  62   2.0000      -0.387681       -10.5493
  63   2.0000      -0.376582       -10.2473
  64   2.0000      -0.370589       -10.0842
  65   2.0000      -0.361845        -9.8463
  66   2.0000      -0.356097        -9.6899
  67   2.0000      -0.355543        -9.6748
  68   2.0000      -0.341703        -9.2982
  69   2.0000      -0.337302        -9.1785
  70   2.0000      -0.330271        -8.9871
  71   2.0000      -0.319328        -8.6894
  72   2.0000      -0.314111        -8.5474
  73   2.0000      -0.313523        -8.5314
  74   2.0000      -0.310291        -8.4434
  75   2.0000      -0.305106        -8.3024
  76   2.0000      -0.296225        -8.0607
  77   2.0000      -0.280312        -7.6277
  78   2.0000      -0.279332        -7.6010
  79   2.0000      -0.269189        -7.3250
  80   2.0000      -0.261769        -7.1231
  81   2.0000      -0.245295        -6.6748
  82   2.0000      -0.239845        -6.5265
  83   2.0000      -0.221610        -6.0303
  84   2.0000      -0.211105        -5.7444
  85   2.0000      -0.207977        -5.6593
  86   2.0000      -0.207168        -5.6373
  87   0.0000      -0.044594        -1.2135
  88   0.0000      -0.031403        -0.8545
  89   0.0000      -0.004978        -0.1354
  90   0.0000       0.004450         0.1211
  91   0.0000       0.010952         0.2980

MULLIKEN ATOMIC CHARGES
-----------------------
   0 C :   -0.296250
   1 C :   -0.021079
   2 O :   -0.224056
   3 C :    0.112935
   4 O :   -0.218608
   5 C :   -0.040172
   6 C :   -0.299382
   7 H :    0.166244
   8 C :    0.170027
   9 O :   -0.173879
  10 O :   -0.224790
  11 C :   -0.025199
  12 C :   -0.287759
  13 S :   -0.059640
  14 P :    0.616772
  15 S :   -0.319743
  16 O :   -0.367866
  17 C :   -0.107340
  18 O :   -0.386835
  19 C :   -0.102131
  20 H :    0.112736
  21 H :    0.103999
  22 H :    0.136379
  23 H :    0.098189
  24 H :    0.106577
  25 H :    0.112756
  26 H :    0.111111
  27 H :    0.106127
  28 H :    0.115224
  29 H :    0.124776
  30 H :    0.110115
  31 H :    0.115197
  32 H :    0.119648
  33 H :    0.124711
  34 H :    0.129735
  35 H :    0.125661
  36 H :    0.120259
  37 H :    0.115550
Sum of atomic charges:    0.0000000

LOEWDIN ATOMIC CHARGES
----------------------
   0 C :   -0.354456
   1 C :   -0.111304
   2 O :   -0.053210
   3 C :    0.030801
   4 O :   -0.181474
   5 C :   -0.254060
   6 C :   -0.265404
   7 H :    0.159528
   8 C :    0.008509
   9 O :   -0.137690
  10 O :   -0.056947
  11 C :   -0.108090
  12 C :   -0.351598
  13 S :    0.125334
  14 P :    0.573438
  15 S :   -0.298527
  16 O :   -0.244786
  17 C :   -0.211206
  18 O :   -0.260666
  19 C :   -0.216046
  20 H :    0.125162
  21 H :    0.125581
  22 H :    0.135073
  23 H :    0.114708
  24 H :    0.118261
  25 H :    0.131659
  26 H :    0.141932
  27 H :    0.113884
  28 H :    0.120696
  29 H :    0.127513
  30 H :    0.129808
  31 H :    0.127294
  32 H :    0.112326
  33 H :    0.117214
  34 H :    0.121520
  35 H :    0.122845
  36 H :    0.110361
  37 H :    0.112018

  Mayer bond orders larger than 0.100000
B(  0-C ,  1-C ) :   1.1770 B(  0-C , 20-H ) :   0.9498 B(  0-C , 21-H ) :   0.9440
B(  0-C , 22-H ) :   0.9406 B(  1-C ,  2-O ) :   0.9160 B(  1-C , 23-H ) :   0.9378
B(  1-C , 24-H ) :   0.9092 B(  2-O ,  3-C ) :   1.2481 B(  3-C ,  4-O ) :   2.0274
B(  3-C ,  5-C ) :   0.9947 B(  5-C ,  6-C ) :   1.0399 B(  5-C , 25-H ) :   0.8887
B(  5-C , 26-H ) :   0.8817 B(  6-C ,  7-H ) :   0.8437 B(  6-C ,  8-C ) :   0.9194
B(  6-C , 13-S ) :   1.0001 B(  8-C ,  9-O ) :   2.0311 B(  8-C , 10-O ) :   1.2432
B( 10-O , 11-C ) :   0.8927 B( 11-C , 12-C ) :   1.1572 B( 11-C , 27-H ) :   0.9254
B( 11-C , 28-H ) :   0.9199 B( 12-C , 29-H ) :   0.9429 B( 12-C , 30-H ) :   0.9434
B( 12-C , 31-H ) :   0.9502 B( 13-S , 14-P ) :   0.9864 B( 13-S , 15-S ) :   0.1216
B( 14-P , 15-S ) :   1.5960 B( 14-P , 16-O ) :   1.1174 B( 14-P , 18-O ) :   1.0787
B( 16-O , 17-C ) :   0.9232 B( 17-C , 32-H ) :   0.9335 B( 17-C , 33-H ) :   0.9515
B( 17-C , 34-H ) :   0.9544 B( 18-O , 19-C ) :   0.9309 B( 19-C , 35-H ) :   0.9589
B( 19-C , 36-H ) :   0.9317 B( 19-C , 37-H ) :   0.9497

Dispersion correction           -0.053136401
FINAL SINGLE POINT ENERGY     -1979.023218712733

DIPOLE MOMENT
-------------

Method             : SCF
Type of density    : Electron Density
Multiplicity       :   1
Irrep              :   0
Energy             : -1979.1532020913969063 Eh
Relativity type    :
Basis              : AO
                                X                 Y                 Z
Electronic contribution:     -9.073182178      -2.969665918      -7.995060462
Nuclear contribution   :      7.968452387       3.182501814       8.451271840
                        -----------------------------------------
Total Dipole Moment    :     -1.104729791       0.212835896       0.456211379
                        -----------------------------------------
Magnitude (a.u.)       :      1.214024651
Magnitude (Debye)      :      3.085805429

Rotational constants in cm-1:             0.014701             0.006744             0.005781
Rotational constants in MHz :           440.739311           202.190930           173.320028

                             ****ORCA TERMINATED NORMALLY****
TOTAL RUN TIME: 0 days 0 hours 0 minutes 31 seconds 11 msec
