                         Program Version 6.0.0  -   RELEASE  -
|  1> ! pbe def2-sv(p) def2/J RI DEFGRID1 loosescf d4 GCP(DFT/SV(P)) printgap
|  2> %output
|  3>     printlevel normal
|  4> end
|  5> * xyz 0 1
|  6> C 2.7463790809 2.1524884634 -2.0709887108
|  7> C 3.3085836151 1.2381034202 -1.0023489606
|  8> O 2.2885828852 1.0422238924 0.0127951472
|  9> P 2.0978939948 -0.3161346998 0.7881713777
| 10> S 0.6422113522 -0.1232937212 2.0810826022
| 11> O 3.567862339 -0.565922574 1.3372645585
| 12> C 4.0876014466 -1.8267656674 1.8003021808
| 13> C 3.2241107974 -2.4583970446 2.8717928373
| 14> S 1.8803653474 -1.8636322953 -0.6676057526
| 15> C 0.1084809962 -1.7015109551 -0.9303667762
| 16> S -0.3071344464 -0.080224363 -1.6693718062
| 17> P -2.1503907745 0.2979472887 -0.7239593448
| 18> S -2.6911607657 -0.893945005 0.7424702056
| 19> O -3.1014482391 0.2280722039 -1.9881038672
| 20> C -4.5208319118 0.0100760226 -1.8699998497
| 21> C -5.2189829341 1.2061213828 -1.2583160164
| 22> O -2.127682747 1.8685184334 -0.4720321206
| 23> C -1.2872151726 2.5558724102 0.4683191162
| 24> C -1.8803589635 2.5424160413 1.8630078431
| 25> H 2.4472298177 3.0997900647 -1.6318416699
| 26> H 3.5082891164 2.3292146672 -2.8231250771
| 27> H 1.8786801084 1.693040131 -2.5385864385
| 28> H 4.1725338944 1.6807059352 -0.503879766
| 29> H 3.5856249248 0.2650744465 -1.4177204382
| 30> H 4.1828800811 -2.4921492841 0.9380349647
| 31> H 5.0761958536 -1.5695577831 2.18449507
| 32> H 3.7027086913 -3.3614192211 3.2366395727
| 33> H 3.0785527045 -1.7676784448 3.6992295112
| 34> H 2.2468598574 -2.715280312 2.4646626769
| 35> H -0.4217513879 -1.7910339891 0.0228755231
| 36> H -0.1743063561 -2.4952822284 -1.6171934664
| 37> H -4.8437062242 -0.1710398658 -2.8958278812
| 38> H -4.6842696923 -0.8852106403 -1.2613642507
| 39> H -4.8840432824 1.3375661149 -0.2298741116
| 40> H -4.9849114187 2.1061008671 -1.820674217
| 41> H -6.291870284 1.0415626519 -1.2631985625
| 42> H -0.290064498 2.1037402745 0.4683962261
| 43> H -1.2256825816 3.5713999283 0.0724210621
| 44> H -1.9070972808 1.5261777662 2.2524821863
| 45> H -1.2605522957 3.1444178811 2.5196771174
| 46> H -2.8900100782 2.9436418228 1.847575171
| 47> *
| 48>
| 49>                          ****END OF INPUT****

CARTESIAN COORDINATES (ANGSTROEM)
---------------------------------
  C      2.746379    2.152488   -2.070989
  C      3.308584    1.238103   -1.002349
  O      2.288583    1.042224    0.012795
  P      2.097894   -0.316135    0.788171
  S      0.642211   -0.123294    2.081083
  O      3.567862   -0.565923    1.337265
  C      4.087601   -1.826766    1.800302
  C      3.224111   -2.458397    2.871793
  S      1.880365   -1.863632   -0.667606
  C      0.108481   -1.701511   -0.930367
  S     -0.307134   -0.080224   -1.669372
  P     -2.150391    0.297947   -0.723959
  S     -2.691161   -0.893945    0.742470
  O     -3.101448    0.228072   -1.988104
  C     -4.520832    0.010076   -1.870000
  C     -5.218983    1.206121   -1.258316
  O     -2.127683    1.868518   -0.472032
  C     -1.287215    2.555872    0.468319
  C     -1.880359    2.542416    1.863008
  H      2.447230    3.099790   -1.631842
  H      3.508289    2.329215   -2.823125
  H      1.878680    1.693040   -2.538586
  H      4.172534    1.680706   -0.503880
  H      3.585625    0.265074   -1.417720
  H      4.182880   -2.492149    0.938035
  H      5.076196   -1.569558    2.184495
  H      3.702709   -3.361419    3.236640
  H      3.078553   -1.767678    3.699230
  H      2.246860   -2.715280    2.464663
  H     -0.421751   -1.791034    0.022876
  H     -0.174306   -2.495282   -1.617193
  H     -4.843706   -0.171040   -2.895828
  H     -4.684270   -0.885211   -1.261364
  H     -4.884043    1.337566   -0.229874
  H     -4.984911    2.106101   -1.820674
  H     -6.291870    1.041563   -1.263199
  H     -0.290064    2.103740    0.468396
  H     -1.225683    3.571400    0.072421
  H     -1.907097    1.526178    2.252482
  H     -1.260552    3.144418    2.519677
  H     -2.890010    2.943642    1.847575

 Total Charge           Charge          ....    0
 Multiplicity           Mult            ....    1
 Number of Electrons    NEL             ....  202
 Basis Dimension        Dim             ....  334

ORBITAL ENERGIES
----------------

  NO   OCC          E(Eh)            E(eV)
   0   2.0000     -88.050380     -2395.9727
   1   2.0000     -88.039184     -2395.6680
   2   2.0000     -87.983383     -2394.1496
   3   2.0000     -87.982444     -2394.1240
   4   2.0000     -76.427694     -2079.7033
   5   2.0000     -76.421102     -2079.5239
   6   2.0000     -18.797019      -511.4929
   7   2.0000     -18.792299      -511.3644
   8   2.0000     -18.785437      -511.1777
   9   2.0000     -18.780871      -511.0535
  10   2.0000      -9.961611      -271.0692
  11   2.0000      -9.955935      -270.9148
  12   2.0000      -9.954660      -270.8801
  13   2.0000      -9.945081      -270.6194
  14   2.0000      -9.939973      -270.4804
  15   2.0000      -9.887065      -269.0407
  16   2.0000      -9.884838      -268.9801
  17   2.0000      -9.878098      -268.7967
  18   2.0000      -9.868083      -268.5242
  19   2.0000      -7.695154      -209.3958
  20   2.0000      -7.684255      -209.0992
  21   2.0000      -7.628193      -207.5737
  22   2.0000      -7.627366      -207.5512
  23   2.0000      -6.424732      -174.8259
  24   2.0000      -6.418666      -174.6608
  25   2.0000      -5.722939      -155.7291
  26   2.0000      -5.719397      -155.6327
  27   2.0000      -5.712571      -155.4470
  28   2.0000      -5.712170      -155.4360
  29   2.0000      -5.708858      -155.3459
  30   2.0000      -5.701035      -155.1331
  31   2.0000      -5.657000      -153.9348
  32   2.0000      -5.656444      -153.9197
  33   2.0000      -5.649013      -153.7175
  34   2.0000      -5.648265      -153.6971
  35   2.0000      -5.647756      -153.6833
  36   2.0000      -5.647570      -153.6782
  37   2.0000      -4.647551      -126.4663
  38   2.0000      -4.646841      -126.4470
  39   2.0000      -4.644702      -126.3888
  40   2.0000      -4.640981      -126.2875
  41   2.0000      -4.640436      -126.2727
  42   2.0000      -4.639389      -126.2442
  43   2.0000      -0.990740       -26.9594
  44   2.0000      -0.979182       -26.6449
  45   2.0000      -0.946485       -25.7552
  46   2.0000      -0.937012       -25.4974
  47   2.0000      -0.763874       -20.7861
  48   2.0000      -0.721388       -19.6300
  49   2.0000      -0.708653       -19.2834
  50   2.0000      -0.692035       -18.8312
  51   2.0000      -0.677193       -18.4274
  52   2.0000      -0.672655       -18.3039
  53   2.0000      -0.650487       -17.7007
  54   2.0000      -0.634522       -17.2662
  55   2.0000      -0.593937       -16.1618
  56   2.0000      -0.589021       -16.0281
  57   2.0000      -0.573197       -15.5975
  58   2.0000      -0.566384       -15.4121
  59   2.0000      -0.560221       -15.2444
  60   2.0000      -0.509074       -13.8526
  61   2.0000      -0.490089       -13.3360
  62   2.0000      -0.476357       -12.9623
  63   2.0000      -0.465053       -12.6547
  64   2.0000      -0.454849       -12.3771
  65   2.0000      -0.444723       -12.1015
  66   2.0000      -0.437476       -11.9043
  67   2.0000      -0.432551       -11.7703
  68   2.0000      -0.428788       -11.6679
  69   2.0000      -0.417124       -11.3505
  70   2.0000      -0.405872       -11.0443
  71   2.0000      -0.397284       -10.8106
  72   2.0000      -0.394529       -10.7357
  73   2.0000      -0.387542       -10.5456
  74   2.0000      -0.384515       -10.4632
  75   2.0000      -0.366283        -9.9671
  76   2.0000      -0.360640        -9.8135
  77   2.0000      -0.352917        -9.6034
  78   2.0000      -0.350972        -9.5504
  79   2.0000      -0.348000        -9.4696
  80   2.0000      -0.344384        -9.3712
  81   2.0000      -0.342107        -9.3092
  82   2.0000      -0.335045        -9.1170
  83   2.0000      -0.333079        -9.0636
  84   2.0000      -0.324609        -8.8331
  85   2.0000      -0.320577        -8.7233
  86   2.0000      -0.307888        -8.3781
  87   2.0000      -0.299134        -8.1398
  88   2.0000      -0.296426        -8.0662
  89   2.0000      -0.286756        -7.8030
  90   2.0000      -0.279318        -7.6006
  91   2.0000      -0.278492        -7.5781
  92   2.0000      -0.268109        -7.2956
  93   2.0000      -0.263193        -7.1618
  94   2.0000      -0.256619        -6.9830
  95   2.0000      -0.237677        -6.4675
  96   2.0000      -0.220354        -5.9961
  97   2.0000      -0.211692        -5.7604
  98   2.0000      -0.199421        -5.4265
  99   2.0000      -0.195924        -5.3314
 100   2.0000      -0.187309        -5.0969
 101   0.0000      -0.043544        -1.1849
 102   0.0000      -0.033299        -0.9061
 103   0.0000      -0.012832        -0.3492
 104   0.0000       0.011821         0.3217
 105   0.0000       0.019119         0.5203

MULLIKEN ATOMIC CHARGES
-----------------------
   0 C :   -0.287738
   1 C :   -0.009603
   2 O :   -0.348490
   3 P :    0.590487
   4 S :   -0.293155
   5 O :   -0.379207
   6 C :   -0.011856
   7 C :   -0.310079
   8 S :   -0.122668
   9 C :   -0.346401
  10 S :   -0.105835
  11 P :    0.629220
  12 S :   -0.318459
  13 O :   -0.368374
  14 C :   -0.004978
  15 C :   -0.306870
  16 O :   -0.373742
  17 C :   -0.026272
  18 C :   -0.302122
  19 H :    0.118718
  20 H :    0.108832
  21 H :    0.130126
  22 H :    0.108787
  23 H :    0.098276
  24 H :    0.112970
  25 H :    0.110011
  26 H :    0.112113
  27 H :    0.128438
  28 H :    0.129111
  29 H :    0.214788
  30 H :    0.182985
  31 H :    0.102329
  32 H :    0.109015
  33 H :    0.125917
  34 H :    0.115770
  35 H :    0.108867
  36 H :    0.128138
  37 H :    0.097223
  38 H :    0.140247
  39 H :    0.106025
  40 H :    0.107459
Sum of atomic charges:    0.0000000

LOEWDIN ATOMIC CHARGES
----------------------
   0 C :   -0.353883
   1 C :   -0.115633
   2 O :   -0.234886
   3 P :    0.562961
   4 S :   -0.285118
   5 O :   -0.247540
   6 C :   -0.114667
   7 C :   -0.368685
   8 S :    0.066222
   9 C :   -0.477399
  10 S :    0.081634
  11 P :    0.568667
  12 S :   -0.297255
  13 O :   -0.246767
  14 C :   -0.118725
  15 C :   -0.364971
  16 O :   -0.240499
  17 C :   -0.121417
  18 C :   -0.364681
  19 H :    0.128278
  20 H :    0.129140
  21 H :    0.123634
  22 H :    0.116727
  23 H :    0.101778
  24 H :    0.107933
  25 H :    0.121762
  26 H :    0.130504
  27 H :    0.131390
  28 H :    0.122700
  29 H :    0.124454
  30 H :    0.135229
  31 H :    0.117388
  32 H :    0.108325
  33 H :    0.123263
  34 H :    0.125987
  35 H :    0.128748
  36 H :    0.107247
  37 H :    0.114573
  38 H :    0.123496
  39 H :    0.129084
  40 H :    0.121000

  Mayer bond orders larger than 0.100000
B(  0-C ,  1-C ) :   1.1645 B(  0-C , 19-H ) :   0.9493 B(  0-C , 20-H ) :   0.9406
B(  0-C , 21-H ) :   0.9417 B(  1-C ,  2-O ) :   0.8878 B(  1-C , 22-H ) :   0.9333
B(  1-C , 23-H ) :   0.9111 B(  2-O ,  3-P ) :   1.1243 B(  3-P ,  4-S ) :   1.6584
B(  3-P ,  5-O ) :   1.0873 B(  3-P ,  8-S ) :   0.9278 B(  4-S ,  8-S ) :   0.1086
B(  5-O ,  6-C ) :   0.9133 B(  6-C ,  7-C ) :   1.1667 B(  6-C , 24-H ) :   0.9268
B(  6-C , 25-H ) :   0.9333 B(  7-C , 26-H ) :   0.9349 B(  7-C , 27-H ) :   0.9428
B(  7-C , 28-H ) :   0.9324 B(  8-S ,  9-C ) :   1.0068 B(  9-C , 10-S ) :   0.9927
B(  9-C , 29-H ) :   0.8439 B(  9-C , 30-H ) :   0.9091 B( 10-S , 11-P ) :   0.9581
B( 10-S , 12-S ) :   0.1190 B( 11-P , 12-S ) :   1.6109 B( 11-P , 13-O ) :   1.1274
B( 11-P , 16-O ) :   1.1180 B( 13-O , 14-C ) :   0.9139 B( 14-C , 15-C ) :   1.1634
B( 14-C , 31-H ) :   0.9347 B( 14-C , 32-H ) :   0.9140 B( 15-C , 33-H ) :   0.9354
B( 15-C , 34-H ) :   0.9465 B( 15-C , 35-H ) :   0.9386 B( 16-O , 17-C ) :   0.9014
B( 17-C , 18-C ) :   1.1707 B( 17-C , 36-H ) :   0.9029 B( 17-C , 37-H ) :   0.9354
B( 18-C , 38-H ) :   0.9306 B( 18-C , 39-H ) :   0.9393 B( 18-C , 40-H ) :   0.9461

Dispersion correction           -0.066238132
FINAL SINGLE POINT ENERGY     -2929.520405149116

DIPOLE MOMENT
-------------

Method             : SCF
Type of density    : Electron Density
Multiplicity       :   1
Irrep              :   0
Energy             : -2929.6387939644805556 Eh
Relativity type    :
Basis              : AO
                                X                 Y                 Z
Electronic contribution:      1.025890469      -9.051476263      -2.265728561
Nuclear contribution   :      0.089941034       9.140685636       1.509997986
                        -----------------------------------------
Total Dipole Moment    :      1.115831503       0.089209373      -0.755730574
                        -----------------------------------------
Magnitude (a.u.)       :      1.350617250
Magnitude (Debye)      :      3.432996225

Rotational constants in cm-1:             0.013134             0.004920             0.004734
Rotational constants in MHz :           393.733814           147.508182           141.935673

                             ****ORCA TERMINATED NORMALLY****
TOTAL RUN TIME: 0 days 0 hours 0 minutes 21 seconds 95 msec
