                         Program Version 6.0.0  -   RELEASE  -
|  1> ! pbe def2-sv(p) def2/J RI DEFGRID1 loosescf d4 GCP(DFT/SV(P)) printgap
|  2> %output
|  3>     printlevel normal
|  4> end
|  5> * xyz 0 1
|  6> C 3.1820042396 0.0039881867 -2.8813065618
|  7> C 1.8313882941 0.4247646191 -2.3442489882
|  8> O 1.3664203873 -0.4745561886 -1.3227871112
|  9> P 2.0415491984 -0.5565231828 0.1089952929
| 10> S 2.7428547533 1.1421928494 0.8058201498
| 11> O 3.0940658684 -1.7205156052 -0.1491899074
| 12> C 3.7187333422 -2.5420978979 0.8546016845
| 13> C 4.3567576737 -1.7406336484 1.9700262058
| 14> S 0.5725042191 -1.5312158783 1.259183126
| 15> C -0.1562208263 -0.1148312822 2.1482147882
| 16> S -1.9255661661 0.0596680284 1.8383141261
| 17> P -1.8065522322 0.7308191245 -0.1770290395
| 18> S -0.5269507973 2.1750939875 -0.5004677112
| 19> O -3.3212877045 1.0793802586 -0.4976554321
| 20> C -3.9607419631 2.2292518567 0.0951503322
| 21> C -5.2424384537 2.4931457776 -0.6682538018
| 22> O -1.5313271353 -0.5291822328 -1.075766642
| 23> C -2.3278741319 -1.7421357062 -1.0374184569
| 24> C -3.3948775776 -1.7181632257 -2.1112686476
| 25> H 3.4644220218 0.6600505374 -3.698634232
| 26> H 3.9278224198 0.0777453838 -2.0904400993
| 27> H 3.1420555363 -1.0235974633 -3.232654821
| 28> H 1.0508462915 0.3817104762 -3.1055765593
| 29> H 1.8717619435 1.43726068 -1.9273046621
| 30> H 2.9621029684 -3.2240860623 1.2523484283
| 31> H 4.4655467527 -3.1055789722 0.2921963933
| 32> H 4.8813980182 -2.4136486266 2.6404850807
| 33> H 5.0588577215 -1.015578309 1.5651916118
| 34> H 3.5950456452 -1.201487135 2.5313637082
| 35> H 0.3702756972 0.7966453823 1.8493286323
| 36> H -0.0531282825 -0.2967845974 3.2147934337
| 37> H -4.1588791055 2.0037186469 1.146282053
| 38> H -3.2727382483 3.0788207075 0.034492098
| 39> H -5.7409371699 3.3547915013 -0.2367708278
| 40> H -5.0206149708 2.6937346705 -1.7126741262
| 41> H -5.8982894986 1.6298225196 -0.6046484249
| 42> H -1.6041908061 -2.5425106959 -1.204518895
| 43> H -2.7679608288 -1.8459959485 -0.0415484827
| 44> H -3.9308047726 -2.6620713708 -2.0967829239
| 45> H -4.0925334985 -0.9049879355 -1.9303551111
| 46> H -2.9394849303 -1.5786277782 -3.087851387
| 47> *
| 48>
| 49>                          ****END OF INPUT****

CARTESIAN COORDINATES (ANGSTROEM)
---------------------------------
  C      3.182004    0.003988   -2.881307
  C      1.831388    0.424765   -2.344249
  O      1.366420   -0.474556   -1.322787
  P      2.041549   -0.556523    0.108995
  S      2.742855    1.142193    0.805820
  O      3.094066   -1.720516   -0.149190
  C      3.718733   -2.542098    0.854602
  C      4.356758   -1.740634    1.970026
  S      0.572504   -1.531216    1.259183
  C     -0.156221   -0.114831    2.148215
  S     -1.925566    0.059668    1.838314
  P     -1.806552    0.730819   -0.177029
  S     -0.526951    2.175094   -0.500468
  O     -3.321288    1.079380   -0.497655
  C     -3.960742    2.229252    0.095150
  C     -5.242438    2.493146   -0.668254
  O     -1.531327   -0.529182   -1.075767
  C     -2.327874   -1.742136   -1.037418
  C     -3.394878   -1.718163   -2.111269
  H      3.464422    0.660051   -3.698634
  H      3.927822    0.077745   -2.090440
  H      3.142056   -1.023597   -3.232655
  H      1.050846    0.381710   -3.105577
  H      1.871762    1.437261   -1.927305
  H      2.962103   -3.224086    1.252348
  H      4.465547   -3.105579    0.292196
  H      4.881398   -2.413649    2.640485
  H      5.058858   -1.015578    1.565192
  H      3.595046   -1.201487    2.531364
  H      0.370276    0.796645    1.849329
  H     -0.053128   -0.296785    3.214793
  H     -4.158879    2.003719    1.146282
  H     -3.272738    3.078821    0.034492
  H     -5.740937    3.354792   -0.236771
  H     -5.020615    2.693735   -1.712674
  H     -5.898289    1.629823   -0.604648
  H     -1.604191   -2.542511   -1.204519
  H     -2.767961   -1.845996   -0.041548
  H     -3.930805   -2.662071   -2.096783
  H     -4.092533   -0.904988   -1.930355
  H     -2.939485   -1.578628   -3.087851

 Total Charge           Charge          ....    0
 Multiplicity           Mult            ....    1
 Number of Electrons    NEL             ....  202
 Basis Dimension        Dim             ....  334

ORBITAL ENERGIES
----------------

  NO   OCC          E(Eh)            E(eV)
   0   2.0000     -88.043640     -2395.7892
   1   2.0000     -88.042855     -2395.7679
   2   2.0000     -87.979054     -2394.0318
   3   2.0000     -87.978072     -2394.0050
   4   2.0000     -76.423246     -2079.5822
   5   2.0000     -76.420224     -2079.5000
   6   2.0000     -18.796342      -511.4745
   7   2.0000     -18.790519      -511.3160
   8   2.0000     -18.787706      -511.2395
   9   2.0000     -18.775160      -510.8981
  10   2.0000      -9.955434      -270.9011
  11   2.0000      -9.955135      -270.8930
  12   2.0000      -9.953912      -270.8597
  13   2.0000      -9.952796      -270.8293
  14   2.0000      -9.934230      -270.3241
  15   2.0000      -9.891189      -269.1529
  16   2.0000      -9.885489      -268.9978
  17   2.0000      -9.879982      -268.8480
  18   2.0000      -9.872099      -268.6335
  19   2.0000      -7.688906      -209.2258
  20   2.0000      -7.687994      -209.2010
  21   2.0000      -7.624057      -207.4611
  22   2.0000      -7.623019      -207.4329
  23   2.0000      -6.420962      -174.7233
  24   2.0000      -6.417455      -174.6278
  25   2.0000      -5.716629      -155.5574
  26   2.0000      -5.715773      -155.5341
  27   2.0000      -5.713253      -155.4655
  28   2.0000      -5.712434      -155.4432
  29   2.0000      -5.706181      -155.2731
  30   2.0000      -5.705084      -155.2432
  31   2.0000      -5.653035      -153.8269
  32   2.0000      -5.651969      -153.7979
  33   2.0000      -5.644541      -153.5958
  34   2.0000      -5.644254      -153.5880
  35   2.0000      -5.643887      -153.5780
  36   2.0000      -5.642905      -153.5513
  37   2.0000      -4.643844      -126.3654
  38   2.0000      -4.642853      -126.3384
  39   2.0000      -4.640950      -126.2867
  40   2.0000      -4.639846      -126.2566
  41   2.0000      -4.639299      -126.2417
  42   2.0000      -4.638065      -126.2082
  43   2.0000      -0.989158       -26.9164
  44   2.0000      -0.978072       -26.6147
  45   2.0000      -0.946322       -25.7507
  46   2.0000      -0.934651       -25.4331
  47   2.0000      -0.762465       -20.7477
  48   2.0000      -0.720093       -19.5947
  49   2.0000      -0.706916       -19.2362
  50   2.0000      -0.693151       -18.8616
  51   2.0000      -0.682259       -18.5652
  52   2.0000      -0.670321       -18.2404
  53   2.0000      -0.646827       -17.6011
  54   2.0000      -0.632138       -17.2013
  55   2.0000      -0.592793       -16.1307
  56   2.0000      -0.587076       -15.9752
  57   2.0000      -0.572567       -15.5803
  58   2.0000      -0.567759       -15.4495
  59   2.0000      -0.560040       -15.2395
  60   2.0000      -0.508872       -13.8471
  61   2.0000      -0.487732       -13.2719
  62   2.0000      -0.481004       -13.0888
  63   2.0000      -0.460136       -12.5209
  64   2.0000      -0.450676       -12.2635
  65   2.0000      -0.447672       -12.1818
  66   2.0000      -0.441283       -12.0079
  67   2.0000      -0.432830       -11.7779
  68   2.0000      -0.424915       -11.5625
  69   2.0000      -0.414654       -11.2833
  70   2.0000      -0.408180       -11.1072
  71   2.0000      -0.397809       -10.8249
  72   2.0000      -0.389552       -10.6003
  73   2.0000      -0.382833       -10.4174
  74   2.0000      -0.380116       -10.3435
  75   2.0000      -0.366223        -9.9654
  76   2.0000      -0.364686        -9.9236
  77   2.0000      -0.357655        -9.7323
  78   2.0000      -0.353406        -9.6167
  79   2.0000      -0.346478        -9.4282
  80   2.0000      -0.343735        -9.3535
  81   2.0000      -0.342027        -9.3070
  82   2.0000      -0.338564        -9.2128
  83   2.0000      -0.333923        -9.0865
  84   2.0000      -0.331416        -9.0183
  85   2.0000      -0.317445        -8.6381
  86   2.0000      -0.308132        -8.3847
  87   2.0000      -0.301387        -8.2012
  88   2.0000      -0.292710        -7.9650
  89   2.0000      -0.290322        -7.9001
  90   2.0000      -0.278279        -7.5724
  91   2.0000      -0.270157        -7.3513
  92   2.0000      -0.264104        -7.1866
  93   2.0000      -0.258390        -7.0311
  94   2.0000      -0.254750        -6.9321
  95   2.0000      -0.237588        -6.4651
  96   2.0000      -0.222477        -6.0539
  97   2.0000      -0.209344        -5.6965
  98   2.0000      -0.200437        -5.4542
  99   2.0000      -0.190927        -5.1954
 100   2.0000      -0.181165        -4.9297
 101   0.0000      -0.038811        -1.0561
 102   0.0000      -0.029595        -0.8053
 103   0.0000      -0.008586        -0.2336
 104   0.0000       0.014775         0.4021
 105   0.0000       0.022656         0.6165

MULLIKEN ATOMIC CHARGES
-----------------------
   0 C :   -0.295947
   1 C :   -0.006532
   2 O :   -0.351642
   3 P :    0.611922
   4 S :   -0.315611
   5 O :   -0.377569
   6 C :   -0.005492
   7 C :   -0.307743
   8 S :   -0.110960
   9 C :   -0.354409
  10 S :   -0.112058
  11 P :    0.593398
  12 S :   -0.296776
  13 O :   -0.383675
  14 C :   -0.013848
  15 C :   -0.282787
  16 O :   -0.340236
  17 C :   -0.009755
  18 C :   -0.289627
  19 H :    0.107013
  20 H :    0.119026
  21 H :    0.108750
  22 H :    0.099268
  23 H :    0.123669
  24 H :    0.108837
  25 H :    0.106637
  26 H :    0.108300
  27 H :    0.125822
  28 H :    0.120631
  29 H :    0.213608
  30 H :    0.182727
  31 H :    0.105317
  32 H :    0.108456
  33 H :    0.114305
  34 H :    0.123041
  35 H :    0.116076
  36 H :    0.110268
  37 H :    0.099602
  38 H :    0.108492
  39 H :    0.121516
  40 H :    0.117988
Sum of atomic charges:   -0.0000000

LOEWDIN ATOMIC CHARGES
----------------------
   0 C :   -0.364777
   1 C :   -0.121650
   2 O :   -0.231931
   3 P :    0.570591
   4 S :   -0.306865
   5 O :   -0.246485
   6 C :   -0.114757
   7 C :   -0.369961
   8 S :    0.074095
   9 C :   -0.477525
  10 S :    0.063125
  11 P :    0.560563
  12 S :   -0.290144
  13 O :   -0.250402
  14 C :   -0.120534
  15 C :   -0.350479
  16 O :   -0.223321
  17 C :   -0.116296
  18 C :   -0.360120
  19 H :    0.127983
  20 H :    0.120993
  21 H :    0.122612
  22 H :    0.116688
  23 H :    0.108031
  24 H :    0.107302
  25 H :    0.120164
  26 H :    0.128314
  27 H :    0.129227
  28 H :    0.119525
  29 H :    0.127600
  30 H :    0.136814
  31 H :    0.108878
  32 H :    0.111244
  33 H :    0.132068
  34 H :    0.129976
  35 H :    0.125564
  36 H :    0.119962
  37 H :    0.102090
  38 H :    0.129052
  39 H :    0.124929
  40 H :    0.127857

  Mayer bond orders larger than 0.100000
B(  0-C ,  1-C ) :   1.1571 B(  0-C , 19-H ) :   0.9402 B(  0-C , 20-H ) :   0.9365
B(  0-C , 21-H ) :   0.9456 B(  1-C ,  2-O ) :   0.9035 B(  1-C , 22-H ) :   0.9351
B(  1-C , 23-H ) :   0.9098 B(  2-O ,  3-P ) :   1.1464 B(  3-P ,  4-S ) :   1.6057
B(  3-P ,  5-O ) :   1.0963 B(  3-P ,  8-S ) :   0.9500 B(  4-S ,  8-S ) :   0.1165
B(  5-O ,  6-C ) :   0.9172 B(  6-C ,  7-C ) :   1.1646 B(  6-C , 24-H ) :   0.9275
B(  6-C , 25-H ) :   0.9344 B(  7-C , 26-H ) :   0.9346 B(  7-C , 27-H ) :   0.9429
B(  7-C , 28-H ) :   0.9341 B(  8-S ,  9-C ) :   0.9919 B(  9-C , 10-S ) :   1.0063
B(  9-C , 29-H ) :   0.8437 B(  9-C , 30-H ) :   0.9120 B( 10-S , 11-P ) :   0.9428
B( 10-S , 12-S ) :   0.1056 B( 11-P , 12-S ) :   1.6666 B( 11-P , 13-O ) :   1.0755
B( 11-P , 16-O ) :   1.1535 B( 13-O , 14-C ) :   0.9040 B( 14-C , 15-C ) :   1.1598
B( 14-C , 31-H ) :   0.9284 B( 14-C , 32-H ) :   0.9095 B( 15-C , 33-H ) :   0.9417
B( 15-C , 34-H ) :   0.9508 B( 15-C , 35-H ) :   0.9507 B( 16-O , 17-C ) :   0.8891
B( 17-C , 18-C ) :   1.1639 B( 17-C , 36-H ) :   0.9327 B( 17-C , 37-H ) :   0.9105
B( 18-C , 38-H ) :   0.9400 B( 18-C , 39-H ) :   0.9407 B( 18-C , 40-H ) :   0.9473

Dispersion correction           -0.066702050
FINAL SINGLE POINT ENERGY     -2929.518158475630

DIPOLE MOMENT
-------------

Method             : SCF
Type of density    : Electron Density
Multiplicity       :   1
Irrep              :   0
Energy             : -2929.6368675388612246 Eh
Relativity type    :
Basis              : AO
                                X                 Y                 Z
Electronic contribution:      3.652536148       4.385036985       9.870524820
Nuclear contribution   :     -4.640243700      -5.581717514      -9.880407447
                        -----------------------------------------
Total Dipole Moment    :     -0.987707552      -1.196680529      -0.009882626
                        -----------------------------------------
Magnitude (a.u.)       :      1.551679143
Magnitude (Debye)      :      3.944054942

Rotational constants in cm-1:             0.013308             0.004997             0.004848
Rotational constants in MHz :           398.973915           149.791504           145.339139

                             ****ORCA TERMINATED NORMALLY****
TOTAL RUN TIME: 0 days 0 hours 0 minutes 21 seconds 642 msec
