                         Program Version 6.0.0  -   RELEASE  -
|  1> ! pbe def2-sv(p) def2/J RI DEFGRID1 loosescf d4 GCP(DFT/SV(P)) printgap
|  2> %output
|  3>     printlevel normal
|  4> end
|  5> * xyz 0 1
|  6> C 2.1534447109 -0.1254773123 -2.6270883955
|  7> C 1.7534882332 -1.2073297486 -1.6433808112
|  8> O 2.5891805164 -1.2236621703 -0.4792964919
|  9> P 2.5061297963 -0.2127965479 0.7533277733
| 10> S 3.0904089342 1.6297005147 0.4357844878
| 11> O 3.4716783084 -0.9046955716 1.7830383024
| 12> C 3.1904138163 -2.0734153056 2.5935425096
| 13> C 2.7154828704 -3.2624912966 1.7870097522
| 14> S 0.5426918948 -0.4522474517 1.5489656323
| 15> C -0.1092847695 1.1953558437 1.2018323164
| 16> S -0.3818370813 1.5400694051 -0.5676974383
| 17> P -2.1959632727 0.4996221356 -0.8332297923
| 18> S -3.0444198973 0.6029925773 -2.59618992
| 19> O -3.1501922381 0.9171054254 0.3817613828
| 20> C -4.115750709 1.9720823359 0.2480286353
| 21> C -3.4540649762 3.3328726284 0.1624362241
| 22> O -1.7180246243 -0.9387474136 -0.3731262244
| 23> C -2.6328221949 -2.059098361 -0.3310911402
| 24> C -1.8189060596 -3.295434774 -0.0112402149
| 25> H 3.1961681353 -0.2426283998 -2.9098059855
| 26> H 1.5281158501 -0.1969494225 -3.5119287431
| 27> H 2.0223906682 0.8610174627 -2.1859355998
| 28> H 1.8884450347 -2.200084866 -2.0780866137
| 29> H 0.7092757678 -1.0867716927 -1.3357463464
| 30> H 4.1477196965 -2.2724839837 3.0776182771
| 31> H 2.447197027 -1.7901091133 3.3429833416
| 32> H 1.7418487317 -3.0558189711 1.3468555435
| 33> H 3.4230181205 -3.4865526303 0.9930993578
| 34> H 2.6284211804 -4.1219149265 2.4446582959
| 35> H 0.6126906332 1.9434252543 1.5276553837
| 36> H -1.0504218443 1.2759799435 1.7393336411
| 37> H -4.7133451455 1.7815914018 -0.6490762478
| 38> H -4.7388121482 1.8785434577 1.1384987083
| 39> H -2.8227301433 3.5106222163 1.0294956352
| 40> H -2.8409412067 3.38893703 -0.7372353928
| 41> H -4.2180143839 4.1021018641 0.11333595
| 42> H -3.3806813352 -1.8614794982 0.440216111
| 43> H -3.129626395 -2.1341985121 -1.303741647
| 44> H -1.0855859683 -3.4744573734 -0.7924581617
| 45> H -1.3023050943 -3.1586253055 0.9349301368
| 46> H -2.4827162479 -4.1507574995 0.0591270833
| 47> *
| 48>
| 49>                          ****END OF INPUT****

CARTESIAN COORDINATES (ANGSTROEM)
---------------------------------
  C      2.153445   -0.125477   -2.627088
  C      1.753488   -1.207330   -1.643381
  O      2.589181   -1.223662   -0.479296
  P      2.506130   -0.212797    0.753328
  S      3.090409    1.629701    0.435784
  O      3.471678   -0.904696    1.783038
  C      3.190414   -2.073415    2.593543
  C      2.715483   -3.262491    1.787010
  S      0.542692   -0.452247    1.548966
  C     -0.109285    1.195356    1.201832
  S     -0.381837    1.540069   -0.567697
  P     -2.195963    0.499622   -0.833230
  S     -3.044420    0.602993   -2.596190
  O     -3.150192    0.917105    0.381761
  C     -4.115751    1.972082    0.248029
  C     -3.454065    3.332873    0.162436
  O     -1.718025   -0.938747   -0.373126
  C     -2.632822   -2.059098   -0.331091
  C     -1.818906   -3.295435   -0.011240
  H      3.196168   -0.242628   -2.909806
  H      1.528116   -0.196949   -3.511929
  H      2.022391    0.861017   -2.185936
  H      1.888445   -2.200085   -2.078087
  H      0.709276   -1.086772   -1.335746
  H      4.147720   -2.272484    3.077618
  H      2.447197   -1.790109    3.342983
  H      1.741849   -3.055819    1.346856
  H      3.423018   -3.486553    0.993099
  H      2.628421   -4.121915    2.444658
  H      0.612691    1.943425    1.527655
  H     -1.050422    1.275980    1.739334
  H     -4.713345    1.781591   -0.649076
  H     -4.738812    1.878543    1.138499
  H     -2.822730    3.510622    1.029496
  H     -2.840941    3.388937   -0.737235
  H     -4.218014    4.102102    0.113336
  H     -3.380681   -1.861479    0.440216
  H     -3.129626   -2.134199   -1.303742
  H     -1.085586   -3.474457   -0.792458
  H     -1.302305   -3.158625    0.934930
  H     -2.482716   -4.150757    0.059127

 Total Charge           Charge          ....    0
 Multiplicity           Mult            ....    1
 Number of Electrons    NEL             ....  202
 Basis Dimension        Dim             ....  334

ORBITAL ENERGIES
----------------

  NO   OCC          E(Eh)            E(eV)
   0   2.0000     -88.049165     -2395.9396
   1   2.0000     -88.046323     -2395.8623
   2   2.0000     -87.990501     -2394.3433
   3   2.0000     -87.983500     -2394.1527
   4   2.0000     -76.429428     -2079.7505
   5   2.0000     -76.427152     -2079.6885
   6   2.0000     -18.798968      -511.5459
   7   2.0000     -18.796297      -511.4732
   8   2.0000     -18.792068      -511.3582
   9   2.0000     -18.787932      -511.2456
  10   2.0000      -9.961315      -271.0612
  11   2.0000      -9.961131      -271.0561
  12   2.0000      -9.958882      -270.9949
  13   2.0000      -9.956412      -270.9277
  14   2.0000      -9.945851      -270.6404
  15   2.0000      -9.893742      -269.2224
  16   2.0000      -9.893549      -269.2172
  17   2.0000      -9.888490      -269.0795
  18   2.0000      -9.870412      -268.5876
  19   2.0000      -7.693720      -209.3568
  20   2.0000      -7.691117      -209.2859
  21   2.0000      -7.635651      -207.7766
  22   2.0000      -7.628700      -207.5875
  23   2.0000      -6.427255      -174.8945
  24   2.0000      -6.424211      -174.8117
  25   2.0000      -5.721967      -155.7026
  26   2.0000      -5.718997      -155.6218
  27   2.0000      -5.718030      -155.5955
  28   2.0000      -5.715505      -155.5268
  29   2.0000      -5.710590      -155.3931
  30   2.0000      -5.708243      -155.3292
  31   2.0000      -5.664576      -154.1410
  32   2.0000      -5.657800      -153.9566
  33   2.0000      -5.656284      -153.9153
  34   2.0000      -5.655820      -153.9027
  35   2.0000      -5.649377      -153.7274
  36   2.0000      -5.648584      -153.7058
  37   2.0000      -4.649821      -126.5281
  38   2.0000      -4.649194      -126.5110
  39   2.0000      -4.647505      -126.4650
  40   2.0000      -4.646940      -126.4497
  41   2.0000      -4.646214      -126.4299
  42   2.0000      -4.644402      -126.3806
  43   2.0000      -0.992884       -27.0178
  44   2.0000      -0.985254       -26.8101
  45   2.0000      -0.950781       -25.8721
  46   2.0000      -0.942476       -25.6461
  47   2.0000      -0.767481       -20.8842
  48   2.0000      -0.726385       -19.7660
  49   2.0000      -0.714838       -19.4517
  50   2.0000      -0.692670       -18.8485
  51   2.0000      -0.688676       -18.7398
  52   2.0000      -0.677058       -18.4237
  53   2.0000      -0.653855       -17.7923
  54   2.0000      -0.640357       -17.4250
  55   2.0000      -0.598657       -16.2903
  56   2.0000      -0.592387       -16.1197
  57   2.0000      -0.580926       -15.8078
  58   2.0000      -0.572628       -15.5820
  59   2.0000      -0.566076       -15.4037
  60   2.0000      -0.511764       -13.9258
  61   2.0000      -0.494691       -13.4612
  62   2.0000      -0.479460       -13.0468
  63   2.0000      -0.473685       -12.8896
  64   2.0000      -0.462616       -12.5884
  65   2.0000      -0.450939       -12.2707
  66   2.0000      -0.447136       -12.1672
  67   2.0000      -0.435459       -11.8495
  68   2.0000      -0.433748       -11.8029
  69   2.0000      -0.420673       -11.4471
  70   2.0000      -0.404744       -11.0136
  71   2.0000      -0.400597       -10.9008
  72   2.0000      -0.399552       -10.8724
  73   2.0000      -0.395537       -10.7631
  74   2.0000      -0.393725       -10.7138
  75   2.0000      -0.372233       -10.1290
  76   2.0000      -0.363431        -9.8895
  77   2.0000      -0.361931        -9.8486
  78   2.0000      -0.357744        -9.7347
  79   2.0000      -0.356126        -9.6907
  80   2.0000      -0.353562        -9.6209
  81   2.0000      -0.343448        -9.3457
  82   2.0000      -0.340460        -9.2644
  83   2.0000      -0.336225        -9.1491
  84   2.0000      -0.330724        -8.9995
  85   2.0000      -0.326871        -8.8946
  86   2.0000      -0.317876        -8.6498
  87   2.0000      -0.302931        -8.2432
  88   2.0000      -0.300025        -8.1641
  89   2.0000      -0.288468        -7.8496
  90   2.0000      -0.286699        -7.8015
  91   2.0000      -0.279986        -7.6188
  92   2.0000      -0.276692        -7.5292
  93   2.0000      -0.269069        -7.3218
  94   2.0000      -0.258152        -7.0247
  95   2.0000      -0.237937        -6.4746
  96   2.0000      -0.220133        -5.9901
  97   2.0000      -0.210808        -5.7364
  98   2.0000      -0.207369        -5.6428
  99   2.0000      -0.204151        -5.5552
 100   2.0000      -0.195571        -5.3218
 101   0.0000      -0.046769        -1.2726
 102   0.0000      -0.028627        -0.7790
 103   0.0000      -0.014800        -0.4027
 104   0.0000      -0.002558        -0.0696
 105   0.0000       0.006182         0.1682

MULLIKEN ATOMIC CHARGES
-----------------------
   0 C :   -0.300183
   1 C :   -0.040086
   2 O :   -0.371433
   3 P :    0.603259
   4 S :   -0.309142
   5 O :   -0.359714
   6 C :   -0.003987
   7 C :   -0.323089
   8 S :   -0.117038
   9 C :   -0.339758
  10 S :   -0.053812
  11 P :    0.603778
  12 S :   -0.321893
  13 O :   -0.390901
  14 C :   -0.007257
  15 C :   -0.315986
  16 O :   -0.369128
  17 C :   -0.011338
  18 C :   -0.289399
  19 H :    0.110774
  20 H :    0.108538
  21 H :    0.139362
  22 H :    0.098952
  23 H :    0.127690
  24 H :    0.114836
  25 H :    0.112003
  26 H :    0.129387
  27 H :    0.128894
  28 H :    0.115309
  29 H :    0.196768
  30 H :    0.182385
  31 H :    0.114253
  32 H :    0.104187
  33 H :    0.114735
  34 H :    0.131063
  35 H :    0.115762
  36 H :    0.102856
  37 H :    0.107770
  38 H :    0.122982
  39 H :    0.126258
  40 H :    0.112343
Sum of atomic charges:    0.0000000

LOEWDIN ATOMIC CHARGES
----------------------
   0 C :   -0.366804
   1 C :   -0.125462
   2 O :   -0.241809
   3 P :    0.565504
   4 S :   -0.304016
   5 O :   -0.235620
   6 C :   -0.111897
   7 C :   -0.368091
   8 S :    0.076312
   9 C :   -0.479181
  10 S :    0.118761
  11 P :    0.558655
  12 S :   -0.322407
  13 O :   -0.252481
  14 C :   -0.123185
  15 C :   -0.366818
  16 O :   -0.244217
  17 C :   -0.114948
  18 C :   -0.351722
  19 H :    0.124553
  20 H :    0.129815
  21 H :    0.119064
  22 H :    0.115122
  23 H :    0.101358
  24 H :    0.124942
  25 H :    0.110416
  26 H :    0.117844
  27 H :    0.132132
  28 H :    0.132054
  29 H :    0.134407
  30 H :    0.131640
  31 H :    0.110779
  32 H :    0.117538
  33 H :    0.123218
  34 H :    0.123661
  35 H :    0.132589
  36 H :    0.111934
  37 H :    0.111741
  38 H :    0.128343
  39 H :    0.125442
  40 H :    0.130834

  Mayer bond orders larger than 0.100000
B(  0-C ,  1-C ) :   1.1667 B(  0-C , 19-H ) :   0.9455 B(  0-C , 20-H ) :   0.9381
B(  0-C , 21-H ) :   0.9300 B(  1-C ,  2-O ) :   0.9108 B(  1-C , 22-H ) :   0.9340
B(  1-C , 23-H ) :   0.9006 B(  2-O ,  3-P ) :   1.0909 B(  3-P ,  4-S ) :   1.6445
B(  3-P ,  5-O ) :   1.1449 B(  3-P ,  8-S ) :   0.9381 B(  4-S ,  8-S ) :   0.1116
B(  5-O ,  6-C ) :   0.9057 B(  6-C ,  7-C ) :   1.1660 B(  6-C , 24-H ) :   0.9345
B(  6-C , 25-H ) :   0.9241 B(  7-C , 26-H ) :   0.9374 B(  7-C , 27-H ) :   0.9413
B(  7-C , 28-H ) :   0.9346 B(  8-S ,  9-C ) :   1.0149 B(  9-C , 10-S ) :   0.9813
B(  9-C , 29-H ) :   0.8775 B(  9-C , 30-H ) :   0.8888 B( 10-S , 11-P ) :   0.9799
B( 11-P , 12-S ) :   1.6631 B( 11-P , 13-O ) :   1.0521 B( 11-P , 16-O ) :   1.0977
B( 13-O , 14-C ) :   0.9081 B( 14-C , 15-C ) :   1.1621 B( 14-C , 31-H ) :   0.9121
B( 14-C , 32-H ) :   0.9334 B( 15-C , 33-H ) :   0.9471 B( 15-C , 34-H ) :   0.9344
B( 15-C , 35-H ) :   0.9387 B( 16-O , 17-C ) :   0.8985 B( 17-C , 18-C ) :   1.1599
B( 17-C , 36-H ) :   0.9279 B( 17-C , 37-H ) :   0.9183 B( 18-C , 38-H ) :   0.9506
B( 18-C , 39-H ) :   0.9453 B( 18-C , 40-H ) :   0.9405

Dispersion correction           -0.065786284
FINAL SINGLE POINT ENERGY     -2929.519492978990

DIPOLE MOMENT
-------------

Method             : SCF
Type of density    : Electron Density
Multiplicity       :   1
Irrep              :   0
Energy             : -2929.6397167102854837 Eh
Relativity type    :
Basis              : AO
                                X                 Y                 Z
Electronic contribution:      6.117062942      12.571963342      -1.397744531
Nuclear contribution   :     -7.226590498     -13.978926824       2.642820777
                        -----------------------------------------
Total Dipole Moment    :     -1.109527556      -1.406963482       1.245076246
                        -----------------------------------------
Magnitude (a.u.)       :      2.181928618
Magnitude (Debye)      :      5.546021798

Rotational constants in cm-1:             0.012079             0.005110             0.004709
Rotational constants in MHz :           362.119408           153.179737           141.157819

                             ****ORCA TERMINATED NORMALLY****
TOTAL RUN TIME: 0 days 0 hours 0 minutes 21 seconds 388 msec
