                         Program Version 6.0.0  -   RELEASE  -
|  1> ! r2scan-3c def2/J RI DEFGRID2 scfconv6 printgap
|  2> %output
|  3>     printlevel normal
|  4> end
|  5> * xyz 0 1
|  6> C 3.4111761853 -0.32487021 3.1096498774
|  7> C 1.9907173188 -0.5804216786 2.6523144803
|  8> O 1.6731675638 0.1609027881 1.4569664607
|  9> P 2.3271072379 -0.1851329644 0.052772504
| 10> S 2.7535327521 -2.0772465336 -0.2575491958
| 11> O 3.5674134948 0.8063687945 0.0253890819
| 12> C 4.6477909542 0.6648993755 -0.9132976783
| 13> C 4.210276893 0.9524224488 -2.3350891374
| 14> S 0.9057283976 0.7078401718 -1.2255361182
| 15> C -0.1880230603 -0.7354043206 -1.3483294941
| 16> S -1.0199765233 -1.1403583796 0.2093536989
| 17> P -2.6471499788 0.2396112246 0.0808606492
| 18> S -3.0370319794 0.9198210125 -1.7212186965
| 19> O -2.4168356275 1.2810955598 1.2517882906
| 20> C -1.2657233333 2.1258000327 1.4142162691
| 21> C -1.2227034395 3.2472431846 0.3946093266
| 22> O -3.8555639004 -0.492899997 0.7882839637
| 23> C -4.8070731571 -1.2750219636 0.0456187776
| 24> C -4.2064788443 -2.5717083902 -0.4602389801
| 25> H 4.1125921782 -0.725899192 2.3790221442
| 26> H 3.5853479151 0.7426755561 3.2151126731
| 27> H 3.5764292859 -0.8161645505 4.0633464877
| 28> H 1.2590146307 -0.2304050154 3.3816320813
| 29> H 1.8306711516 -1.6446193514 2.450953421
| 30> H 5.3914780894 1.3836864133 -0.5667997659
| 31> H 5.0450688789 -0.3521015339 -0.8326438176
| 32> H 3.7156820331 1.9189870781 -2.3906062371
| 33> H 5.0790227601 0.9531565259 -2.9856623926
| 34> H 3.5163851007 0.1844766637 -2.6749401867
| 35> H 0.3999930136 -1.6096581248 -1.6246140742
| 36> H -0.9338465071 -0.4929243761 -2.1067723774
| 37> H -1.3787708431 2.518383098 2.4268065272
| 38> H -0.3578145107 1.516257178 1.3621685911
| 39> H -2.1539832719 3.8074974037 0.4150020834
| 40> H -0.3965639992 3.91071824 0.6294104558
| 41> H -1.0767145295 2.8489775186 -0.6079405473
| 42> H -5.6110273806 -1.4561398859 0.7602966442
| 43> H -5.1808491213 -0.6723753394 -0.7887657988
| 44> H -3.4553982313 -2.3634117165 -1.2210467755
| 45> H -3.7375152574 -3.1142117647 0.3568975956
| 46> H -4.9888999178 -3.1835946954 -0.8976687185
| 47> *
| 48>
| 49>                          ****END OF INPUT****

CARTESIAN COORDINATES (ANGSTROEM)
---------------------------------
  C      3.411176   -0.324870    3.109650
  C      1.990717   -0.580422    2.652314
  O      1.673168    0.160903    1.456966
  P      2.327107   -0.185133    0.052773
  S      2.753533   -2.077247   -0.257549
  O      3.567413    0.806369    0.025389
  C      4.647791    0.664899   -0.913298
  C      4.210277    0.952422   -2.335089
  S      0.905728    0.707840   -1.225536
  C     -0.188023   -0.735404   -1.348329
  S     -1.019977   -1.140358    0.209354
  P     -2.647150    0.239611    0.080861
  S     -3.037032    0.919821   -1.721219
  O     -2.416836    1.281096    1.251788
  C     -1.265723    2.125800    1.414216
  C     -1.222703    3.247243    0.394609
  O     -3.855564   -0.492900    0.788284
  C     -4.807073   -1.275022    0.045619
  C     -4.206479   -2.571708   -0.460239
  H      4.112592   -0.725899    2.379022
  H      3.585348    0.742676    3.215113
  H      3.576429   -0.816165    4.063346
  H      1.259015   -0.230405    3.381632
  H      1.830671   -1.644619    2.450953
  H      5.391478    1.383686   -0.566800
  H      5.045069   -0.352102   -0.832644
  H      3.715682    1.918987   -2.390606
  H      5.079023    0.953157   -2.985662
  H      3.516385    0.184477   -2.674940
  H      0.399993   -1.609658   -1.624614
  H     -0.933847   -0.492924   -2.106772
  H     -1.378771    2.518383    2.426807
  H     -0.357815    1.516257    1.362169
  H     -2.153983    3.807497    0.415002
  H     -0.396564    3.910718    0.629410
  H     -1.076715    2.848978   -0.607941
  H     -5.611027   -1.456140    0.760297
  H     -5.180849   -0.672375   -0.788766
  H     -3.455398   -2.363412   -1.221047
  H     -3.737515   -3.114212    0.356898
  H     -4.988900   -3.183595   -0.897669

 Total Charge           Charge          ....    0
 Multiplicity           Mult            ....    1
 Number of Electrons    NEL             ....  202
 Basis Dimension        Dim             ....  539

ORBITAL ENERGIES
----------------

  NO   OCC          E(Eh)            E(eV)
   0   2.0000     -88.578709     -2410.3492
   1   2.0000     -88.575189     -2410.2534
   2   2.0000     -88.527551     -2408.9571
   3   2.0000     -88.522230     -2408.8123
   4   2.0000     -76.918963     -2093.0714
   5   2.0000     -76.913300     -2092.9173
   6   2.0000     -18.998935      -516.9873
   7   2.0000     -18.994037      -516.8540
   8   2.0000     -18.989479      -516.7300
   9   2.0000     -18.986664      -516.6534
  10   2.0000     -10.104741      -274.9640
  11   2.0000     -10.103710      -274.9359
  12   2.0000     -10.100519      -274.8491
  13   2.0000     -10.095783      -274.7202
  14   2.0000     -10.092244      -274.6239
  15   2.0000     -10.032569      -273.0001
  16   2.0000     -10.032233      -272.9909
  17   2.0000     -10.026254      -272.8282
  18   2.0000     -10.019164      -272.6353
  19   2.0000      -7.873151      -214.2393
  20   2.0000      -7.869263      -214.1335
  21   2.0000      -7.822221      -212.8534
  22   2.0000      -7.817063      -212.7131
  23   2.0000      -6.597613      -179.5302
  24   2.0000      -6.591743      -179.3704
  25   2.0000      -5.819944      -158.3687
  26   2.0000      -5.817066      -158.2904
  27   2.0000      -5.816174      -158.2661
  28   2.0000      -5.813087      -158.1822
  29   2.0000      -5.810270      -158.1055
  30   2.0000      -5.806433      -158.0011
  31   2.0000      -5.769798      -157.0042
  32   2.0000      -5.764658      -156.8643
  33   2.0000      -5.762522      -156.8062
  34   2.0000      -5.762295      -156.8000
  35   2.0000      -5.757312      -156.6644
  36   2.0000      -5.757145      -156.6599
  37   2.0000      -4.742977      -129.0630
  38   2.0000      -4.742508      -129.0502
  39   2.0000      -4.741479      -129.0222
  40   2.0000      -4.737040      -128.9014
  41   2.0000      -4.736946      -128.8989
  42   2.0000      -4.735417      -128.8573
  43   2.0000      -1.055308       -28.7164
  44   2.0000      -1.050239       -28.5785
  45   2.0000      -1.016528       -27.6611
  46   2.0000      -1.006912       -27.3995
  47   2.0000      -0.802330       -21.8325
  48   2.0000      -0.759250       -20.6602
  49   2.0000      -0.749686       -20.4000
  50   2.0000      -0.735458       -20.0128
  51   2.0000      -0.723546       -19.6887
  52   2.0000      -0.714271       -19.4363
  53   2.0000      -0.689081       -18.7508
  54   2.0000      -0.671605       -18.2753
  55   2.0000      -0.637564       -17.3490
  56   2.0000      -0.627451       -17.0738
  57   2.0000      -0.609827       -16.5942
  58   2.0000      -0.599637       -16.3169
  59   2.0000      -0.592229       -16.1154
  60   2.0000      -0.525153       -14.2901
  61   2.0000      -0.516194       -14.0464
  62   2.0000      -0.497444       -13.5361
  63   2.0000      -0.485348       -13.2070
  64   2.0000      -0.478589       -13.0231
  65   2.0000      -0.462893       -12.5960
  66   2.0000      -0.462267       -12.5789
  67   2.0000      -0.451298       -12.2804
  68   2.0000      -0.440706       -11.9922
  69   2.0000      -0.434784       -11.8311
  70   2.0000      -0.427349       -11.6288
  71   2.0000      -0.423429       -11.5221
  72   2.0000      -0.414847       -11.2886
  73   2.0000      -0.408438       -11.1142
  74   2.0000      -0.396825       -10.7982
  75   2.0000      -0.390967       -10.6387
  76   2.0000      -0.385557       -10.4916
  77   2.0000      -0.377284       -10.2664
  78   2.0000      -0.372498       -10.1362
  79   2.0000      -0.366617        -9.9762
  80   2.0000      -0.362493        -9.8639
  81   2.0000      -0.357999        -9.7417
  82   2.0000      -0.354243        -9.6394
  83   2.0000      -0.352139        -9.5822
  84   2.0000      -0.347009        -9.4426
  85   2.0000      -0.334324        -9.0974
  86   2.0000      -0.324149        -8.8205
  87   2.0000      -0.314214        -8.5502
  88   2.0000      -0.310895        -8.4599
  89   2.0000      -0.303923        -8.2702
  90   2.0000      -0.300166        -8.1679
  91   2.0000      -0.292029        -7.9465
  92   2.0000      -0.283899        -7.7253
  93   2.0000      -0.282482        -7.6867
  94   2.0000      -0.272577        -7.4172
  95   2.0000      -0.249593        -6.7918
  96   2.0000      -0.232105        -6.3159
  97   2.0000      -0.230557        -6.2738
  98   2.0000      -0.221196        -6.0191
  99   2.0000      -0.220125        -5.9899
 100   2.0000      -0.215857        -5.8738
 101   0.0000      -0.049958        -1.3594
 102   0.0000      -0.030606        -0.8328
 103   0.0000      -0.007122        -0.1938
 104   0.0000      -0.005489        -0.1494
 105   0.0000       0.012711         0.3459

MULLIKEN ATOMIC CHARGES
-----------------------
   0 C :   -0.440305
   1 C :   -0.150090
   2 O :   -0.279126
   3 P :    0.678682
   4 S :   -0.476840
   5 O :   -0.305716
   6 C :   -0.150929
   7 C :   -0.451922
   8 S :   -0.118712
   9 C :   -0.252545
  10 S :   -0.126658
  11 P :    0.686041
  12 S :   -0.469889
  13 O :   -0.276645
  14 C :   -0.163757
  15 C :   -0.419310
  16 O :   -0.314134
  17 C :   -0.150125
  18 C :   -0.437570
  19 H :    0.166488
  20 H :    0.156050
  21 H :    0.148200
  22 H :    0.152325
  23 H :    0.173936
  24 H :    0.149499
  25 H :    0.171358
  26 H :    0.157083
  27 H :    0.149441
  28 H :    0.177272
  29 H :    0.217911
  30 H :    0.216351
  31 H :    0.146892
  32 H :    0.177738
  33 H :    0.152220
  34 H :    0.144889
  35 H :    0.168937
  36 H :    0.149288
  37 H :    0.172931
  38 H :    0.168488
  39 H :    0.155366
  40 H :    0.146886
Sum of atomic charges:   -0.0000000

LOEWDIN ATOMIC CHARGES
----------------------
   0 C :   -0.398409
   1 C :    0.018776
   2 O :   -0.695167
   3 P :    0.375445
   4 S :   -0.128361
   5 O :   -0.660326
   6 C :    0.020729
   7 C :   -0.405979
   8 S :    0.167690
   9 C :   -0.426132
  10 S :    0.162270
  11 P :    0.393680
  12 S :   -0.130495
  13 O :   -0.647293
  14 C :    0.020681
  15 C :   -0.409420
  16 O :   -0.650866
  17 C :    0.021408
  18 C :   -0.405570
  19 H :    0.164489
  20 H :    0.161016
  21 H :    0.160024
  22 H :    0.180512
  23 H :    0.181562
  24 H :    0.180193
  25 H :    0.179535
  26 H :    0.160928
  27 H :    0.160131
  28 H :    0.165791
  29 H :    0.190468
  30 H :    0.194960
  31 H :    0.179381
  32 H :    0.191263
  33 H :    0.160510
  34 H :    0.158847
  35 H :    0.165314
  36 H :    0.180100
  37 H :    0.179897
  38 H :    0.162775
  39 H :    0.161018
  40 H :    0.158629

  Mayer bond orders larger than 0.100000
B(  0-C ,  1-C ) :   0.9242 B(  0-C , 19-H ) :   0.9602 B(  0-C , 20-H ) :   0.9715
B(  0-C , 21-H ) :   0.9617 B(  1-C ,  2-O ) :   0.7957 B(  1-C , 22-H ) :   0.9609
B(  1-C , 23-H ) :   0.9639 B(  2-O ,  3-P ) :   1.1324 B(  3-P ,  4-S ) :   1.7543
B(  3-P ,  5-O ) :   1.0705 B(  3-P ,  8-S ) :   1.0927 B(  5-O ,  6-C ) :   0.8127
B(  6-C ,  7-C ) :   0.9223 B(  6-C , 24-H ) :   0.9576 B(  6-C , 25-H ) :   0.9666
B(  7-C , 26-H ) :   0.9684 B(  7-C , 27-H ) :   0.9580 B(  7-C , 28-H ) :   0.9620
B(  8-S ,  9-C ) :   0.9045 B(  9-C , 10-S ) :   0.9056 B(  9-C , 29-H ) :   0.9093
B(  9-C , 30-H ) :   0.8967 B( 10-S , 11-P ) :   1.0532 B( 11-P , 12-S ) :   1.7406
B( 11-P , 13-O ) :   1.1445 B( 11-P , 16-O ) :   1.1285 B( 13-O , 14-C ) :   0.8029
B( 14-C , 15-C ) :   0.9299 B( 14-C , 31-H ) :   0.9642 B( 14-C , 32-H ) :   0.9514
B( 15-C , 33-H ) :   0.9688 B( 15-C , 34-H ) :   0.9665 B( 15-C , 35-H ) :   0.9522
B( 16-O , 17-C ) :   0.8171 B( 17-C , 18-C ) :   0.9220 B( 17-C , 36-H ) :   0.9591
B( 17-C , 37-H ) :   0.9681 B( 18-C , 38-H ) :   0.9657 B( 18-C , 39-H ) :   0.9674
B( 18-C , 40-H ) :   0.9607

Dispersion correction           -0.021694276
FINAL SINGLE POINT ENERGY     -2932.464925346002

DIPOLE MOMENT
-------------

Method             : SCF
Type of density    : Electron Density
Multiplicity       :   1
Irrep              :   0
Energy             : -2932.4899695667340893 Eh
Relativity type    :
Basis              : AO
                                X                 Y                 Z
Electronic contribution:     -7.219190378      -2.798573422      -3.790065270
Nuclear contribution   :      8.013010635       2.953548161       4.469386699
                        -----------------------------------------
Total Dipole Moment    :      0.793820257       0.154974740       0.679321429
                        -----------------------------------------
Magnitude (a.u.)       :      1.056241153
Magnitude (Debye)      :      2.684751650

Rotational constants in cm-1:             0.012993             0.004630             0.004544
Rotational constants in MHz :           389.533045           138.807982           136.224783

                             ****ORCA TERMINATED NORMALLY****
TOTAL RUN TIME: 0 days 0 hours 1 minutes 19 seconds 39 msec
