                         Program Version 6.0.0  -   RELEASE  -
|  1> ! r2scan-3c def2/J RI DEFGRID2 scfconv6 printgap
|  2> %output
|  3>     printlevel normal
|  4> end
|  5> %cpcm
|  6>     smd true
|  7>     smdsolvent "water"
|  8> end
|  9> * xyz 0 1
| 10> C 3.4111761853 -0.32487021 3.1096498774
| 11> C 1.9907173188 -0.5804216786 2.6523144803
| 12> O 1.6731675638 0.1609027881 1.4569664607
| 13> P 2.3271072379 -0.1851329644 0.052772504
| 14> S 2.7535327521 -2.0772465336 -0.2575491958
| 15> O 3.5674134948 0.8063687945 0.0253890819
| 16> C 4.6477909542 0.6648993755 -0.9132976783
| 17> C 4.210276893 0.9524224488 -2.3350891374
| 18> S 0.9057283976 0.7078401718 -1.2255361182
| 19> C -0.1880230603 -0.7354043206 -1.3483294941
| 20> S -1.0199765233 -1.1403583796 0.2093536989
| 21> P -2.6471499788 0.2396112246 0.0808606492
| 22> S -3.0370319794 0.9198210125 -1.7212186965
| 23> O -2.4168356275 1.2810955598 1.2517882906
| 24> C -1.2657233333 2.1258000327 1.4142162691
| 25> C -1.2227034395 3.2472431846 0.3946093266
| 26> O -3.8555639004 -0.492899997 0.7882839637
| 27> C -4.8070731571 -1.2750219636 0.0456187776
| 28> C -4.2064788443 -2.5717083902 -0.4602389801
| 29> H 4.1125921782 -0.725899192 2.3790221442
| 30> H 3.5853479151 0.7426755561 3.2151126731
| 31> H 3.5764292859 -0.8161645505 4.0633464877
| 32> H 1.2590146307 -0.2304050154 3.3816320813
| 33> H 1.8306711516 -1.6446193514 2.450953421
| 34> H 5.3914780894 1.3836864133 -0.5667997659
| 35> H 5.0450688789 -0.3521015339 -0.8326438176
| 36> H 3.7156820331 1.9189870781 -2.3906062371
| 37> H 5.0790227601 0.9531565259 -2.9856623926
| 38> H 3.5163851007 0.1844766637 -2.6749401867
| 39> H 0.3999930136 -1.6096581248 -1.6246140742
| 40> H -0.9338465071 -0.4929243761 -2.1067723774
| 41> H -1.3787708431 2.518383098 2.4268065272
| 42> H -0.3578145107 1.516257178 1.3621685911
| 43> H -2.1539832719 3.8074974037 0.4150020834
| 44> H -0.3965639992 3.91071824 0.6294104558
| 45> H -1.0767145295 2.8489775186 -0.6079405473
| 46> H -5.6110273806 -1.4561398859 0.7602966442
| 47> H -5.1808491213 -0.6723753394 -0.7887657988
| 48> H -3.4553982313 -2.3634117165 -1.2210467755
| 49> H -3.7375152574 -3.1142117647 0.3568975956
| 50> H -4.9888999178 -3.1835946954 -0.8976687185
| 51> *
| 52>
| 53>                          ****END OF INPUT****

CARTESIAN COORDINATES (ANGSTROEM)
---------------------------------
  C      3.411176   -0.324870    3.109650
  C      1.990717   -0.580422    2.652314
  O      1.673168    0.160903    1.456966
  P      2.327107   -0.185133    0.052773
  S      2.753533   -2.077247   -0.257549
  O      3.567413    0.806369    0.025389
  C      4.647791    0.664899   -0.913298
  C      4.210277    0.952422   -2.335089
  S      0.905728    0.707840   -1.225536
  C     -0.188023   -0.735404   -1.348329
  S     -1.019977   -1.140358    0.209354
  P     -2.647150    0.239611    0.080861
  S     -3.037032    0.919821   -1.721219
  O     -2.416836    1.281096    1.251788
  C     -1.265723    2.125800    1.414216
  C     -1.222703    3.247243    0.394609
  O     -3.855564   -0.492900    0.788284
  C     -4.807073   -1.275022    0.045619
  C     -4.206479   -2.571708   -0.460239
  H      4.112592   -0.725899    2.379022
  H      3.585348    0.742676    3.215113
  H      3.576429   -0.816165    4.063346
  H      1.259015   -0.230405    3.381632
  H      1.830671   -1.644619    2.450953
  H      5.391478    1.383686   -0.566800
  H      5.045069   -0.352102   -0.832644
  H      3.715682    1.918987   -2.390606
  H      5.079023    0.953157   -2.985662
  H      3.516385    0.184477   -2.674940
  H      0.399993   -1.609658   -1.624614
  H     -0.933847   -0.492924   -2.106772
  H     -1.378771    2.518383    2.426807
  H     -0.357815    1.516257    1.362169
  H     -2.153983    3.807497    0.415002
  H     -0.396564    3.910718    0.629410
  H     -1.076715    2.848978   -0.607941
  H     -5.611027   -1.456140    0.760297
  H     -5.180849   -0.672375   -0.788766
  H     -3.455398   -2.363412   -1.221047
  H     -3.737515   -3.114212    0.356898
  H     -4.988900   -3.183595   -0.897669

 Total Charge           Charge          ....    0
 Multiplicity           Mult            ....    1
 Number of Electrons    NEL             ....  202
 Basis Dimension        Dim             ....  539

ORBITAL ENERGIES
----------------

  NO   OCC          E(Eh)            E(eV)
   0   2.0000     -88.579750     -2410.3775
   1   2.0000     -88.579380     -2410.3675
   2   2.0000     -88.531148     -2409.0550
   3   2.0000     -88.530655     -2409.0416
   4   2.0000     -76.920655     -2093.1174
   5   2.0000     -76.920003     -2093.0997
   6   2.0000     -18.997242      -516.9412
   7   2.0000     -18.995759      -516.9009
   8   2.0000     -18.994482      -516.8661
   9   2.0000     -18.992541      -516.8133
  10   2.0000     -10.104326      -274.9527
  11   2.0000     -10.090528      -274.5772
  12   2.0000     -10.089755      -274.5562
  13   2.0000     -10.089082      -274.5379
  14   2.0000     -10.089078      -274.5378
  15   2.0000     -10.019074      -272.6329
  16   2.0000     -10.018737      -272.6237
  17   2.0000     -10.018103      -272.6065
  18   2.0000     -10.016042      -272.5504
  19   2.0000      -7.874236      -214.2689
  20   2.0000      -7.873454      -214.2476
  21   2.0000      -7.826223      -212.9623
  22   2.0000      -7.825601      -212.9454
  23   2.0000      -6.599213      -179.5737
  24   2.0000      -6.598688      -179.5594
  25   2.0000      -5.821023      -158.3981
  26   2.0000      -5.820394      -158.3810
  27   2.0000      -5.818156      -158.3201
  28   2.0000      -5.817280      -158.2962
  29   2.0000      -5.811353      -158.1350
  30   2.0000      -5.810604      -158.1146
  31   2.0000      -5.773768      -157.1122
  32   2.0000      -5.773123      -157.0947
  33   2.0000      -5.766469      -156.9136
  34   2.0000      -5.766313      -156.9093
  35   2.0000      -5.765887      -156.8978
  36   2.0000      -5.765695      -156.8925
  37   2.0000      -4.744510      -129.1047
  38   2.0000      -4.744395      -129.1015
  39   2.0000      -4.743999      -129.0908
  40   2.0000      -4.743574      -129.0792
  41   2.0000      -4.742911      -129.0612
  42   2.0000      -4.742641      -129.0538
  43   2.0000      -1.057106       -28.7653
  44   2.0000      -1.053358       -28.6633
  45   2.0000      -1.013919       -27.5901
  46   2.0000      -1.013002       -27.5652
  47   2.0000      -0.803492       -21.8641
  48   2.0000      -0.756452       -20.5841
  49   2.0000      -0.744912       -20.2701
  50   2.0000      -0.723992       -19.7008
  51   2.0000      -0.719299       -19.5731
  52   2.0000      -0.713024       -19.4024
  53   2.0000      -0.691895       -18.8274
  54   2.0000      -0.676215       -18.4007
  55   2.0000      -0.634566       -17.2674
  56   2.0000      -0.625952       -17.0330
  57   2.0000      -0.599763       -16.3204
  58   2.0000      -0.598231       -16.2787
  59   2.0000      -0.590336       -16.0639
  60   2.0000      -0.521500       -14.1907
  61   2.0000      -0.512532       -13.9467
  62   2.0000      -0.491614       -13.3775
  63   2.0000      -0.485885       -13.2216
  64   2.0000      -0.477982       -13.0065
  65   2.0000      -0.460988       -12.5441
  66   2.0000      -0.454933       -12.3794
  67   2.0000      -0.448591       -12.2068
  68   2.0000      -0.436852       -11.8874
  69   2.0000      -0.433266       -11.7898
  70   2.0000      -0.426656       -11.6099
  71   2.0000      -0.422291       -11.4911
  72   2.0000      -0.407005       -11.0752
  73   2.0000      -0.404749       -11.0138
  74   2.0000      -0.395041       -10.7496
  75   2.0000      -0.388998       -10.5852
  76   2.0000      -0.385186       -10.4815
  77   2.0000      -0.373161       -10.1542
  78   2.0000      -0.365375        -9.9424
  79   2.0000      -0.355816        -9.6823
  80   2.0000      -0.355343        -9.6694
  81   2.0000      -0.351297        -9.5593
  82   2.0000      -0.350766        -9.5448
  83   2.0000      -0.348086        -9.4719
  84   2.0000      -0.344123        -9.3641
  85   2.0000      -0.332099        -9.0369
  86   2.0000      -0.321736        -8.7549
  87   2.0000      -0.309276        -8.4158
  88   2.0000      -0.305544        -8.3143
  89   2.0000      -0.302278        -8.2254
  90   2.0000      -0.298516        -8.1230
  91   2.0000      -0.287906        -7.8343
  92   2.0000      -0.284943        -7.7537
  93   2.0000      -0.280942        -7.6448
  94   2.0000      -0.277457        -7.5500
  95   2.0000      -0.251208        -6.8357
  96   2.0000      -0.237676        -6.4675
  97   2.0000      -0.235825        -6.4171
  98   2.0000      -0.227682        -6.1956
  99   2.0000      -0.225861        -6.1460
 100   2.0000      -0.221863        -6.0372
 101   0.0000      -0.054401        -1.4803
 102   0.0000      -0.035416        -0.9637
 103   0.0000      -0.011628        -0.3164
 104   0.0000      -0.007578        -0.2062
 105   0.0000       0.011276         0.3068

MULLIKEN ATOMIC CHARGES
-----------------------
   0 C :   -0.483188
   1 C :   -0.146449
   2 O :   -0.301013
   3 P :    0.719140
   4 S :   -0.524158
   5 O :   -0.330118
   6 C :   -0.152031
   7 C :   -0.488500
   8 S :   -0.125420
   9 C :   -0.259801
  10 S :   -0.133588
  11 P :    0.710229
  12 S :   -0.505905
  13 O :   -0.310497
  14 C :   -0.150393
  15 C :   -0.467149
  16 O :   -0.344967
  17 C :   -0.148569
  18 C :   -0.475723
  19 H :    0.168027
  20 H :    0.169977
  21 H :    0.171979
  22 H :    0.177886
  23 H :    0.176487
  24 H :    0.176198
  25 H :    0.178438
  26 H :    0.170110
  27 H :    0.173651
  28 H :    0.173039
  29 H :    0.238670
  30 H :    0.229364
  31 H :    0.175924
  32 H :    0.175846
  33 H :    0.164813
  34 H :    0.171853
  35 H :    0.164339
  36 H :    0.175425
  37 H :    0.177301
  38 H :    0.169890
  39 H :    0.167137
  40 H :    0.171748
Sum of atomic charges:   -0.0000000

LOEWDIN ATOMIC CHARGES
----------------------
   0 C :   -0.402044
   1 C :    0.022823
   2 O :   -0.703425
   3 P :    0.381160
   4 S :   -0.156694
   5 O :   -0.670696
   6 C :    0.026405
   7 C :   -0.409512
   8 S :    0.164059
   9 C :   -0.419346
  10 S :    0.160741
  11 P :    0.395158
  12 S :   -0.155333
  13 O :   -0.665983
  14 C :    0.025569
  15 C :   -0.414346
  16 O :   -0.668509
  17 C :    0.025978
  18 C :   -0.408463
  19 H :    0.162656
  20 H :    0.164391
  21 H :    0.168763
  22 H :    0.190716
  23 H :    0.181996
  24 H :    0.191489
  25 H :    0.181797
  26 H :    0.163872
  27 H :    0.168849
  28 H :    0.161674
  29 H :    0.196786
  30 H :    0.199472
  31 H :    0.191404
  32 H :    0.191549
  33 H :    0.162416
  34 H :    0.168634
  35 H :    0.160865
  36 H :    0.191076
  37 H :    0.181581
  38 H :    0.160867
  39 H :    0.163717
  40 H :    0.167886

  Mayer bond orders larger than 0.100000
B(  0-C ,  1-C ) :   0.9144 B(  0-C , 19-H ) :   0.9595 B(  0-C , 20-H ) :   0.9705
B(  0-C , 21-H ) :   0.9559 B(  1-C ,  2-O ) :   0.7836 B(  1-C , 22-H ) :   0.9511
B(  1-C , 23-H ) :   0.9605 B(  2-O ,  3-P ) :   1.1420 B(  3-P ,  4-S ) :   1.7101
B(  3-P ,  5-O ) :   1.0793 B(  3-P ,  8-S ) :   1.0994 B(  5-O ,  6-C ) :   0.8010
B(  6-C ,  7-C ) :   0.9083 B(  6-C , 24-H ) :   0.9480 B(  6-C , 25-H ) :   0.9656
B(  7-C , 26-H ) :   0.9656 B(  7-C , 27-H ) :   0.9528 B(  7-C , 28-H ) :   0.9634
B(  8-S ,  9-C ) :   0.9006 B(  9-C , 10-S ) :   0.8974 B(  9-C , 29-H ) :   0.9035
B(  9-C , 30-H ) :   0.8945 B( 10-S , 11-P ) :   1.0660 B( 11-P , 12-S ) :   1.7219
B( 11-P , 13-O ) :   1.1422 B( 11-P , 16-O ) :   1.1296 B( 13-O , 14-C ) :   0.7960
B( 14-C , 15-C ) :   0.9137 B( 14-C , 31-H ) :   0.9547 B( 14-C , 32-H ) :   0.9485
B( 15-C , 33-H ) :   0.9694 B( 15-C , 34-H ) :   0.9607 B( 15-C , 35-H ) :   0.9543
B( 16-O , 17-C ) :   0.8063 B( 17-C , 18-C ) :   0.9124 B( 17-C , 36-H ) :   0.9492
B( 17-C , 37-H ) :   0.9642 B( 18-C , 38-H ) :   0.9652 B( 18-C , 39-H ) :   0.9657
B( 18-C , 40-H ) :   0.9550

Dispersion correction           -0.021694276
FINAL SINGLE POINT ENERGY     -2932.470829282270

DIPOLE MOMENT
-------------

Method             : SCF
Type of density    : Electron Density
Multiplicity       :   1
Irrep              :   0
Energy             : -2932.4958735030013486 Eh
Relativity type    :
Basis              : AO
                                X                 Y                 Z
Electronic contribution:     -6.954876668      -2.795690380      -3.618018072
Nuclear contribution   :      8.013010635       2.953548161       4.469386699
                        -----------------------------------------
Total Dipole Moment    :      1.058133967       0.157857781       0.851368627
                        -----------------------------------------
Magnitude (a.u.)       :      1.367258246
Magnitude (Debye)      :      3.475294275

Rotational constants in cm-1:             0.012993             0.004630             0.004544
Rotational constants in MHz :           389.533045           138.807982           136.224783

                             ****ORCA TERMINATED NORMALLY****
TOTAL RUN TIME: 0 days 0 hours 1 minutes 54 seconds 94 msec
