                         Program Version 6.0.1  -  RELEASE   -
|  1> ! pbe def2-sv(p) def2/J RI DEFGRID1 loosescf d4 GCP(DFT/SV(P)) printgap
|  2> %output
|  3>     printlevel normal
|  4> end
|  5> * xyz 0 1
|  6> C 2.1534933832 -3.8827040423 0.583152417
|  7> C 2.8446599894 -2.5348425459 0.5010898284
|  8> O 2.3674148975 -1.842392043 -0.6687047265
|  9> C 2.1282839935 -0.5552579241 -0.6097998691
| 10> O 2.2769322889 0.1455427223 0.3726690808
| 11> C 1.6657904249 -0.0001569537 -1.9440373073
| 12> C 0.4355007201 0.8949026332 -1.7685067896
| 13> H 0.3435376844 1.5696878887 -2.6223135563
| 14> C 0.5208287293 1.7170047357 -0.4964107905
| 15> O -0.2432974574 1.5462452098 0.4385723375
| 16> O 1.4346514314 2.6374912391 -0.567162536
| 17> C 1.670995523 3.4657038371 0.5926478471
| 18> C 0.6889907361 4.6237248065 0.6481311195
| 19> S -1.1264443428 -0.0496746782 -1.7463263546
| 20> P -1.627100137 -0.4405242403 0.2782061882
| 21> S -0.3931541874 -1.2133240493 1.6021015758
| 22> O -2.6946730928 0.6332444399 0.7678950414
| 23> C -2.5732163379 1.4288480954 1.9465383747
| 24> O -2.7621330428 -1.527447524 -0.0888698736
| 25> C -2.432495319 -2.8462550056 -0.5242149836
| 26> H 1.0934531244 -3.7413541007 0.7780731612
| 27> H 2.2785022969 -4.4223695849 -0.350511942
| 28> H 2.5854150173 -4.4563514954 1.3959933232
| 29> H 3.9256785046 -2.6471042319 0.3829879814
| 30> H 2.6308021579 -1.9218388323 1.3816325575
| 31> H 1.4476627921 -0.8153450639 -2.6318715217
| 32> H 2.4849509729 0.6053769505 -2.3381346497
| 33> H 1.5984069351 2.8344813227 1.4823509132
| 34> H 2.6949387766 3.8146059155 0.4615881944
| 35> H -0.3270807872 4.2526982727 0.7620155027
| 36> H 0.9289170245 5.2523404836 1.4990695149
| 37> H 0.7520337379 5.2126219095 -0.2626038996
| 38> H -3.5185068897 1.3420828859 2.4787791238
| 39> H -2.3868847044 2.4614571556 1.6561675662
| 40> H -1.7532664249 1.0687750193 2.5706955114
| 41> H -2.0675222227 -2.826569125 -1.5514773224
| 42> H -3.3560346127 -3.415860734 -0.4583670145
| 43> H -1.6741504252 -3.2769586801 0.1334883373
| 44> *
| 45>
| 46>                          ****END OF INPUT****

CARTESIAN COORDINATES (ANGSTROEM)
---------------------------------
  C      2.153493   -3.882704    0.583152
  C      2.844660   -2.534843    0.501090
  O      2.367415   -1.842392   -0.668705
  C      2.128284   -0.555258   -0.609800
  O      2.276932    0.145543    0.372669
  C      1.665790   -0.000157   -1.944037
  C      0.435501    0.894903   -1.768507
  H      0.343538    1.569688   -2.622314
  C      0.520829    1.717005   -0.496411
  O     -0.243297    1.546245    0.438572
  O      1.434651    2.637491   -0.567163
  C      1.670996    3.465704    0.592648
  C      0.688991    4.623725    0.648131
  S     -1.126444   -0.049675   -1.746326
  P     -1.627100   -0.440524    0.278206
  S     -0.393154   -1.213324    1.602102
  O     -2.694673    0.633244    0.767895
  C     -2.573216    1.428848    1.946538
  O     -2.762133   -1.527448   -0.088870
  C     -2.432495   -2.846255   -0.524215
  H      1.093453   -3.741354    0.778073
  H      2.278502   -4.422370   -0.350512
  H      2.585415   -4.456351    1.395993
  H      3.925679   -2.647104    0.382988
  H      2.630802   -1.921839    1.381633
  H      1.447663   -0.815345   -2.631872
  H      2.484951    0.605377   -2.338135
  H      1.598407    2.834481    1.482351
  H      2.694939    3.814606    0.461588
  H     -0.327081    4.252698    0.762016
  H      0.928917    5.252340    1.499070
  H      0.752034    5.212622   -0.262604
  H     -3.518507    1.342083    2.478779
  H     -2.386885    2.461457    1.656168
  H     -1.753266    1.068775    2.570696
  H     -2.067522   -2.826569   -1.551477
  H     -3.356035   -3.415861   -0.458367
  H     -1.674150   -3.276959    0.133488

 Total Charge           Charge          ....    0
 Multiplicity           Mult            ....    1
 Number of Electrons    NEL             ....  174
 Basis Dimension        Dim             ....  316

ORBITAL ENERGIES
----------------

  NO   OCC          E(Eh)            E(eV)
   0   2.0000     -88.032635     -2395.4898
   1   2.0000     -87.963526     -2393.6092
   2   2.0000     -76.415163     -2079.3623
   3   2.0000     -18.818375      -512.0740
   4   2.0000     -18.805236      -511.7165
   5   2.0000     -18.771334      -510.7940
   6   2.0000     -18.765409      -510.6327
   7   2.0000     -18.760509      -510.4994
   8   2.0000     -18.738416      -509.8982
   9   2.0000     -10.031576      -272.9731
  10   2.0000     -10.013367      -272.4776
  11   2.0000      -9.955733      -270.9093
  12   2.0000      -9.954705      -270.8813
  13   2.0000      -9.941241      -270.5149
  14   2.0000      -9.928121      -270.1579
  15   2.0000      -9.925738      -270.0931
  16   2.0000      -9.917764      -269.8761
  17   2.0000      -9.894516      -269.2435
  18   2.0000      -9.878790      -268.8156
  19   2.0000      -7.677769      -208.9227
  20   2.0000      -7.608649      -207.0419
  21   2.0000      -6.410011      -174.4253
  22   2.0000      -5.706026      -155.2689
  23   2.0000      -5.701929      -155.1574
  24   2.0000      -5.694668      -154.9598
  25   2.0000      -5.637700      -153.4096
  26   2.0000      -5.629534      -153.1874
  27   2.0000      -5.628314      -153.1542
  28   2.0000      -4.632565      -126.0585
  29   2.0000      -4.632203      -126.0486
  30   2.0000      -4.630651      -126.0064
  31   2.0000      -1.031070       -28.0568
  32   2.0000      -1.011253       -27.5176
  33   2.0000      -0.964297       -26.2398
  34   2.0000      -0.937301       -25.5053
  35   2.0000      -0.918504       -24.9938
  36   2.0000      -0.917296       -24.9609
  37   2.0000      -0.767236       -20.8776
  38   2.0000      -0.714311       -19.4374
  39   2.0000      -0.707443       -19.2505
  40   2.0000      -0.684507       -18.6264
  41   2.0000      -0.652723       -17.7615
  42   2.0000      -0.627202       -17.0670
  43   2.0000      -0.614343       -16.7171
  44   2.0000      -0.604910       -16.4604
  45   2.0000      -0.591552       -16.0970
  46   2.0000      -0.564061       -15.3489
  47   2.0000      -0.512817       -13.9545
  48   2.0000      -0.504718       -13.7341
  49   2.0000      -0.499387       -13.5890
  50   2.0000      -0.488004       -13.2793
  51   2.0000      -0.462973       -12.5981
  52   2.0000      -0.456051       -12.4098
  53   2.0000      -0.448997       -12.2178
  54   2.0000      -0.435291       -11.8449
  55   2.0000      -0.430474       -11.7138
  56   2.0000      -0.424162       -11.5420
  57   2.0000      -0.417051       -11.3485
  58   2.0000      -0.407582       -11.0909
  59   2.0000      -0.404459       -11.0059
  60   2.0000      -0.398590       -10.8462
  61   2.0000      -0.392784       -10.6882
  62   2.0000      -0.385465       -10.4890
  63   2.0000      -0.381838       -10.3903
  64   2.0000      -0.375399       -10.2151
  65   2.0000      -0.362203        -9.8561
  66   2.0000      -0.361195        -9.8286
  67   2.0000      -0.351493        -9.5646
  68   2.0000      -0.347585        -9.4583
  69   2.0000      -0.341297        -9.2872
  70   2.0000      -0.339569        -9.2402
  71   2.0000      -0.335595        -9.1320
  72   2.0000      -0.314797        -8.5661
  73   2.0000      -0.308399        -8.3920
  74   2.0000      -0.297028        -8.0825
  75   2.0000      -0.292753        -7.9662
  76   2.0000      -0.285949        -7.7811
  77   2.0000      -0.280882        -7.6432
  78   2.0000      -0.271435        -7.3861
  79   2.0000      -0.257649        -7.0110
  80   2.0000      -0.256693        -6.9850
  81   2.0000      -0.241135        -6.5616
  82   2.0000      -0.237884        -6.4732
  83   2.0000      -0.226791        -6.1713
  84   2.0000      -0.220668        -6.0047
  85   2.0000      -0.185212        -5.0399
  86   2.0000      -0.174104        -4.7376
  87   0.0000      -0.042917        -1.1678
  88   0.0000      -0.030557        -0.8315
  89   0.0000      -0.026667        -0.7256
  90   0.0000       0.005174         0.1408
  91   0.0000       0.034106         0.9281

MULLIKEN ATOMIC CHARGES
-----------------------
   0 C :   -0.301691
   1 C :   -0.025146
   2 O :   -0.218985
   3 C :    0.105923
   4 O :   -0.199596
   5 C :   -0.036391
   6 C :   -0.294597
   7 H :    0.145540
   8 C :    0.233588
   9 O :   -0.209405
  10 O :   -0.218043
  11 C :   -0.005590
  12 C :   -0.319604
  13 S :   -0.105812
  14 P :    0.633427
  15 S :   -0.346189
  16 O :   -0.373295
  17 C :   -0.092329
  18 O :   -0.382656
  19 C :   -0.107597
  20 H :    0.138200
  21 H :    0.107119
  22 H :    0.107257
  23 H :    0.099524
  24 H :    0.129730
  25 H :    0.116837
  26 H :    0.124740
  27 H :    0.127587
  28 H :    0.107156
  29 H :    0.137366
  30 H :    0.118205
  31 H :    0.114868
  32 H :    0.116364
  33 H :    0.112306
  34 H :    0.119684
  35 H :    0.105681
  36 H :    0.117619
  37 H :    0.118204
Sum of atomic charges:   -0.0000000

LOEWDIN ATOMIC CHARGES
----------------------
   0 C :   -0.355719
   1 C :   -0.109811
   2 O :   -0.043725
   3 C :    0.028774
   4 O :   -0.155880
   5 C :   -0.246458
   6 C :   -0.260611
   7 H :    0.147897
   8 C :    0.031749
   9 O :   -0.149551
  10 O :   -0.033640
  11 C :   -0.102072
  12 C :   -0.357452
  13 S :    0.099542
  14 P :    0.581333
  15 S :   -0.331001
  16 O :   -0.243963
  17 C :   -0.210130
  18 O :   -0.265901
  19 C :   -0.223449
  20 H :    0.126056
  21 H :    0.122538
  22 H :    0.129318
  23 H :    0.114159
  24 H :    0.123923
  25 H :    0.136384
  26 H :    0.148938
  27 H :    0.129994
  28 H :    0.121429
  29 H :    0.129939
  30 H :    0.133663
  31 H :    0.125662
  32 H :    0.115873
  33 H :    0.108009
  34 H :    0.110046
  35 H :    0.101876
  36 H :    0.118780
  37 H :    0.103478

  Mayer bond orders larger than 0.100000
B(  0-C ,  1-C ) :   1.1701 B(  0-C , 20-H ) :   0.9353 B(  0-C , 21-H ) :   0.9481
B(  0-C , 22-H ) :   0.9421 B(  1-C ,  2-O ) :   0.8961 B(  1-C , 23-H ) :   0.9350
B(  1-C , 24-H ) :   0.9069 B(  2-O ,  3-C ) :   1.2673 B(  2-O ,  4-O ) :   0.1027
B(  3-C ,  4-O ) :   1.9694 B(  3-C ,  5-C ) :   0.9993 B(  4-O ,  8-C ) :   0.1195
B(  5-C ,  6-C ) :   1.0205 B(  5-C , 25-H ) :   0.9044 B(  5-C , 26-H ) :   0.8769
B(  6-C ,  7-H ) :   0.8779 B(  6-C ,  8-C ) :   0.9104 B(  6-C , 13-S ) :   1.0309
B(  8-C ,  9-O ) :   1.8700 B(  8-C , 10-O ) :   1.2779 B(  9-O , 14-P ) :   0.1576
B( 10-O , 11-C ) :   0.8960 B( 11-C , 12-C ) :   1.1718 B( 11-C , 27-H ) :   0.9168
B( 11-C , 28-H ) :   0.9378 B( 12-C , 29-H ) :   0.9416 B( 12-C , 30-H ) :   0.9434
B( 12-C , 31-H ) :   0.9461 B( 13-S , 14-P ) :   0.9382 B( 13-S , 15-S ) :   0.1144
B( 14-P , 15-S ) :   1.5702 B( 14-P , 16-O ) :   1.1184 B( 14-P , 18-O ) :   1.0496
B( 16-O , 17-C ) :   0.9326 B( 17-C , 32-H ) :   0.9538 B( 17-C , 33-H ) :   0.9546
B( 17-C , 34-H ) :   0.9306 B( 18-O , 19-C ) :   0.9509 B( 19-C , 35-H ) :   0.9453
B( 19-C , 36-H ) :   0.9588 B( 19-C , 37-H ) :   0.9282

Dispersion correction           -0.054215880
FINAL SINGLE POINT ENERGY     -1979.008714320401

DIPOLE MOMENT
-------------

Method             : SCF
Type of density    : Electron Density
Multiplicity       :   1
Irrep              :   0
Energy             : -1979.1382810069512743 Eh
Relativity type    :
Basis              : AO
                                X                 Y                 Z
Electronic contribution:     -7.653322981      -0.516549580      -4.888239581
Nuclear contribution   :      8.709382324       1.289086557       4.232153411
                        -----------------------------------------
Total Dipole Moment    :      1.056059342       0.772536977      -0.656086170
                        -----------------------------------------
Magnitude (a.u.)       :      1.463736239
Magnitude (Debye)      :      3.720521845

Rotational constants in cm-1:             0.011131             0.009710             0.006872
Rotational constants in MHz :           333.691452           291.095391           206.013273

                             ****ORCA TERMINATED NORMALLY****
TOTAL RUN TIME: 0 days 0 hours 0 minutes 33 seconds 670 msec
