                         Program Version 6.0.0  -   RELEASE  -
|  1> ! r2scan-3c def2/J RI DEFGRID2 scfconv6 printgap
|  2> %output
|  3>     printlevel normal
|  4> end
|  5> * xyz 0 1
|  6> C 1.3103048566 -0.7077462564 0.0002769684
|  7> C 1.310414769 0.7076494095 -3.79881e-05
|  8> C 0.0579099957 1.2270935994 -0.0005094997
|  9> S -1.1483207015 4.63586e-05 0.0002029236
| 10> C 0.0577851421 -1.2271131414 -0.0004037379
| 11> H 2.2037999315 -1.3048122511 0.0008793966
| 12> H 2.204114572 1.3046647313 0.0010392832
| 13> H -0.2422938343 2.2552803419 0.0007156434
| 14> H -0.2424692956 -2.2552206866 -0.0010552396
| 15> *
| 16>
| 17>                          ****END OF INPUT****

CARTESIAN COORDINATES (ANGSTROEM)
---------------------------------
  C      1.310305   -0.707746    0.000277
  C      1.310415    0.707649   -0.000038
  C      0.057910    1.227094   -0.000509
  S     -1.148321    0.000046    0.000203
  C      0.057785   -1.227113   -0.000404
  H      2.203800   -1.304812    0.000879
  H      2.204115    1.304665    0.001039
  H     -0.242294    2.255280    0.000716
  H     -0.242469   -2.255221   -0.001055

 Total Charge           Charge          ....    0
 Multiplicity           Mult            ....    1
 Number of Electrons    NEL             ....   44
 Basis Dimension        Dim             ....  123

ORBITAL ENERGIES
----------------

  NO   OCC          E(Eh)            E(eV)
   0   2.0000     -88.591828     -2410.7062
   1   2.0000     -10.059643      -273.7368
   2   2.0000     -10.059630      -273.7365
   3   2.0000     -10.037096      -273.1233
   4   2.0000     -10.036743      -273.1137
   5   2.0000      -7.885713      -214.5812
   6   2.0000      -5.832052      -158.6982
   7   2.0000      -5.827700      -158.5798
   8   2.0000      -5.825515      -158.5203
   9   2.0000      -0.850807       -23.1516
  10   2.0000      -0.704018       -19.1573
  11   2.0000      -0.695746       -18.9322
  12   2.0000      -0.535256       -14.5651
  13   2.0000      -0.525870       -14.3097
  14   2.0000      -0.488520       -13.2933
  15   2.0000      -0.383268       -10.4292
  16   2.0000      -0.364952        -9.9308
  17   2.0000      -0.361171        -9.8280
  18   2.0000      -0.358244        -9.7483
  19   2.0000      -0.320826        -8.7301
  20   2.0000      -0.235395        -6.4054
  21   2.0000      -0.221072        -6.0157
  22   0.0000      -0.039501        -1.0749
  23   0.0000       0.009969         0.2713
  24   0.0000       0.029948         0.8149
  25   0.0000       0.085706         2.3322
  26   0.0000       0.105720         2.8768

MULLIKEN ATOMIC CHARGES
-----------------------
   0 C :   -0.164925
   1 C :   -0.164934
   2 C :   -0.200359
   3 S :    0.087961
   4 C :   -0.200350
   5 H :    0.152154
   6 H :    0.152173
   7 H :    0.169143
   8 H :    0.169137
Sum of atomic charges:    0.0000000

LOEWDIN ATOMIC CHARGES
----------------------
   0 C :   -0.194959
   1 C :   -0.194974
   2 C :   -0.281888
   3 S :    0.259542
   4 C :   -0.281880
   5 H :    0.171529
   6 H :    0.171558
   7 H :    0.175542
   8 H :    0.175531

  Mayer bond orders larger than 0.100000
B(  0-C ,  1-C ) :   1.2895 B(  0-C ,  4-C ) :   1.6218 B(  0-C ,  5-H ) :   0.9345
B(  1-C ,  2-C ) :   1.6218 B(  1-C ,  6-H ) :   0.9345 B(  2-C ,  3-S ) :   1.1874
B(  2-C ,  7-H ) :   0.9263 B(  3-S ,  4-C ) :   1.1874 B(  4-C ,  8-H ) :   0.9263

Dispersion correction           -0.002504515
FINAL SINGLE POINT ENERGY      -552.941660837433

DIPOLE MOMENT
-------------

Method             : SCF
Type of density    : Electron Density
Multiplicity       :   1
Irrep              :   0
Energy             :  -552.9434614836105766 Eh
Relativity type    :
Basis              : AO
                                X                 Y                 Z
Electronic contribution:     -3.503175294       0.000053787      -0.000502465
Nuclear contribution   :      3.713565550      -0.000083763       0.001475631
                        -----------------------------------------
Total Dipole Moment    :      0.210390256      -0.000029976       0.000973166
                        -----------------------------------------
Magnitude (a.u.)       :      0.210392509
Magnitude (Debye)      :      0.534775259

Rotational constants in cm-1:             0.272387             0.180269             0.108477
Rotational constants in MHz :          8165.951524          5404.329130          3252.069502

                             ****ORCA TERMINATED NORMALLY****
TOTAL RUN TIME: 0 days 0 hours 0 minutes 20 seconds 964 msec
