                         Program Version 6.0.0  -   RELEASE  -
|  1> ! r2scan-3c def2/J RI DEFGRID2 scfconv6 printgap
|  2> %output
|  3>     printlevel normal
|  4> end
|  5> %cpcm
|  6>     smd true
|  7>     smdsolvent "water"
|  8> end
|  9> * xyz 0 1
| 10> C 1.3103048566 -0.7077462564 0.0002769684
| 11> C 1.310414769 0.7076494095 -3.79881e-05
| 12> C 0.0579099957 1.2270935994 -0.0005094997
| 13> S -1.1483207015 4.63586e-05 0.0002029236
| 14> C 0.0577851421 -1.2271131414 -0.0004037379
| 15> H 2.2037999315 -1.3048122511 0.0008793966
| 16> H 2.204114572 1.3046647313 0.0010392832
| 17> H -0.2422938343 2.2552803419 0.0007156434
| 18> H -0.2424692956 -2.2552206866 -0.0010552396
| 19> *
| 20>
| 21>                          ****END OF INPUT****

CARTESIAN COORDINATES (ANGSTROEM)
---------------------------------
  C      1.310305   -0.707746    0.000277
  C      1.310415    0.707649   -0.000038
  C      0.057910    1.227094   -0.000509
  S     -1.148321    0.000046    0.000203
  C      0.057785   -1.227113   -0.000404
  H      2.203800   -1.304812    0.000879
  H      2.204115    1.304665    0.001039
  H     -0.242294    2.255280    0.000716
  H     -0.242469   -2.255221   -0.001055

 Total Charge           Charge          ....    0
 Multiplicity           Mult            ....    1
 Number of Electrons    NEL             ....   44
 Basis Dimension        Dim             ....  123

ORBITAL ENERGIES
----------------

  NO   OCC          E(Eh)            E(eV)
   0   2.0000     -88.591476     -2410.6966
   1   2.0000     -10.056732      -273.6576
   2   2.0000     -10.056719      -273.6572
   3   2.0000     -10.034063      -273.0407
   4   2.0000     -10.033709      -273.0311
   5   2.0000      -7.885520      -214.5759
   6   2.0000      -5.831762      -158.6903
   7   2.0000      -5.827449      -158.5729
   8   2.0000      -5.825454      -158.5187
   9   2.0000      -0.850380       -23.1400
  10   2.0000      -0.702771       -19.1234
  11   2.0000      -0.693102       -18.8603
  12   2.0000      -0.530671       -14.4403
  13   2.0000      -0.521338       -14.1863
  14   2.0000      -0.483687       -13.1618
  15   2.0000      -0.377102       -10.2615
  16   2.0000      -0.360394        -9.8068
  17   2.0000      -0.360348        -9.8056
  18   2.0000      -0.356462        -9.6998
  19   2.0000      -0.319627        -8.6975
  20   2.0000      -0.237363        -6.4590
  21   2.0000      -0.221855        -6.0370
  22   0.0000      -0.039847        -1.0843
  23   0.0000       0.011674         0.3177
  24   0.0000       0.030166         0.8209
  25   0.0000       0.089090         2.4243
  26   0.0000       0.110802         3.0151

MULLIKEN ATOMIC CHARGES
-----------------------
   0 C :   -0.208048
   1 C :   -0.208070
   2 C :   -0.225530
   3 S :    0.067626
   4 C :   -0.225516
   5 H :    0.188160
   6 H :    0.188187
   7 H :    0.211598
   8 H :    0.211592
Sum of atomic charges:    0.0000000

LOEWDIN ATOMIC CHARGES
----------------------
   0 C :   -0.205976
   1 C :   -0.205993
   2 C :   -0.287698
   3 S :    0.242605
   4 C :   -0.287684
   5 H :    0.183353
   6 H :    0.183389
   7 H :    0.189008
   8 H :    0.188997

  Mayer bond orders larger than 0.100000
B(  0-C ,  1-C ) :   1.2549 B(  0-C ,  4-C ) :   1.5969 B(  0-C ,  5-H ) :   0.9366
B(  1-C ,  2-C ) :   1.5969 B(  1-C ,  6-H ) :   0.9366 B(  2-C ,  3-S ) :   1.1814
B(  2-C ,  7-H ) :   0.9165 B(  3-S ,  4-C ) :   1.1814 B(  4-C ,  8-H ) :   0.9165

Dispersion correction           -0.002504515
FINAL SINGLE POINT ENERGY      -552.943485382543

DIPOLE MOMENT
-------------

Method             : SCF
Type of density    : Electron Density
Multiplicity       :   1
Irrep              :   0
Energy             :  -552.9452860287210569 Eh
Relativity type    :
Basis              : AO
                                X                 Y                 Z
Electronic contribution:     -3.419122686       0.000045264      -0.000165937
Nuclear contribution   :      3.713565550      -0.000083763       0.001475631
                        -----------------------------------------
Total Dipole Moment    :      0.294442864      -0.000038499       0.001309694
                        -----------------------------------------
Magnitude (a.u.)       :      0.294445779
Magnitude (Debye)      :      0.748421693

Rotational constants in cm-1:             0.272387             0.180269             0.108477
Rotational constants in MHz :          8165.951524          5404.329130          3252.069502

                             ****ORCA TERMINATED NORMALLY****
TOTAL RUN TIME: 0 days 0 hours 0 minutes 20 seconds 756 msec
