                         Program Version 6.0.0  -   RELEASE  -
|  1> ! pbe def2-sv(p) def2/J RI DEFGRID1 loosescf d4 GCP(DFT/SV(P)) printgap
|  2> %output
|  3>     printlevel normal
|  4> end
|  5> * xyz 0 1
|  6> C -2.4705976478 0.6925551779 1.65838e-05
|  7> C -2.4706218508 -0.692494255 -3.44103e-05
|  8> C -1.2745226533 -1.3891470971 -4.055e-07
|  9> C -0.0754626155 -0.694650332 8.1043e-06
| 10> C -0.0754313468 0.6946540234 -2.04816e-05
| 11> C -1.2744669737 1.389188005 1.89619e-05
| 12> Cl 1.4268297377 1.5658424393 -4.2218e-06
| 13> Cl 1.4267743999 -1.5658817467 4.835e-06
| 14> H -3.4008538406 1.2366376444 -1.44903e-05
| 15> H -3.4008912039 -1.2365598734 7.86058e-05
| 16> H -1.2588639543 -2.4664973166 4.4254e-06
| 17> H -1.2587663678 2.4665447168 4.86806e-05
| 18> *
| 19>
| 20>                          ****END OF INPUT****

CARTESIAN COORDINATES (ANGSTROEM)
---------------------------------
  C     -2.470598    0.692555    0.000017
  C     -2.470622   -0.692494   -0.000034
  C     -1.274523   -1.389147   -0.000000
  C     -0.075463   -0.694650    0.000008
  C     -0.075431    0.694654   -0.000020
  C     -1.274467    1.389188    0.000019
  Cl     1.426830    1.565842   -0.000004
  Cl     1.426774   -1.565882    0.000005
  H     -3.400854    1.236638   -0.000014
  H     -3.400891   -1.236560    0.000079
  H     -1.258864   -2.466497    0.000004
  H     -1.258766    2.466545    0.000049

 Total Charge           Charge          ....    0
 Multiplicity           Mult            ....    1
 Number of Electrons    NEL             ....   74
 Basis Dimension        Dim             ....  128

ORBITAL ENERGIES
----------------

  NO   OCC          E(Eh)            E(eV)
   0   2.0000    -100.645996     -2738.7168
   1   2.0000    -100.645917     -2738.7146
   2   2.0000      -9.964184      -271.1392
   3   2.0000      -9.963962      -271.1332
   4   2.0000      -9.913316      -269.7551
   5   2.0000      -9.913257      -269.7534
   6   2.0000      -9.911186      -269.6971
   7   2.0000      -9.910949      -269.6906
   8   2.0000      -9.181758      -249.8483
   9   2.0000      -9.181692      -249.8465
  10   2.0000      -7.013290      -190.8413
  11   2.0000      -7.013274      -190.8409
  12   2.0000      -7.001766      -190.5277
  13   2.0000      -7.001756      -190.5275
  14   2.0000      -7.000912      -190.5045
  15   2.0000      -7.000877      -190.5035
  16   2.0000      -0.838769       -22.8241
  17   2.0000      -0.782558       -21.2945
  18   2.0000      -0.767205       -20.8767
  19   2.0000      -0.681337       -18.5401
  20   2.0000      -0.663268       -18.0484
  21   2.0000      -0.566847       -15.4247
  22   2.0000      -0.545859       -14.8536
  23   2.0000      -0.481689       -13.1074
  24   2.0000      -0.442866       -12.0510
  25   2.0000      -0.424282       -11.5453
  26   2.0000      -0.400533       -10.8991
  27   2.0000      -0.399293       -10.8653
  28   2.0000      -0.381083       -10.3698
  29   2.0000      -0.338776        -9.2186
  30   2.0000      -0.335362        -9.1257
  31   2.0000      -0.306903        -8.3513
  32   2.0000      -0.303212        -8.2508
  33   2.0000      -0.284574        -7.7436
  34   2.0000      -0.260830        -7.0976
  35   2.0000      -0.237596        -6.4653
  36   2.0000      -0.221990        -6.0407
  37   0.0000      -0.054977        -1.4960
  38   0.0000      -0.052295        -1.4230
  39   0.0000      -0.019900        -0.5415
  40   0.0000       0.049088         1.3358
  41   0.0000       0.053790         1.4637

MULLIKEN ATOMIC CHARGES
-----------------------
   0 C :   -0.043080
   1 C :   -0.043077
   2 C :   -0.096532
   3 C :    0.076248
   4 C :    0.076251
   5 C :   -0.096535
   6 Cl:   -0.057857
   7 Cl:   -0.057859
   8 H :    0.064942
   9 H :    0.064942
  10 H :    0.056277
  11 H :    0.056282
Sum of atomic charges:    0.0000000

LOEWDIN ATOMIC CHARGES
----------------------
   0 C :   -0.120657
   1 C :   -0.120659
   2 C :   -0.131638
   3 C :   -0.151416
   4 C :   -0.151419
   5 C :   -0.131637
   6 Cl:    0.138428
   7 Cl:    0.138427
   8 H :    0.130520
   9 H :    0.130521
  10 H :    0.134764
  11 H :    0.134764

  Mayer bond orders larger than 0.100000
B(  0-C ,  1-C ) :   1.3579 B(  0-C ,  5-C ) :   1.3581 B(  0-C ,  8-H ) :   0.9641
B(  1-C ,  2-C ) :   1.3581 B(  1-C ,  9-H ) :   0.9641 B(  2-C ,  3-C ) :   1.3957
B(  2-C , 10-H ) :   0.9653 B(  3-C ,  4-C ) :   1.4107 B(  3-C ,  7-Cl) :   1.0360
B(  4-C ,  5-C ) :   1.3957 B(  4-C ,  6-Cl) :   1.0360 B(  5-C , 11-H ) :   0.9653

Dispersion correction           -0.015894041
FINAL SINGLE POINT ENERGY     -1150.283187455387

DIPOLE MOMENT
-------------

Method             : SCF
Type of density    : Electron Density
Multiplicity       :   1
Irrep              :   0
Energy             : -1150.3069771119405686 Eh
Relativity type    :
Basis              : AO
                                X                 Y                 Z
Electronic contribution:     11.753162458      -0.000158659      -0.000081643
Nuclear contribution   :    -12.573329525       0.000170191       0.000109151
                        -----------------------------------------
Total Dipole Moment    :     -0.820167067       0.000011532       0.000027508
                        -----------------------------------------
Magnitude (a.u.)       :      0.820167068
Magnitude (Debye)      :      2.084699012

Rotational constants in cm-1:             0.065170             0.047267             0.027397
Rotational constants in MHz :          1953.735714          1417.041269           821.331150

                             ****ORCA TERMINATED NORMALLY****
TOTAL RUN TIME: 0 days 0 hours 0 minutes 16 seconds 515 msec
