                         Program Version 6.0.0  -   RELEASE  -
|  1> ! pbe def2-sv(p) def2/J RI DEFGRID1 loosescf d4 GCP(DFT/SV(P)) printgap
|  2> %output
|  3>     printlevel normal
|  4> end
|  5> * xyz 0 1
|  6> C 1.2910579893 0.6976114697 3.004241631
|  7> C 2.4111100502 0.9418007353 2.0133669928
|  8> O 2.8889179499 -0.2852114183 1.4321334958
|  9> P 2.1942057213 -1.0637352625 0.2310825405
| 10> S 0.4809018005 -1.9446003762 0.5717870624
| 11> O 3.2811715613 -2.137126675 -0.135606613
| 12> C 4.6541216379 -1.8050502385 -0.4676532485
| 13> C 5.5520609225 -1.963103675 0.7419600184
| 14> S 2.2566045975 0.3502318027 -1.3825215465
| 15> C 0.4935907914 0.5207473831 -1.6913685913
| 16> S -0.3383331319 1.3837724273 -0.3171256224
| 17> P -2.3186158379 0.666758848 -0.6629896403
| 18> S -2.4707392595 -0.9630313914 -1.7318254568
| 19> O -3.0592106644 1.864092299 -1.3684606521
| 20> C -3.1120274272 3.2120997643 -0.8364202284
| 21> C -4.3681112732 3.4259159161 -0.017476675
| 22> O -2.9566287841 0.6720848336 0.7913845224
| 23> C -2.718666466 -0.3676036911 1.7613085239
| 24> C -3.8636813828 -1.360617963 1.7586180226
| 25> H 0.4213846954 0.2885038744 2.4951213048
| 26> H 1.6098540729 -0.0079233229 3.7665423343
| 27> H 1.0168523478 1.637795026 3.4709827326
| 28> H 3.2915740877 1.358958084 2.5054802675
| 29> H 2.0824770335 1.6138358861 1.2140251193
| 30> H 4.920364459 -2.5111980547 -1.2560754397
| 31> H 4.6865101596 -0.7851549983 -0.860583642
| 32> H 6.5788519854 -1.7684662506 0.4485373517
| 33> H 5.2614629678 -1.2655565931 1.5223515336
| 34> H 5.4752450412 -2.9746059067 1.1312133254
| 35> H 0.030844953 -0.4632445986 -1.8049510376
| 36> H 0.3982896168 1.1089983591 -2.6010492967
| 37> H -2.2126608773 3.3912943205 -0.2400275266
| 38> H -3.1024762742 3.8491141213 -1.7226104847
| 39> H -4.3599646205 2.7880396915 0.8617734227
| 40> H -4.4150456008 4.4650877661 0.2929388429
| 41> H -5.244970005 3.1893342028 -0.6138809446
| 42> H -1.7750069613 -0.8735288039 1.5398527
| 43> H -2.6422028628 0.1528526319 2.7177976764
| 44> H -4.8049506141 -0.8519916989 1.946606497
| 45> H -3.9188140848 -1.8607126425 0.7937308503
| 46> H -3.6917515981 -2.1045300966 2.5296149779
| 47> *
| 48>
| 49>                          ****END OF INPUT****

CARTESIAN COORDINATES (ANGSTROEM)
---------------------------------
  C      1.291058    0.697611    3.004242
  C      2.411110    0.941801    2.013367
  O      2.888918   -0.285211    1.432133
  P      2.194206   -1.063735    0.231083
  S      0.480902   -1.944600    0.571787
  O      3.281172   -2.137127   -0.135607
  C      4.654122   -1.805050   -0.467653
  C      5.552061   -1.963104    0.741960
  S      2.256605    0.350232   -1.382522
  C      0.493591    0.520747   -1.691369
  S     -0.338333    1.383772   -0.317126
  P     -2.318616    0.666759   -0.662990
  S     -2.470739   -0.963031   -1.731825
  O     -3.059211    1.864092   -1.368461
  C     -3.112027    3.212100   -0.836420
  C     -4.368111    3.425916   -0.017477
  O     -2.956629    0.672085    0.791385
  C     -2.718666   -0.367604    1.761309
  C     -3.863681   -1.360618    1.758618
  H      0.421385    0.288504    2.495121
  H      1.609854   -0.007923    3.766542
  H      1.016852    1.637795    3.470983
  H      3.291574    1.358958    2.505480
  H      2.082477    1.613836    1.214025
  H      4.920364   -2.511198   -1.256075
  H      4.686510   -0.785155   -0.860584
  H      6.578852   -1.768466    0.448537
  H      5.261463   -1.265557    1.522352
  H      5.475245   -2.974606    1.131213
  H      0.030845   -0.463245   -1.804951
  H      0.398290    1.108998   -2.601049
  H     -2.212661    3.391294   -0.240028
  H     -3.102476    3.849114   -1.722610
  H     -4.359965    2.788040    0.861773
  H     -4.415046    4.465088    0.292939
  H     -5.244970    3.189334   -0.613881
  H     -1.775007   -0.873529    1.539853
  H     -2.642203    0.152853    2.717798
  H     -4.804951   -0.851992    1.946606
  H     -3.918814   -1.860713    0.793731
  H     -3.691752   -2.104530    2.529615

 Total Charge           Charge          ....    0
 Multiplicity           Mult            ....    1
 Number of Electrons    NEL             ....  202
 Basis Dimension        Dim             ....  334

ORBITAL ENERGIES
----------------

  NO   OCC          E(Eh)            E(eV)
   0   2.0000     -88.047220     -2395.8867
   1   2.0000     -88.039476     -2395.6759
   2   2.0000     -87.983447     -2394.1513
   3   2.0000     -87.982202     -2394.1174
   4   2.0000     -76.427137     -2079.6881
   5   2.0000     -76.423586     -2079.5915
   6   2.0000     -18.794232      -511.4170
   7   2.0000     -18.793047      -511.3848
   8   2.0000     -18.791999      -511.3563
   9   2.0000     -18.788877      -511.2713
  10   2.0000      -9.961355      -271.0622
  11   2.0000      -9.956043      -270.9177
  12   2.0000      -9.955867      -270.9129
  13   2.0000      -9.952272      -270.8151
  14   2.0000      -9.948114      -270.7019
  15   2.0000      -9.889373      -269.1035
  16   2.0000      -9.885889      -269.0087
  17   2.0000      -9.882090      -268.9054
  18   2.0000      -9.876807      -268.7616
  19   2.0000      -7.692027      -209.3107
  20   2.0000      -7.684033      -209.0932
  21   2.0000      -7.628269      -207.5757
  22   2.0000      -7.627426      -207.5528
  23   2.0000      -6.424490      -174.8193
  24   2.0000      -6.421097      -174.7269
  25   2.0000      -5.719914      -155.6468
  26   2.0000      -5.716429      -155.5519
  27   2.0000      -5.711851      -155.4274
  28   2.0000      -5.709181      -155.3547
  29   2.0000      -5.708677      -155.3410
  30   2.0000      -5.701033      -155.1330
  31   2.0000      -5.657458      -153.9473
  32   2.0000      -5.656450      -153.9198
  33   2.0000      -5.648669      -153.7081
  34   2.0000      -5.648366      -153.6998
  35   2.0000      -5.647884      -153.6867
  36   2.0000      -5.647599      -153.6790
  37   2.0000      -4.647205      -126.4569
  38   2.0000      -4.646445      -126.4362
  39   2.0000      -4.644658      -126.3876
  40   2.0000      -4.643914      -126.3673
  41   2.0000      -4.642851      -126.3384
  42   2.0000      -4.641365      -126.2980
  43   2.0000      -0.990352       -26.9489
  44   2.0000      -0.986379       -26.8408
  45   2.0000      -0.946785       -25.7633
  46   2.0000      -0.943366       -25.6703
  47   2.0000      -0.761697       -20.7268
  48   2.0000      -0.721909       -19.6441
  49   2.0000      -0.712577       -19.3902
  50   2.0000      -0.692415       -18.8416
  51   2.0000      -0.687912       -18.7190
  52   2.0000      -0.673077       -18.3154
  53   2.0000      -0.649653       -17.6779
  54   2.0000      -0.636499       -17.3200
  55   2.0000      -0.589869       -16.0512
  56   2.0000      -0.586355       -15.9555
  57   2.0000      -0.577517       -15.7150
  58   2.0000      -0.572190       -15.5701
  59   2.0000      -0.565453       -15.3868
  60   2.0000      -0.510186       -13.8829
  61   2.0000      -0.498311       -13.5597
  62   2.0000      -0.480573       -13.0771
  63   2.0000      -0.478089       -13.0095
  64   2.0000      -0.451148       -12.2764
  65   2.0000      -0.446517       -12.1503
  66   2.0000      -0.442343       -12.0368
  67   2.0000      -0.435053       -11.8384
  68   2.0000      -0.427759       -11.6399
  69   2.0000      -0.424534       -11.5521
  70   2.0000      -0.407463       -11.0876
  71   2.0000      -0.399652       -10.8751
  72   2.0000      -0.392941       -10.6925
  73   2.0000      -0.387372       -10.5409
  74   2.0000      -0.382091       -10.3972
  75   2.0000      -0.366769        -9.9803
  76   2.0000      -0.361892        -9.8476
  77   2.0000      -0.359444        -9.7810
  78   2.0000      -0.354953        -9.6588
  79   2.0000      -0.353773        -9.6267
  80   2.0000      -0.347076        -9.4444
  81   2.0000      -0.343674        -9.3519
  82   2.0000      -0.341643        -9.2966
  83   2.0000      -0.337447        -9.1824
  84   2.0000      -0.331927        -9.0322
  85   2.0000      -0.321047        -8.7361
  86   2.0000      -0.315638        -8.5889
  87   2.0000      -0.298036        -8.1100
  88   2.0000      -0.293022        -7.9735
  89   2.0000      -0.292329        -7.9547
  90   2.0000      -0.288639        -7.8543
  91   2.0000      -0.279857        -7.6153
  92   2.0000      -0.272929        -7.4268
  93   2.0000      -0.264535        -7.1984
  94   2.0000      -0.258273        -7.0280
  95   2.0000      -0.238735        -6.4963
  96   2.0000      -0.221548        -6.0286
  97   2.0000      -0.207995        -5.6598
  98   2.0000      -0.199036        -5.4161
  99   2.0000      -0.192718        -5.2441
 100   2.0000      -0.191141        -5.2012
 101   0.0000      -0.048618        -1.3230
 102   0.0000      -0.032632        -0.8880
 103   0.0000      -0.012369        -0.3366
 104   0.0000       0.006793         0.1849
 105   0.0000       0.011936         0.3248

MULLIKEN ATOMIC CHARGES
-----------------------
   0 C :   -0.311588
   1 C :   -0.011600
   2 O :   -0.377099
   3 P :    0.600375
   4 S :   -0.294607
   5 O :   -0.350987
   6 C :   -0.019750
   7 C :   -0.288408
   8 S :   -0.134152
   9 C :   -0.324155
  10 S :   -0.142161
  11 P :    0.608711
  12 S :   -0.294550
  13 O :   -0.355277
  14 C :   -0.012494
  15 C :   -0.290871
  16 O :   -0.383865
  17 C :   -0.054467
  18 C :   -0.278393
  19 H :    0.144100
  20 H :    0.114345
  21 H :    0.104839
  22 H :    0.103145
  23 H :    0.109307
  24 H :    0.116022
  25 H :    0.107717
  26 H :    0.110232
  27 H :    0.123344
  28 H :    0.123046
  29 H :    0.214829
  30 H :    0.180783
  31 H :    0.100234
  32 H :    0.109069
  33 H :    0.123114
  34 H :    0.108044
  35 H :    0.120439
  36 H :    0.155531
  37 H :    0.102778
  38 H :    0.107759
  39 H :    0.127525
  40 H :    0.109140
Sum of atomic charges:   -0.0000000

LOEWDIN ATOMIC CHARGES
----------------------
   0 C :   -0.367106
   1 C :   -0.117990
   2 O :   -0.245311
   3 P :    0.563949
   4 S :   -0.281933
   5 O :   -0.232970
   6 C :   -0.111834
   7 C :   -0.358758
   8 S :    0.063093
   9 C :   -0.477457
  10 S :    0.050113
  11 P :    0.566889
  12 S :   -0.286897
  13 O :   -0.238221
  14 C :   -0.114956
  15 C :   -0.360578
  16 O :   -0.246049
  17 C :   -0.122745
  18 C :   -0.358434
  19 H :    0.121574
  20 H :    0.126748
  21 H :    0.127950
  22 H :    0.117150
  23 H :    0.097972
  24 H :    0.124153
  25 H :    0.104624
  26 H :    0.129633
  27 H :    0.127078
  28 H :    0.130787
  29 H :    0.124323
  30 H :    0.134792
  31 H :    0.101604
  32 H :    0.121016
  33 H :    0.125932
  34 H :    0.128598
  35 H :    0.129246
  36 H :    0.108509
  37 H :    0.115221
  38 H :    0.122623
  39 H :    0.127550
  40 H :    0.130113

  Mayer bond orders larger than 0.100000
B(  0-C ,  1-C ) :   1.1666 B(  0-C , 19-H ) :   0.9286 B(  0-C , 20-H ) :   0.9448
B(  0-C , 21-H ) :   0.9385 B(  1-C ,  2-O ) :   0.9138 B(  1-C , 22-H ) :   0.9351
B(  1-C , 23-H ) :   0.9063 B(  2-O ,  3-P ) :   1.0758 B(  3-P ,  4-S ) :   1.6690
B(  3-P ,  5-O ) :   1.1478 B(  3-P ,  8-S ) :   0.9274 B(  4-S ,  8-S ) :   0.1148
B(  5-O ,  6-C ) :   0.8922 B(  6-C ,  7-C ) :   1.1654 B(  6-C , 24-H ) :   0.9354
B(  6-C , 25-H ) :   0.9162 B(  7-C , 26-H ) :   0.9394 B(  7-C , 27-H ) :   0.9415
B(  7-C , 28-H ) :   0.9464 B(  8-S ,  9-C ) :   1.0144 B(  9-C , 10-S ) :   0.9792
B(  9-C , 29-H ) :   0.8493 B(  9-C , 30-H ) :   0.9086 B( 10-S , 11-P ) :   0.9402
B( 10-S , 12-S ) :   0.1159 B( 11-P , 12-S ) :   1.6567 B( 11-P , 13-O ) :   1.1387
B( 11-P , 16-O ) :   1.0903 B( 13-O , 14-C ) :   0.8985 B( 14-C , 15-C ) :   1.1637
B( 14-C , 31-H ) :   0.9117 B( 14-C , 32-H ) :   0.9367 B( 15-C , 33-H ) :   0.9407
B( 15-C , 34-H ) :   0.9395 B( 15-C , 35-H ) :   0.9468 B( 16-O , 17-C ) :   0.8877
B( 17-C , 18-C ) :   1.1674 B( 17-C , 36-H ) :   0.8879 B( 17-C , 37-H ) :   0.9351
B( 18-C , 38-H ) :   0.9480 B( 18-C , 39-H ) :   0.9345 B( 18-C , 40-H ) :   0.9399

Dispersion correction           -0.064436569
FINAL SINGLE POINT ENERGY     -2929.515372872414

DIPOLE MOMENT
-------------

Method             : SCF
Type of density    : Electron Density
Multiplicity       :   1
Irrep              :   0
Energy             : -2929.6356735933732125 Eh
Relativity type    :
Basis              : AO
                                X                 Y                 Z
Electronic contribution:      1.289750177      -6.666189810     -16.542180887
Nuclear contribution   :     -0.254246310       8.249332127      17.495334849
                        -----------------------------------------
Total Dipole Moment    :      1.035503866       1.583142317       0.953153962
                        -----------------------------------------
Magnitude (a.u.)       :      2.118280040
Magnitude (Debye)      :      5.384239970

Rotational constants in cm-1:             0.013871             0.004426             0.004340
Rotational constants in MHz :           415.829005           132.692804           130.124556

                             ****ORCA TERMINATED NORMALLY****
TOTAL RUN TIME: 0 days 0 hours 0 minutes 20 seconds 813 msec
