                         Program Version 6.0.0  -   RELEASE  -
|  1> ! pbe def2-sv(p) def2/J RI DEFGRID1 loosescf d4 GCP(DFT/SV(P)) printgap
|  2> %output
|  3>     printlevel normal
|  4> end
|  5> * xyz 0 1
|  6> C 4.3492763453 -2.2755959012 0.2254671078
|  7> C 4.7915134667 -0.8646010789 -0.1050553491
|  8> O 3.7821206544 0.1118803948 0.2056087192
|  9> P 2.4019256489 0.1901219874 -0.5796985458
| 10> S 2.536541253 -0.1373634591 -2.5044751316
| 11> O 1.9199903294 1.6647224083 -0.2843050241
| 12> C 1.3987743455 2.1778704022 0.9629526634
| 13> C 2.3312918719 1.9463221892 2.1321256645
| 14> S 1.0990431867 -1.0962293631 0.5045382456
| 15> C -0.1083884651 -1.3337560073 -0.8177300467
| 16> S -0.9504431955 0.2035365193 -1.3254565982
| 17> P -2.456630979 0.2283013014 0.151755943
| 18> S -3.7642866434 1.6857835984 0.0820298558
| 19> O -1.5352454638 0.1747993966 1.4387228869
| 20> C -2.1093785384 0.093888602 2.7662806575
| 21> C -0.9973268198 0.3536862524 3.7605539458
| 22> O -3.1051427394 -1.2336853761 0.173094009
| 23> C -4.2917503206 -1.5407536961 -0.5759032771
| 24> C -4.0226111894 -1.5732343159 -2.0668703639
| 25> H 3.5481949367 -2.5806558305 -0.4456784857
| 26> H 5.188871001 -2.9514703694 0.0986778737
| 27> H 3.9919025599 -2.3314878774 1.250393718
| 28> H 5.039448518 -0.7788728224 -1.1676294548
| 29> H 5.6446534237 -0.5566955999 0.5010198042
| 30> H 1.2624540318 3.2408102385 0.7561637216
| 31> H 0.4231024702 1.7157257499 1.1414841086
| 32> H 3.318925406 2.3394302087 1.9058228078
| 33> H 1.9355207536 2.4524427476 3.0074722926
| 34> H 2.4149431483 0.8822192327 2.3430996745
| 35> H -0.8398723298 -2.0527399442 -0.4583298639
| 36> H 0.404892964 -1.6885467927 -1.7111547579
| 37> H -2.9096731298 0.8372657786 2.8421738374
| 38> H -2.5331362396 -0.9050456445 2.8901449585
| 39> H -0.6185994849 1.3652785489 3.6463708899
| 40> H -1.3841885307 0.2280874091 4.7664307038
| 41> H -0.1859739054 -0.3494274113 3.5938628912
| 42> H -4.6009133598 -2.5160232657 -0.1976819543
| 43> H -5.0522460852 -0.7892703221 -0.3411533581
| 44> H -4.9290143917 -1.8595274527 -2.5904487867
| 45> H -3.7172271491 -0.5839113329 -2.4082714585
| 46> H -3.2337542072 -2.2837104714 -2.3007652337
| 47> *
| 48>
| 49>                          ****END OF INPUT****

CARTESIAN COORDINATES (ANGSTROEM)
---------------------------------
  C      4.349276   -2.275596    0.225467
  C      4.791513   -0.864601   -0.105055
  O      3.782121    0.111880    0.205609
  P      2.401926    0.190122   -0.579699
  S      2.536541   -0.137363   -2.504475
  O      1.919990    1.664722   -0.284305
  C      1.398774    2.177870    0.962953
  C      2.331292    1.946322    2.132126
  S      1.099043   -1.096229    0.504538
  C     -0.108388   -1.333756   -0.817730
  S     -0.950443    0.203537   -1.325457
  P     -2.456631    0.228301    0.151756
  S     -3.764287    1.685784    0.082030
  O     -1.535245    0.174799    1.438723
  C     -2.109379    0.093889    2.766281
  C     -0.997327    0.353686    3.760554
  O     -3.105143   -1.233685    0.173094
  C     -4.291750   -1.540754   -0.575903
  C     -4.022611   -1.573234   -2.066870
  H      3.548195   -2.580656   -0.445678
  H      5.188871   -2.951470    0.098678
  H      3.991903   -2.331488    1.250394
  H      5.039449   -0.778873   -1.167629
  H      5.644653   -0.556696    0.501020
  H      1.262454    3.240810    0.756164
  H      0.423102    1.715726    1.141484
  H      3.318925    2.339430    1.905823
  H      1.935521    2.452443    3.007472
  H      2.414943    0.882219    2.343100
  H     -0.839872   -2.052740   -0.458330
  H      0.404893   -1.688547   -1.711155
  H     -2.909673    0.837266    2.842174
  H     -2.533136   -0.905046    2.890145
  H     -0.618599    1.365279    3.646371
  H     -1.384189    0.228087    4.766431
  H     -0.185974   -0.349427    3.593863
  H     -4.600913   -2.516023   -0.197682
  H     -5.052246   -0.789270   -0.341153
  H     -4.929014   -1.859527   -2.590449
  H     -3.717227   -0.583911   -2.408271
  H     -3.233754   -2.283710   -2.300765

 Total Charge           Charge          ....    0
 Multiplicity           Mult            ....    1
 Number of Electrons    NEL             ....  202
 Basis Dimension        Dim             ....  334

ORBITAL ENERGIES
----------------

  NO   OCC          E(Eh)            E(eV)
   0   2.0000     -88.046046     -2395.8547
   1   2.0000     -88.044836     -2395.8218
   2   2.0000     -87.988704     -2394.2943
   3   2.0000     -87.984710     -2394.1857
   4   2.0000     -76.428019     -2079.7121
   5   2.0000     -76.427095     -2079.6870
   6   2.0000     -18.798077      -511.5217
   7   2.0000     -18.795980      -511.4646
   8   2.0000     -18.794475      -511.4237
   9   2.0000     -18.787818      -511.2425
  10   2.0000      -9.959071      -271.0001
  11   2.0000      -9.958736      -270.9910
  12   2.0000      -9.955171      -270.8940
  13   2.0000      -9.953766      -270.8558
  14   2.0000      -9.949489      -270.7394
  15   2.0000      -9.894178      -269.2343
  16   2.0000      -9.886861      -269.0352
  17   2.0000      -9.886209      -269.0174
  18   2.0000      -9.885746      -269.0048
  19   2.0000      -7.690791      -209.2771
  20   2.0000      -7.689616      -209.2451
  21   2.0000      -7.633850      -207.7276
  22   2.0000      -7.630001      -207.6229
  23   2.0000      -6.425855      -174.8564
  24   2.0000      -6.424230      -174.8122
  25   2.0000      -5.719032      -155.6228
  26   2.0000      -5.717392      -155.5781
  27   2.0000      -5.715169      -155.5177
  28   2.0000      -5.714172      -155.4905
  29   2.0000      -5.707585      -155.3113
  30   2.0000      -5.706650      -155.2858
  31   2.0000      -5.662812      -154.0929
  32   2.0000      -5.658968      -153.9883
  33   2.0000      -5.654527      -153.8675
  34   2.0000      -5.653938      -153.8515
  35   2.0000      -5.650552      -153.7593
  36   2.0000      -5.650141      -153.7481
  37   2.0000      -4.648439      -126.4905
  38   2.0000      -4.647798      -126.4730
  39   2.0000      -4.646946      -126.4498
  40   2.0000      -4.646113      -126.4271
  41   2.0000      -4.646075      -126.4261
  42   2.0000      -4.644537      -126.3843
  43   2.0000      -0.992349       -27.0032
  44   2.0000      -0.985734       -26.8232
  45   2.0000      -0.949895       -25.8480
  46   2.0000      -0.943842       -25.6832
  47   2.0000      -0.766542       -20.8587
  48   2.0000      -0.724962       -19.7272
  49   2.0000      -0.711318       -19.3560
  50   2.0000      -0.691851       -18.8262
  51   2.0000      -0.689996       -18.7757
  52   2.0000      -0.679049       -18.4779
  53   2.0000      -0.654251       -17.8031
  54   2.0000      -0.638477       -17.3738
  55   2.0000      -0.600318       -16.3355
  56   2.0000      -0.593316       -16.1449
  57   2.0000      -0.579924       -15.7805
  58   2.0000      -0.574732       -15.6392
  59   2.0000      -0.563097       -15.3226
  60   2.0000      -0.511059       -13.9066
  61   2.0000      -0.492091       -13.3905
  62   2.0000      -0.478299       -13.0152
  63   2.0000      -0.470847       -12.8124
  64   2.0000      -0.461014       -12.5448
  65   2.0000      -0.450060       -12.2467
  66   2.0000      -0.443569       -12.0701
  67   2.0000      -0.437628       -11.9085
  68   2.0000      -0.435115       -11.8401
  69   2.0000      -0.424319       -11.5463
  70   2.0000      -0.409691       -11.1483
  71   2.0000      -0.399613       -10.8740
  72   2.0000      -0.396292       -10.7836
  73   2.0000      -0.394466       -10.7340
  74   2.0000      -0.381541       -10.3823
  75   2.0000      -0.374145       -10.1810
  76   2.0000      -0.367077        -9.9887
  77   2.0000      -0.362410        -9.8617
  78   2.0000      -0.361163        -9.8277
  79   2.0000      -0.355550        -9.6750
  80   2.0000      -0.351420        -9.5626
  81   2.0000      -0.346901        -9.4397
  82   2.0000      -0.343557        -9.3487
  83   2.0000      -0.339955        -9.2506
  84   2.0000      -0.333520        -9.0755
  85   2.0000      -0.326234        -8.8773
  86   2.0000      -0.314622        -8.5613
  87   2.0000      -0.301421        -8.2021
  88   2.0000      -0.297664        -8.0999
  89   2.0000      -0.293773        -7.9940
  90   2.0000      -0.290349        -7.9008
  91   2.0000      -0.280209        -7.6249
  92   2.0000      -0.272141        -7.4053
  93   2.0000      -0.262846        -7.1524
  94   2.0000      -0.262623        -7.1463
  95   2.0000      -0.234309        -6.3759
  96   2.0000      -0.219595        -5.9755
  97   2.0000      -0.208947        -5.6857
  98   2.0000      -0.205030        -5.5792
  99   2.0000      -0.204372        -5.5612
 100   2.0000      -0.200910        -5.4670
 101   0.0000      -0.043747        -1.1904
 102   0.0000      -0.027528        -0.7491
 103   0.0000      -0.013425        -0.3653
 104   0.0000       0.000036         0.0010
 105   0.0000       0.008490         0.2310

MULLIKEN ATOMIC CHARGES
-----------------------
   0 C :   -0.314281
   1 C :   -0.002141
   2 O :   -0.374389
   3 P :    0.600424
   4 S :   -0.316820
   5 O :   -0.352814
   6 C :   -0.032022
   7 C :   -0.311377
   8 S :   -0.095187
   9 C :   -0.360426
  10 S :   -0.040502
  11 P :    0.600856
  12 S :   -0.320065
  13 O :   -0.371841
  14 C :   -0.011681
  15 C :   -0.291573
  16 O :   -0.391304
  17 C :   -0.007011
  18 C :   -0.314684
  19 H :    0.125349
  20 H :    0.113479
  21 H :    0.114154
  22 H :    0.115122
  23 H :    0.105118
  24 H :    0.110808
  25 H :    0.140057
  26 H :    0.121520
  27 H :    0.114499
  28 H :    0.116072
  29 H :    0.183818
  30 H :    0.196013
  31 H :    0.106706
  32 H :    0.103685
  33 H :    0.124681
  34 H :    0.113769
  35 H :    0.123980
  36 H :    0.103365
  37 H :    0.113904
  38 H :    0.115130
  39 H :    0.131434
  40 H :    0.114176
Sum of atomic charges:   -0.0000000

LOEWDIN ATOMIC CHARGES
----------------------
   0 C :   -0.370509
   1 C :   -0.117698
   2 O :   -0.242673
   3 P :    0.571555
   4 S :   -0.314084
   5 O :   -0.231186
   6 C :   -0.120282
   7 C :   -0.365957
   8 S :    0.083087
   9 C :   -0.481614
  10 S :    0.113466
  11 P :    0.559819
  12 S :   -0.322211
  13 O :   -0.244587
  14 C :   -0.115065
  15 C :   -0.351397
  16 O :   -0.252406
  17 C :   -0.122992
  18 C :   -0.366702
  19 H :    0.120436
  20 H :    0.131196
  21 H :    0.122158
  22 H :    0.113310
  23 H :    0.118741
  24 H :    0.123800
  25 H :    0.109309
  26 H :    0.128277
  27 H :    0.129001
  28 H :    0.115646
  29 H :    0.131179
  30 H :    0.132272
  31 H :    0.111205
  32 H :    0.112502
  33 H :    0.126556
  34 H :    0.131533
  35 H :    0.127012
  36 H :    0.117181
  37 H :    0.110681
  38 H :    0.132185
  39 H :    0.123905
  40 H :    0.123348

  Mayer bond orders larger than 0.100000
B(  0-C ,  1-C ) :   1.1653 B(  0-C , 19-H ) :   0.9347 B(  0-C , 20-H ) :   0.9374
B(  0-C , 21-H ) :   0.9450 B(  1-C ,  2-O ) :   0.9067 B(  1-C , 22-H ) :   0.9163
B(  1-C , 23-H ) :   0.9342 B(  2-O ,  3-P ) :   1.0927 B(  3-P ,  4-S ) :   1.6172
B(  3-P ,  5-O ) :   1.1513 B(  3-P ,  8-S ) :   0.9437 B(  4-S ,  8-S ) :   0.1087
B(  5-O ,  6-C ) :   0.8967 B(  6-C ,  7-C ) :   1.1698 B(  6-C , 24-H ) :   0.9328
B(  6-C , 25-H ) :   0.9015 B(  7-C , 26-H ) :   0.9423 B(  7-C , 27-H ) :   0.9338
B(  7-C , 28-H ) :   0.9375 B(  8-S ,  9-C ) :   1.0057 B(  9-C , 10-S ) :   0.9826
B(  9-C , 29-H ) :   0.8885 B(  9-C , 30-H ) :   0.8785 B( 10-S , 11-P ) :   0.9875
B( 11-P , 12-S ) :   1.6640 B( 11-P , 13-O ) :   1.0905 B( 11-P , 16-O ) :   1.0492
B( 13-O , 14-C ) :   0.8997 B( 14-C , 15-C ) :   1.1600 B( 14-C , 31-H ) :   0.9150
B( 14-C , 32-H ) :   0.9299 B( 15-C , 33-H ) :   0.9459 B( 15-C , 34-H ) :   0.9404
B( 15-C , 35-H ) :   0.9469 B( 16-O , 17-C ) :   0.9081 B( 17-C , 18-C ) :   1.1628
B( 17-C , 36-H ) :   0.9335 B( 17-C , 37-H ) :   0.9117 B( 18-C , 38-H ) :   0.9387
B( 18-C , 39-H ) :   0.9344 B( 18-C , 40-H ) :   0.9475

Dispersion correction           -0.065958426
FINAL SINGLE POINT ENERGY     -2929.521069482387

DIPOLE MOMENT
-------------

Method             : SCF
Type of density    : Electron Density
Multiplicity       :   1
Irrep              :   0
Energy             : -2929.6416836402590889 Eh
Relativity type    :
Basis              : AO
                                X                 Y                 Z
Electronic contribution:     -2.964177761       7.671599209     -14.893472864
Nuclear contribution   :      3.068261487      -8.981615507      16.562342432
                        -----------------------------------------
Total Dipole Moment    :      0.104083726      -1.310016298       1.668869569
                        -----------------------------------------
Magnitude (a.u.)       :      2.124170841
Magnitude (Debye)      :      5.399213194

Rotational constants in cm-1:             0.012598             0.005017             0.004446
Rotational constants in MHz :           377.677898           150.403460           133.290064

                             ****ORCA TERMINATED NORMALLY****
TOTAL RUN TIME: 0 days 0 hours 0 minutes 21 seconds 295 msec
