                         Program Version 6.0.0  -   RELEASE  -
|  1> ! pbe def2-sv(p) def2/J RI DEFGRID1 loosescf d4 GCP(DFT/SV(P)) printgap
|  2> %output
|  3>     printlevel normal
|  4> end
|  5> * xyz 0 1
|  6> C 3.8969127427 0.9807204065 -1.6105143674
|  7> C 2.3850431172 1.0563641913 -1.5827268077
|  8> O 1.8346479404 -0.0181082716 -0.8058807567
|  9> P 1.8258472906 -0.0041086242 0.7791502551
| 10> S 1.9859367613 1.7654136341 1.6050271198
| 11> O 3.0367622864 -1.0163619233 1.0348220331
| 12> C 3.2695017879 -1.7588517233 2.2435100607
| 13> C 3.1709258205 -0.9107902728 3.4947635756
| 14> S 0.1097506656 -1.1555732226 1.2578334928
| 15> C -0.0094106143 -2.1835637533 -0.2195542724
| 16> S -0.627458909 -1.3461462763 -1.7386611371
| 17> P -1.8429012709 0.2034040387 -1.0131650959
| 18> S -2.9660915578 1.0429602598 -2.3795503437
| 19> O -0.7622316422 1.1693009459 -0.346382312
| 20> C -1.0774412416 2.5559700155 -0.095192019
| 21> C -2.1148252421 2.7147351817 0.9949303227
| 22> O -2.6333910028 -0.3590077998 0.250770398
| 23> C -3.9388045713 -0.949903361 0.1317115024
| 24> C -3.8614682512 -2.3911658892 -0.3311727074
| 25> H 4.2868179346 1.7690361642 -2.2464619127
| 26> H 4.2854026878 1.110100972 -0.6009707466
| 27> H 4.2168974981 0.0142471062 -1.9899551196
| 28> H 1.9478139101 0.9234644385 -2.5742816494
| 29> H 2.0517452254 2.0093243037 -1.1582514506
| 30> H 2.5472506367 -2.5795980422 2.2839439528
| 31> H 4.2767841488 -2.1579199872 2.1109108594
| 32> H 2.1523948932 -0.5423951315 3.6182151686
| 33> H 3.4369376805 -1.5111334183 4.3588959665
| 34> H 3.8398741378 -0.0555827417 3.4312967555
| 35> H -0.6961279098 -2.9877903619 0.032271279
| 36> H 0.9704502479 -2.5702765398 -0.4907694675
| 37> H -0.1220604997 2.9938862552 0.2008112164
| 38> H -1.4215599939 3.0033757544 -1.0331610554
| 39> H -2.2263280122 3.769303468 1.2265043487
| 40> H -3.0729384165 2.320007706 0.6602996436
| 41> H -1.8000490445 2.1812244535 1.8888268465
| 42> H -4.3583223336 -0.8722797575 1.1356221196
| 43> H -4.5299713337 -0.3491680013 -0.5679448669
| 44> H -3.4217155371 -2.4414391122 -1.326579803
| 45> H -3.2594713134 -2.9759861491 0.3591073528
| 46> H -4.8634517792 -2.8065241842 -0.369691881
| 47> *
| 48>
| 49>                          ****END OF INPUT****

CARTESIAN COORDINATES (ANGSTROEM)
---------------------------------
  C      3.896913    0.980720   -1.610514
  C      2.385043    1.056364   -1.582727
  O      1.834648   -0.018108   -0.805881
  P      1.825847   -0.004109    0.779150
  S      1.985937    1.765414    1.605027
  O      3.036762   -1.016362    1.034822
  C      3.269502   -1.758852    2.243510
  C      3.170926   -0.910790    3.494764
  S      0.109751   -1.155573    1.257833
  C     -0.009411   -2.183564   -0.219554
  S     -0.627459   -1.346146   -1.738661
  P     -1.842901    0.203404   -1.013165
  S     -2.966092    1.042960   -2.379550
  O     -0.762232    1.169301   -0.346382
  C     -1.077441    2.555970   -0.095192
  C     -2.114825    2.714735    0.994930
  O     -2.633391   -0.359008    0.250770
  C     -3.938805   -0.949903    0.131712
  C     -3.861468   -2.391166   -0.331173
  H      4.286818    1.769036   -2.246462
  H      4.285403    1.110101   -0.600971
  H      4.216897    0.014247   -1.989955
  H      1.947814    0.923464   -2.574282
  H      2.051745    2.009324   -1.158251
  H      2.547251   -2.579598    2.283944
  H      4.276784   -2.157920    2.110911
  H      2.152395   -0.542395    3.618215
  H      3.436938   -1.511133    4.358896
  H      3.839874   -0.055583    3.431297
  H     -0.696128   -2.987790    0.032271
  H      0.970450   -2.570277   -0.490769
  H     -0.122060    2.993886    0.200811
  H     -1.421560    3.003376   -1.033161
  H     -2.226328    3.769303    1.226504
  H     -3.072938    2.320008    0.660300
  H     -1.800049    2.181224    1.888827
  H     -4.358322   -0.872280    1.135622
  H     -4.529971   -0.349168   -0.567945
  H     -3.421716   -2.441439   -1.326580
  H     -3.259471   -2.975986    0.359107
  H     -4.863452   -2.806524   -0.369692

 Total Charge           Charge          ....    0
 Multiplicity           Mult            ....    1
 Number of Electrons    NEL             ....  202
 Basis Dimension        Dim             ....  334

ORBITAL ENERGIES
----------------

  NO   OCC          E(Eh)            E(eV)
   0   2.0000     -88.049040     -2395.9362
   1   2.0000     -88.041202     -2395.7229
   2   2.0000     -87.990662     -2394.3477
   3   2.0000     -87.983673     -2394.1575
   4   2.0000     -76.430381     -2079.7764
   5   2.0000     -76.424260     -2079.6099
   6   2.0000     -18.792071      -511.3582
   7   2.0000     -18.791834      -511.3518
   8   2.0000     -18.789272      -511.2821
   9   2.0000     -18.783328      -511.1203
  10   2.0000      -9.966758      -271.2093
  11   2.0000      -9.957887      -270.9679
  12   2.0000      -9.952154      -270.8119
  13   2.0000      -9.948192      -270.7041
  14   2.0000      -9.937426      -270.4111
  15   2.0000      -9.888637      -269.0835
  16   2.0000      -9.885776      -269.0056
  17   2.0000      -9.880988      -268.8754
  18   2.0000      -9.873389      -268.6686
  19   2.0000      -7.693819      -209.3595
  20   2.0000      -7.686256      -209.1536
  21   2.0000      -7.635648      -207.7766
  22   2.0000      -7.628832      -207.5911
  23   2.0000      -6.427271      -174.8949
  24   2.0000      -6.421765      -174.7451
  25   2.0000      -5.722144      -155.7075
  26   2.0000      -5.718194      -155.6000
  27   2.0000      -5.714808      -155.5078
  28   2.0000      -5.710473      -155.3899
  29   2.0000      -5.710380      -155.3873
  30   2.0000      -5.702821      -155.1816
  31   2.0000      -5.664625      -154.1423
  32   2.0000      -5.657712      -153.9542
  33   2.0000      -5.656461      -153.9201
  34   2.0000      -5.655547      -153.8953
  35   2.0000      -5.649415      -153.7284
  36   2.0000      -5.649058      -153.7187
  37   2.0000      -4.649717      -126.5252
  38   2.0000      -4.649458      -126.5182
  39   2.0000      -4.647618      -126.4681
  40   2.0000      -4.644096      -126.3723
  41   2.0000      -4.643729      -126.3623
  42   2.0000      -4.642285      -126.3230
  43   2.0000      -0.986940       -26.8560
  44   2.0000      -0.981602       -26.7107
  45   2.0000      -0.944525       -25.7018
  46   2.0000      -0.940569       -25.5942
  47   2.0000      -0.765649       -20.8344
  48   2.0000      -0.720252       -19.5990
  49   2.0000      -0.706915       -19.2361
  50   2.0000      -0.687394       -18.7049
  51   2.0000      -0.684416       -18.6239
  52   2.0000      -0.673628       -18.3304
  53   2.0000      -0.657777       -17.8990
  54   2.0000      -0.638624       -17.3778
  55   2.0000      -0.598942       -16.2980
  56   2.0000      -0.595569       -16.2063
  57   2.0000      -0.575526       -15.6609
  58   2.0000      -0.570258       -15.5175
  59   2.0000      -0.562877       -15.3167
  60   2.0000      -0.498198       -13.5567
  61   2.0000      -0.490098       -13.3362
  62   2.0000      -0.470470       -12.8021
  63   2.0000      -0.469830       -12.7847
  64   2.0000      -0.461256       -12.5514
  65   2.0000      -0.443386       -12.0651
  66   2.0000      -0.439579       -11.9616
  67   2.0000      -0.434763       -11.8305
  68   2.0000      -0.424695       -11.5565
  69   2.0000      -0.422432       -11.4950
  70   2.0000      -0.410655       -11.1745
  71   2.0000      -0.400772       -10.9056
  72   2.0000      -0.397078       -10.8050
  73   2.0000      -0.390340       -10.6217
  74   2.0000      -0.383478       -10.4350
  75   2.0000      -0.369209       -10.0467
  76   2.0000      -0.367841       -10.0095
  77   2.0000      -0.356522        -9.7015
  78   2.0000      -0.352762        -9.5992
  79   2.0000      -0.348722        -9.4892
  80   2.0000      -0.346438        -9.4271
  81   2.0000      -0.345203        -9.3935
  82   2.0000      -0.343743        -9.3537
  83   2.0000      -0.335917        -9.1408
  84   2.0000      -0.330181        -8.9847
  85   2.0000      -0.319029        -8.6812
  86   2.0000      -0.312430        -8.5016
  87   2.0000      -0.298297        -8.1171
  88   2.0000      -0.294827        -8.0227
  89   2.0000      -0.289986        -7.8909
  90   2.0000      -0.282357        -7.6833
  91   2.0000      -0.271455        -7.3867
  92   2.0000      -0.269924        -7.3450
  93   2.0000      -0.262038        -7.1304
  94   2.0000      -0.257632        -7.0105
  95   2.0000      -0.227206        -6.1826
  96   2.0000      -0.215104        -5.8533
  97   2.0000      -0.211918        -5.7666
  98   2.0000      -0.205520        -5.5925
  99   2.0000      -0.202182        -5.5017
 100   2.0000      -0.197678        -5.3791
 101   0.0000      -0.046226        -1.2579
 102   0.0000      -0.033922        -0.9231
 103   0.0000      -0.020308        -0.5526
 104   0.0000      -0.001508        -0.0410
 105   0.0000       0.016746         0.4557

MULLIKEN ATOMIC CHARGES
-----------------------
   0 C :   -0.296949
   1 C :   -0.011461
   2 O :   -0.368252
   3 P :    0.633193
   4 S :   -0.320243
   5 O :   -0.376088
   6 C :    0.001970
   7 C :   -0.315534
   8 S :   -0.089513
   9 C :   -0.325353
  10 S :   -0.083337
  11 P :    0.627454
  12 S :   -0.326370
  13 O :   -0.377438
  14 C :   -0.017184
  15 C :   -0.301542
  16 O :   -0.375531
  17 C :   -0.010243
  18 C :   -0.318753
  19 H :    0.110875
  20 H :    0.120308
  21 H :    0.112772
  22 H :    0.107043
  23 H :    0.115954
  24 H :    0.098651
  25 H :    0.107563
  26 H :    0.121463
  27 H :    0.111789
  28 H :    0.129329
  29 H :    0.188845
  30 H :    0.183912
  31 H :    0.117471
  32 H :    0.107698
  33 H :    0.108034
  34 H :    0.114842
  35 H :    0.117684
  36 H :    0.106194
  37 H :    0.112979
  38 H :    0.129713
  39 H :    0.113407
  40 H :    0.114652
Sum of atomic charges:   -0.0000000

LOEWDIN ATOMIC CHARGES
----------------------
   0 C :   -0.361777
   1 C :   -0.118372
   2 O :   -0.233491
   3 P :    0.582729
   4 S :   -0.299608
   5 O :   -0.252684
   6 C :   -0.118028
   7 C :   -0.370371
   8 S :    0.106139
   9 C :   -0.468062
  10 S :    0.089041
  11 P :    0.564552
  12 S :   -0.323217
  13 O :   -0.245798
  14 C :   -0.127726
  15 C :   -0.364010
  16 O :   -0.244201
  17 C :   -0.122612
  18 C :   -0.366064
  19 H :    0.129790
  20 H :    0.122794
  21 H :    0.124910
  22 H :    0.118695
  23 H :    0.109499
  24 H :    0.104148
  25 H :    0.120558
  26 H :    0.118611
  27 H :    0.130006
  28 H :    0.129543
  29 H :    0.133987
  30 H :    0.135870
  31 H :    0.109712
  32 H :    0.107231
  33 H :    0.129317
  34 H :    0.118225
  35 H :    0.126931
  36 H :    0.118732
  37 H :    0.109251
  38 H :    0.123390
  39 H :    0.119945
  40 H :    0.132413

  Mayer bond orders larger than 0.100000
B(  0-C ,  1-C ) :   1.1637 B(  0-C , 19-H ) :   0.9407 B(  0-C , 20-H ) :   0.9381
B(  0-C , 21-H ) :   0.9470 B(  1-C ,  2-O ) :   0.8978 B(  1-C , 22-H ) :   0.9304
B(  1-C , 23-H ) :   0.9120 B(  2-O ,  3-P ) :   1.1173 B(  3-P ,  4-S ) :   1.6218
B(  3-P ,  5-O ) :   1.0829 B(  3-P ,  8-S ) :   0.9421 B(  5-O ,  6-C ) :   0.9223
B(  6-C ,  7-C ) :   1.1668 B(  6-C , 24-H ) :   0.9226 B(  6-C , 25-H ) :   0.9335
B(  7-C , 26-H ) :   0.9352 B(  7-C , 27-H ) :   0.9346 B(  7-C , 28-H ) :   0.9417
B(  8-S ,  9-C ) :   1.0196 B(  9-C , 10-S ) :   0.9535 B(  9-C , 29-H ) :   0.9016
B(  9-C , 30-H ) :   0.9048 B( 10-S , 11-P ) :   1.0027 B( 11-P , 12-S ) :   1.6305
B( 11-P , 13-O ) :   1.0960 B( 11-P , 16-O ) :   1.0677 B( 13-O , 14-C ) :   0.9001
B( 14-C , 15-C ) :   1.1693 B( 14-C , 31-H ) :   0.9080 B( 14-C , 32-H ) :   0.9163
B( 15-C , 33-H ) :   0.9385 B( 15-C , 34-H ) :   0.9374 B( 15-C , 35-H ) :   0.9443
B( 16-O , 17-C ) :   0.9128 B( 17-C , 18-C ) :   1.1644 B( 17-C , 36-H ) :   0.9330
B( 17-C , 37-H ) :   0.9070 B( 18-C , 38-H ) :   0.9366 B( 18-C , 39-H ) :   0.9421
B( 18-C , 40-H ) :   0.9385

Dispersion correction           -0.069560374
FINAL SINGLE POINT ENERGY     -2929.511901906447

DIPOLE MOMENT
-------------

Method             : SCF
Type of density    : Electron Density
Multiplicity       :   1
Irrep              :   0
Energy             : -2929.6297923722695487 Eh
Relativity type    :
Basis              : AO
                                X                 Y                 Z
Electronic contribution:     -3.587987650       0.576880173      -7.876119497
Nuclear contribution   :      4.058651634      -1.837813205       8.642766471
                        -----------------------------------------
Total Dipole Moment    :      0.470663984      -1.260933033       0.766646974
                        -----------------------------------------
Magnitude (a.u.)       :      1.548942956
Magnitude (Debye)      :      3.937100108

Rotational constants in cm-1:             0.012225             0.005760             0.005353
Rotational constants in MHz :           366.509199           172.678118           160.466982

                             ****ORCA TERMINATED NORMALLY****
TOTAL RUN TIME: 0 days 0 hours 0 minutes 22 seconds 78 msec
