                         Program Version 6.0.0  -   RELEASE  -
|  1> ! r2scan-3c def2/J RI DEFGRID2 scfconv6 printgap
|  2> %output
|  3>     printlevel normal
|  4> end
|  5> * xyz 0 1
|  6> C -2.5161612505 0.7843430712 -0.0002328463
|  7> C -1.2128242432 0.0373356276 -5.13068e-05
|  8> C -1.2349387205 -1.3518610676 2.31485e-05
|  9> C -0.0629881287 -2.0835965962 0.000131215
| 10> C 1.1514877212 -1.4242600498 7.03321e-05
| 11> C 1.2034235454 -0.0375933529 -1.94961e-05
| 12> C 0.0160288158 0.7024833022 -1.23782e-05
| 13> C 0.1011355812 2.2010329776 0.0003385806
| 14> C 2.5327391181 0.6554484995 -0.0002644568
| 15> H -2.601120267 1.4154357165 -0.8835433472
| 16> H -3.3483114879 0.0849836628 -0.00021757
| 17> H -2.6012582082 1.415683375 0.8828727323
| 18> H -2.1853607816 -1.866703556 9.13987e-05
| 19> H -0.0962935212 -3.1633143444 0.0003772941
| 20> H 2.0713375375 -1.9918720075 0.0001740698
| 21> H 0.6468741437 2.5459390812 -0.8770509654
| 22> H -0.8786355567 2.6635205007 -0.0021005661
| 23> H 0.6422657897 2.5455662526 0.8807744813
| 24> H 3.3412887151 -0.0707977089 0.0008110846
| 25> H 2.6365835299 1.2882707424 -0.8805888872
| 26> H 2.6359635789 1.2903419655 0.8786053396
| 27> *
| 28>
| 29>                          ****END OF INPUT****

CARTESIAN COORDINATES (ANGSTROEM)
---------------------------------
  C     -2.516161    0.784343   -0.000233
  C     -1.212824    0.037336   -0.000051
  C     -1.234939   -1.351861    0.000023
  C     -0.062988   -2.083597    0.000131
  C      1.151488   -1.424260    0.000070
  C      1.203424   -0.037593   -0.000019
  C      0.016029    0.702483   -0.000012
  C      0.101136    2.201033    0.000339
  C      2.532739    0.655448   -0.000264
  H     -2.601120    1.415436   -0.883543
  H     -3.348311    0.084984   -0.000218
  H     -2.601258    1.415683    0.882873
  H     -2.185361   -1.866704    0.000091
  H     -0.096294   -3.163314    0.000377
  H      2.071338   -1.991872    0.000174
  H      0.646874    2.545939   -0.877051
  H     -0.878636    2.663521   -0.002101
  H      0.642266    2.545566    0.880774
  H      3.341289   -0.070798    0.000811
  H      2.636584    1.288271   -0.880589
  H      2.635964    1.290342    0.878605

 Total Charge           Charge          ....    0
 Multiplicity           Mult            ....    1
 Number of Electrons    NEL             ....   66
 Basis Dimension        Dim             ....  231

ORBITAL ENERGIES
----------------

  NO   OCC          E(Eh)            E(eV)
   0   2.0000     -10.035543      -273.0810
   1   2.0000     -10.034695      -273.0579
   2   2.0000     -10.034109      -273.0420
   3   2.0000     -10.024866      -272.7905
   4   2.0000     -10.024610      -272.7835
   5   2.0000     -10.024571      -272.7824
   6   2.0000     -10.022084      -272.7148
   7   2.0000     -10.020453      -272.6704
   8   2.0000     -10.020175      -272.6628
   9   2.0000      -0.828011       -22.5313
  10   2.0000      -0.748504       -20.3678
  11   2.0000      -0.741235       -20.1700
  12   2.0000      -0.681893       -18.5552
  13   2.0000      -0.642998       -17.4969
  14   2.0000      -0.635085       -17.2815
  15   2.0000      -0.540661       -14.7121
  16   2.0000      -0.537657       -14.6304
  17   2.0000      -0.458709       -12.4821
  18   2.0000      -0.448511       -12.2046
  19   2.0000      -0.411133       -11.1875
  20   2.0000      -0.400627       -10.9016
  21   2.0000      -0.385299       -10.4845
  22   2.0000      -0.372319       -10.1313
  23   2.0000      -0.367465        -9.9992
  24   2.0000      -0.366841        -9.9822
  25   2.0000      -0.364032        -9.9058
  26   2.0000      -0.355281        -9.6677
  27   2.0000      -0.337776        -9.1914
  28   2.0000      -0.314071        -8.5463
  29   2.0000      -0.297054        -8.0833
  30   2.0000      -0.293958        -7.9990
  31   2.0000      -0.215672        -5.8687
  32   2.0000      -0.213930        -5.8213
  33   0.0000      -0.021496        -0.5849
  34   0.0000      -0.016543        -0.4501
  35   0.0000       0.083272         2.2660
  36   0.0000       0.089655         2.4396
  37   0.0000       0.099750         2.7143

MULLIKEN ATOMIC CHARGES
-----------------------
   0 C :   -0.591107
   1 C :    0.221274
   2 C :   -0.247415
   3 C :   -0.155890
   4 C :   -0.248445
   5 C :    0.219996
   6 C :    0.097979
   7 C :   -0.613535
   8 C :   -0.553639
   9 H :    0.167158
  10 H :    0.149958
  11 H :    0.167185
  12 H :    0.143104
  13 H :    0.142290
  14 H :    0.143874
  15 H :    0.164755
  16 H :    0.156928
  17 H :    0.165282
  18 H :    0.150443
  19 H :    0.160063
  20 H :    0.159741
Sum of atomic charges:   -0.0000000

LOEWDIN ATOMIC CHARGES
----------------------
   0 C :   -0.394443
   1 C :   -0.093045
   2 C :   -0.172667
   3 C :   -0.166315
   4 C :   -0.172058
   5 C :   -0.092232
   6 C :   -0.091452
   7 C :   -0.385893
   8 C :   -0.387917
   9 H :    0.162256
  10 H :    0.159247
  11 H :    0.162261
  12 H :    0.165524
  13 H :    0.165756
  14 H :    0.165769
  15 H :    0.164757
  16 H :    0.161526
  17 H :    0.164801
  18 H :    0.159227
  19 H :    0.162452
  20 H :    0.162446

  Mayer bond orders larger than 0.100000
B(  0-C ,  1-C ) :   0.7532 B(  0-C ,  9-H ) :   0.9817 B(  0-C , 10-H ) :   0.9879
B(  0-C , 11-H ) :   0.9817 B(  1-C ,  2-C ) :   1.3867 B(  1-C ,  6-C ) :   1.4823
B(  2-C ,  3-C ) :   1.4524 B(  2-C , 12-H ) :   0.9274 B(  3-C ,  4-C ) :   1.4450
B(  3-C , 13-H ) :   0.9456 B(  4-C ,  5-C ) :   1.3972 B(  4-C , 14-H ) :   0.9274
B(  5-C ,  6-C ) :   1.4422 B(  5-C ,  8-C ) :   0.7834 B(  6-C ,  7-C ) :   0.7890
B(  7-C , 15-H ) :   0.9880 B(  7-C , 16-H ) :   0.9708 B(  7-C , 17-H ) :   0.9884
B(  8-C , 18-H ) :   0.9882 B(  8-C , 19-H ) :   0.9801 B(  8-C , 20-H ) :   0.9797

Dispersion correction           -0.007143465
FINAL SINGLE POINT ENERGY      -350.084576819120

DIPOLE MOMENT
-------------

Method             : SCF
Type of density    : Electron Density
Multiplicity       :   1
Irrep              :   0
Energy             :  -350.0853824875551368 Eh
Relativity type    :
Basis              : AO
                                X                 Y                 Z
Electronic contribution:     -0.225531488      -5.452599172      -0.000057647
Nuclear contribution   :      0.247050787       5.776344886       0.000192385
                        -----------------------------------------
Total Dipole Moment    :      0.021519299       0.323745714       0.000134738
                        -----------------------------------------
Magnitude (a.u.)       :      0.324460145
Magnitude (Debye)      :      0.824712149

Rotational constants in cm-1:             0.074901             0.058487             0.033453
Rotational constants in MHz :          2245.482593          1753.395551          1002.907046

                             ****ORCA TERMINATED NORMALLY****
TOTAL RUN TIME: 0 days 0 hours 0 minutes 25 seconds 987 msec
