                         Program Version 6.0.0  -   RELEASE  -
|  1> ! r2scan-3c def2/J RI DEFGRID2 scfconv6 printgap
|  2> %output
|  3>     printlevel normal
|  4> end
|  5> %cpcm
|  6>     smd true
|  7>     smdsolvent "water"
|  8> end
|  9> * xyz 0 1
| 10> C -2.5161612505 0.7843430712 -0.0002328463
| 11> C -1.2128242432 0.0373356276 -5.13068e-05
| 12> C -1.2349387205 -1.3518610676 2.31485e-05
| 13> C -0.0629881287 -2.0835965962 0.000131215
| 14> C 1.1514877212 -1.4242600498 7.03321e-05
| 15> C 1.2034235454 -0.0375933529 -1.94961e-05
| 16> C 0.0160288158 0.7024833022 -1.23782e-05
| 17> C 0.1011355812 2.2010329776 0.0003385806
| 18> C 2.5327391181 0.6554484995 -0.0002644568
| 19> H -2.601120267 1.4154357165 -0.8835433472
| 20> H -3.3483114879 0.0849836628 -0.00021757
| 21> H -2.6012582082 1.415683375 0.8828727323
| 22> H -2.1853607816 -1.866703556 9.13987e-05
| 23> H -0.0962935212 -3.1633143444 0.0003772941
| 24> H 2.0713375375 -1.9918720075 0.0001740698
| 25> H 0.6468741437 2.5459390812 -0.8770509654
| 26> H -0.8786355567 2.6635205007 -0.0021005661
| 27> H 0.6422657897 2.5455662526 0.8807744813
| 28> H 3.3412887151 -0.0707977089 0.0008110846
| 29> H 2.6365835299 1.2882707424 -0.8805888872
| 30> H 2.6359635789 1.2903419655 0.8786053396
| 31> *
| 32>
| 33>                          ****END OF INPUT****

CARTESIAN COORDINATES (ANGSTROEM)
---------------------------------
  C     -2.516161    0.784343   -0.000233
  C     -1.212824    0.037336   -0.000051
  C     -1.234939   -1.351861    0.000023
  C     -0.062988   -2.083597    0.000131
  C      1.151488   -1.424260    0.000070
  C      1.203424   -0.037593   -0.000019
  C      0.016029    0.702483   -0.000012
  C      0.101136    2.201033    0.000339
  C      2.532739    0.655448   -0.000264
  H     -2.601120    1.415436   -0.883543
  H     -3.348311    0.084984   -0.000218
  H     -2.601258    1.415683    0.882873
  H     -2.185361   -1.866704    0.000091
  H     -0.096294   -3.163314    0.000377
  H      2.071338   -1.991872    0.000174
  H      0.646874    2.545939   -0.877051
  H     -0.878636    2.663521   -0.002101
  H      0.642266    2.545566    0.880774
  H      3.341289   -0.070798    0.000811
  H      2.636584    1.288271   -0.880589
  H      2.635964    1.290342    0.878605

 Total Charge           Charge          ....    0
 Multiplicity           Mult            ....    1
 Number of Electrons    NEL             ....   66
 Basis Dimension        Dim             ....  231

ORBITAL ENERGIES
----------------

  NO   OCC          E(Eh)            E(eV)
   0   2.0000     -10.035991      -273.0932
   1   2.0000     -10.035141      -273.0701
   2   2.0000     -10.034095      -273.0416
   3   2.0000     -10.023024      -272.7404
   4   2.0000     -10.020613      -272.6748
   5   2.0000     -10.020386      -272.6686
   6   2.0000     -10.016156      -272.5535
   7   2.0000     -10.015921      -272.5471
   8   2.0000     -10.015042      -272.5232
   9   2.0000      -0.829154       -22.5624
  10   2.0000      -0.746305       -20.3080
  11   2.0000      -0.739961       -20.1354
  12   2.0000      -0.675459       -18.3802
  13   2.0000      -0.640316       -17.4239
  14   2.0000      -0.631129       -17.1739
  15   2.0000      -0.538755       -14.6603
  16   2.0000      -0.535193       -14.5633
  17   2.0000      -0.456440       -12.4204
  18   2.0000      -0.445518       -12.1232
  19   2.0000      -0.405817       -11.0428
  20   2.0000      -0.396498       -10.7892
  21   2.0000      -0.377907       -10.2834
  22   2.0000      -0.366765        -9.9802
  23   2.0000      -0.364631        -9.9221
  24   2.0000      -0.358041        -9.7428
  25   2.0000      -0.357921        -9.7395
  26   2.0000      -0.347658        -9.4603
  27   2.0000      -0.330102        -8.9825
  28   2.0000      -0.316585        -8.6147
  29   2.0000      -0.293979        -7.9996
  30   2.0000      -0.290939        -7.9168
  31   2.0000      -0.218977        -5.9587
  32   2.0000      -0.216534        -5.8922
  33   0.0000      -0.024035        -0.6540
  34   0.0000      -0.019359        -0.5268
  35   0.0000       0.090294         2.4570
  36   0.0000       0.097281         2.6471
  37   0.0000       0.107290         2.9195

MULLIKEN ATOMIC CHARGES
-----------------------
   0 C :   -0.599147
   1 C :    0.172325
   2 C :   -0.276880
   3 C :   -0.196715
   4 C :   -0.278728
   5 C :    0.180574
   6 C :    0.098277
   7 C :   -0.639734
   8 C :   -0.582597
   9 H :    0.183146
  10 H :    0.168206
  11 H :    0.183145
  12 H :    0.173365
  13 H :    0.171530
  14 H :    0.173939
  15 H :    0.183331
  16 H :    0.172923
  17 H :    0.183825
  18 H :    0.168767
  19 H :    0.180387
  20 H :    0.180061
Sum of atomic charges:   -0.0000000

LOEWDIN ATOMIC CHARGES
----------------------
   0 C :   -0.398955
   1 C :   -0.101636
   2 C :   -0.189699
   3 C :   -0.185178
   4 C :   -0.188861
   5 C :   -0.099299
   6 C :   -0.095793
   7 C :   -0.390217
   8 C :   -0.393978
   9 H :    0.169063
  10 H :    0.164331
  11 H :    0.169059
  12 H :    0.175718
  13 H :    0.174944
  14 H :    0.175965
  15 H :    0.171804
  16 H :    0.166724
  17 H :    0.171854
  18 H :    0.164331
  19 H :    0.169921
  20 H :    0.169903

  Mayer bond orders larger than 0.100000
B(  0-C ,  1-C ) :   0.7881 B(  0-C ,  9-H ) :   0.9721 B(  0-C , 10-H ) :   0.9836
B(  0-C , 11-H ) :   0.9721 B(  1-C ,  2-C ) :   1.3603 B(  1-C ,  6-C ) :   1.4274
B(  2-C ,  3-C ) :   1.4025 B(  2-C , 12-H ) :   0.9480 B(  3-C ,  4-C ) :   1.3959
B(  3-C , 13-H ) :   0.9632 B(  4-C ,  5-C ) :   1.3719 B(  4-C , 14-H ) :   0.9488
B(  5-C ,  6-C ) :   1.3924 B(  5-C ,  8-C ) :   0.8045 B(  6-C ,  7-C ) :   0.8101
B(  7-C , 15-H ) :   0.9798 B(  7-C , 16-H ) :   0.9674 B(  7-C , 17-H ) :   0.9802
B(  8-C , 18-H ) :   0.9820 B(  8-C , 19-H ) :   0.9728 B(  8-C , 20-H ) :   0.9725

Dispersion correction           -0.007143465
FINAL SINGLE POINT ENERGY      -350.086098059156

DIPOLE MOMENT
-------------

Method             : SCF
Type of density    : Electron Density
Multiplicity       :   1
Irrep              :   0
Energy             :  -350.0869037275915048 Eh
Relativity type    :
Basis              : AO
                                X                 Y                 Z
Electronic contribution:     -0.205181473      -5.240470175      -0.000037174
Nuclear contribution   :      0.247050787       5.776344886       0.000192385
                        -----------------------------------------
Total Dipole Moment    :      0.041869314       0.535874711       0.000155211
                        -----------------------------------------
Magnitude (a.u.)       :      0.537507925
Magnitude (Debye)      :      1.366236570

Rotational constants in cm-1:             0.074901             0.058487             0.033453
Rotational constants in MHz :          2245.482593          1753.395551          1002.907046

                             ****ORCA TERMINATED NORMALLY****
TOTAL RUN TIME: 0 days 0 hours 0 minutes 31 seconds 478 msec
