                         Program Version 6.0.0  -   RELEASE  -
|  1> ! r2scan-3c def2/J RI DEFGRID2 scfconv6 printgap
|  2> %output
|  3>     printlevel normal
|  4> end
|  5> * xyz 0 1
|  6> C 3.8578560255 -1.5119508137 -2.5376697483
|  7> C 4.1363821701 -1.789969006 -1.0745558615
|  8> O 2.9398679306 -1.7515931295 -0.277175773
|  9> P 2.1380811123 -0.4076166472 -0.0022711882
| 10> S 3.2475331673 1.183470042 0.303453561
| 11> O 1.1947201219 -0.8555036247 1.188978072
| 12> C 1.4986912137 -0.5662722351 2.5659485344
| 13> C 2.6576610739 -1.4020657275 3.067267388
| 14> S 0.7291935359 -0.3179210401 -1.5718882599
| 15> C 0.2542772999 1.4150493584 -1.3403547691
| 16> S -0.457234865 1.753054084 0.2954336859
| 17> P -2.1717220728 0.5352755369 0.1094571867
| 18> S -2.9477085615 0.375234454 -1.6862237939
| 19> O -3.1318329728 1.1267827238 1.2332327921
| 20> C -3.8314963043 2.3781739667 1.0698917199
| 21> C -5.2406352706 2.1454074119 0.5601228459
| 22> O -1.7206276087 -0.8052131914 0.8132847313
| 23> C -2.3230826292 -2.0899544643 0.5307238057
| 24> C -1.4313655685 -2.9076612632 -0.3822291676
| 25> H 3.0730093887 -2.1685087743 -2.9048435793
| 26> H 3.5381141406 -0.4788274473 -2.6670992192
| 27> H 4.7637495061 -1.6743750598 -3.1128643952
| 28> H 4.8428049514 -1.0567714464 -0.6721917146
| 29> H 4.5200439107 -2.7995902027 -0.9217509794
| 30> H 1.7215123003 0.5024140474 2.6560255996
| 31> H 0.5702978189 -0.7921648993 3.0928615293
| 32> H 2.802360913 -1.2192387898 4.127391859
| 33> H 2.4592567071 -2.4579665141 2.9037109235
| 34> H 3.5665783306 -1.1274776076 2.5328691711
| 35> H -0.4806016817 1.6373561985 -2.1134244214
| 36> H 1.1320998513 2.0543681595 -1.4261675319
| 37> H -3.8365393473 2.8230256133 2.0666723358
| 38> H -3.267755262 3.0211634834 0.3879465396
| 39> H -5.2138492041 1.7015940878 -0.4325796273
| 40> H -5.7734278594 1.4761929016 1.2297978896
| 41> H -5.763234087 3.0950934602 0.5092691215
| 42> H -2.4370378636 -2.5620374422 1.5077974368
| 43> H -3.3065775607 -1.9353839607 0.0782212916
| 44> H -0.4234996974 -2.9528270395 0.0237368904
| 45> H -1.8326588516 -3.9123751567 -0.4674756278
| 46> H -1.3875290018 -2.4554456972 -1.3709522203
| 47> *
| 48>
| 49>                          ****END OF INPUT****

CARTESIAN COORDINATES (ANGSTROEM)
---------------------------------
  C      3.857856   -1.511951   -2.537670
  C      4.136382   -1.789969   -1.074556
  O      2.939868   -1.751593   -0.277176
  P      2.138081   -0.407617   -0.002271
  S      3.247533    1.183470    0.303454
  O      1.194720   -0.855504    1.188978
  C      1.498691   -0.566272    2.565949
  C      2.657661   -1.402066    3.067267
  S      0.729194   -0.317921   -1.571888
  C      0.254277    1.415049   -1.340355
  S     -0.457235    1.753054    0.295434
  P     -2.171722    0.535276    0.109457
  S     -2.947709    0.375234   -1.686224
  O     -3.131833    1.126783    1.233233
  C     -3.831496    2.378174    1.069892
  C     -5.240635    2.145407    0.560123
  O     -1.720628   -0.805213    0.813285
  C     -2.323083   -2.089954    0.530724
  C     -1.431366   -2.907661   -0.382229
  H      3.073009   -2.168509   -2.904844
  H      3.538114   -0.478827   -2.667099
  H      4.763750   -1.674375   -3.112864
  H      4.842805   -1.056771   -0.672192
  H      4.520044   -2.799590   -0.921751
  H      1.721512    0.502414    2.656026
  H      0.570298   -0.792165    3.092862
  H      2.802361   -1.219239    4.127392
  H      2.459257   -2.457967    2.903711
  H      3.566578   -1.127478    2.532869
  H     -0.480602    1.637356   -2.113424
  H      1.132100    2.054368   -1.426168
  H     -3.836539    2.823026    2.066672
  H     -3.267755    3.021163    0.387947
  H     -5.213849    1.701594   -0.432580
  H     -5.773428    1.476193    1.229798
  H     -5.763234    3.095093    0.509269
  H     -2.437038   -2.562037    1.507797
  H     -3.306578   -1.935384    0.078221
  H     -0.423500   -2.952827    0.023737
  H     -1.832659   -3.912375   -0.467476
  H     -1.387529   -2.455446   -1.370952

 Total Charge           Charge          ....    0
 Multiplicity           Mult            ....    1
 Number of Electrons    NEL             ....  202
 Basis Dimension        Dim             ....  539

ORBITAL ENERGIES
----------------

  NO   OCC          E(Eh)            E(eV)
   0   2.0000     -88.575213     -2410.2541
   1   2.0000     -88.573742     -2410.2141
   2   2.0000     -88.521812     -2408.8010
   3   2.0000     -88.520057     -2408.7532
   4   2.0000     -76.913069     -2092.9110
   5   2.0000     -76.912848     -2092.9050
   6   2.0000     -18.993522      -516.8400
   7   2.0000     -18.989264      -516.7242
   8   2.0000     -18.985356      -516.6178
   9   2.0000     -18.984971      -516.6073
  10   2.0000     -10.105599      -274.9873
  11   2.0000     -10.099550      -274.8227
  12   2.0000     -10.098700      -274.7996
  13   2.0000     -10.095776      -274.7200
  14   2.0000     -10.093350      -274.6540
  15   2.0000     -10.029244      -272.9096
  16   2.0000     -10.026721      -272.8409
  17   2.0000     -10.024605      -272.7834
  18   2.0000     -10.020480      -272.6711
  19   2.0000      -7.869451      -214.1386
  20   2.0000      -7.868260      -214.1062
  21   2.0000      -7.816553      -212.6992
  22   2.0000      -7.814969      -212.6561
  23   2.0000      -6.591677      -179.3687
  24   2.0000      -6.591173      -179.3549
  25   2.0000      -5.816350      -158.2709
  26   2.0000      -5.815160      -158.2386
  27   2.0000      -5.813272      -158.1872
  28   2.0000      -5.812171      -158.1572
  29   2.0000      -5.806593      -158.0054
  30   2.0000      -5.805248      -157.9688
  31   2.0000      -5.764136      -156.8501
  32   2.0000      -5.762571      -156.8075
  33   2.0000      -5.756837      -156.6515
  34   2.0000      -5.756622      -156.6457
  35   2.0000      -5.755322      -156.6103
  36   2.0000      -5.754933      -156.5997
  37   2.0000      -4.737021      -128.9009
  38   2.0000      -4.736583      -128.8890
  39   2.0000      -4.736548      -128.8880
  40   2.0000      -4.736093      -128.8757
  41   2.0000      -4.735598      -128.8622
  42   2.0000      -4.735037      -128.8469
  43   2.0000      -1.049080       -28.5469
  44   2.0000      -1.046091       -28.4656
  45   2.0000      -1.009670       -27.4745
  46   2.0000      -1.005947       -27.3732
  47   2.0000      -0.802130       -21.8271
  48   2.0000      -0.756982       -20.5985
  49   2.0000      -0.746798       -20.3214
  50   2.0000      -0.729985       -19.8639
  51   2.0000      -0.726406       -19.7665
  52   2.0000      -0.709246       -19.2996
  53   2.0000      -0.685750       -18.6602
  54   2.0000      -0.669714       -18.2238
  55   2.0000      -0.633145       -17.2287
  56   2.0000      -0.621108       -16.9012
  57   2.0000      -0.604192       -16.4409
  58   2.0000      -0.603072       -16.4104
  59   2.0000      -0.589162       -16.0319
  60   2.0000      -0.527767       -14.3613
  61   2.0000      -0.516778       -14.0623
  62   2.0000      -0.493325       -13.4240
  63   2.0000      -0.490831       -13.3562
  64   2.0000      -0.472583       -12.8596
  65   2.0000      -0.457996       -12.4627
  66   2.0000      -0.456746       -12.4287
  67   2.0000      -0.453171       -12.3314
  68   2.0000      -0.443225       -12.0608
  69   2.0000      -0.430420       -11.7123
  70   2.0000      -0.420355       -11.4385
  71   2.0000      -0.415213       -11.2985
  72   2.0000      -0.408388       -11.1128
  73   2.0000      -0.404084       -10.9957
  74   2.0000      -0.396311       -10.7842
  75   2.0000      -0.386803       -10.5254
  76   2.0000      -0.383915       -10.4469
  77   2.0000      -0.372653       -10.1404
  78   2.0000      -0.367074        -9.9886
  79   2.0000      -0.362400        -9.8614
  80   2.0000      -0.361799        -9.8451
  81   2.0000      -0.359128        -9.7724
  82   2.0000      -0.354864        -9.6564
  83   2.0000      -0.350763        -9.5448
  84   2.0000      -0.345382        -9.3983
  85   2.0000      -0.333574        -9.0770
  86   2.0000      -0.316745        -8.6191
  87   2.0000      -0.311096        -8.4654
  88   2.0000      -0.309938        -8.4338
  89   2.0000      -0.303000        -8.2450
  90   2.0000      -0.296747        -8.0749
  91   2.0000      -0.291643        -7.9360
  92   2.0000      -0.279733        -7.6119
  93   2.0000      -0.279572        -7.6075
  94   2.0000      -0.274227        -7.4621
  95   2.0000      -0.244029        -6.6404
  96   2.0000      -0.229994        -6.2585
  97   2.0000      -0.227544        -6.1918
  98   2.0000      -0.220344        -5.9959
  99   2.0000      -0.214399        -5.8341
 100   2.0000      -0.211743        -5.7618
 101   0.0000      -0.046870        -1.2754
 102   0.0000      -0.024811        -0.6751
 103   0.0000       0.000384         0.0105
 104   0.0000       0.001491         0.0406
 105   0.0000       0.011219         0.3053

MULLIKEN ATOMIC CHARGES
-----------------------
   0 C :   -0.450880
   1 C :   -0.153036
   2 O :   -0.304132
   3 P :    0.691525
   4 S :   -0.485318
   5 O :   -0.257364
   6 C :   -0.163553
   7 C :   -0.441743
   8 S :   -0.111168
   9 C :   -0.241024
  10 S :   -0.134325
  11 P :    0.682557
  12 S :   -0.481053
  13 O :   -0.298588
  14 C :   -0.130324
  15 C :   -0.451980
  16 O :   -0.259847
  17 C :   -0.121218
  18 C :   -0.472324
  19 H :    0.156087
  20 H :    0.176818
  21 H :    0.148358
  22 H :    0.171997
  23 H :    0.148554
  24 H :    0.173860
  25 H :    0.158682
  26 H :    0.146608
  27 H :    0.153673
  28 H :    0.166105
  29 H :    0.208229
  30 H :    0.208663
  31 H :    0.149791
  32 H :    0.152564
  33 H :    0.180528
  34 H :    0.150830
  35 H :    0.144330
  36 H :    0.146789
  37 H :    0.159151
  38 H :    0.164693
  39 H :    0.140618
  40 H :    0.176868
Sum of atomic charges:    0.0000000

LOEWDIN ATOMIC CHARGES
----------------------
   0 C :   -0.407021
   1 C :    0.019788
   2 O :   -0.660410
   3 P :    0.377850
   4 S :   -0.130118
   5 O :   -0.675561
   6 C :    0.017428
   7 C :   -0.399224
   8 S :    0.177385
   9 C :   -0.418992
  10 S :    0.178760
  11 P :    0.378387
  12 S :   -0.131123
  13 O :   -0.661311
  14 C :    0.020451
  15 C :   -0.401395
  16 O :   -0.657138
  17 C :    0.027545
  18 C :   -0.404426
  19 H :    0.160557
  20 H :    0.165470
  21 H :    0.159363
  22 H :    0.179517
  23 H :    0.179570
  24 H :    0.181438
  25 H :    0.182190
  26 H :    0.159083
  27 H :    0.159520
  28 H :    0.164037
  29 H :    0.190702
  30 H :    0.188771
  31 H :    0.178094
  32 H :    0.175558
  33 H :    0.168483
  34 H :    0.158087
  35 H :    0.157706
  36 H :    0.176662
  37 H :    0.177667
  38 H :    0.164669
  39 H :    0.155660
  40 H :    0.166323

  Mayer bond orders larger than 0.100000
B(  0-C ,  1-C ) :   0.9223 B(  0-C , 19-H ) :   0.9683 B(  0-C , 20-H ) :   0.9629
B(  0-C , 21-H ) :   0.9586 B(  1-C ,  2-O ) :   0.8136 B(  1-C , 22-H ) :   0.9677
B(  1-C , 23-H ) :   0.9582 B(  2-O ,  3-P ) :   1.0618 B(  3-P ,  4-S ) :   1.7454
B(  3-P ,  5-O ) :   1.1378 B(  3-P ,  8-S ) :   1.0871 B(  5-O ,  6-C ) :   0.7873
B(  6-C ,  7-C ) :   0.9205 B(  6-C , 24-H ) :   0.9635 B(  6-C , 25-H ) :   0.9632
B(  7-C , 26-H ) :   0.9634 B(  7-C , 27-H ) :   0.9730 B(  7-C , 28-H ) :   0.9613
B(  8-S ,  9-C ) :   0.8998 B(  9-C , 10-S ) :   0.8987 B(  9-C , 29-H ) :   0.9098
B(  9-C , 30-H ) :   0.9114 B( 10-S , 11-P ) :   1.0929 B( 11-P , 12-S ) :   1.7403
B( 11-P , 13-O ) :   1.0716 B( 11-P , 16-O ) :   1.1777 B( 13-O , 14-C ) :   0.7759
B( 14-C , 15-C ) :   0.9569 B( 14-C , 31-H ) :   0.9638 B( 14-C , 32-H ) :   0.9623
B( 15-C , 33-H ) :   0.9572 B( 15-C , 34-H ) :   0.9748 B( 15-C , 35-H ) :   0.9653
B( 16-O , 17-C ) :   0.7615 B( 17-C , 18-C ) :   0.9453 B( 17-C , 36-H ) :   0.9602
B( 17-C , 37-H ) :   0.9668 B( 18-C , 38-H ) :   0.9677 B( 18-C , 39-H ) :   0.9632
B( 18-C , 40-H ) :   0.9632

Dispersion correction           -0.022017061
FINAL SINGLE POINT ENERGY     -2932.464601293847

DIPOLE MOMENT
-------------

Method             : SCF
Type of density    : Electron Density
Multiplicity       :   1
Irrep              :   0
Energy             : -2932.4889174070567606 Eh
Relativity type    :
Basis              : AO
                                X                 Y                 Z
Electronic contribution:      0.668325924      10.153672546      -4.140918748
Nuclear contribution   :     -0.684694774     -10.818826094       4.741163190
                        -----------------------------------------
Total Dipole Moment    :     -0.016368850      -0.665153547       0.600244442
                        -----------------------------------------
Magnitude (a.u.)       :      0.896097411
Magnitude (Debye)      :      2.277698608

Rotational constants in cm-1:             0.013448             0.004965             0.004849
Rotational constants in MHz :           403.159915           148.834480           145.359135

                             ****ORCA TERMINATED NORMALLY****
TOTAL RUN TIME: 0 days 0 hours 1 minutes 20 seconds 228 msec
