                         Program Version 6.0.0  -   RELEASE  -
|  1> ! r2scan-3c def2/J RI DEFGRID2 scfconv6 printgap
|  2> %output
|  3>     printlevel normal
|  4> end
|  5> %cpcm
|  6>     smd true
|  7>     smdsolvent "water"
|  8> end
|  9> * xyz 0 1
| 10> C 3.8578560255 -1.5119508137 -2.5376697483
| 11> C 4.1363821701 -1.789969006 -1.0745558615
| 12> O 2.9398679306 -1.7515931295 -0.277175773
| 13> P 2.1380811123 -0.4076166472 -0.0022711882
| 14> S 3.2475331673 1.183470042 0.303453561
| 15> O 1.1947201219 -0.8555036247 1.188978072
| 16> C 1.4986912137 -0.5662722351 2.5659485344
| 17> C 2.6576610739 -1.4020657275 3.067267388
| 18> S 0.7291935359 -0.3179210401 -1.5718882599
| 19> C 0.2542772999 1.4150493584 -1.3403547691
| 20> S -0.457234865 1.753054084 0.2954336859
| 21> P -2.1717220728 0.5352755369 0.1094571867
| 22> S -2.9477085615 0.375234454 -1.6862237939
| 23> O -3.1318329728 1.1267827238 1.2332327921
| 24> C -3.8314963043 2.3781739667 1.0698917199
| 25> C -5.2406352706 2.1454074119 0.5601228459
| 26> O -1.7206276087 -0.8052131914 0.8132847313
| 27> C -2.3230826292 -2.0899544643 0.5307238057
| 28> C -1.4313655685 -2.9076612632 -0.3822291676
| 29> H 3.0730093887 -2.1685087743 -2.9048435793
| 30> H 3.5381141406 -0.4788274473 -2.6670992192
| 31> H 4.7637495061 -1.6743750598 -3.1128643952
| 32> H 4.8428049514 -1.0567714464 -0.6721917146
| 33> H 4.5200439107 -2.7995902027 -0.9217509794
| 34> H 1.7215123003 0.5024140474 2.6560255996
| 35> H 0.5702978189 -0.7921648993 3.0928615293
| 36> H 2.802360913 -1.2192387898 4.127391859
| 37> H 2.4592567071 -2.4579665141 2.9037109235
| 38> H 3.5665783306 -1.1274776076 2.5328691711
| 39> H -0.4806016817 1.6373561985 -2.1134244214
| 40> H 1.1320998513 2.0543681595 -1.4261675319
| 41> H -3.8365393473 2.8230256133 2.0666723358
| 42> H -3.267755262 3.0211634834 0.3879465396
| 43> H -5.2138492041 1.7015940878 -0.4325796273
| 44> H -5.7734278594 1.4761929016 1.2297978896
| 45> H -5.763234087 3.0950934602 0.5092691215
| 46> H -2.4370378636 -2.5620374422 1.5077974368
| 47> H -3.3065775607 -1.9353839607 0.0782212916
| 48> H -0.4234996974 -2.9528270395 0.0237368904
| 49> H -1.8326588516 -3.9123751567 -0.4674756278
| 50> H -1.3875290018 -2.4554456972 -1.3709522203
| 51> *
| 52>
| 53>                          ****END OF INPUT****

CARTESIAN COORDINATES (ANGSTROEM)
---------------------------------
  C      3.857856   -1.511951   -2.537670
  C      4.136382   -1.789969   -1.074556
  O      2.939868   -1.751593   -0.277176
  P      2.138081   -0.407617   -0.002271
  S      3.247533    1.183470    0.303454
  O      1.194720   -0.855504    1.188978
  C      1.498691   -0.566272    2.565949
  C      2.657661   -1.402066    3.067267
  S      0.729194   -0.317921   -1.571888
  C      0.254277    1.415049   -1.340355
  S     -0.457235    1.753054    0.295434
  P     -2.171722    0.535276    0.109457
  S     -2.947709    0.375234   -1.686224
  O     -3.131833    1.126783    1.233233
  C     -3.831496    2.378174    1.069892
  C     -5.240635    2.145407    0.560123
  O     -1.720628   -0.805213    0.813285
  C     -2.323083   -2.089954    0.530724
  C     -1.431366   -2.907661   -0.382229
  H      3.073009   -2.168509   -2.904844
  H      3.538114   -0.478827   -2.667099
  H      4.763750   -1.674375   -3.112864
  H      4.842805   -1.056771   -0.672192
  H      4.520044   -2.799590   -0.921751
  H      1.721512    0.502414    2.656026
  H      0.570298   -0.792165    3.092862
  H      2.802361   -1.219239    4.127392
  H      2.459257   -2.457967    2.903711
  H      3.566578   -1.127478    2.532869
  H     -0.480602    1.637356   -2.113424
  H      1.132100    2.054368   -1.426168
  H     -3.836539    2.823026    2.066672
  H     -3.267755    3.021163    0.387947
  H     -5.213849    1.701594   -0.432580
  H     -5.773428    1.476193    1.229798
  H     -5.763234    3.095093    0.509269
  H     -2.437038   -2.562037    1.507797
  H     -3.306578   -1.935384    0.078221
  H     -0.423500   -2.952827    0.023737
  H     -1.832659   -3.912375   -0.467476
  H     -1.387529   -2.455446   -1.370952

 Total Charge           Charge          ....    0
 Multiplicity           Mult            ....    1
 Number of Electrons    NEL             ....  202
 Basis Dimension        Dim             ....  539

ORBITAL ENERGIES
----------------

  NO   OCC          E(Eh)            E(eV)
   0   2.0000     -88.579573     -2410.3727
   1   2.0000     -88.577063     -2410.3044
   2   2.0000     -88.528333     -2408.9784
   3   2.0000     -88.527372     -2408.9523
   4   2.0000     -76.918919     -2093.0702
   5   2.0000     -76.918039     -2093.0462
   6   2.0000     -18.995559      -516.8954
   7   2.0000     -18.993252      -516.8327
   8   2.0000     -18.990734      -516.7642
   9   2.0000     -18.989560      -516.7322
  10   2.0000     -10.105041      -274.9721
  11   2.0000     -10.090468      -274.5756
  12   2.0000     -10.089741      -274.5558
  13   2.0000     -10.089734      -274.5556
  14   2.0000     -10.088082      -274.5107
  15   2.0000     -10.018547      -272.6185
  16   2.0000     -10.018089      -272.6061
  17   2.0000     -10.016344      -272.5586
  18   2.0000     -10.015371      -272.5321
  19   2.0000      -7.873856      -214.2585
  20   2.0000      -7.871592      -214.1969
  21   2.0000      -7.823351      -212.8842
  22   2.0000      -7.822532      -212.8619
  23   2.0000      -6.597282      -179.5212
  24   2.0000      -6.596687      -179.5050
  25   2.0000      -5.820743      -158.3905
  26   2.0000      -5.818486      -158.3291
  27   2.0000      -5.817662      -158.3066
  28   2.0000      -5.815501      -158.2478
  29   2.0000      -5.811031      -158.1262
  30   2.0000      -5.808595      -158.0599
  31   2.0000      -5.770886      -157.0338
  32   2.0000      -5.770096      -157.0123
  33   2.0000      -5.763617      -156.8360
  34   2.0000      -5.763433      -156.8310
  35   2.0000      -5.762879      -156.8159
  36   2.0000      -5.762495      -156.8055
  37   2.0000      -4.742664      -129.0544
  38   2.0000      -4.742209      -129.0421
  39   2.0000      -4.741998      -129.0363
  40   2.0000      -4.741571      -129.0247
  41   2.0000      -4.741187      -129.0143
  42   2.0000      -4.740648      -128.9996
  43   2.0000      -1.052079       -28.6285
  44   2.0000      -1.050358       -28.5817
  45   2.0000      -1.012308       -27.5463
  46   2.0000      -1.009657       -27.4742
  47   2.0000      -0.804388       -21.8885
  48   2.0000      -0.755586       -20.5605
  49   2.0000      -0.742493       -20.2043
  50   2.0000      -0.722663       -19.6647
  51   2.0000      -0.720754       -19.6127
  52   2.0000      -0.709426       -19.3045
  53   2.0000      -0.689629       -18.7658
  54   2.0000      -0.675402       -18.3786
  55   2.0000      -0.632419       -17.2090
  56   2.0000      -0.619572       -16.8594
  57   2.0000      -0.599623       -16.3166
  58   2.0000      -0.598305       -16.2807
  59   2.0000      -0.587881       -15.9971
  60   2.0000      -0.525736       -14.3060
  61   2.0000      -0.513998       -13.9866
  62   2.0000      -0.492376       -13.3982
  63   2.0000      -0.488707       -13.2984
  64   2.0000      -0.473256       -12.8779
  65   2.0000      -0.455964       -12.4074
  66   2.0000      -0.453716       -12.3462
  67   2.0000      -0.451684       -12.2909
  68   2.0000      -0.439781       -11.9670
  69   2.0000      -0.427373       -11.6294
  70   2.0000      -0.419339       -11.4108
  71   2.0000      -0.414919       -11.2905
  72   2.0000      -0.405736       -11.0407
  73   2.0000      -0.403908       -10.9909
  74   2.0000      -0.394528       -10.7357
  75   2.0000      -0.384723       -10.4689
  76   2.0000      -0.382328       -10.4037
  77   2.0000      -0.368934       -10.0392
  78   2.0000      -0.364339        -9.9142
  79   2.0000      -0.357931        -9.7398
  80   2.0000      -0.355523        -9.6743
  81   2.0000      -0.353031        -9.6065
  82   2.0000      -0.348447        -9.4817
  83   2.0000      -0.347467        -9.4551
  84   2.0000      -0.343215        -9.3394
  85   2.0000      -0.332431        -9.0459
  86   2.0000      -0.316581        -8.6146
  87   2.0000      -0.307194        -8.3592
  88   2.0000      -0.304728        -8.2921
  89   2.0000      -0.302898        -8.2423
  90   2.0000      -0.297685        -8.1004
  91   2.0000      -0.292032        -7.9466
  92   2.0000      -0.281423        -7.6579
  93   2.0000      -0.279580        -7.6078
  94   2.0000      -0.276887        -7.5345
  95   2.0000      -0.247972        -6.7477
  96   2.0000      -0.235763        -6.4154
  97   2.0000      -0.234774        -6.3885
  98   2.0000      -0.226776        -6.1709
  99   2.0000      -0.221726        -6.0335
 100   2.0000      -0.218246        -5.9388
 101   0.0000      -0.051725        -1.4075
 102   0.0000      -0.030877        -0.8402
 103   0.0000      -0.004418        -0.1202
 104   0.0000      -0.002627        -0.0715
 105   0.0000       0.009850         0.2680

MULLIKEN ATOMIC CHARGES
-----------------------
   0 C :   -0.487034
   1 C :   -0.153278
   2 O :   -0.331925
   3 P :    0.729496
   4 S :   -0.529022
   5 O :   -0.288484
   6 C :   -0.155268
   7 C :   -0.484492
   8 S :   -0.120019
   9 C :   -0.253386
  10 S :   -0.147880
  11 P :    0.708849
  12 S :   -0.518334
  13 O :   -0.328703
  14 C :   -0.124986
  15 C :   -0.491537
  16 O :   -0.290341
  17 C :   -0.123833
  18 C :   -0.496580
  19 H :    0.169340
  20 H :    0.173040
  21 H :    0.172992
  22 H :    0.178085
  23 H :    0.175422
  24 H :    0.176473
  25 H :    0.178792
  26 H :    0.171477
  27 H :    0.169063
  28 H :    0.167086
  29 H :    0.229655
  30 H :    0.231823
  31 H :    0.175912
  32 H :    0.163765
  33 H :    0.171269
  34 H :    0.166385
  35 H :    0.169230
  36 H :    0.174290
  37 H :    0.169788
  38 H :    0.165242
  39 H :    0.166661
  40 H :    0.170967
Sum of atomic charges:    0.0000000

LOEWDIN ATOMIC CHARGES
----------------------
   0 C :   -0.410133
   1 C :    0.025541
   2 O :   -0.672077
   3 P :    0.383078
   4 S :   -0.156402
   5 O :   -0.692825
   6 C :    0.020584
   7 C :   -0.402237
   8 S :    0.173923
   9 C :   -0.412088
  10 S :    0.171725
  11 P :    0.382042
  12 S :   -0.154459
  13 O :   -0.675971
  14 C :    0.025560
  15 C :   -0.405694
  16 O :   -0.674284
  17 C :    0.031983
  18 C :   -0.406688
  19 H :    0.163652
  20 H :    0.161556
  21 H :    0.168367
  22 H :    0.181515
  23 H :    0.190997
  24 H :    0.182116
  25 H :    0.190375
  26 H :    0.168374
  27 H :    0.163707
  28 H :    0.162234
  29 H :    0.197498
  30 H :    0.196108
  31 H :    0.189227
  32 H :    0.179804
  33 H :    0.162638
  34 H :    0.162244
  35 H :    0.167150
  36 H :    0.188201
  37 H :    0.181524
  38 H :    0.163671
  39 H :    0.165201
  40 H :    0.162265

  Mayer bond orders larger than 0.100000
B(  0-C ,  1-C ) :   0.9092 B(  0-C , 19-H ) :   0.9656 B(  0-C , 20-H ) :   0.9639
B(  0-C , 21-H ) :   0.9533 B(  1-C ,  2-O ) :   0.8016 B(  1-C , 22-H ) :   0.9662
B(  1-C , 23-H ) :   0.9484 B(  2-O ,  3-P ) :   1.0694 B(  3-P ,  4-S ) :   1.7062
B(  3-P ,  5-O ) :   1.1411 B(  3-P ,  8-S ) :   1.0975 B(  5-O ,  6-C ) :   0.7752
B(  6-C ,  7-C ) :   0.9137 B(  6-C , 24-H ) :   0.9587 B(  6-C , 25-H ) :   0.9530
B(  7-C , 26-H ) :   0.9573 B(  7-C , 27-H ) :   0.9713 B(  7-C , 28-H ) :   0.9606
B(  8-S ,  9-C ) :   0.8920 B(  9-C , 10-S ) :   0.8906 B(  9-C , 29-H ) :   0.9044
B(  9-C , 30-H ) :   0.9050 B( 10-S , 11-P ) :   1.1040 B( 11-P , 12-S ) :   1.7135
B( 11-P , 13-O ) :   1.0752 B( 11-P , 16-O ) :   1.1785 B( 13-O , 14-C ) :   0.7632
B( 14-C , 15-C ) :   0.9462 B( 14-C , 31-H ) :   0.9535 B( 14-C , 32-H ) :   0.9553
B( 15-C , 33-H ) :   0.9616 B( 15-C , 34-H ) :   0.9722 B( 15-C , 35-H ) :   0.9599
B( 16-O , 17-C ) :   0.7493 B( 17-C , 18-C ) :   0.9356 B( 17-C , 36-H ) :   0.9497
B( 17-C , 37-H ) :   0.9637 B( 18-C , 38-H ) :   0.9661 B( 18-C , 39-H ) :   0.9588
B( 18-C , 40-H ) :   0.9651

Dispersion correction           -0.022017061
FINAL SINGLE POINT ENERGY     -2932.471629276866

DIPOLE MOMENT
-------------

Method             : SCF
Type of density    : Electron Density
Multiplicity       :   1
Irrep              :   0
Energy             : -2932.4959453900751214 Eh
Relativity type    :
Basis              : AO
                                X                 Y                 Z
Electronic contribution:      0.668159122      10.039370565      -4.011907716
Nuclear contribution   :     -0.684694774     -10.818826094       4.741163190
                        -----------------------------------------
Total Dipole Moment    :     -0.016535652      -0.779455529       0.729255474
                        -----------------------------------------
Magnitude (a.u.)       :      1.067538240
Magnitude (Debye)      :      2.713466564

Rotational constants in cm-1:             0.013448             0.004965             0.004849
Rotational constants in MHz :           403.159915           148.834480           145.359135

                             ****ORCA TERMINATED NORMALLY****
TOTAL RUN TIME: 0 days 0 hours 1 minutes 57 seconds 868 msec
