                         Program Version 6.0.1  -  RELEASE   -
|  1> ! r2scan-3c def2/J RI DEFGRID2 scfconv6 printgap
|  2> %output
|  3>     printlevel normal
|  4> end
|  5> * xyz 0 1
|  6> C 3.7005697786 -3.7357600547 -0.5425358193
|  7> C 4.2335165358 -2.4833914213 -1.2200095471
|  8> O 3.1840158529 -1.8101472922 -1.9445959687
|  9> C 2.4207573854 -0.9592617154 -1.2965281812
| 10> O 2.5505580685 -0.6635087024 -0.1260517012
| 11> C 1.3570251042 -0.3578719753 -2.1909085266
| 12> C 0.3012098725 0.3232234776 -1.3295287895
| 13> H -0.3826523832 0.9116397369 -1.9499712054
| 14> C 0.9759869651 1.283114117 -0.3640725143
| 15> O 1.7969068975 2.0884006773 -0.7457425018
| 16> O 0.5336359608 1.1954532405 0.872492118
| 17> C 1.1273188951 2.086920171 1.8394121179
| 18> C 0.881173401 1.5455293116 3.2324063818
| 19> S -0.6890874231 -0.9325476584 -0.457911638
| 20> P -2.1278539662 0.3589373048 0.424212494
| 21> S -2.2963968402 2.1572199973 -0.3337014186
| 22> O -3.466128149 -0.5165182928 0.308804978
| 23> C -4.0893409037 -0.7575242923 -0.9572158812
| 24> O -1.9329370945 0.3422014828 1.9900778388
| 25> C -1.8333583757 -0.8967153773 2.7221592284
| 26> H 3.2487612927 -4.3949716651 -1.2781704521
| 27> H 4.5175462417 -4.252783558 -0.0502526101
| 28> H 2.952089601 -3.4681891281 0.1998466476
| 29> H 4.9763479698 -2.72511761 -1.979940882
| 30> H 4.6510988252 -1.7897233151 -0.4847908879
| 31> H 0.9217222365 -1.1317492754 -2.8215576812
| 32> H 1.8391065656 0.3900036541 -2.8248316945
| 33> H 2.1949461158 2.1544539569 1.6085196951
| 34> H 0.6726866441 3.0730142902 1.6996332805
| 35> H 1.2874656805 0.5416089371 3.3162730656
| 36> H 1.3713832105 2.1931438346 3.9517280349
| 37> H -0.1846167248 1.5224126556 3.4375509602
| 38> H -3.4868152964 -1.4549742587 -1.5388403148
| 39> H -4.2071537595 0.1806549705 -1.5018571425
| 40> H -5.0610497679 -1.1870460951 -0.7276189226
| 41> H -1.737231499 -0.6075242145 3.7652915692
| 42> H -0.9531350763 -1.448472479 2.3927823446
| 43> H -2.7297257411 -1.4938069405 2.5678797833
| 44> *
| 45>
| 46>                          ****END OF INPUT****

CARTESIAN COORDINATES (ANGSTROEM)
---------------------------------
  C      3.700570   -3.735760   -0.542536
  C      4.233517   -2.483391   -1.220010
  O      3.184016   -1.810147   -1.944596
  C      2.420757   -0.959262   -1.296528
  O      2.550558   -0.663509   -0.126052
  C      1.357025   -0.357872   -2.190909
  C      0.301210    0.323223   -1.329529
  H     -0.382652    0.911640   -1.949971
  C      0.975987    1.283114   -0.364073
  O      1.796907    2.088401   -0.745743
  O      0.533636    1.195453    0.872492
  C      1.127319    2.086920    1.839412
  C      0.881173    1.545529    3.232406
  S     -0.689087   -0.932548   -0.457912
  P     -2.127854    0.358937    0.424212
  S     -2.296397    2.157220   -0.333701
  O     -3.466128   -0.516518    0.308805
  C     -4.089341   -0.757524   -0.957216
  O     -1.932937    0.342201    1.990078
  C     -1.833358   -0.896715    2.722159
  H      3.248761   -4.394972   -1.278170
  H      4.517546   -4.252784   -0.050253
  H      2.952090   -3.468189    0.199847
  H      4.976348   -2.725118   -1.979941
  H      4.651099   -1.789723   -0.484791
  H      0.921722   -1.131749   -2.821558
  H      1.839107    0.390004   -2.824832
  H      2.194946    2.154454    1.608520
  H      0.672687    3.073014    1.699633
  H      1.287466    0.541609    3.316273
  H      1.371383    2.193144    3.951728
  H     -0.184617    1.522413    3.437551
  H     -3.486815   -1.454974   -1.538840
  H     -4.207154    0.180655   -1.501857
  H     -5.061050   -1.187046   -0.727619
  H     -1.737231   -0.607524    3.765292
  H     -0.953135   -1.448472    2.392782
  H     -2.729726   -1.493807    2.567880

 Total Charge           Charge          ....    0
 Multiplicity           Mult            ....    1
 Number of Electrons    NEL             ....  174
 Basis Dimension        Dim             ....  510

ORBITAL ENERGIES
----------------

  NO   OCC          E(Eh)            E(eV)
   0   2.0000     -88.572232     -2410.1730
   1   2.0000     -88.516523     -2408.6570
   2   2.0000     -76.912565     -2092.8973
   3   2.0000     -19.010544      -517.3032
   4   2.0000     -18.993848      -516.8489
   5   2.0000     -18.989552      -516.7320
   6   2.0000     -18.989114      -516.7201
   7   2.0000     -18.942847      -515.4611
   8   2.0000     -18.921645      -514.8841
   9   2.0000     -10.167487      -276.6714
  10   2.0000     -10.152614      -276.2667
  11   2.0000     -10.101169      -274.8668
  12   2.0000     -10.097335      -274.7624
  13   2.0000     -10.091981      -274.6168
  14   2.0000     -10.090449      -274.5751
  15   2.0000     -10.081511      -274.3319
  16   2.0000     -10.065740      -273.9027
  17   2.0000     -10.036803      -273.1153
  18   2.0000     -10.022542      -272.7272
  19   2.0000      -7.866669      -214.0630
  20   2.0000      -7.811171      -212.5528
  21   2.0000      -6.590780      -179.3442
  22   2.0000      -5.813440      -158.1918
  23   2.0000      -5.810632      -158.1153
  24   2.0000      -5.803764      -157.9284
  25   2.0000      -5.759089      -156.7128
  26   2.0000      -5.751428      -156.5043
  27   2.0000      -5.750956      -156.4915
  28   2.0000      -4.736485      -128.8863
  29   2.0000      -4.735848      -128.8690
  30   2.0000      -4.734257      -128.8257
  31   2.0000      -1.087964       -29.6050
  32   2.0000      -1.068745       -29.0820
  33   2.0000      -1.050170       -28.5766
  34   2.0000      -1.007526       -27.4162
  35   2.0000      -0.992390       -27.0043
  36   2.0000      -0.971805       -26.4442
  37   2.0000      -0.809782       -22.0353
  38   2.0000      -0.760179       -20.6855
  39   2.0000      -0.736280       -20.0352
  40   2.0000      -0.733622       -19.9629
  41   2.0000      -0.698901       -19.0181
  42   2.0000      -0.675673       -18.3860
  43   2.0000      -0.657649       -17.8955
  44   2.0000      -0.647144       -17.6097
  45   2.0000      -0.628406       -17.0998
  46   2.0000      -0.590831       -16.0773
  47   2.0000      -0.540367       -14.7041
  48   2.0000      -0.535338       -14.5673
  49   2.0000      -0.524846       -14.2818
  50   2.0000      -0.500186       -13.6108
  51   2.0000      -0.492928       -13.4132
  52   2.0000      -0.485170       -13.2021
  53   2.0000      -0.464287       -12.6339
  54   2.0000      -0.460610       -12.5338
  55   2.0000      -0.451791       -12.2939
  56   2.0000      -0.448941       -12.2163
  57   2.0000      -0.442678       -12.0459
  58   2.0000      -0.433713       -11.8019
  59   2.0000      -0.427737       -11.6393
  60   2.0000      -0.427146       -11.6232
  61   2.0000      -0.418257       -11.3814
  62   2.0000      -0.406456       -11.0602
  63   2.0000      -0.399720       -10.8769
  64   2.0000      -0.392445       -10.6790
  65   2.0000      -0.381889       -10.3917
  66   2.0000      -0.372176       -10.1274
  67   2.0000      -0.366207        -9.9650
  68   2.0000      -0.360921        -9.8212
  69   2.0000      -0.351911        -9.5760
  70   2.0000      -0.349318        -9.5054
  71   2.0000      -0.345027        -9.3887
  72   2.0000      -0.336048        -9.1443
  73   2.0000      -0.327027        -8.8989
  74   2.0000      -0.320848        -8.7307
  75   2.0000      -0.318094        -8.6558
  76   2.0000      -0.314148        -8.5484
  77   2.0000      -0.306637        -8.3440
  78   2.0000      -0.285970        -7.7816
  79   2.0000      -0.285020        -7.7558
  80   2.0000      -0.275782        -7.5044
  81   2.0000      -0.263498        -7.1701
  82   2.0000      -0.254340        -6.9209
  83   2.0000      -0.248208        -6.7541
  84   2.0000      -0.220698        -6.0055
  85   2.0000      -0.215496        -5.8640
  86   2.0000      -0.211242        -5.7482
  87   0.0000      -0.043008        -1.1703
  88   0.0000      -0.023373        -0.6360
  89   0.0000      -0.007406        -0.2015
  90   0.0000       0.007007         0.1907
  91   0.0000       0.016595         0.4516

MULLIKEN ATOMIC CHARGES
-----------------------
   0 C :   -0.467857
   1 C :   -0.137407
   2 O :   -0.162303
   3 C :    0.387151
   4 O :   -0.387066
   5 C :   -0.450437
   6 C :    0.018934
   7 H :    0.244746
   8 C :    0.236198
   9 O :   -0.389433
  10 O :   -0.115160
  11 C :   -0.115075
  12 C :   -0.490118
  13 S :   -0.231143
  14 P :    0.785181
  15 S :   -0.442950
  16 O :   -0.347562
  17 C :   -0.299194
  18 O :   -0.313511
  19 C :   -0.302996
  20 H :    0.154020
  21 H :    0.149989
  22 H :    0.172283
  23 H :    0.152162
  24 H :    0.169977
  25 H :    0.190134
  26 H :    0.204885
  27 H :    0.170726
  28 H :    0.158471
  29 H :    0.158614
  30 H :    0.145620
  31 H :    0.163212
  32 H :    0.157691
  33 H :    0.174879
  34 H :    0.151258
  35 H :    0.158353
  36 H :    0.178122
  37 H :    0.169606
Sum of atomic charges:   -0.0000000

LOEWDIN ATOMIC CHARGES
----------------------
   0 C :   -0.387868
   1 C :    0.031929
   2 O :   -0.573855
   3 C :    0.367951
   4 O :   -0.426187
   5 C :   -0.206180
   6 C :   -0.198993
   7 H :    0.207538
   8 C :    0.343139
   9 O :   -0.419859
  10 O :   -0.617782
  11 C :    0.042755
  12 C :   -0.387566
  13 S :    0.204419
  14 P :    0.399367
  15 S :   -0.079223
  16 O :   -0.689279
  17 C :   -0.061880
  18 O :   -0.654108
  19 C :   -0.056968
  20 H :    0.158111
  21 H :    0.160582
  22 H :    0.165555
  23 H :    0.179841
  24 H :    0.189232
  25 H :    0.189188
  26 H :    0.206582
  27 H :    0.192216
  28 H :    0.182611
  29 H :    0.160881
  30 H :    0.158377
  31 H :    0.166628
  32 H :    0.168365
  33 H :    0.176412
  34 H :    0.176716
  35 H :    0.180152
  36 H :    0.175550
  37 H :    0.175652

  Mayer bond orders larger than 0.100000
B(  0-C ,  1-C ) :   0.9399 B(  0-C , 20-H ) :   0.9728 B(  0-C , 21-H ) :   0.9641
B(  0-C , 22-H ) :   0.9705 B(  1-C ,  2-O ) :   0.8027 B(  1-C , 23-H ) :   0.9614
B(  1-C , 24-H ) :   0.9674 B(  2-O ,  3-C ) :   1.1345 B(  3-C ,  4-O ) :   1.7861
B(  3-C ,  5-C ) :   0.9695 B(  4-O ,  8-C ) :   0.1222 B(  5-C ,  6-C ) :   0.9036
B(  5-C ,  9-O ) :   0.1089 B(  5-C , 25-H ) :   0.9762 B(  5-C , 26-H ) :   0.9150
B(  6-C ,  7-H ) :   0.9232 B(  6-C ,  8-C ) :   0.8235 B(  6-C , 13-S ) :   0.8751
B(  8-C ,  9-O ) :   1.8542 B(  8-C , 10-O ) :   1.1711 B( 10-O , 11-C ) :   0.7826
B( 11-C , 12-C ) :   0.9285 B( 11-C , 27-H ) :   0.9644 B( 11-C , 28-H ) :   0.9422
B( 12-C , 29-H ) :   0.9781 B( 12-C , 30-H ) :   0.9670 B( 12-C , 31-H ) :   0.9626
B( 13-S , 14-P ) :   0.9824 B( 14-P , 15-S ) :   1.7983 B( 14-P , 16-O ) :   1.0327
B( 14-P , 18-O ) :   1.1579 B( 16-O , 17-C ) :   0.8321 B( 17-C , 32-H ) :   0.9567
B( 17-C , 33-H ) :   0.9592 B( 17-C , 34-H ) :   0.9677 B( 18-O , 19-C ) :   0.7867
B( 19-C , 35-H ) :   0.9634 B( 19-C , 36-H ) :   0.9577 B( 19-C , 37-H ) :   0.9588

Dispersion correction           -0.017663827
FINAL SINGLE POINT ENERGY     -1981.454260331662

DIPOLE MOMENT
-------------

Method             : SCF
Type of density    : Electron Density
Multiplicity       :   1
Irrep              :   0
Energy             : -1981.4740780573902157 Eh
Relativity type    :
Basis              : AO
                                X                 Y                 Z
Electronic contribution:    -11.000318128      10.394840378      -6.746104793
Nuclear contribution   :     11.306402276     -12.531179335       6.949680079
                        -----------------------------------------
Total Dipole Moment    :      0.306084148      -2.136338957       0.203575287
                        -----------------------------------------
Magnitude (a.u.)       :      2.167734887
Magnitude (Debye)      :      5.509944202

Rotational constants in cm-1:             0.014193             0.006580             0.006020
Rotational constants in MHz :           425.490491           197.274441           180.484102

                             ****ORCA TERMINATED NORMALLY****
TOTAL RUN TIME: 0 days 0 hours 1 minutes 38 seconds 527 msec
