                         Program Version 6.0.1  -  RELEASE   -
|  1> ! r2scan-3c def2/J RI DEFGRID2 scfconv6 printgap
|  2> %output
|  3>     printlevel normal
|  4> end
|  5> %cpcm
|  6>     smd true
|  7>     smdsolvent "water"
|  8> end
|  9> * xyz 0 1
| 10> C 3.7005697786 -3.7357600547 -0.5425358193
| 11> C 4.2335165358 -2.4833914213 -1.2200095471
| 12> O 3.1840158529 -1.8101472922 -1.9445959687
| 13> C 2.4207573854 -0.9592617154 -1.2965281812
| 14> O 2.5505580685 -0.6635087024 -0.1260517012
| 15> C 1.3570251042 -0.3578719753 -2.1909085266
| 16> C 0.3012098725 0.3232234776 -1.3295287895
| 17> H -0.3826523832 0.9116397369 -1.9499712054
| 18> C 0.9759869651 1.283114117 -0.3640725143
| 19> O 1.7969068975 2.0884006773 -0.7457425018
| 20> O 0.5336359608 1.1954532405 0.872492118
| 21> C 1.1273188951 2.086920171 1.8394121179
| 22> C 0.881173401 1.5455293116 3.2324063818
| 23> S -0.6890874231 -0.9325476584 -0.457911638
| 24> P -2.1278539662 0.3589373048 0.424212494
| 25> S -2.2963968402 2.1572199973 -0.3337014186
| 26> O -3.466128149 -0.5165182928 0.308804978
| 27> C -4.0893409037 -0.7575242923 -0.9572158812
| 28> O -1.9329370945 0.3422014828 1.9900778388
| 29> C -1.8333583757 -0.8967153773 2.7221592284
| 30> H 3.2487612927 -4.3949716651 -1.2781704521
| 31> H 4.5175462417 -4.252783558 -0.0502526101
| 32> H 2.952089601 -3.4681891281 0.1998466476
| 33> H 4.9763479698 -2.72511761 -1.979940882
| 34> H 4.6510988252 -1.7897233151 -0.4847908879
| 35> H 0.9217222365 -1.1317492754 -2.8215576812
| 36> H 1.8391065656 0.3900036541 -2.8248316945
| 37> H 2.1949461158 2.1544539569 1.6085196951
| 38> H 0.6726866441 3.0730142902 1.6996332805
| 39> H 1.2874656805 0.5416089371 3.3162730656
| 40> H 1.3713832105 2.1931438346 3.9517280349
| 41> H -0.1846167248 1.5224126556 3.4375509602
| 42> H -3.4868152964 -1.4549742587 -1.5388403148
| 43> H -4.2071537595 0.1806549705 -1.5018571425
| 44> H -5.0610497679 -1.1870460951 -0.7276189226
| 45> H -1.737231499 -0.6075242145 3.7652915692
| 46> H -0.9531350763 -1.448472479 2.3927823446
| 47> H -2.7297257411 -1.4938069405 2.5678797833
| 48> *
| 49>
| 50>                          ****END OF INPUT****

CARTESIAN COORDINATES (ANGSTROEM)
---------------------------------
  C      3.700570   -3.735760   -0.542536
  C      4.233517   -2.483391   -1.220010
  O      3.184016   -1.810147   -1.944596
  C      2.420757   -0.959262   -1.296528
  O      2.550558   -0.663509   -0.126052
  C      1.357025   -0.357872   -2.190909
  C      0.301210    0.323223   -1.329529
  H     -0.382652    0.911640   -1.949971
  C      0.975987    1.283114   -0.364073
  O      1.796907    2.088401   -0.745743
  O      0.533636    1.195453    0.872492
  C      1.127319    2.086920    1.839412
  C      0.881173    1.545529    3.232406
  S     -0.689087   -0.932548   -0.457912
  P     -2.127854    0.358937    0.424212
  S     -2.296397    2.157220   -0.333701
  O     -3.466128   -0.516518    0.308805
  C     -4.089341   -0.757524   -0.957216
  O     -1.932937    0.342201    1.990078
  C     -1.833358   -0.896715    2.722159
  H      3.248761   -4.394972   -1.278170
  H      4.517546   -4.252784   -0.050253
  H      2.952090   -3.468189    0.199847
  H      4.976348   -2.725118   -1.979941
  H      4.651099   -1.789723   -0.484791
  H      0.921722   -1.131749   -2.821558
  H      1.839107    0.390004   -2.824832
  H      2.194946    2.154454    1.608520
  H      0.672687    3.073014    1.699633
  H      1.287466    0.541609    3.316273
  H      1.371383    2.193144    3.951728
  H     -0.184617    1.522413    3.437551
  H     -3.486815   -1.454974   -1.538840
  H     -4.207154    0.180655   -1.501857
  H     -5.061050   -1.187046   -0.727619
  H     -1.737231   -0.607524    3.765292
  H     -0.953135   -1.448472    2.392782
  H     -2.729726   -1.493807    2.567880

 Total Charge           Charge          ....    0
 Multiplicity           Mult            ....    1
 Number of Electrons    NEL             ....  174
 Basis Dimension        Dim             ....  510

ORBITAL ENERGIES
----------------

  NO   OCC          E(Eh)            E(eV)
   0   2.0000     -88.577908     -2410.3274
   1   2.0000     -88.529553     -2409.0116
   2   2.0000     -76.920651     -2093.1173
   3   2.0000     -19.010295      -517.2964
   4   2.0000     -19.005899      -517.1768
   5   2.0000     -18.998062      -516.9635
   6   2.0000     -18.992937      -516.8241
   7   2.0000     -18.952563      -515.7255
   8   2.0000     -18.946682      -515.5654
   9   2.0000     -10.173319      -276.8301
  10   2.0000     -10.173006      -276.8216
  11   2.0000     -10.096262      -274.7333
  12   2.0000     -10.087041      -274.4823
  13   2.0000     -10.085823      -274.4492
  14   2.0000     -10.084960      -274.4257
  15   2.0000     -10.080965      -274.3170
  16   2.0000     -10.060888      -273.7707
  17   2.0000     -10.019787      -272.6523
  18   2.0000     -10.018521      -272.6178
  19   2.0000      -7.872280      -214.2156
  20   2.0000      -7.824582      -212.9177
  21   2.0000      -6.598973      -179.5672
  22   2.0000      -5.819106      -158.3459
  23   2.0000      -5.816276      -158.2689
  24   2.0000      -5.809291      -158.0789
  25   2.0000      -5.772360      -157.0739
  26   2.0000      -5.764857      -156.8697
  27   2.0000      -5.764411      -156.8576
  28   2.0000      -4.744624      -129.1078
  29   2.0000      -4.743991      -129.0906
  30   2.0000      -4.742587      -129.0524
  31   2.0000      -1.090850       -29.6835
  32   2.0000      -1.085696       -29.5433
  33   2.0000      -1.054084       -28.6831
  34   2.0000      -1.010511       -27.4974
  35   2.0000      -1.000586       -27.2273
  36   2.0000      -0.994526       -27.0624
  37   2.0000      -0.813523       -22.1371
  38   2.0000      -0.754264       -20.5246
  39   2.0000      -0.738787       -20.1034
  40   2.0000      -0.732561       -19.9340
  41   2.0000      -0.696192       -18.9443
  42   2.0000      -0.670023       -18.2323
  43   2.0000      -0.660166       -17.9640
  44   2.0000      -0.650294       -17.6954
  45   2.0000      -0.624967       -17.0062
  46   2.0000      -0.590786       -16.0761
  47   2.0000      -0.541950       -14.7472
  48   2.0000      -0.535035       -14.5590
  49   2.0000      -0.525586       -14.3019
  50   2.0000      -0.503607       -13.7038
  51   2.0000      -0.491759       -13.3814
  52   2.0000      -0.486945       -13.2504
  53   2.0000      -0.471155       -12.8208
  54   2.0000      -0.462084       -12.5740
  55   2.0000      -0.453603       -12.3432
  56   2.0000      -0.451925       -12.2975
  57   2.0000      -0.449119       -12.2212
  58   2.0000      -0.444427       -12.0935
  59   2.0000      -0.427539       -11.6339
  60   2.0000      -0.424618       -11.5545
  61   2.0000      -0.411050       -11.1852
  62   2.0000      -0.403468       -10.9789
  63   2.0000      -0.397461       -10.8155
  64   2.0000      -0.394537       -10.7359
  65   2.0000      -0.379331       -10.3221
  66   2.0000      -0.372040       -10.1237
  67   2.0000      -0.365667        -9.9503
  68   2.0000      -0.357509        -9.7283
  69   2.0000      -0.351958        -9.5773
  70   2.0000      -0.349893        -9.5211
  71   2.0000      -0.340478        -9.2649
  72   2.0000      -0.337678        -9.1887
  73   2.0000      -0.330171        -8.9844
  74   2.0000      -0.324728        -8.8363
  75   2.0000      -0.316420        -8.6102
  76   2.0000      -0.312928        -8.5152
  77   2.0000      -0.308278        -8.3887
  78   2.0000      -0.289022        -7.8647
  79   2.0000      -0.287049        -7.8110
  80   2.0000      -0.279558        -7.6072
  81   2.0000      -0.278443        -7.5768
  82   2.0000      -0.268808        -7.3146
  83   2.0000      -0.260337        -7.0841
  84   2.0000      -0.235981        -6.4214
  85   2.0000      -0.229295        -6.2394
  86   2.0000      -0.224571        -6.1109
  87   0.0000      -0.049682        -1.3519
  88   0.0000      -0.028812        -0.7840
  89   0.0000      -0.024399        -0.6639
  90   0.0000       0.003172         0.0863
  91   0.0000       0.010006         0.2723

MULLIKEN ATOMIC CHARGES
-----------------------
   0 C :   -0.495976
   1 C :   -0.139216
   2 O :   -0.172133
   3 C :    0.420730
   4 O :   -0.454305
   5 C :   -0.487791
   6 C :    0.037054
   7 H :    0.271382
   8 C :    0.228313
   9 O :   -0.459095
  10 O :   -0.130590
  11 C :   -0.129347
  12 C :   -0.517229
  13 S :   -0.220483
  14 P :    0.805984
  15 S :   -0.501161
  16 O :   -0.375870
  17 C :   -0.306333
  18 O :   -0.351371
  19 C :   -0.305394
  20 H :    0.167784
  21 H :    0.172604
  22 H :    0.170357
  23 H :    0.177470
  24 H :    0.174776
  25 H :    0.225666
  26 H :    0.238376
  27 H :    0.176042
  28 H :    0.178225
  29 H :    0.171701
  30 H :    0.170751
  31 H :    0.170684
  32 H :    0.174926
  33 H :    0.176157
  34 H :    0.179174
  35 H :    0.186951
  36 H :    0.185090
  37 H :    0.186097
Sum of atomic charges:   -0.0000000

LOEWDIN ATOMIC CHARGES
----------------------
   0 C :   -0.390308
   1 C :    0.037535
   2 O :   -0.572762
   3 C :    0.375521
   4 O :   -0.472752
   5 C :   -0.197250
   6 C :   -0.195230
   7 H :    0.216779
   8 C :    0.343202
   9 O :   -0.474475
  10 O :   -0.625623
  11 C :    0.042339
  12 C :   -0.386513
  13 S :    0.218754
  14 P :    0.400933
  15 S :   -0.123046
  16 O :   -0.698816
  17 C :   -0.056021
  18 O :   -0.673874
  19 C :   -0.047693
  20 H :    0.162805
  21 H :    0.168973
  22 H :    0.163337
  23 H :    0.190899
  24 H :    0.190948
  25 H :    0.204512
  26 H :    0.216395
  27 H :    0.193963
  28 H :    0.187352
  29 H :    0.165251
  30 H :    0.168311
  31 H :    0.168882
  32 H :    0.175988
  33 H :    0.177169
  34 H :    0.188567
  35 H :    0.192283
  36 H :    0.180290
  37 H :    0.183371

  Mayer bond orders larger than 0.100000
B(  0-C ,  1-C ) :   0.9371 B(  0-C , 20-H ) :   0.9693 B(  0-C , 21-H ) :   0.9589
B(  0-C , 22-H ) :   0.9685 B(  1-C ,  2-O ) :   0.7851 B(  1-C , 23-H ) :   0.9516
B(  1-C , 24-H ) :   0.9624 B(  2-O ,  3-C ) :   1.1513 B(  3-C ,  4-O ) :   1.7319
B(  3-C ,  5-C ) :   0.9454 B(  4-O ,  8-C ) :   0.1224 B(  5-C ,  6-C ) :   0.8784
B(  5-C , 25-H ) :   0.9635 B(  5-C , 26-H ) :   0.9246 B(  6-C ,  7-H ) :   0.9102
B(  6-C ,  8-C ) :   0.8224 B(  6-C , 13-S ) :   0.8709 B(  8-C ,  9-O ) :   1.7970
B(  8-C , 10-O ) :   1.1808 B( 10-O , 11-C ) :   0.7646 B( 11-C , 12-C ) :   0.9311
B( 11-C , 27-H ) :   0.9543 B( 11-C , 28-H ) :   0.9359 B( 12-C , 29-H ) :   0.9741
B( 12-C , 30-H ) :   0.9604 B( 12-C , 31-H ) :   0.9588 B( 13-S , 14-P ) :   0.9982
B( 14-P , 15-S ) :   1.7699 B( 14-P , 16-O ) :   1.0408 B( 14-P , 18-O ) :   1.1607
B( 16-O , 17-C ) :   0.8245 B( 17-C , 32-H ) :   0.9501 B( 17-C , 33-H ) :   0.9554
B( 17-C , 34-H ) :   0.9575 B( 18-O , 19-C ) :   0.7780 B( 19-C , 35-H ) :   0.9528
B( 19-C , 36-H ) :   0.9490 B( 19-C , 37-H ) :   0.9503

Dispersion correction           -0.017663827
FINAL SINGLE POINT ENERGY     -1981.470182925869

DIPOLE MOMENT
-------------

Method             : SCF
Type of density    : Electron Density
Multiplicity       :   1
Irrep              :   0
Energy             : -1981.4900006515974837 Eh
Relativity type    :
Basis              : AO
                                X                 Y                 Z
Electronic contribution:    -11.058755799       9.496750001      -6.897422518
Nuclear contribution   :     11.306402276     -12.531179335       6.949680079
                        -----------------------------------------
Total Dipole Moment    :      0.247646477      -3.034429334       0.052257561
                        -----------------------------------------
Magnitude (a.u.)       :      3.044966504
Magnitude (Debye)      :      7.739689771

Rotational constants in cm-1:             0.014193             0.006580             0.006020
Rotational constants in MHz :           425.490491           197.274441           180.484102

                             ****ORCA TERMINATED NORMALLY****
TOTAL RUN TIME: 0 days 0 hours 2 minutes 3 seconds 350 msec
