                         Program Version 6.0.1  -  RELEASE   -
|  1> ! pbe def2-sv(p) def2/J RI DEFGRID1 loosescf d4 GCP(DFT/SV(P)) printgap
|  2> %output
|  3>     printlevel normal
|  4> end
|  5> * xyz 0 1
|  6> C 4.143978111 -1.7006807266 1.3621980565
|  7> C 2.752392657 -1.9129468064 0.800806834
|  8> O 2.5510572327 -0.965050776 -0.2659992552
|  9> C 1.4717135799 -1.0752116694 -1.0066947794
| 10> O 0.6089720651 -1.9167522409 -0.8472474161
| 11> C 1.4136671282 -0.0153477762 -2.0878435221
| 12> C 0.2359010911 0.9298578678 -1.8325552259
| 13> H 0.1689098321 1.6582894747 -2.6454686954
| 14> C 0.369180864 1.6722578976 -0.5185396837
| 15> O -0.566116896 1.804069535 0.2523479145
| 16> O 1.56956221 2.1220043995 -0.3118045625
| 17> C 1.8572385164 2.7610461641 0.9526492315
| 18> C 3.3638220638 2.8570871467 1.0804449287
| 19> S -1.3798666457 0.0740713917 -1.8372050972
| 20> P -1.804944207 -0.3403686993 0.2065492957
| 21> S -0.5722950795 -0.6661929956 1.7108227041
| 22> O -3.0362709507 0.6072491829 0.5460756957
| 23> C -3.0567936927 1.6096673187 1.5616142794
| 24> O -2.7407072059 -1.6203877132 -0.0415710742
| 25> C -2.2333570431 -2.9155167629 -0.3590515972
| 26> H 4.2270096931 -0.7064939931 1.7903886677
| 27> H 4.3291307958 -2.4360186698 2.1378192429
| 28> H 4.8842282911 -1.8122751424 0.575556775
| 29> H 1.976485685 -1.7495767952 1.5561081372
| 30> H 2.6251215941 -2.9197147799 0.3906562872
| 31> H 1.2578882035 -0.5093058493 -3.0468399711
| 32> H 2.3440934944 0.5506398253 -2.0881641486
| 33> H 1.3824769213 3.7460416744 0.952433594
| 34> H 1.4121443862 2.1570151782 1.7497182649
| 35> H 3.6130003025 3.3102165898 2.0338871155
| 36> H 3.8029084506 1.8650428827 1.0291959677
| 37> H 3.7688527019 3.4634430641 0.2764368488
| 38> H -2.830803682 2.5771740892 1.1164783713
| 39> H -2.3214548923 1.3821446875 2.3357873806
| 40> H -4.0622927554 1.5960382163 1.9761128759
| 41> H -1.4396644176 -3.1910281427 0.3372283643
| 42> H -1.8368472499 -2.9295041847 -1.3741587551
| 43> H -3.0800466431 -3.5906207067 -0.263843172
| 44> *
| 45>
| 46>                          ****END OF INPUT****

CARTESIAN COORDINATES (ANGSTROEM)
---------------------------------
  C      4.143978   -1.700681    1.362198
  C      2.752393   -1.912947    0.800807
  O      2.551057   -0.965051   -0.265999
  C      1.471714   -1.075212   -1.006695
  O      0.608972   -1.916752   -0.847247
  C      1.413667   -0.015348   -2.087844
  C      0.235901    0.929858   -1.832555
  H      0.168910    1.658289   -2.645469
  C      0.369181    1.672258   -0.518540
  O     -0.566117    1.804070    0.252348
  O      1.569562    2.122004   -0.311805
  C      1.857239    2.761046    0.952649
  C      3.363822    2.857087    1.080445
  S     -1.379867    0.074071   -1.837205
  P     -1.804944   -0.340369    0.206549
  S     -0.572295   -0.666193    1.710823
  O     -3.036271    0.607249    0.546076
  C     -3.056794    1.609667    1.561614
  O     -2.740707   -1.620388   -0.041571
  C     -2.233357   -2.915517   -0.359052
  H      4.227010   -0.706494    1.790389
  H      4.329131   -2.436019    2.137819
  H      4.884228   -1.812275    0.575557
  H      1.976486   -1.749577    1.556108
  H      2.625122   -2.919715    0.390656
  H      1.257888   -0.509306   -3.046840
  H      2.344093    0.550640   -2.088164
  H      1.382477    3.746042    0.952434
  H      1.412144    2.157015    1.749718
  H      3.613000    3.310217    2.033887
  H      3.802908    1.865043    1.029196
  H      3.768853    3.463443    0.276437
  H     -2.830804    2.577174    1.116478
  H     -2.321455    1.382145    2.335787
  H     -4.062293    1.596038    1.976113
  H     -1.439664   -3.191028    0.337228
  H     -1.836847   -2.929504   -1.374159
  H     -3.080047   -3.590621   -0.263843

 Total Charge           Charge          ....    0
 Multiplicity           Mult            ....    1
 Number of Electrons    NEL             ....  174
 Basis Dimension        Dim             ....  316

ORBITAL ENERGIES
----------------

  NO   OCC          E(Eh)            E(eV)
   0   2.0000     -88.027247     -2395.3432
   1   2.0000     -87.965577     -2393.6650
   2   2.0000     -76.413108     -2079.3064
   3   2.0000     -18.827386      -512.3192
   4   2.0000     -18.805365      -511.7200
   5   2.0000     -18.766359      -510.6586
   6   2.0000     -18.763402      -510.5781
   7   2.0000     -18.763091      -510.5697
   8   2.0000     -18.735205      -509.8108
   9   2.0000     -10.031737      -272.9774
  10   2.0000     -10.009420      -272.3702
  11   2.0000      -9.961360      -271.0624
  12   2.0000      -9.956685      -270.9352
  13   2.0000      -9.942551      -270.5506
  14   2.0000      -9.923121      -270.0218
  15   2.0000      -9.916720      -269.8477
  16   2.0000      -9.914950      -269.7995
  17   2.0000      -9.898824      -269.3607
  18   2.0000      -9.889549      -269.1083
  19   2.0000      -7.672471      -208.7786
  20   2.0000      -7.610614      -207.0953
  21   2.0000      -6.408031      -174.3714
  22   2.0000      -5.700892      -155.1291
  23   2.0000      -5.697141      -155.0271
  24   2.0000      -5.688655      -154.7962
  25   2.0000      -5.639747      -153.4653
  26   2.0000      -5.631302      -153.2355
  27   2.0000      -5.630398      -153.2109
  28   2.0000      -4.630641      -126.0062
  29   2.0000      -4.630230      -125.9950
  30   2.0000      -4.628588      -125.9503
  31   2.0000      -1.038129       -28.2489
  32   2.0000      -1.010877       -27.5074
  33   2.0000      -0.961209       -26.1558
  34   2.0000      -0.940396       -25.5895
  35   2.0000      -0.915220       -24.9044
  36   2.0000      -0.912907       -24.8415
  37   2.0000      -0.768452       -20.9106
  38   2.0000      -0.720492       -19.6056
  39   2.0000      -0.710924       -19.3452
  40   2.0000      -0.683131       -18.5889
  41   2.0000      -0.651480       -17.7277
  42   2.0000      -0.623703       -16.9718
  43   2.0000      -0.614023       -16.7084
  44   2.0000      -0.599356       -16.3093
  45   2.0000      -0.590483       -16.0678
  46   2.0000      -0.564242       -15.3538
  47   2.0000      -0.524908       -14.2835
  48   2.0000      -0.509776       -13.8717
  49   2.0000      -0.496250       -13.5036
  50   2.0000      -0.487356       -13.2616
  51   2.0000      -0.464790       -12.6476
  52   2.0000      -0.457351       -12.4452
  53   2.0000      -0.449906       -12.2426
  54   2.0000      -0.447403       -12.1744
  55   2.0000      -0.427258       -11.6263
  56   2.0000      -0.421493       -11.4694
  57   2.0000      -0.410379       -11.1670
  58   2.0000      -0.406404       -11.0588
  59   2.0000      -0.403054       -10.9677
  60   2.0000      -0.389795       -10.6068
  61   2.0000      -0.387313       -10.5393
  62   2.0000      -0.381390       -10.3782
  63   2.0000      -0.376036       -10.2325
  64   2.0000      -0.374279       -10.1846
  65   2.0000      -0.369086       -10.0433
  66   2.0000      -0.367767       -10.0074
  67   2.0000      -0.357579        -9.7302
  68   2.0000      -0.356388        -9.6978
  69   2.0000      -0.344226        -9.3669
  70   2.0000      -0.338724        -9.2171
  71   2.0000      -0.331685        -9.0256
  72   2.0000      -0.320214        -8.7135
  73   2.0000      -0.314772        -8.5654
  74   2.0000      -0.300933        -8.1888
  75   2.0000      -0.297530        -8.0962
  76   2.0000      -0.287594        -7.8258
  77   2.0000      -0.279972        -7.6184
  78   2.0000      -0.266991        -7.2652
  79   2.0000      -0.263673        -7.1749
  80   2.0000      -0.253826        -6.9069
  81   2.0000      -0.241310        -6.5664
  82   2.0000      -0.236844        -6.4448
  83   2.0000      -0.227993        -6.2040
  84   2.0000      -0.198025        -5.3885
  85   2.0000      -0.181174        -4.9300
  86   2.0000      -0.176872        -4.8129
  87   0.0000      -0.051626        -1.4048
  88   0.0000      -0.038633        -1.0512
  89   0.0000      -0.027804        -0.7566
  90   0.0000       0.007141         0.1943
  91   0.0000       0.022219         0.6046

MULLIKEN ATOMIC CHARGES
-----------------------
   0 C :   -0.285891
   1 C :   -0.041727
   2 O :   -0.227287
   3 C :    0.081889
   4 O :   -0.192331
   5 C :   -0.014477
   6 C :   -0.323082
   7 H :    0.157963
   8 C :    0.214486
   9 O :   -0.195653
  10 O :   -0.214253
  11 C :   -0.033565
  12 C :   -0.292171
  13 S :   -0.081265
  14 P :    0.642396
  15 S :   -0.358261
  16 O :   -0.372088
  17 C :   -0.083805
  18 O :   -0.378334
  19 C :   -0.091480
  20 H :    0.121957
  21 H :    0.113123
  22 H :    0.111627
  23 H :    0.131453
  24 H :    0.103193
  25 H :    0.121037
  26 H :    0.111773
  27 H :    0.109421
  28 H :    0.128503
  29 H :    0.116779
  30 H :    0.133241
  31 H :    0.115444
  32 H :    0.107512
  33 H :    0.111250
  34 H :    0.114403
  35 H :    0.114034
  36 H :    0.112526
  37 H :    0.111661
Sum of atomic charges:   -0.0000000

LOEWDIN ATOMIC CHARGES
----------------------
   0 C :   -0.351746
   1 C :   -0.112745
   2 O :   -0.053473
   3 C :    0.018761
   4 O :   -0.162941
   5 C :   -0.248804
   6 C :   -0.261449
   7 H :    0.152893
   8 C :    0.018654
   9 O :   -0.149343
  10 O :   -0.032829
  11 C :   -0.103134
  12 C :   -0.352156
  13 S :    0.110851
  14 P :    0.595250
  15 S :   -0.329843
  16 O :   -0.245345
  17 C :   -0.210746
  18 O :   -0.256215
  19 C :   -0.215944
  20 H :    0.123609
  21 H :    0.132125
  22 H :    0.124630
  23 H :    0.116494
  24 H :    0.116492
  25 H :    0.145153
  26 H :    0.136980
  27 H :    0.119358
  28 H :    0.126025
  29 H :    0.133843
  30 H :    0.129501
  31 H :    0.127319
  32 H :    0.108576
  33 H :    0.105000
  34 H :    0.115279
  35 H :    0.108359
  36 H :    0.107139
  37 H :    0.114419

  Mayer bond orders larger than 0.100000
B(  0-C ,  1-C ) :   1.1507 B(  0-C , 20-H ) :   0.9448 B(  0-C , 21-H ) :   0.9431
B(  0-C , 22-H ) :   0.9504 B(  1-C ,  2-O ) :   0.8958 B(  1-C , 23-H ) :   0.9156
B(  1-C , 24-H ) :   0.9277 B(  2-O ,  3-C ) :   1.2415 B(  3-C ,  4-O ) :   1.9987
B(  3-C ,  5-C ) :   1.0107 B(  5-C ,  6-C ) :   1.0238 B(  5-C , 25-H ) :   0.8902
B(  5-C , 26-H ) :   0.8831 B(  6-C ,  7-H ) :   0.8724 B(  6-C ,  8-C ) :   0.9111
B(  6-C , 13-S ) :   1.0470 B(  8-C ,  9-O ) :   1.9228 B(  8-C , 10-O ) :   1.2870
B(  9-O , 14-P ) :   0.1206 B( 10-O , 11-C ) :   0.8822 B( 11-C , 12-C ) :   1.1579
B( 11-C , 27-H ) :   0.9335 B( 11-C , 28-H ) :   0.9203 B( 12-C , 29-H ) :   0.9420
B( 12-C , 30-H ) :   0.9410 B( 12-C , 31-H ) :   0.9473 B( 13-S , 14-P ) :   0.9227
B( 13-S , 15-S ) :   0.1229 B( 14-P , 15-S ) :   1.5154 B( 14-P , 16-O ) :   1.1243
B( 14-P , 18-O ) :   1.0952 B( 16-O , 17-C ) :   0.9378 B( 17-C , 32-H ) :   0.9532
B( 17-C , 33-H ) :   0.9301 B( 17-C , 34-H ) :   0.9560 B( 18-O , 19-C ) :   0.9422
B( 19-C , 35-H ) :   0.9377 B( 19-C , 36-H ) :   0.9466 B( 19-C , 37-H ) :   0.9575

Dispersion correction           -0.055329002
FINAL SINGLE POINT ENERGY     -1979.002062939170

DIPOLE MOMENT
-------------

Method             : SCF
Type of density    : Electron Density
Multiplicity       :   1
Irrep              :   0
Energy             : -1979.1310228946854295 Eh
Relativity type    :
Basis              : AO
                                X                 Y                 Z
Electronic contribution:    -18.843881885      -1.643562599      -8.359081087
Nuclear contribution   :     20.616240220       2.631039656       8.102018201
                        -----------------------------------------
Total Dipole Moment    :      1.772358335       0.987477057      -0.257062886
                        -----------------------------------------
Magnitude (a.u.)       :      2.045103013
Magnitude (Debye)      :      5.198238748

Rotational constants in cm-1:             0.013083             0.008668             0.007300
Rotational constants in MHz :           392.233004           259.862518           218.843701

                             ****ORCA TERMINATED NORMALLY****
TOTAL RUN TIME: 0 days 0 hours 0 minutes 46 seconds 145 msec
