                         Program Version 6.0.0  -   RELEASE  -
|  1> ! pbe def2-sv(p) def2/J RI DEFGRID1 loosescf d4 GCP(DFT/SV(P)) printgap
|  2> %output
|  3>     printlevel normal
|  4> end
|  5> * xyz 0 1
|  6> C -0.6839365022 -0.609375459 -0.3172189149
|  7> C 0.6941439576 -0.5694545614 0.3430202402
|  8> O 1.4793986139 0.5013253781 -0.1264041636
|  9> O -1.4081384894 0.5256914635 0.1187170176
| 10> H -1.1934344725 -1.5339217541 -0.0215272956
| 11> H -0.5617236358 -0.5929800939 -1.407197599
| 12> H 1.2454295447 -1.480358654 0.1046734084
| 13> H 0.5640012636 -0.4974648068 1.4306684976
| 14> H 0.9744761727 1.3179279499 0.0020847783
| 15> H -2.281519571 0.5316625582 -0.2941324726
| 16> *
| 17>
| 18>                          ****END OF INPUT****

CARTESIAN COORDINATES (ANGSTROEM)
---------------------------------
  C     -0.683937   -0.609375   -0.317219
  C      0.694144   -0.569455    0.343020
  O      1.479399    0.501325   -0.126404
  O     -1.408138    0.525691    0.118717
  H     -1.193434   -1.533922   -0.021527
  H     -0.561724   -0.592980   -1.407198
  H      1.245430   -1.480359    0.104673
  H      0.564001   -0.497465    1.430668
  H      0.974476    1.317928    0.002085
  H     -2.281520    0.531663   -0.294132

 Total Charge           Charge          ....    0
 Multiplicity           Mult            ....    1
 Number of Electrons    NEL             ....   34
 Basis Dimension        Dim             ....   68

ORBITAL ENERGIES
----------------

  NO   OCC          E(Eh)            E(eV)
   0   2.0000     -18.753066      -510.2969
   1   2.0000     -18.734925      -509.8032
   2   2.0000      -9.932027      -270.2642
   3   2.0000      -9.926604      -270.1166
   4   2.0000      -0.931471       -25.3466
   5   2.0000      -0.906531       -24.6680
   6   2.0000      -0.658942       -17.9307
   7   2.0000      -0.552078       -15.0228
   8   2.0000      -0.476766       -12.9735
   9   2.0000      -0.445786       -12.1305
  10   2.0000      -0.404479       -11.0064
  11   2.0000      -0.368880       -10.0377
  12   2.0000      -0.357898        -9.7389
  13   2.0000      -0.298516        -8.1230
  14   2.0000      -0.270082        -7.3493
  15   2.0000      -0.224315        -6.1039
  16   2.0000      -0.208000        -5.6600
  17   0.0000       0.019199         0.5224
  18   0.0000       0.065616         1.7855
  19   0.0000       0.068051         1.8518
  20   0.0000       0.098059         2.6683
  21   0.0000       0.112094         3.0502

MULLIKEN ATOMIC CHARGES
-----------------------
   0 C :   -0.036873
   1 C :    0.015855
   2 O :   -0.447415
   3 O :   -0.451706
   4 H :    0.070443
   5 H :    0.078618
   6 H :    0.089572
   7 H :    0.078642
   8 H :    0.298454
   9 H :    0.304410
Sum of atomic charges:   -0.0000000

LOEWDIN ATOMIC CHARGES
----------------------
   0 C :   -0.149548
   1 C :   -0.133906
   2 O :   -0.344590
   3 O :   -0.355804
   4 H :    0.097542
   5 H :    0.099293
   6 H :    0.115655
   7 H :    0.100809
   8 H :    0.282194
   9 H :    0.288354

  Mayer bond orders larger than 0.100000
B(  0-C ,  1-C ) :   1.1088 B(  0-C ,  3-O ) :   1.0638 B(  0-C ,  4-H ) :   0.9139
B(  0-C ,  5-H ) :   0.9151 B(  1-C ,  2-O ) :   1.0681 B(  1-C ,  6-H ) :   0.9286
B(  1-C ,  7-H ) :   0.9164 B(  2-O ,  8-H ) :   0.8477 B(  3-O ,  9-H ) :   0.8518

Dispersion correction           -0.004837640
FINAL SINGLE POINT ENERGY      -229.726963177839

DIPOLE MOMENT
-------------

Method             : SCF
Type of density    : Electron Density
Multiplicity       :   1
Irrep              :   0
Energy             :  -229.7779226269582011 Eh
Relativity type    :
Basis              : AO
                                X                 Y                 Z
Electronic contribution:      0.280100066       1.874805947       0.001024251
Nuclear contribution   :     -1.174256885      -2.100446949      -0.174080285
                        -----------------------------------------
Total Dipole Moment    :     -0.894156819      -0.225641002      -0.173056033
                        -----------------------------------------
Magnitude (a.u.)       :      0.938284962
Magnitude (Debye)      :      2.384930839

Rotational constants in cm-1:             0.540067             0.176987             0.150421
Rotational constants in MHz :         16190.801053          5305.933211          4509.504986

                             ****ORCA TERMINATED NORMALLY****
TOTAL RUN TIME: 0 days 0 hours 0 minutes 4 seconds 262 msec
