                         Program Version 6.0.0  -   RELEASE  -
|  1> ! pbe def2-sv(p) def2/J RI DEFGRID1 loosescf d4 GCP(DFT/SV(P)) printgap
|  2> %output
|  3>     printlevel normal
|  4> end
|  5> * xyz 0 1
|  6> C 4.4139216461 -0.0840655176 -2.3283901556
|  7> C 4.4592758541 -0.6443110972 -0.9222965472
|  8> O 3.6373602165 0.0943579362 7.42805e-05
|  9> P 2.0801082065 0.3698332191 -0.1681996927
| 10> S 1.5315855862 1.7582793046 -1.4321720883
| 11> O 1.6860852468 0.8012639544 1.2934571687
| 12> C 2.0696592268 0.0513036957 2.4726949456
| 13> C 3.2482773075 0.7115731671 3.1556782355
| 14> S 1.3033772914 -1.5933916183 -0.525412812
| 15> C 0.1527182266 -1.230650063 -1.8789478514
| 16> S -1.5898630125 -1.587585104 -1.5150076364
| 17> P -2.0251131859 -0.236937047 0.0434746264
| 18> S -1.2575225002 -0.5373738993 1.8258822698
| 19> O -3.6128701777 -0.2592572502 0.0348940547
| 20> C -4.3765715631 -1.2687272796 0.7238878601
| 21> C -5.751480565 -0.7012497711 1.0141253752
| 22> O -1.6872902457 1.1413226539 -0.6513037543
| 23> C -1.5171998321 2.3574064769 0.1034319
| 24> C -2.8146893521 2.8123947141 0.7332024482
| 25> H 5.1208246068 -0.6212071609 -2.9524076281
| 26> H 3.4147412178 -0.1939853137 -2.7472926571
| 27> H 4.6676457953 0.9733188385 -2.3239713223
| 28> H 5.4598502075 -0.5624515815 -0.4941797112
| 29> H 4.1347080346 -1.6885403353 -0.9098351277
| 30> H 1.1793675415 0.0541664617 3.1053958537
| 31> H 2.2965282897 -0.9778097879 2.1819081238
| 32> H 4.1146105689 0.707143968 2.4993997604
| 33> H 3.0027811487 1.7398193587 3.4062754603
| 34> H 3.4800662888 0.1656141802 4.0645942866
| 35> H 0.3997798312 -1.8885406859 -2.7088321715
| 36> H 0.2614708823 -0.1777697379 -2.1575633775
| 37> H -4.4358374565 -2.147071286 0.0760463367
| 38> H -3.8497544399 -1.537626649 1.6461215106
| 39> H -6.2281574557 -0.3965801972 0.0870578636
| 40> H -6.3548160942 -1.463110199 1.4965630628
| 41> H -5.6724098132 0.1613971665 1.6698291238
| 42> H -0.7481187086 2.187883735 0.8656927465
| 43> H -1.141106333 3.0685885987 -0.63396894
| 44> H -2.6655203347 3.7799607028 1.2019964524
| 45> H -3.5900564374 2.8892118632 -0.0243207526
| 46> H -3.1277105053 2.0944001143 1.4904155361
| 47> *
| 48>
| 49>                          ****END OF INPUT****

CARTESIAN COORDINATES (ANGSTROEM)
---------------------------------
  C      4.413922   -0.084066   -2.328390
  C      4.459276   -0.644311   -0.922297
  O      3.637360    0.094358    0.000074
  P      2.080108    0.369833   -0.168200
  S      1.531586    1.758279   -1.432172
  O      1.686085    0.801264    1.293457
  C      2.069659    0.051304    2.472695
  C      3.248277    0.711573    3.155678
  S      1.303377   -1.593392   -0.525413
  C      0.152718   -1.230650   -1.878948
  S     -1.589863   -1.587585   -1.515008
  P     -2.025113   -0.236937    0.043475
  S     -1.257523   -0.537374    1.825882
  O     -3.612870   -0.259257    0.034894
  C     -4.376572   -1.268727    0.723888
  C     -5.751481   -0.701250    1.014125
  O     -1.687290    1.141323   -0.651304
  C     -1.517200    2.357406    0.103432
  C     -2.814689    2.812395    0.733202
  H      5.120825   -0.621207   -2.952408
  H      3.414741   -0.193985   -2.747293
  H      4.667646    0.973319   -2.323971
  H      5.459850   -0.562452   -0.494180
  H      4.134708   -1.688540   -0.909835
  H      1.179368    0.054166    3.105396
  H      2.296528   -0.977810    2.181908
  H      4.114611    0.707144    2.499400
  H      3.002781    1.739819    3.406275
  H      3.480066    0.165614    4.064594
  H      0.399780   -1.888541   -2.708832
  H      0.261471   -0.177770   -2.157563
  H     -4.435837   -2.147071    0.076046
  H     -3.849754   -1.537627    1.646122
  H     -6.228157   -0.396580    0.087058
  H     -6.354816   -1.463110    1.496563
  H     -5.672410    0.161397    1.669829
  H     -0.748119    2.187884    0.865693
  H     -1.141106    3.068589   -0.633969
  H     -2.665520    3.779961    1.201996
  H     -3.590056    2.889212   -0.024321
  H     -3.127711    2.094400    1.490416

 Total Charge           Charge          ....    0
 Multiplicity           Mult            ....    1
 Number of Electrons    NEL             ....  202
 Basis Dimension        Dim             ....  334

ORBITAL ENERGIES
----------------

  NO   OCC          E(Eh)            E(eV)
   0   2.0000     -88.043230     -2395.7781
   1   2.0000     -88.037305     -2395.6169
   2   2.0000     -87.986356     -2394.2305
   3   2.0000     -87.980001     -2394.0575
   4   2.0000     -76.426519     -2079.6713
   5   2.0000     -76.420754     -2079.5144
   6   2.0000     -18.795610      -511.4545
   7   2.0000     -18.788239      -511.2540
   8   2.0000     -18.788103      -511.2503
   9   2.0000     -18.783845      -511.1344
  10   2.0000      -9.958325      -270.9798
  11   2.0000      -9.954094      -270.8647
  12   2.0000      -9.950241      -270.7598
  13   2.0000      -9.949797      -270.7477
  14   2.0000      -9.937282      -270.4072
  15   2.0000      -9.886406      -269.0228
  16   2.0000      -9.885401      -268.9954
  17   2.0000      -9.882857      -268.9262
  18   2.0000      -9.874974      -268.7117
  19   2.0000      -7.687824      -209.1963
  20   2.0000      -7.683172      -209.0697
  21   2.0000      -7.631383      -207.6605
  22   2.0000      -7.624921      -207.4846
  23   2.0000      -6.423839      -174.8015
  24   2.0000      -6.418485      -174.6559
  25   2.0000      -5.715626      -155.5301
  26   2.0000      -5.712340      -155.4407
  27   2.0000      -5.711152      -155.4083
  28   2.0000      -5.707578      -155.3111
  29   2.0000      -5.704964      -155.2400
  30   2.0000      -5.700011      -155.1052
  31   2.0000      -5.660442      -154.0285
  32   2.0000      -5.653598      -153.8422
  33   2.0000      -5.651985      -153.7983
  34   2.0000      -5.651332      -153.7806
  35   2.0000      -5.645481      -153.6213
  36   2.0000      -5.645367      -153.6182
  37   2.0000      -4.646525      -126.4384
  38   2.0000      -4.645707      -126.4161
  39   2.0000      -4.644146      -126.3736
  40   2.0000      -4.641022      -126.2886
  41   2.0000      -4.640328      -126.2698
  42   2.0000      -4.638881      -126.2304
  43   2.0000      -0.988708       -26.9041
  44   2.0000      -0.981511       -26.7083
  45   2.0000      -0.943561       -25.6756
  46   2.0000      -0.941009       -25.6062
  47   2.0000      -0.758997       -20.6534
  48   2.0000      -0.719900       -19.5895
  49   2.0000      -0.708039       -19.2667
  50   2.0000      -0.690762       -18.7966
  51   2.0000      -0.683104       -18.5882
  52   2.0000      -0.670629       -18.2487
  53   2.0000      -0.648115       -17.6361
  54   2.0000      -0.637389       -17.3442
  55   2.0000      -0.594612       -16.1802
  56   2.0000      -0.588595       -16.0165
  57   2.0000      -0.572436       -15.5768
  58   2.0000      -0.566071       -15.4036
  59   2.0000      -0.559527       -15.2255
  60   2.0000      -0.505634       -13.7590
  61   2.0000      -0.495910       -13.4944
  62   2.0000      -0.473042       -12.8721
  63   2.0000      -0.468892       -12.7592
  64   2.0000      -0.453513       -12.3407
  65   2.0000      -0.444170       -12.0865
  66   2.0000      -0.437325       -11.9002
  67   2.0000      -0.432154       -11.7595
  68   2.0000      -0.425839       -11.5877
  69   2.0000      -0.415811       -11.3148
  70   2.0000      -0.410220       -11.1627
  71   2.0000      -0.401384       -10.9222
  72   2.0000      -0.389795       -10.6069
  73   2.0000      -0.383927       -10.4472
  74   2.0000      -0.375784       -10.2256
  75   2.0000      -0.370580       -10.0840
  76   2.0000      -0.359394        -9.7796
  77   2.0000      -0.355463        -9.6726
  78   2.0000      -0.354262        -9.6399
  79   2.0000      -0.349386        -9.5073
  80   2.0000      -0.345469        -9.4007
  81   2.0000      -0.343132        -9.3371
  82   2.0000      -0.338833        -9.2201
  83   2.0000      -0.335762        -9.1366
  84   2.0000      -0.328383        -8.9358
  85   2.0000      -0.317473        -8.6389
  86   2.0000      -0.309981        -8.4350
  87   2.0000      -0.298499        -8.1226
  88   2.0000      -0.296107        -8.0575
  89   2.0000      -0.288395        -7.8476
  90   2.0000      -0.277491        -7.5509
  91   2.0000      -0.275326        -7.4920
  92   2.0000      -0.264759        -7.2045
  93   2.0000      -0.260707        -7.0942
  94   2.0000      -0.257869        -7.0170
  95   2.0000      -0.239567        -6.5190
  96   2.0000      -0.221196        -6.0190
  97   2.0000      -0.203057        -5.5255
  98   2.0000      -0.201855        -5.4928
  99   2.0000      -0.194815        -5.3012
 100   2.0000      -0.191114        -5.2005
 101   0.0000      -0.040524        -1.1027
 102   0.0000      -0.032120        -0.8740
 103   0.0000      -0.010965        -0.2984
 104   0.0000       0.000383         0.0104
 105   0.0000       0.015233         0.4145

MULLIKEN ATOMIC CHARGES
-----------------------
   0 C :   -0.308258
   1 C :   -0.004951
   2 O :   -0.379859
   3 P :    0.599196
   4 S :   -0.301052
   5 O :   -0.342267
   6 C :   -0.015754
   7 C :   -0.280765
   8 S :   -0.103349
   9 C :   -0.351579
  10 S :   -0.100550
  11 P :    0.622048
  12 S :   -0.338605
  13 O :   -0.377073
  14 C :   -0.011808
  15 C :   -0.284888
  16 O :   -0.361841
  17 C :   -0.015720
  18 C :   -0.299565
  19 H :    0.111288
  20 H :    0.120305
  21 H :    0.126951
  22 H :    0.106887
  23 H :    0.109540
  24 H :    0.121871
  25 H :    0.098620
  26 H :    0.117391
  27 H :    0.118650
  28 H :    0.108367
  29 H :    0.180248
  30 H :    0.206182
  31 H :    0.102185
  32 H :    0.106239
  33 H :    0.117927
  34 H :    0.111134
  35 H :    0.121578
  36 H :    0.120679
  37 H :    0.109758
  38 H :    0.109601
  39 H :    0.113369
  40 H :    0.117870
Sum of atomic charges:    0.0000000

LOEWDIN ATOMIC CHARGES
----------------------
   0 C :   -0.368054
   1 C :   -0.118296
   2 O :   -0.244745
   3 P :    0.568804
   4 S :   -0.281736
   5 O :   -0.225258
   6 C :   -0.116098
   7 C :   -0.357791
   8 S :    0.071254
   9 C :   -0.482774
  10 S :    0.074009
  11 P :    0.564807
  12 S :   -0.318680
  13 O :   -0.246479
  14 C :   -0.121239
  15 C :   -0.350975
  16 O :   -0.231953
  17 C :   -0.124107
  18 C :   -0.366223
  19 H :    0.129955
  20 H :    0.119276
  21 H :    0.130616
  22 H :    0.119835
  23 H :    0.106086
  24 H :    0.116709
  25 H :    0.105006
  26 H :    0.124767
  27 H :    0.128583
  28 H :    0.128961
  29 H :    0.136418
  30 H :    0.123499
  31 H :    0.110900
  32 H :    0.106818
  33 H :    0.127407
  34 H :    0.130483
  35 H :    0.128271
  36 H :    0.111523
  37 H :    0.117354
  38 H :    0.129551
  39 H :    0.124706
  40 H :    0.118812

  Mayer bond orders larger than 0.100000
B(  0-C ,  1-C ) :   1.1670 B(  0-C , 19-H ) :   0.9355 B(  0-C , 20-H ) :   0.9347
B(  0-C , 21-H ) :   0.9438 B(  1-C ,  2-O ) :   0.9132 B(  1-C , 22-H ) :   0.9324
B(  1-C , 23-H ) :   0.9212 B(  2-O ,  3-P ) :   1.0744 B(  3-P ,  4-S ) :   1.6275
B(  3-P ,  5-O ) :   1.1462 B(  3-P ,  8-S ) :   0.9458 B(  4-S ,  8-S ) :   0.1196
B(  4-S , 30-H ) :   0.1186 B(  5-O ,  6-C ) :   0.8855 B(  6-C ,  7-C ) :   1.1635
B(  6-C , 24-H ) :   0.9218 B(  6-C , 25-H ) :   0.9204 B(  7-C , 26-H ) :   0.9430
B(  7-C , 27-H ) :   0.9472 B(  7-C , 28-H ) :   0.9406 B(  8-S ,  9-C ) :   1.0041
B(  9-C , 10-S ) :   0.9999 B(  9-C , 29-H ) :   0.9116 B(  9-C , 30-H ) :   0.8442
B( 10-S , 11-P ) :   0.9707 B( 10-S , 12-S ) :   0.1115 B( 11-P , 12-S ) :   1.6213
B( 11-P , 13-O ) :   1.0979 B( 11-P , 16-O ) :   1.1456 B( 13-O , 14-C ) :   0.9071
B( 14-C , 15-C ) :   1.1612 B( 14-C , 31-H ) :   0.9311 B( 14-C , 32-H ) :   0.9043
B( 15-C , 33-H ) :   0.9502 B( 15-C , 34-H ) :   0.9416 B( 15-C , 35-H ) :   0.9513
B( 16-O , 17-C ) :   0.8898 B( 17-C , 18-C ) :   1.1567 B( 17-C , 36-H ) :   0.9149
B( 17-C , 37-H ) :   0.9300 B( 18-C , 38-H ) :   0.9395 B( 18-C , 39-H ) :   0.9450
B( 18-C , 40-H ) :   0.9340

Dispersion correction           -0.066426903
FINAL SINGLE POINT ENERGY     -2929.518067398755

DIPOLE MOMENT
-------------

Method             : SCF
Type of density    : Electron Density
Multiplicity       :   1
Irrep              :   0
Energy             : -2929.6373965804400541 Eh
Relativity type    :
Basis              : AO
                                X                 Y                 Z
Electronic contribution:      0.706973898      -6.313365391      -8.273241042
Nuclear contribution   :     -0.312166275       5.749852143       8.461568223
                        -----------------------------------------
Total Dipole Moment    :      0.394807622      -0.563513248       0.188327181
                        -----------------------------------------
Magnitude (a.u.)       :      0.713363418
Magnitude (Debye)      :      1.813225709

Rotational constants in cm-1:             0.013138             0.005073             0.004748
Rotational constants in MHz :           393.858552           152.077895           142.333103

                             ****ORCA TERMINATED NORMALLY****
TOTAL RUN TIME: 0 days 0 hours 0 minutes 21 seconds 359 msec
