                         Program Version 6.0.1  -  RELEASE   -
|  1> ! pbe def2-sv(p) def2/J RI DEFGRID1 loosescf d4 GCP(DFT/SV(P)) printgap
|  2> %output
|  3>     printlevel normal
|  4> end
|  5> * xyz 0 1
|  6> C 5.2378219507 -2.37288711 -1.0151898897
|  7> C 3.9141598805 -3.0732845207 -1.2770625693
|  8> O 2.9883324597 -2.189023964 -1.940331056
|  9> C 2.249556758 -1.3878755949 -1.2053421329
| 10> O 2.2541620186 -1.3599643687 0.0086867884
| 11> C 1.3802768439 -0.4845629245 -2.05442913
| 12> C 0.3862271239 0.2473956947 -1.16359354
| 13> H -0.1177947422 1.0463560626 -1.7182097881
| 14> C 1.1197920158 0.8919530012 0.0016989884
| 15> O 2.1326409053 1.5351262168 -0.1564981232
| 16> O 0.5032747844 0.7194397973 1.152646189
| 17> C 1.0882031265 1.3040999738 2.3323155469
| 18> C 0.5812936468 2.7194766699 2.548575759
| 19> S -0.9020492492 -0.9046497518 -0.5819875916
| 20> P -2.1791611809 0.5153444753 0.3520597712
| 21> S -2.0148613561 2.3690019227 -0.253773497
| 22> O -3.6223908892 -0.1316836426 0.0873397465
| 23> C -4.1847687836 -0.1745642545 -1.2285291246
| 24> O -2.1038102693 0.3615822641 1.9221902372
| 25> C -2.2080866429 -0.9185942379 2.5739625985
| 26> H 5.9314289235 -3.0722893371 -0.5604178597
| 27> H 5.6578660926 -2.004506194 -1.9469548492
| 28> H 5.0888461175 -1.5329612038 -0.3395701135
| 29> H 3.4622341667 -3.4120831176 -0.3406604202
| 30> H 4.0341654768 -3.9076024337 -1.9678832797
| 31> H 0.874305032 -1.0711715168 -2.8202954448
| 32> H 2.0339309936 0.2429749021 -2.5408025044
| 33> H 0.7848412954 0.6427548956 3.1442295436
| 34> H 2.1747204798 1.2875659656 2.2101365403
| 35> H 0.890547668 3.3594683687 1.724852859
| 36> H -0.505320874 2.7227430015 2.6003037228
| 37> H 0.9880196135 3.109248492 3.4755043196
| 38> H -3.6466730459 -0.9007410451 -1.8374664968
| 39> H -4.1325651759 0.8126390511 -1.6903502097
| 40> H -5.2202423411 -0.4765486677 -1.0942431299
| 41> H -3.1545969059 -1.3918357801 2.3200196782
| 42> H -2.1586917341 -0.7006386758 3.6376522468
| 43> H -1.3767302096 -1.5553266737 2.2708691499
| 44> *
| 45>
| 46>                          ****END OF INPUT****

CARTESIAN COORDINATES (ANGSTROEM)
---------------------------------
  C      5.237822   -2.372887   -1.015190
  C      3.914160   -3.073285   -1.277063
  O      2.988332   -2.189024   -1.940331
  C      2.249557   -1.387876   -1.205342
  O      2.254162   -1.359964    0.008687
  C      1.380277   -0.484563   -2.054429
  C      0.386227    0.247396   -1.163594
  H     -0.117795    1.046356   -1.718210
  C      1.119792    0.891953    0.001699
  O      2.132641    1.535126   -0.156498
  O      0.503275    0.719440    1.152646
  C      1.088203    1.304100    2.332316
  C      0.581294    2.719477    2.548576
  S     -0.902049   -0.904650   -0.581988
  P     -2.179161    0.515344    0.352060
  S     -2.014861    2.369002   -0.253773
  O     -3.622391   -0.131684    0.087340
  C     -4.184769   -0.174564   -1.228529
  O     -2.103810    0.361582    1.922190
  C     -2.208087   -0.918594    2.573963
  H      5.931429   -3.072289   -0.560418
  H      5.657866   -2.004506   -1.946955
  H      5.088846   -1.532961   -0.339570
  H      3.462234   -3.412083   -0.340660
  H      4.034165   -3.907602   -1.967883
  H      0.874305   -1.071172   -2.820295
  H      2.033931    0.242975   -2.540803
  H      0.784841    0.642755    3.144230
  H      2.174720    1.287566    2.210137
  H      0.890548    3.359468    1.724853
  H     -0.505321    2.722743    2.600304
  H      0.988020    3.109248    3.475504
  H     -3.646673   -0.900741   -1.837466
  H     -4.132565    0.812639   -1.690350
  H     -5.220242   -0.476549   -1.094243
  H     -3.154597   -1.391836    2.320020
  H     -2.158692   -0.700639    3.637652
  H     -1.376730   -1.555327    2.270869

 Total Charge           Charge          ....    0
 Multiplicity           Mult            ....    1
 Number of Electrons    NEL             ....  174
 Basis Dimension        Dim             ....  316

ORBITAL ENERGIES
----------------

  NO   OCC          E(Eh)            E(eV)
   0   2.0000     -88.037312     -2395.6170
   1   2.0000     -87.981713     -2394.1041
   2   2.0000     -76.424361     -2079.6126
   3   2.0000     -18.809652      -511.8367
   4   2.0000     -18.795892      -511.4622
   5   2.0000     -18.793204      -511.3891
   6   2.0000     -18.789891      -511.2989
   7   2.0000     -18.749333      -510.1953
   8   2.0000     -18.725363      -509.5430
   9   2.0000     -10.018090      -272.6061
  10   2.0000     -10.006639      -272.2945
  11   2.0000      -9.954003      -270.8622
  12   2.0000      -9.949334      -270.7351
  13   2.0000      -9.943262      -270.5699
  14   2.0000      -9.941773      -270.5294
  15   2.0000      -9.937161      -270.4039
  16   2.0000      -9.917506      -269.8691
  17   2.0000      -9.890827      -269.1431
  18   2.0000      -9.869505      -268.5629
  19   2.0000      -7.681876      -209.0345
  20   2.0000      -7.626857      -207.5373
  21   2.0000      -6.421213      -174.7301
  22   2.0000      -5.709565      -155.3652
  23   2.0000      -5.706614      -155.2849
  24   2.0000      -5.698910      -155.0752
  25   2.0000      -5.655967      -153.9067
  26   2.0000      -5.647285      -153.6704
  27   2.0000      -5.646970      -153.6619
  28   2.0000      -4.643924      -126.3676
  29   2.0000      -4.643112      -126.3455
  30   2.0000      -4.641561      -126.3033
  31   2.0000      -1.019273       -27.7358
  32   2.0000      -1.003311       -27.3015
  33   2.0000      -0.985693       -26.8221
  34   2.0000      -0.941333       -25.6150
  35   2.0000      -0.925838       -25.1933
  36   2.0000      -0.907030       -24.6815
  37   2.0000      -0.763607       -20.7788
  38   2.0000      -0.717534       -19.5251
  39   2.0000      -0.697286       -18.9741
  40   2.0000      -0.688932       -18.7468
  41   2.0000      -0.659519       -17.9464
  42   2.0000      -0.635843       -17.3022
  43   2.0000      -0.620903       -16.8956
  44   2.0000      -0.612502       -16.6670
  45   2.0000      -0.595900       -16.2153
  46   2.0000      -0.559512       -15.2251
  47   2.0000      -0.514401       -13.9976
  48   2.0000      -0.504061       -13.7162
  49   2.0000      -0.493667       -13.4334
  50   2.0000      -0.479810       -13.0563
  51   2.0000      -0.472763       -12.8645
  52   2.0000      -0.463160       -12.6032
  53   2.0000      -0.443469       -12.0674
  54   2.0000      -0.436354       -11.8738
  55   2.0000      -0.430547       -11.7158
  56   2.0000      -0.427483       -11.6324
  57   2.0000      -0.417034       -11.3481
  58   2.0000      -0.414882       -11.2895
  59   2.0000      -0.408412       -11.1135
  60   2.0000      -0.400772       -10.9056
  61   2.0000      -0.397056       -10.8044
  62   2.0000      -0.390713       -10.6318
  63   2.0000      -0.382341       -10.4040
  64   2.0000      -0.375444       -10.2164
  65   2.0000      -0.365722        -9.9518
  66   2.0000      -0.357460        -9.7270
  67   2.0000      -0.348969        -9.4959
  68   2.0000      -0.342096        -9.3089
  69   2.0000      -0.336748        -9.1634
  70   2.0000      -0.331877        -9.0308
  71   2.0000      -0.322610        -8.7787
  72   2.0000      -0.318138        -8.6570
  73   2.0000      -0.314218        -8.5503
  74   2.0000      -0.305610        -8.3161
  75   2.0000      -0.300648        -8.1810
  76   2.0000      -0.296710        -8.0739
  77   2.0000      -0.286124        -7.7858
  78   2.0000      -0.269162        -7.3243
  79   2.0000      -0.267652        -7.2832
  80   2.0000      -0.258467        -7.0332
  81   2.0000      -0.249198        -6.7810
  82   2.0000      -0.239044        -6.5047
  83   2.0000      -0.231153        -6.2900
  84   2.0000      -0.205729        -5.5982
  85   2.0000      -0.200605        -5.4587
  86   2.0000      -0.196353        -5.3430
  87   0.0000      -0.039184        -1.0663
  88   0.0000      -0.026695        -0.7264
  89   0.0000      -0.012098        -0.3292
  90   0.0000       0.009392         0.2556
  91   0.0000       0.019692         0.5359

MULLIKEN ATOMIC CHARGES
-----------------------
   0 C :   -0.306608
   1 C :   -0.012861
   2 O :   -0.225341
   3 C :    0.117143
   4 O :   -0.198476
   5 C :   -0.099305
   6 C :   -0.309932
   7 H :    0.152491
   8 C :    0.237852
   9 O :   -0.211255
  10 O :   -0.231742
  11 C :   -0.004101
  12 C :   -0.301421
  13 S :   -0.099529
  14 P :    0.623280
  15 S :   -0.317735
  16 O :   -0.390416
  17 C :   -0.098054
  18 O :   -0.360727
  19 C :   -0.112585
  20 H :    0.114855
  21 H :    0.116735
  22 H :    0.133901
  23 H :    0.110982
  24 H :    0.105366
  25 H :    0.128538
  26 H :    0.144232
  27 H :    0.094292
  28 H :    0.108803
  29 H :    0.124010
  30 H :    0.126644
  31 H :    0.102293
  32 H :    0.111849
  33 H :    0.117361
  34 H :    0.124263
  35 H :    0.124442
  36 H :    0.130047
  37 H :    0.130709
Sum of atomic charges:    0.0000000

LOEWDIN ATOMIC CHARGES
----------------------
   0 C :   -0.355577
   1 C :   -0.109052
   2 O :   -0.054723
   3 C :    0.038645
   4 O :   -0.152356
   5 C :   -0.249025
   6 C :   -0.268944
   7 H :    0.141712
   8 C :    0.018449
   9 O :   -0.171745
  10 O :   -0.054473
  11 C :   -0.104471
  12 C :   -0.358224
  13 S :    0.089428
  14 P :    0.579484
  15 S :   -0.308741
  16 O :   -0.262827
  17 C :   -0.217207
  18 O :   -0.235101
  19 C :   -0.211883
  20 H :    0.131636
  21 H :    0.126315
  22 H :    0.133760
  23 H :    0.120919
  24 H :    0.119032
  25 H :    0.143175
  26 H :    0.160174
  27 H :    0.113586
  28 H :    0.120574
  29 H :    0.130302
  30 H :    0.126151
  31 H :    0.125192
  32 H :    0.106748
  33 H :    0.111562
  34 H :    0.121838
  35 H :    0.115461
  36 H :    0.125112
  37 H :    0.115092

  Mayer bond orders larger than 0.100000
B(  0-C ,  1-C ) :   1.1750 B(  0-C , 20-H ) :   0.9438 B(  0-C , 21-H ) :   0.9486
B(  0-C , 22-H ) :   0.9450 B(  1-C ,  2-O ) :   0.9097 B(  1-C , 23-H ) :   0.9145
B(  1-C , 24-H ) :   0.9371 B(  2-O ,  3-C ) :   1.2507 B(  3-C ,  4-O ) :   2.0002
B(  3-C ,  5-C ) :   0.9952 B(  5-C ,  6-C ) :   1.0632 B(  5-C , 25-H ) :   0.8999
B(  5-C , 26-H ) :   0.8735 B(  6-C ,  7-H ) :   0.8480 B(  6-C ,  8-C ) :   0.8652
B(  6-C , 13-S ) :   1.0209 B(  8-C ,  9-O ) :   2.0466 B(  8-C , 10-O ) :   1.2404
B( 10-O , 11-C ) :   0.9057 B( 11-C , 12-C ) :   1.1794 B( 11-C , 27-H ) :   0.9354
B( 11-C , 28-H ) :   0.9156 B( 12-C , 29-H ) :   0.9443 B( 12-C , 30-H ) :   0.9406
B( 12-C , 31-H ) :   0.9429 B( 13-S , 14-P ) :   0.9610 B( 13-S , 15-S ) :   0.1134
B( 14-P , 15-S ) :   1.6330 B( 14-P , 16-O ) :   1.0666 B( 14-P , 18-O ) :   1.1194
B( 16-O , 17-C ) :   0.9337 B( 17-C , 32-H ) :   0.9453 B( 17-C , 33-H ) :   0.9360
B( 17-C , 34-H ) :   0.9586 B( 18-O , 19-C ) :   0.9178 B( 19-C , 35-H ) :   0.9457
B( 19-C , 36-H ) :   0.9587 B( 19-C , 37-H ) :   0.9392

Dispersion correction           -0.053119519
FINAL SINGLE POINT ENERGY     -1979.022649392480

DIPOLE MOMENT
-------------

Method             : SCF
Type of density    : Electron Density
Multiplicity       :   1
Irrep              :   0
Energy             : -1979.1525955675215300 Eh
Relativity type    :
Basis              : AO
                                X                 Y                 Z
Electronic contribution:    -12.845443689       5.087747277      -4.036723898
Nuclear contribution   :     12.953975348      -6.900018627       3.972366393
                        -----------------------------------------
Total Dipole Moment    :      0.108531659      -1.812271350      -0.064357505
                        -----------------------------------------
Magnitude (a.u.)       :      1.816658596
Magnitude (Debye)      :      4.617579186

Rotational constants in cm-1:             0.015760             0.006295             0.005545
Rotational constants in MHz :           472.458613           188.706492           166.245595

                             ****ORCA TERMINATED NORMALLY****
TOTAL RUN TIME: 0 days 0 hours 0 minutes 46 seconds 80 msec
