                         Program Version 6.0.0  -   RELEASE  -
|  1> ! pbe def2-sv(p) def2/J RI DEFGRID1 loosescf d4 GCP(DFT/SV(P)) printgap
|  2> %output
|  3>     printlevel normal
|  4> end
|  5> * xyz 0 1
|  6> C 3.2255202066 1.9546082093 2.5966900486
|  7> C 1.8178771325 1.4503274595 2.3604625236
|  8> O 1.6160891497 1.0592059964 0.9848869153
|  9> P 2.309424698 -0.2232629731 0.3631660953
| 10> S 2.6113004485 -1.7200044452 1.5977670785
| 11> O 3.6169153436 0.397273582 -0.2906381908
| 12> C 4.7278494729 -0.4155398434 -0.7067467938
| 13> C 4.3810479179 -1.293030576 -1.8921756393
| 14> S 1.0105352025 -0.5709432716 -1.2709066398
| 15> C -0.1777002435 -1.5849273289 -0.3473436073
| 16> S -1.2152322334 -0.6140780659 0.7669764642
| 17> P -2.4516242276 0.2467840814 -0.74949738
| 18> S -2.7863865383 -0.8804386425 -2.3127909534
| 19> O -1.7787877293 1.605882609 -1.1762386604
| 20> C -1.1286594961 2.5910007857 -0.3378108353
| 21> C -1.9398021891 2.9633591873 0.8842349657
| 22> O -3.7560000362 0.7198216423 0.0250414633
| 23> C -4.8961592375 -0.1374702157 0.2085795025
| 24> C -4.5946076629 -1.3142324033 1.1139918841
| 25> H 3.3069997353 2.3337853747 3.6104831433
| 26> H 3.937332054 1.1404856964 2.4655145443
| 27> H 3.4645918607 2.7466219605 1.8918685906
| 28> H 1.07327935 2.2303627653 2.5236721486
| 29> H 1.5991809216 0.5889794579 2.9992272315
| 30> H 5.5047473439 0.3088037503 -0.9547120734
| 31> H 5.0451941484 -1.0284345595 0.1431418214
| 32> H 3.6461035034 -2.0423108468 -1.5996833923
| 33> H 3.9649740429 -0.6937193454 -2.6983950744
| 34> H 5.2762672841 -1.7971068608 -2.2419819842
| 35> H 0.3619126206 -2.3070356301 0.2658703038
| 36> H -0.8078688503 -2.0782985927 -1.0883427629
| 37> H -0.1480684486 2.1984339467 -0.0559780056
| 38> H -1.0002617974 3.4403322214 -1.0109704085
| 39> H -2.0313304179 2.1088406614 1.5525138513
| 40> H -1.4391797513 3.7726056247 1.4075108945
| 41> H -2.9348165971 3.2874723064 0.590663543
| 42> H -5.648782805 0.5220265827 0.642819565
| 43> H -5.2280839322 -0.4856066604 -0.774522386
| 44> H -4.1569253282 -0.9730719161 2.0486837181
| 45> H -5.5148444325 -1.8508697093 1.3212593127
| 46> H -3.8962837815 -1.9915173744 0.6246548268
| 47> *
| 48>
| 49>                          ****END OF INPUT****

CARTESIAN COORDINATES (ANGSTROEM)
---------------------------------
  C      3.225520    1.954608    2.596690
  C      1.817877    1.450327    2.360463
  O      1.616089    1.059206    0.984887
  P      2.309425   -0.223263    0.363166
  S      2.611300   -1.720004    1.597767
  O      3.616915    0.397274   -0.290638
  C      4.727849   -0.415540   -0.706747
  C      4.381048   -1.293031   -1.892176
  S      1.010535   -0.570943   -1.270907
  C     -0.177700   -1.584927   -0.347344
  S     -1.215232   -0.614078    0.766976
  P     -2.451624    0.246784   -0.749497
  S     -2.786387   -0.880439   -2.312791
  O     -1.778788    1.605883   -1.176239
  C     -1.128659    2.591001   -0.337811
  C     -1.939802    2.963359    0.884235
  O     -3.756000    0.719822    0.025041
  C     -4.896159   -0.137470    0.208580
  C     -4.594608   -1.314232    1.113992
  H      3.307000    2.333785    3.610483
  H      3.937332    1.140486    2.465515
  H      3.464592    2.746622    1.891869
  H      1.073279    2.230363    2.523672
  H      1.599181    0.588979    2.999227
  H      5.504747    0.308804   -0.954712
  H      5.045194   -1.028435    0.143142
  H      3.646104   -2.042311   -1.599683
  H      3.964974   -0.693719   -2.698395
  H      5.276267   -1.797107   -2.241982
  H      0.361913   -2.307036    0.265870
  H     -0.807869   -2.078299   -1.088343
  H     -0.148068    2.198434   -0.055978
  H     -1.000262    3.440332   -1.010970
  H     -2.031330    2.108841    1.552514
  H     -1.439180    3.772606    1.407511
  H     -2.934817    3.287472    0.590664
  H     -5.648783    0.522027    0.642820
  H     -5.228084   -0.485607   -0.774522
  H     -4.156925   -0.973072    2.048684
  H     -5.514844   -1.850870    1.321259
  H     -3.896284   -1.991517    0.624655

 Total Charge           Charge          ....    0
 Multiplicity           Mult            ....    1
 Number of Electrons    NEL             ....  202
 Basis Dimension        Dim             ....  334

ORBITAL ENERGIES
----------------

  NO   OCC          E(Eh)            E(eV)
   0   2.0000     -88.043914     -2395.7967
   1   2.0000     -88.041970     -2395.7438
   2   2.0000     -87.995581     -2394.4815
   3   2.0000     -87.982751     -2394.1324
   4   2.0000     -76.431411     -2079.8044
   5   2.0000     -76.425325     -2079.6388
   6   2.0000     -18.799465      -511.5595
   7   2.0000     -18.797284      -511.5001
   8   2.0000     -18.793269      -511.3909
   9   2.0000     -18.787217      -511.2262
  10   2.0000      -9.957409      -270.9549
  11   2.0000      -9.957134      -270.9474
  12   2.0000      -9.952284      -270.8154
  13   2.0000      -9.951471      -270.7933
  14   2.0000      -9.949818      -270.7483
  15   2.0000      -9.889477      -269.1063
  16   2.0000      -9.887137      -269.0427
  17   2.0000      -9.886717      -269.0313
  18   2.0000      -9.883128      -268.9336
  19   2.0000      -7.688937      -209.2266
  20   2.0000      -7.686639      -209.1641
  21   2.0000      -7.640411      -207.9062
  22   2.0000      -7.628074      -207.5704
  23   2.0000      -6.429172      -174.9467
  24   2.0000      -6.422554      -174.7666
  25   2.0000      -5.716743      -155.5605
  26   2.0000      -5.714344      -155.4952
  27   2.0000      -5.713633      -155.4759
  28   2.0000      -5.711260      -155.4113
  29   2.0000      -5.705797      -155.2626
  30   2.0000      -5.703733      -155.2065
  31   2.0000      -5.669129      -154.2648
  32   2.0000      -5.661106      -154.0465
  33   2.0000      -5.660736      -154.0365
  34   2.0000      -5.657032      -153.9357
  35   2.0000      -5.648618      -153.7067
  36   2.0000      -5.648209      -153.6956
  37   2.0000      -4.651621      -126.5770
  38   2.0000      -4.650886      -126.5570
  39   2.0000      -4.649731      -126.5256
  40   2.0000      -4.645327      -126.4058
  41   2.0000      -4.644337      -126.3788
  42   2.0000      -4.642875      -126.3391
  43   2.0000      -0.993429       -27.0326
  44   2.0000      -0.984805       -26.7979
  45   2.0000      -0.952849       -25.9283
  46   2.0000      -0.943076       -25.6624
  47   2.0000      -0.765026       -20.8174
  48   2.0000      -0.722748       -19.6670
  49   2.0000      -0.710327       -19.3290
  50   2.0000      -0.691814       -18.8252
  51   2.0000      -0.689368       -18.7586
  52   2.0000      -0.678644       -18.4668
  53   2.0000      -0.653830       -17.7916
  54   2.0000      -0.638570       -17.3764
  55   2.0000      -0.606747       -16.5104
  56   2.0000      -0.596053       -16.2194
  57   2.0000      -0.577580       -15.7167
  58   2.0000      -0.575322       -15.6553
  59   2.0000      -0.559926       -15.2364
  60   2.0000      -0.499932       -13.6038
  61   2.0000      -0.489651       -13.3241
  62   2.0000      -0.478919       -13.0321
  63   2.0000      -0.468878       -12.7588
  64   2.0000      -0.461664       -12.5625
  65   2.0000      -0.445843       -12.1320
  66   2.0000      -0.443529       -12.0690
  67   2.0000      -0.441107       -12.0031
  68   2.0000      -0.430601       -11.7173
  69   2.0000      -0.422370       -11.4933
  70   2.0000      -0.409923       -11.1546
  71   2.0000      -0.399783       -10.8786
  72   2.0000      -0.396544       -10.7905
  73   2.0000      -0.391660       -10.6576
  74   2.0000      -0.380654       -10.3581
  75   2.0000      -0.375746       -10.2246
  76   2.0000      -0.368284       -10.0215
  77   2.0000      -0.362936        -9.8760
  78   2.0000      -0.359016        -9.7693
  79   2.0000      -0.353171        -9.6103
  80   2.0000      -0.351770        -9.5721
  81   2.0000      -0.348894        -9.4939
  82   2.0000      -0.344238        -9.3672
  83   2.0000      -0.341472        -9.2919
  84   2.0000      -0.335519        -9.1299
  85   2.0000      -0.322483        -8.7752
  86   2.0000      -0.311489        -8.4760
  87   2.0000      -0.300069        -8.1653
  88   2.0000      -0.292546        -7.9606
  89   2.0000      -0.290715        -7.9108
  90   2.0000      -0.289557        -7.8793
  91   2.0000      -0.279991        -7.6190
  92   2.0000      -0.270378        -7.3574
  93   2.0000      -0.265031        -7.2119
  94   2.0000      -0.260450        -7.0872
  95   2.0000      -0.236005        -6.4220
  96   2.0000      -0.218784        -5.9534
  97   2.0000      -0.216923        -5.9028
  98   2.0000      -0.207957        -5.6588
  99   2.0000      -0.202190        -5.5019
 100   2.0000      -0.199435        -5.4269
 101   0.0000      -0.045170        -1.2291
 102   0.0000      -0.026630        -0.7246
 103   0.0000      -0.004221        -0.1149
 104   0.0000       0.000136         0.0037
 105   0.0000       0.013753         0.3742

MULLIKEN ATOMIC CHARGES
-----------------------
   0 C :   -0.306645
   1 C :   -0.003784
   2 O :   -0.359304
   3 P :    0.612527
   4 S :   -0.334249
   5 O :   -0.370880
   6 C :   -0.006002
   7 C :   -0.317607
   8 S :   -0.058657
   9 C :   -0.372942
  10 S :   -0.100654
  11 P :    0.604359
  12 S :   -0.319148
  13 O :   -0.355647
  14 C :   -0.025767
  15 C :   -0.317411
  16 O :   -0.376207
  17 C :   -0.002377
  18 C :   -0.314329
  19 H :    0.114098
  20 H :    0.123436
  21 H :    0.117456
  22 H :    0.103833
  23 H :    0.114790
  24 H :    0.107569
  25 H :    0.112043
  26 H :    0.128814
  27 H :    0.122051
  28 H :    0.115294
  29 H :    0.192465
  30 H :    0.195882
  31 H :    0.143031
  32 H :    0.106143
  33 H :    0.118697
  34 H :    0.111715
  35 H :    0.122978
  36 H :    0.104128
  37 H :    0.114699
  38 H :    0.115510
  39 H :    0.113095
  40 H :    0.126996
Sum of atomic charges:    0.0000000

LOEWDIN ATOMIC CHARGES
----------------------
   0 C :   -0.363987
   1 C :   -0.117052
   2 O :   -0.235972
   3 P :    0.575513
   4 S :   -0.320148
   5 O :   -0.242117
   6 C :   -0.118775
   7 C :   -0.369343
   8 S :    0.102601
   9 C :   -0.490211
  10 S :    0.075128
  11 P :    0.575297
  12 S :   -0.313331
  13 O :   -0.232801
  14 C :   -0.118342
  15 C :   -0.368206
  16 O :   -0.243013
  17 C :   -0.117564
  18 C :   -0.370572
  19 H :    0.131384
  20 H :    0.123254
  21 H :    0.126909
  22 H :    0.116203
  23 H :    0.112008
  24 H :    0.119829
  25 H :    0.110950
  26 H :    0.122133
  27 H :    0.126322
  28 H :    0.132330
  29 H :    0.127987
  30 H :    0.128538
  31 H :    0.113736
  32 H :    0.121797
  33 H :    0.115942
  34 H :    0.128746
  35 H :    0.128096
  36 H :    0.118295
  37 H :    0.113174
  38 H :    0.122785
  39 H :    0.131131
  40 H :    0.121344

  Mayer bond orders larger than 0.100000
B(  0-C ,  1-C ) :   1.1641 B(  0-C , 19-H ) :   0.9390 B(  0-C , 20-H ) :   0.9368
B(  0-C , 21-H ) :   0.9460 B(  1-C ,  2-O ) :   0.8985 B(  1-C , 22-H ) :   0.9319
B(  1-C , 23-H ) :   0.9165 B(  2-O ,  3-P ) :   1.1111 B(  3-P ,  4-S ) :   1.5866
B(  3-P ,  5-O ) :   1.1141 B(  3-P ,  8-S ) :   0.9685 B(  4-S ,  8-S ) :   0.1099
B(  5-O ,  6-C ) :   0.9052 B(  6-C ,  7-C ) :   1.1662 B(  6-C , 24-H ) :   0.9336
B(  6-C , 25-H ) :   0.9167 B(  7-C , 26-H ) :   0.9352 B(  7-C , 27-H ) :   0.9443
B(  7-C , 28-H ) :   0.9375 B(  8-S ,  9-C ) :   1.0022 B(  9-C , 10-S ) :   1.0078
B(  9-C , 29-H ) :   0.8714 B(  9-C , 30-H ) :   0.8660 B( 10-S , 11-P ) :   0.9338
B( 10-S , 12-S ) :   0.1084 B( 11-P , 12-S ) :   1.6183 B( 11-P , 13-O ) :   1.1571
B( 11-P , 16-O ) :   1.0917 B( 13-O , 14-C ) :   0.8930 B( 14-C , 15-C ) :   1.1713
B( 14-C , 31-H ) :   0.9011 B( 14-C , 32-H ) :   0.9329 B( 15-C , 33-H ) :   0.9377
B( 15-C , 34-H ) :   0.9345 B( 15-C , 35-H ) :   0.9412 B( 16-O , 17-C ) :   0.9062
B( 17-C , 18-C ) :   1.1660 B( 17-C , 36-H ) :   0.9339 B( 17-C , 37-H ) :   0.9165
B( 18-C , 38-H ) :   0.9446 B( 18-C , 39-H ) :   0.9373 B( 18-C , 40-H ) :   0.9344

Dispersion correction           -0.066334458
FINAL SINGLE POINT ENERGY     -2929.523602696544

DIPOLE MOMENT
-------------

Method             : SCF
Type of density    : Electron Density
Multiplicity       :   1
Irrep              :   0
Energy             : -2929.6435294036277810 Eh
Relativity type    :
Basis              : AO
                                X                 Y                 Z
Electronic contribution:     -3.745298336      -7.976763697     -10.303236802
Nuclear contribution   :      4.237271982       8.992268175      11.315883644
                        -----------------------------------------
Total Dipole Moment    :      0.491973646       1.015504477       1.012646843
                        -----------------------------------------
Magnitude (a.u.)       :      1.516159965
Magnitude (Debye)      :      3.853772367

Rotational constants in cm-1:             0.013222             0.004803             0.004404
Rotational constants in MHz :           396.394428           143.982464           132.030123

                             ****ORCA TERMINATED NORMALLY****
TOTAL RUN TIME: 0 days 0 hours 0 minutes 21 seconds 180 msec
