                         Program Version 6.0.0  -   RELEASE  -
|  1> ! pbe def2-sv(p) def2/J RI DEFGRID1 loosescf d4 GCP(DFT/SV(P)) printgap
|  2> %output
|  3>     printlevel normal
|  4> end
|  5> * xyz 0 1
|  6> C 0.9724980458 -1.8542376498 2.157265716
|  7> C 2.0485184869 -2.071027779 1.1112820494
|  8> O 2.8088818835 -0.8634806122 0.9224931475
|  9> P 2.7271598486 0.0303125223 -0.3935062923
| 10> S 2.9440038363 -0.9487715179 -2.0765072898
| 11> O 3.8920451746 1.0571434463 -0.1503022543
| 12> C 4.2812388473 1.6034697443 1.1364490281
| 13> C 3.1528958583 2.347379519 1.8168012236
| 14> S 0.9262589932 1.1842589753 -0.2852260378
| 15> C -0.0202687569 0.3617773377 -1.5813889932
| 16> S -0.8945013505 -1.1211507381 -1.0038120374
| 17> P -2.45032739 -0.0838108028 -0.0323668278
| 18> S -3.2046805987 1.4804741941 -0.9545752697
| 19> O -1.7581254172 0.2029196401 1.3600152399
| 20> C -2.2268815276 1.2105311417 2.2864772118
| 21> C -1.0223519824 1.8864358131 2.9093865197
| 22> O -3.5155735203 -1.1947055396 0.3665929589
| 23> C -4.6051162441 -1.5669674172 -0.4943795993
| 24> C -4.1249721348 -2.2779697854 -1.7431831466
| 25> H 0.4494002208 -2.7900487349 2.3255755434
| 26> H 1.4222362051 -1.5209427685 3.0884102626
| 27> H 0.2547112312 -1.1089385925 1.8233468001
| 28> H 1.6217857424 -2.3876646098 0.1538617329
| 29> H 2.7737204253 -2.8177512687 1.4416676746
| 30> H 4.6407424036 0.781578733 1.758049507
| 31> H 5.1079688617 2.2679769943 0.8813167037
| 32> H 2.7621514555 3.1248693124 1.1650562118
| 33> H 2.3458063585 1.6607310213 2.0650278727
| 34> H 3.5251454573 2.7997973043 2.7306693195
| 35> H 0.6601227399 0.0381364406 -2.3707794463
| 36> H -0.7503151725 1.0816355418 -1.9523475199
| 37> H -2.8465596079 1.9296660347 1.7402902289
| 38> H -2.8369912729 0.7012825733 3.0352414729
| 39> H -0.4112490822 1.1539784299 3.4284652612
| 40> H -0.4239828854 2.3644262828 2.1376359485
| 41> H -1.362471461 2.6361514337 3.6161321199
| 42> H -5.2215814694 -2.2165506675 0.1283214207
| 43> H -5.1628247713 -0.6621967498 -0.7568759049
| 44> H -3.482466735 -3.1142143318 -1.4789608295
| 45> H -4.9807678461 -2.6422693579 -2.3024318093
| 46> H -3.5612421951 -1.5890380821 -2.3713671396
| 47> *
| 48>
| 49>                          ****END OF INPUT****

CARTESIAN COORDINATES (ANGSTROEM)
---------------------------------
  C      0.972498   -1.854238    2.157266
  C      2.048518   -2.071028    1.111282
  O      2.808882   -0.863481    0.922493
  P      2.727160    0.030313   -0.393506
  S      2.944004   -0.948772   -2.076507
  O      3.892045    1.057143   -0.150302
  C      4.281239    1.603470    1.136449
  C      3.152896    2.347380    1.816801
  S      0.926259    1.184259   -0.285226
  C     -0.020269    0.361777   -1.581389
  S     -0.894501   -1.121151   -1.003812
  P     -2.450327   -0.083811   -0.032367
  S     -3.204681    1.480474   -0.954575
  O     -1.758125    0.202920    1.360015
  C     -2.226882    1.210531    2.286477
  C     -1.022352    1.886436    2.909387
  O     -3.515574   -1.194706    0.366593
  C     -4.605116   -1.566967   -0.494380
  C     -4.124972   -2.277970   -1.743183
  H      0.449400   -2.790049    2.325576
  H      1.422236   -1.520943    3.088410
  H      0.254711   -1.108939    1.823347
  H      1.621786   -2.387665    0.153862
  H      2.773720   -2.817751    1.441668
  H      4.640742    0.781579    1.758050
  H      5.107969    2.267977    0.881317
  H      2.762151    3.124869    1.165056
  H      2.345806    1.660731    2.065028
  H      3.525145    2.799797    2.730669
  H      0.660123    0.038136   -2.370779
  H     -0.750315    1.081636   -1.952348
  H     -2.846560    1.929666    1.740290
  H     -2.836991    0.701283    3.035241
  H     -0.411249    1.153978    3.428465
  H     -0.423983    2.364426    2.137636
  H     -1.362471    2.636151    3.616132
  H     -5.221581   -2.216551    0.128321
  H     -5.162825   -0.662197   -0.756876
  H     -3.482467   -3.114214   -1.478961
  H     -4.980768   -2.642269   -2.302432
  H     -3.561242   -1.589038   -2.371367

 Total Charge           Charge          ....    0
 Multiplicity           Mult            ....    1
 Number of Electrons    NEL             ....  202
 Basis Dimension        Dim             ....  334

ORBITAL ENERGIES
----------------

  NO   OCC          E(Eh)            E(eV)
   0   2.0000     -88.046501     -2395.8671
   1   2.0000     -88.041062     -2395.7191
   2   2.0000     -87.992782     -2394.4053
   3   2.0000     -87.985118     -2394.1968
   4   2.0000     -76.430582     -2079.7819
   5   2.0000     -76.427446     -2079.6965
   6   2.0000     -18.796988      -511.4920
   7   2.0000     -18.795218      -511.4439
   8   2.0000     -18.794798      -511.4325
   9   2.0000     -18.792314      -511.3649
  10   2.0000      -9.961194      -271.0579
  11   2.0000      -9.955585      -270.9052
  12   2.0000      -9.955408      -270.9004
  13   2.0000      -9.950332      -270.7623
  14   2.0000      -9.949983      -270.7528
  15   2.0000      -9.894785      -269.2508
  16   2.0000      -9.888701      -269.0852
  17   2.0000      -9.886580      -269.0275
  18   2.0000      -9.878980      -268.8207
  19   2.0000      -7.691495      -209.2962
  20   2.0000      -7.685687      -209.1382
  21   2.0000      -7.637649      -207.8310
  22   2.0000      -7.630354      -207.6325
  23   2.0000      -6.428367      -174.9248
  24   2.0000      -6.424831      -174.8285
  25   2.0000      -5.719250      -155.6287
  26   2.0000      -5.716144      -155.5442
  27   2.0000      -5.713621      -155.4755
  28   2.0000      -5.710115      -155.3801
  29   2.0000      -5.708434      -155.3344
  30   2.0000      -5.702779      -155.1805
  31   2.0000      -5.666405      -154.1907
  32   2.0000      -5.659362      -153.9991
  33   2.0000      -5.658327      -153.9709
  34   2.0000      -5.657948      -153.9606
  35   2.0000      -5.650822      -153.7667
  36   2.0000      -5.650527      -153.7587
  37   2.0000      -4.650869      -126.5566
  38   2.0000      -4.650085      -126.5352
  39   2.0000      -4.648862      -126.5020
  40   2.0000      -4.647781      -126.4726
  41   2.0000      -4.646358      -126.4338
  42   2.0000      -4.645187      -126.4020
  43   2.0000      -0.991180       -26.9714
  44   2.0000      -0.989812       -26.9342
  45   2.0000      -0.950078       -25.8529
  46   2.0000      -0.944797       -25.7092
  47   2.0000      -0.764846       -20.8125
  48   2.0000      -0.725493       -19.7417
  49   2.0000      -0.714119       -19.4322
  50   2.0000      -0.692375       -18.8405
  51   2.0000      -0.689978       -18.7752
  52   2.0000      -0.678057       -18.4509
  53   2.0000      -0.651870       -17.7383
  54   2.0000      -0.638031       -17.3617
  55   2.0000      -0.604491       -16.4490
  56   2.0000      -0.594782       -16.1849
  57   2.0000      -0.577052       -15.7024
  58   2.0000      -0.575302       -15.6548
  59   2.0000      -0.556678       -15.1480
  60   2.0000      -0.506987       -13.7958
  61   2.0000      -0.500498       -13.6192
  62   2.0000      -0.477584       -12.9957
  63   2.0000      -0.476899       -12.9771
  64   2.0000      -0.460475       -12.5302
  65   2.0000      -0.448709       -12.2100
  66   2.0000      -0.445387       -12.1196
  67   2.0000      -0.436643       -11.8817
  68   2.0000      -0.429021       -11.6743
  69   2.0000      -0.427942       -11.6449
  70   2.0000      -0.413425       -11.2499
  71   2.0000      -0.397796       -10.8246
  72   2.0000      -0.391600       -10.6560
  73   2.0000      -0.388621       -10.5749
  74   2.0000      -0.385260       -10.4834
  75   2.0000      -0.377567       -10.2741
  76   2.0000      -0.366727        -9.9791
  77   2.0000      -0.361423        -9.8348
  78   2.0000      -0.359086        -9.7712
  79   2.0000      -0.354957        -9.6589
  80   2.0000      -0.350969        -9.5503
  81   2.0000      -0.345760        -9.4086
  82   2.0000      -0.343869        -9.3572
  83   2.0000      -0.340085        -9.2542
  84   2.0000      -0.334753        -9.1091
  85   2.0000      -0.324782        -8.8378
  86   2.0000      -0.311755        -8.4833
  87   2.0000      -0.300376        -8.1736
  88   2.0000      -0.299506        -8.1500
  89   2.0000      -0.293037        -7.9740
  90   2.0000      -0.289033        -7.8650
  91   2.0000      -0.280178        -7.6240
  92   2.0000      -0.277680        -7.5561
  93   2.0000      -0.267778        -7.2866
  94   2.0000      -0.256384        -6.9766
  95   2.0000      -0.236559        -6.4371
  96   2.0000      -0.221044        -6.0149
  97   2.0000      -0.213738        -5.8161
  98   2.0000      -0.206798        -5.6273
  99   2.0000      -0.202842        -5.5196
 100   2.0000      -0.200080        -5.4444
 101   0.0000      -0.045435        -1.2363
 102   0.0000      -0.029402        -0.8001
 103   0.0000      -0.008467        -0.2304
 104   0.0000      -0.001718        -0.0468
 105   0.0000       0.008589         0.2337

MULLIKEN ATOMIC CHARGES
-----------------------
   0 C :   -0.327292
   1 C :   -0.004306
   2 O :   -0.385175
   3 P :    0.610574
   4 S :   -0.308785
   5 O :   -0.363010
   6 C :    0.011813
   7 C :   -0.352814
   8 S :   -0.111932
   9 C :   -0.359921
  10 S :   -0.076540
  11 P :    0.612184
  12 S :   -0.333781
  13 O :   -0.358879
  14 C :   -0.008258
  15 C :   -0.300777
  16 O :   -0.373197
  17 C :   -0.003696
  18 C :   -0.319785
  19 H :    0.106060
  20 H :    0.104724
  21 H :    0.158963
  22 H :    0.105169
  23 H :    0.104947
  24 H :    0.112647
  25 H :    0.113546
  26 H :    0.133639
  27 H :    0.140686
  28 H :    0.119643
  29 H :    0.198432
  30 H :    0.192122
  31 H :    0.108471
  32 H :    0.105131
  33 H :    0.121196
  34 H :    0.134973
  35 H :    0.110258
  36 H :    0.106223
  37 H :    0.112517
  38 H :    0.119089
  39 H :    0.115446
  40 H :    0.129694
Sum of atomic charges:   -0.0000000

LOEWDIN ATOMIC CHARGES
----------------------
   0 C :   -0.370117
   1 C :   -0.116609
   2 O :   -0.250863
   3 P :    0.571579
   4 S :   -0.303171
   5 O :   -0.236338
   6 C :   -0.105831
   7 C :   -0.375270
   8 S :    0.080134
   9 C :   -0.492055
  10 S :    0.102257
  11 P :    0.571908
  12 S :   -0.321536
  13 O :   -0.236616
  14 C :   -0.115256
  15 C :   -0.355694
  16 O :   -0.245595
  17 C :   -0.118883
  18 C :   -0.369556
  19 H :    0.129266
  20 H :    0.119860
  21 H :    0.121339
  22 H :    0.102431
  23 H :    0.117599
  24 H :    0.116613
  25 H :    0.124260
  26 H :    0.129122
  27 H :    0.120734
  28 H :    0.134877
  29 H :    0.128636
  30 H :    0.128885
  31 H :    0.107861
  32 H :    0.115130
  33 H :    0.125824
  34 H :    0.125054
  35 H :    0.129809
  36 H :    0.119192
  37 H :    0.111325
  38 H :    0.124965
  39 H :    0.132315
  40 H :    0.122415

  Mayer bond orders larger than 0.100000
B(  0-C ,  1-C ) :   1.1649 B(  0-C , 19-H ) :   0.9394 B(  0-C , 20-H ) :   0.9449
B(  0-C , 21-H ) :   0.9170 B(  1-C ,  2-O ) :   0.9014 B(  1-C , 22-H ) :   0.9021
B(  1-C , 23-H ) :   0.9352 B(  2-O ,  3-P ) :   1.0710 B(  3-P ,  4-S ) :   1.6483
B(  3-P ,  5-O ) :   1.1490 B(  3-P ,  8-S ) :   0.9368 B(  4-S ,  8-S ) :   0.1155
B(  4-S , 29-H ) :   0.1068 B(  5-O ,  6-C ) :   0.8959 B(  6-C ,  7-C ) :   1.1698
B(  6-C , 24-H ) :   0.9275 B(  6-C , 25-H ) :   0.9335 B(  7-C , 26-H ) :   0.9397
B(  7-C , 27-H ) :   0.9282 B(  7-C , 28-H ) :   0.9345 B(  8-S ,  9-C ) :   1.0178
B(  9-C , 10-S ) :   0.9965 B(  9-C , 29-H ) :   0.8556 B(  9-C , 30-H ) :   0.8672
B( 10-S , 11-P ) :   0.9703 B( 10-S , 12-S ) :   0.1070 B( 11-P , 12-S ) :   1.5961
B( 11-P , 13-O ) :   1.1237 B( 11-P , 16-O ) :   1.1168 B( 13-O , 14-C ) :   0.8938
B( 14-C , 15-C ) :   1.1654 B( 14-C , 31-H ) :   0.9038 B( 14-C , 32-H ) :   0.9331
B( 15-C , 33-H ) :   0.9483 B( 15-C , 34-H ) :   0.9409 B( 15-C , 35-H ) :   0.9394
B( 16-O , 17-C ) :   0.9077 B( 17-C , 18-C ) :   1.1641 B( 17-C , 36-H ) :   0.9337
B( 17-C , 37-H ) :   0.9163 B( 18-C , 38-H ) :   0.9450 B( 18-C , 39-H ) :   0.9378
B( 18-C , 40-H ) :   0.9351

Dispersion correction           -0.065444539
FINAL SINGLE POINT ENERGY     -2929.521964124267

DIPOLE MOMENT
-------------

Method             : SCF
Type of density    : Electron Density
Multiplicity       :   1
Irrep              :   0
Energy             : -2929.6424301208403449 Eh
Relativity type    :
Basis              : AO
                                X                 Y                 Z
Electronic contribution:      4.878934774       0.167459392     -17.716879984
Nuclear contribution   :     -5.357636485      -0.271493869      19.574622826
                        -----------------------------------------
Total Dipole Moment    :     -0.478701711      -0.104034477       1.857742842
                        -----------------------------------------
Magnitude (a.u.)       :      1.921246202
Magnitude (Debye)      :      4.883419753

Rotational constants in cm-1:             0.012371             0.005034             0.004501
Rotational constants in MHz :           370.859260           150.924617           134.948641

                             ****ORCA TERMINATED NORMALLY****
TOTAL RUN TIME: 0 days 0 hours 0 minutes 21 seconds 855 msec
