                         Program Version 6.0.0  -   RELEASE  -
|  1> ! pbe def2-sv(p) def2/J RI DEFGRID1 loosescf d4 GCP(DFT/SV(P)) printgap
|  2> %output
|  3>     printlevel normal
|  4> end
|  5> * xyz 0 1
|  6> C 1.7840910708 -1.9143349814 -2.4316940097
|  7> C 2.2044152587 -0.4610634841 -2.5044272563
|  8> O 1.7908572372 0.308898119 -1.3448628701
|  9> P 2.1910703458 -0.0208843585 0.1449877524
| 10> S 2.202274163 1.5442810049 1.3227925532
| 11> O 3.5928935324 -0.7415442236 -0.0648999953
| 12> C 4.3909501248 -1.206392077 1.0416181088
| 13> C 5.4247720194 -0.1710109076 1.4383418163
| 14> S 0.954244877 -1.6234033073 0.8307435761
| 15> C -0.1137623222 -0.7574949383 2.0155451345
| 16> S -1.8767769231 -0.9781330067 1.663471774
| 17> P -2.0769036543 0.2272789214 -0.0476867304
| 18> S -0.974433221 1.8546503197 -0.1574894647
| 19> O -3.6442097652 0.4790596881 -0.1006946423
| 20> C -4.2792950972 1.4470492024 0.7572401878
| 21> C -5.6535604375 1.7407885998 0.1901801993
| 22> O -1.8664569665 -0.8227391118 -1.2122670273
| 23> C -1.6626290658 -0.4039982868 -2.5797612592
| 24> C -2.8806075495 0.2869490027 -3.1542102175
| 25> H 2.0156291838 -2.3942705387 -3.3774477322
| 26> H 2.3189937185 -2.4256644638 -1.6340183046
| 27> H 0.7177307629 -1.997601 -2.2385606768
| 28> H 1.7193760392 0.0600421585 -3.3317948437
| 29> H 3.2882602277 -0.3732191723 -2.5963113652
| 30> H 3.7351138714 -1.4481002229 1.8823396372
| 31> H 4.8646793436 -2.118976 0.6745948404
| 32> H 6.0461275577 -0.5724506189 2.2321901457
| 33> H 6.048449251 0.0816185857 0.5854340226
| 34> H 4.9344521118 0.7329496661 1.7928729756
| 35> H 0.145660617 0.3059396741 2.0034515084
| 36> H 0.0444798862 -1.187201146 3.0013969965
| 37> H -4.3450229588 1.0217610835 1.7623836624
| 38> H -3.6547722604 2.3465474585 0.7902238901
| 39> H -6.2294002641 0.8222791453 0.1266905609
| 40> H -6.1642735901 2.4423720039 0.8414310082
| 41> H -5.5664489115 2.1722151498 -0.8029329557
| 42> H -0.7937859388 0.261948366 -2.6074795544
| 43> H -1.4448554302 -1.334396897 -3.1062689651
| 44> H -2.7226080445 0.4709123443 -4.2124784417
| 45> H -3.7619095569 -0.3343926971 -3.019648147
| 46> H -3.0389570676 1.2386683579 -2.6488684687
| 47> *
| 48>
| 49>                          ****END OF INPUT****

CARTESIAN COORDINATES (ANGSTROEM)
---------------------------------
  C      1.784091   -1.914335   -2.431694
  C      2.204415   -0.461063   -2.504427
  O      1.790857    0.308898   -1.344863
  P      2.191070   -0.020884    0.144988
  S      2.202274    1.544281    1.322793
  O      3.592894   -0.741544   -0.064900
  C      4.390950   -1.206392    1.041618
  C      5.424772   -0.171011    1.438342
  S      0.954245   -1.623403    0.830744
  C     -0.113762   -0.757495    2.015545
  S     -1.876777   -0.978133    1.663472
  P     -2.076904    0.227279   -0.047687
  S     -0.974433    1.854650   -0.157489
  O     -3.644210    0.479060   -0.100695
  C     -4.279295    1.447049    0.757240
  C     -5.653560    1.740789    0.190180
  O     -1.866457   -0.822739   -1.212267
  C     -1.662629   -0.403998   -2.579761
  C     -2.880608    0.286949   -3.154210
  H      2.015629   -2.394271   -3.377448
  H      2.318994   -2.425664   -1.634018
  H      0.717731   -1.997601   -2.238561
  H      1.719376    0.060042   -3.331795
  H      3.288260   -0.373219   -2.596311
  H      3.735114   -1.448100    1.882340
  H      4.864679   -2.118976    0.674595
  H      6.046128   -0.572451    2.232190
  H      6.048449    0.081619    0.585434
  H      4.934452    0.732950    1.792873
  H      0.145661    0.305940    2.003452
  H      0.044480   -1.187201    3.001397
  H     -4.345023    1.021761    1.762384
  H     -3.654772    2.346547    0.790224
  H     -6.229400    0.822279    0.126691
  H     -6.164274    2.442372    0.841431
  H     -5.566449    2.172215   -0.802933
  H     -0.793786    0.261948   -2.607480
  H     -1.444855   -1.334397   -3.106269
  H     -2.722608    0.470912   -4.212478
  H     -3.761910   -0.334393   -3.019648
  H     -3.038957    1.238668   -2.648868

 Total Charge           Charge          ....    0
 Multiplicity           Mult            ....    1
 Number of Electrons    NEL             ....  202
 Basis Dimension        Dim             ....  334

ORBITAL ENERGIES
----------------

  NO   OCC          E(Eh)            E(eV)
   0   2.0000     -88.040251     -2395.6970
   1   2.0000     -88.038468     -2395.6485
   2   2.0000     -87.979034     -2394.0312
   3   2.0000     -87.978890     -2394.0273
   4   2.0000     -76.423951     -2079.6014
   5   2.0000     -76.420397     -2079.5047
   6   2.0000     -18.794202      -511.4162
   7   2.0000     -18.789820      -511.2970
   8   2.0000     -18.788601      -511.2638
   9   2.0000     -18.787144      -511.2242
  10   2.0000      -9.957090      -270.9462
  11   2.0000      -9.954686      -270.8808
  12   2.0000      -9.951340      -270.7897
  13   2.0000      -9.950311      -270.7617
  14   2.0000      -9.950159      -270.7576
  15   2.0000      -9.889427      -269.1050
  16   2.0000      -9.887199      -269.0444
  17   2.0000      -9.883019      -268.9306
  18   2.0000      -9.879696      -268.8402
  19   2.0000      -7.685913      -209.1443
  20   2.0000      -7.683079      -209.0672
  21   2.0000      -7.624072      -207.4616
  22   2.0000      -7.623644      -207.4499
  23   2.0000      -6.421117      -174.7275
  24   2.0000      -6.418244      -174.6493
  25   2.0000      -5.713852      -155.4818
  26   2.0000      -5.710876      -155.4008
  27   2.0000      -5.710231      -155.3833
  28   2.0000      -5.707529      -155.3098
  29   2.0000      -5.702934      -155.1847
  30   2.0000      -5.700278      -155.1124
  31   2.0000      -5.653113      -153.8290
  32   2.0000      -5.652465      -153.8114
  33   2.0000      -5.644484      -153.5942
  34   2.0000      -5.644319      -153.5897
  35   2.0000      -5.644244      -153.5877
  36   2.0000      -5.643931      -153.5792
  37   2.0000      -4.644152      -126.3738
  38   2.0000      -4.642686      -126.3339
  39   2.0000      -4.641401      -126.2990
  40   2.0000      -4.640658      -126.2787
  41   2.0000      -4.640039      -126.2619
  42   2.0000      -4.638726      -126.2261
  43   2.0000      -0.987905       -26.8823
  44   2.0000      -0.984151       -26.7801
  45   2.0000      -0.943297       -25.6684
  46   2.0000      -0.942090       -25.6356
  47   2.0000      -0.758654       -20.6440
  48   2.0000      -0.719054       -19.5665
  49   2.0000      -0.709309       -19.3013
  50   2.0000      -0.691296       -18.8111
  51   2.0000      -0.688021       -18.7220
  52   2.0000      -0.673232       -18.3196
  53   2.0000      -0.647128       -17.6092
  54   2.0000      -0.629380       -17.1263
  55   2.0000      -0.596542       -16.2327
  56   2.0000      -0.590200       -16.0602
  57   2.0000      -0.576621       -15.6906
  58   2.0000      -0.564863       -15.3707
  59   2.0000      -0.560299       -15.2465
  60   2.0000      -0.503548       -13.7022
  61   2.0000      -0.497868       -13.5477
  62   2.0000      -0.474762       -12.9189
  63   2.0000      -0.473921       -12.8960
  64   2.0000      -0.450684       -12.2637
  65   2.0000      -0.448881       -12.2147
  66   2.0000      -0.439792       -11.9674
  67   2.0000      -0.433948       -11.8083
  68   2.0000      -0.425594       -11.5810
  69   2.0000      -0.420871       -11.4525
  70   2.0000      -0.405834       -11.0433
  71   2.0000      -0.398980       -10.8568
  72   2.0000      -0.392612       -10.6835
  73   2.0000      -0.390832       -10.6351
  74   2.0000      -0.377726       -10.2784
  75   2.0000      -0.372117       -10.1258
  76   2.0000      -0.360449        -9.8083
  77   2.0000      -0.355749        -9.6804
  78   2.0000      -0.354974        -9.6593
  79   2.0000      -0.350818        -9.5462
  80   2.0000      -0.345266        -9.3952
  81   2.0000      -0.344025        -9.3614
  82   2.0000      -0.341832        -9.3017
  83   2.0000      -0.334596        -9.1048
  84   2.0000      -0.331397        -9.0178
  85   2.0000      -0.315256        -8.5786
  86   2.0000      -0.312315        -8.4985
  87   2.0000      -0.298879        -8.1329
  88   2.0000      -0.297013        -8.0821
  89   2.0000      -0.291868        -7.9421
  90   2.0000      -0.283022        -7.7014
  91   2.0000      -0.275783        -7.5044
  92   2.0000      -0.270965        -7.3733
  93   2.0000      -0.259292        -7.0557
  94   2.0000      -0.255548        -6.9538
  95   2.0000      -0.232968        -6.3394
  96   2.0000      -0.221362        -6.0236
  97   2.0000      -0.211920        -5.7666
  98   2.0000      -0.198410        -5.3990
  99   2.0000      -0.189363        -5.1528
 100   2.0000      -0.180422        -4.9095
 101   0.0000      -0.035279        -0.9600
 102   0.0000      -0.031948        -0.8694
 103   0.0000      -0.005913        -0.1609
 104   0.0000       0.013934         0.3792
 105   0.0000       0.017105         0.4654

MULLIKEN ATOMIC CHARGES
-----------------------
   0 C :   -0.354587
   1 C :    0.009124
   2 O :   -0.360252
   3 P :    0.611048
   4 S :   -0.288267
   5 O :   -0.386493
   6 C :   -0.003864
   7 C :   -0.288098
   8 S :   -0.114247
   9 C :   -0.352251
  10 S :   -0.093645
  11 P :    0.601014
  12 S :   -0.303827
  13 O :   -0.379499
  14 C :   -0.010984
  15 C :   -0.281844
  16 O :   -0.363996
  17 C :   -0.049030
  18 C :   -0.286333
  19 H :    0.114175
  20 H :    0.125393
  21 H :    0.152896
  22 H :    0.110336
  23 H :    0.111855
  24 H :    0.097462
  25 H :    0.102722
  26 H :    0.106515
  27 H :    0.110654
  28 H :    0.130329
  29 H :    0.209525
  30 H :    0.178721
  31 H :    0.102177
  32 H :    0.105841
  33 H :    0.116424
  34 H :    0.112314
  35 H :    0.119426
  36 H :    0.131689
  37 H :    0.108803
  38 H :    0.107944
  39 H :    0.116522
  40 H :    0.124312
Sum of atomic charges:    0.0000000

LOEWDIN ATOMIC CHARGES
----------------------
   0 C :   -0.374331
   1 C :   -0.107548
   2 O :   -0.234237
   3 P :    0.572494
   4 S :   -0.288607
   5 O :   -0.248355
   6 C :   -0.116784
   7 C :   -0.363171
   8 S :    0.062642
   9 C :   -0.482750
  10 S :    0.081436
  11 P :    0.557974
  12 S :   -0.301372
  13 O :   -0.248709
  14 C :   -0.121542
  15 C :   -0.350331
  16 O :   -0.240653
  17 C :   -0.121515
  18 C :   -0.364489
  19 H :    0.132207
  20 H :    0.119726
  21 H :    0.129407
  22 H :    0.119010
  23 H :    0.115879
  24 H :    0.105477
  25 H :    0.116215
  26 H :    0.128447
  27 H :    0.124707
  28 H :    0.125435
  29 H :    0.125512
  30 H :    0.135607
  31 H :    0.109383
  32 H :    0.108517
  33 H :    0.126857
  34 H :    0.130975
  35 H :    0.127521
  36 H :    0.114319
  37 H :    0.115917
  38 H :    0.129140
  39 H :    0.126611
  40 H :    0.122982

  Mayer bond orders larger than 0.100000
B(  0-C ,  1-C ) :   1.1717 B(  0-C , 19-H ) :   0.9349 B(  0-C , 20-H ) :   0.9343
B(  0-C , 21-H ) :   0.9287 B(  1-C ,  2-O ) :   0.8978 B(  1-C , 22-H ) :   0.9279
B(  1-C , 23-H ) :   0.9287 B(  2-O ,  3-P ) :   1.1285 B(  3-P ,  4-S ) :   1.6435
B(  3-P ,  5-O ) :   1.0654 B(  3-P ,  8-S ) :   0.9462 B(  4-S ,  8-S ) :   0.1230
B(  4-S , 29-H ) :   0.1001 B(  5-O ,  6-C ) :   0.9032 B(  6-C ,  7-C ) :   1.1684
B(  6-C , 24-H ) :   0.9109 B(  6-C , 25-H ) :   0.9362 B(  7-C , 26-H ) :   0.9394
B(  7-C , 27-H ) :   0.9473 B(  7-C , 28-H ) :   0.9297 B(  8-S ,  9-C ) :   0.9963
B(  9-C , 10-S ) :   1.0032 B(  9-C , 29-H ) :   0.8409 B(  9-C , 30-H ) :   0.9113
B( 10-S , 11-P ) :   0.9602 B( 10-S , 12-S ) :   0.1143 B( 11-P , 12-S ) :   1.6405
B( 11-P , 13-O ) :   1.0914 B( 11-P , 16-O ) :   1.1324 B( 13-O , 14-C ) :   0.9050
B( 14-C , 15-C ) :   1.1599 B( 14-C , 31-H ) :   0.9284 B( 14-C , 32-H ) :   0.9084
B( 15-C , 33-H ) :   0.9502 B( 15-C , 34-H ) :   0.9420 B( 15-C , 35-H ) :   0.9518
B( 16-O , 17-C ) :   0.9015 B( 17-C , 18-C ) :   1.1655 B( 17-C , 36-H ) :   0.9077
B( 17-C , 37-H ) :   0.9264 B( 18-C , 38-H ) :   0.9375 B( 18-C , 39-H ) :   0.9442
B( 18-C , 40-H ) :   0.9328

Dispersion correction           -0.066095895
FINAL SINGLE POINT ENERGY     -2929.516786590330

DIPOLE MOMENT
-------------

Method             : SCF
Type of density    : Electron Density
Multiplicity       :   1
Irrep              :   0
Energy             : -2929.6364413901324042 Eh
Relativity type    :
Basis              : AO
                                X                 Y                 Z
Electronic contribution:      1.771251526       1.229061767      12.517950042
Nuclear contribution   :     -1.841853066      -2.310197123     -13.257647676
                        -----------------------------------------
Total Dipole Moment    :     -0.070601539      -1.081135356      -0.739697634
                        -----------------------------------------
Magnitude (a.u.)       :      1.311865399
Magnitude (Debye)      :      3.334496847

Rotational constants in cm-1:             0.013933             0.004951             0.004500
Rotational constants in MHz :           417.705942           148.416868           134.906074

                             ****ORCA TERMINATED NORMALLY****
TOTAL RUN TIME: 0 days 0 hours 0 minutes 21 seconds 198 msec
