                         Program Version 6.0.0  -   RELEASE  -
|  1> ! pbe def2-sv(p) def2/J RI DEFGRID1 loosescf d4 GCP(DFT/SV(P)) printgap
|  2> %output
|  3>     printlevel normal
|  4> end
|  5> * xyz 0 1
|  6> C 3.1948903855 -0.016086611 -2.7871104355
|  7> C 1.8085056149 0.3830818278 -2.3294463057
|  8> O 1.3180498045 -0.4665851802 -1.2771617161
|  9> P 1.9632602628 -0.4923681302 0.1707189491
| 10> S 2.6222202727 1.2046755869 0.9088548475
| 11> O 3.0846296155 -1.6064704757 -0.0159393725
| 12> C 4.1649333589 -1.7826892015 0.9158690225
| 13> C 3.6911823021 -2.3265211043 2.2483970287
| 14> S 0.4728954926 -1.5177028085 1.2331357034
| 15> C -0.4437457063 -0.1284345483 1.9863931648
| 16> S -2.1781878047 -0.0888837721 1.496826037
| 17> P -1.93428595 0.7674562629 -0.4346177592
| 18> S -0.5768513657 2.1752316905 -0.5521788012
| 19> O -3.4247258674 1.1359457027 -0.8421654317
| 20> C -4.3672283551 1.8386703965 -0.0094884377
| 21> C -3.8435847079 3.1762364618 0.4685444984
| 22> O -1.6043540599 -0.366641443 -1.4787623281
| 23> C -2.4573658678 -1.503815497 -1.7713144043
| 24> C -1.9694541103 -2.7477669993 -1.0560590598
| 25> H 3.9155353833 0.1702937504 -1.991757778
| 26> H 3.2154405685 -1.0722440926 -3.0430625673
| 27> H 3.4678133199 0.5753298107 -3.6555378054
| 28> H 1.0654324877 0.2687657062 -3.1205998654
| 29> H 1.7956467049 1.4186042978 -1.9718126039
| 30> H 4.8340140588 -2.4804068078 0.4104244293
| 31> H 4.6637130958 -0.8175471001 1.0519469067
| 32> H 3.0877583634 -1.5789475885 2.7612249326
| 33> H 3.0918053399 -3.2211961592 2.1003515792
| 34> H 4.5526359822 -2.5651007661 2.863827658
| 35> H 0.0423989595 0.8099542091 1.7044633889
| 36> H -0.4367666204 -0.2683642152 3.0640280569
| 37> H -5.2373173276 1.9598653958 -0.6572115688
| 38> H -4.6186384962 1.1960281651 0.8384955001
| 39> H -4.6222895468 3.6919589434 1.0209869862
| 40> H -2.9819907562 3.0332640074 1.1192221448
| 41> H -3.5349349454 3.7875783118 -0.3763029277
| 42> H -3.4846162368 -1.2589025328 -1.4961743836
| 43> H -2.3850622687 -1.6173418905 -2.8542766293
| 44> H -0.9157959548 -2.9111365061 -1.269267485
| 45> H -2.0937944479 -2.6544975786 0.0201710309
| 46> H -2.5413579332 -3.6014384288 -1.4056558876
| 47> *
| 48>
| 49>                          ****END OF INPUT****

CARTESIAN COORDINATES (ANGSTROEM)
---------------------------------
  C      3.194890   -0.016087   -2.787110
  C      1.808506    0.383082   -2.329446
  O      1.318050   -0.466585   -1.277162
  P      1.963260   -0.492368    0.170719
  S      2.622220    1.204676    0.908855
  O      3.084630   -1.606470   -0.015939
  C      4.164933   -1.782689    0.915869
  C      3.691182   -2.326521    2.248397
  S      0.472895   -1.517703    1.233136
  C     -0.443746   -0.128435    1.986393
  S     -2.178188   -0.088884    1.496826
  P     -1.934286    0.767456   -0.434618
  S     -0.576851    2.175232   -0.552179
  O     -3.424726    1.135946   -0.842165
  C     -4.367228    1.838670   -0.009488
  C     -3.843585    3.176236    0.468544
  O     -1.604354   -0.366641   -1.478762
  C     -2.457366   -1.503815   -1.771314
  C     -1.969454   -2.747767   -1.056059
  H      3.915535    0.170294   -1.991758
  H      3.215441   -1.072244   -3.043063
  H      3.467813    0.575330   -3.655538
  H      1.065432    0.268766   -3.120600
  H      1.795647    1.418604   -1.971813
  H      4.834014   -2.480407    0.410424
  H      4.663713   -0.817547    1.051947
  H      3.087758   -1.578948    2.761225
  H      3.091805   -3.221196    2.100352
  H      4.552636   -2.565101    2.863828
  H      0.042399    0.809954    1.704463
  H     -0.436767   -0.268364    3.064028
  H     -5.237317    1.959865   -0.657212
  H     -4.618638    1.196028    0.838496
  H     -4.622290    3.691959    1.020987
  H     -2.981991    3.033264    1.119222
  H     -3.534935    3.787578   -0.376303
  H     -3.484616   -1.258903   -1.496174
  H     -2.385062   -1.617342   -2.854277
  H     -0.915796   -2.911137   -1.269267
  H     -2.093794   -2.654498    0.020171
  H     -2.541358   -3.601438   -1.405656

 Total Charge           Charge          ....    0
 Multiplicity           Mult            ....    1
 Number of Electrons    NEL             ....  202
 Basis Dimension        Dim             ....  334

ORBITAL ENERGIES
----------------

  NO   OCC          E(Eh)            E(eV)
   0   2.0000     -88.047310     -2395.8891
   1   2.0000     -88.039716     -2395.6825
   2   2.0000     -87.981153     -2394.0889
   3   2.0000     -87.979028     -2394.0311
   4   2.0000     -76.424877     -2079.6266
   5   2.0000     -76.419742     -2079.4869
   6   2.0000     -18.796362      -511.4750
   7   2.0000     -18.787842      -511.2432
   8   2.0000     -18.787226      -511.2264
   9   2.0000     -18.777782      -510.9694
  10   2.0000      -9.960472      -271.0382
  11   2.0000      -9.955904      -270.9139
  12   2.0000      -9.952790      -270.8292
  13   2.0000      -9.947984      -270.6984
  14   2.0000      -9.936189      -270.3775
  15   2.0000      -9.883316      -268.9387
  16   2.0000      -9.880763      -268.8692
  17   2.0000      -9.879566      -268.8367
  18   2.0000      -9.874561      -268.7005
  19   2.0000      -7.692290      -209.3179
  20   2.0000      -7.684979      -209.1189
  21   2.0000      -7.626017      -207.5145
  22   2.0000      -7.623951      -207.4582
  23   2.0000      -6.422123      -174.7548
  24   2.0000      -6.417305      -174.6238
  25   2.0000      -5.719977      -155.6485
  26   2.0000      -5.716633      -155.5575
  27   2.0000      -5.712862      -155.4549
  28   2.0000      -5.709635      -155.3671
  29   2.0000      -5.709472      -155.3626
  30   2.0000      -5.701836      -155.1548
  31   2.0000      -5.654891      -153.8774
  32   2.0000      -5.653095      -153.8285
  33   2.0000      -5.646796      -153.6571
  34   2.0000      -5.646103      -153.6383
  35   2.0000      -5.644431      -153.5928
  36   2.0000      -5.644002      -153.5811
  37   2.0000      -4.644956      -126.3957
  38   2.0000      -4.644160      -126.3740
  39   2.0000      -4.642114      -126.3183
  40   2.0000      -4.639611      -126.2502
  41   2.0000      -4.638933      -126.2318
  42   2.0000      -4.638139      -126.2102
  43   2.0000      -0.988009       -26.8851
  44   2.0000      -0.978988       -26.6396
  45   2.0000      -0.942955       -25.6591
  46   2.0000      -0.936402       -25.4808
  47   2.0000      -0.762957       -20.7611
  48   2.0000      -0.719266       -19.5722
  49   2.0000      -0.706746       -19.2315
  50   2.0000      -0.689374       -18.7588
  51   2.0000      -0.681971       -18.5574
  52   2.0000      -0.671948       -18.2846
  53   2.0000      -0.648437       -17.6449
  54   2.0000      -0.632119       -17.2008
  55   2.0000      -0.597528       -16.2596
  56   2.0000      -0.587374       -15.9833
  57   2.0000      -0.575321       -15.6553
  58   2.0000      -0.564813       -15.3693
  59   2.0000      -0.560993       -15.2654
  60   2.0000      -0.503226       -13.6935
  61   2.0000      -0.485446       -13.2097
  62   2.0000      -0.471551       -12.8316
  63   2.0000      -0.464715       -12.6455
  64   2.0000      -0.452779       -12.3208
  65   2.0000      -0.444079       -12.0840
  66   2.0000      -0.438192       -11.9238
  67   2.0000      -0.433962       -11.8087
  68   2.0000      -0.430123       -11.7042
  69   2.0000      -0.414886       -11.2896
  70   2.0000      -0.411494       -11.1973
  71   2.0000      -0.398430       -10.8418
  72   2.0000      -0.386797       -10.5253
  73   2.0000      -0.384004       -10.4493
  74   2.0000      -0.380686       -10.3590
  75   2.0000      -0.375108       -10.2072
  76   2.0000      -0.355081        -9.6622
  77   2.0000      -0.353544        -9.6204
  78   2.0000      -0.348570        -9.4851
  79   2.0000      -0.344584        -9.3766
  80   2.0000      -0.343441        -9.3455
  81   2.0000      -0.342348        -9.3158
  82   2.0000      -0.340799        -9.2736
  83   2.0000      -0.334813        -9.1107
  84   2.0000      -0.330762        -9.0005
  85   2.0000      -0.315888        -8.5958
  86   2.0000      -0.306244        -8.3333
  87   2.0000      -0.298181        -8.1139
  88   2.0000      -0.292660        -7.9637
  89   2.0000      -0.289726        -7.8839
  90   2.0000      -0.277012        -7.5379
  91   2.0000      -0.270349        -7.3566
  92   2.0000      -0.263985        -7.1834
  93   2.0000      -0.262559        -7.1446
  94   2.0000      -0.255914        -6.9638
  95   2.0000      -0.235732        -6.4146
  96   2.0000      -0.219779        -5.9805
  97   2.0000      -0.211640        -5.7590
  98   2.0000      -0.200236        -5.4487
  99   2.0000      -0.191880        -5.2213
 100   2.0000      -0.184039        -5.0080
 101   0.0000      -0.039772        -1.0822
 102   0.0000      -0.030281        -0.8240
 103   0.0000      -0.013939        -0.3793
 104   0.0000       0.013154         0.3579
 105   0.0000       0.018316         0.4984

MULLIKEN ATOMIC CHARGES
-----------------------
   0 C :   -0.300424
   1 C :   -0.002830
   2 O :   -0.353457
   3 P :    0.611665
   4 S :   -0.321060
   5 O :   -0.375851
   6 C :   -0.004597
   7 C :   -0.309048
   8 S :   -0.090811
   9 C :   -0.350753
  10 S :   -0.127496
  11 P :    0.601730
  12 S :   -0.293168
  13 O :   -0.380991
  14 C :   -0.014074
  15 C :   -0.306489
  16 O :   -0.343767
  17 C :   -0.012017
  18 C :   -0.289448
  19 H :    0.118413
  20 H :    0.110883
  21 H :    0.108489
  22 H :    0.100184
  23 H :    0.121976
  24 H :    0.102984
  25 H :    0.109326
  26 H :    0.121791
  27 H :    0.116057
  28 H :    0.110774
  29 H :    0.212954
  30 H :    0.183145
  31 H :    0.109295
  32 H :    0.113752
  33 H :    0.110846
  34 H :    0.127213
  35 H :    0.127301
  36 H :    0.099100
  37 H :    0.107530
  38 H :    0.125437
  39 H :    0.121497
  40 H :    0.103938
Sum of atomic charges:   -0.0000000

LOEWDIN ATOMIC CHARGES
----------------------
   0 C :   -0.365613
   1 C :   -0.120068
   2 O :   -0.231882
   3 P :    0.570006
   4 S :   -0.315922
   5 O :   -0.245672
   6 C :   -0.120700
   7 C :   -0.369288
   8 S :    0.094953
   9 C :   -0.477407
  10 S :    0.064465
  11 P :    0.563038
  12 S :   -0.282991
  13 O :   -0.245533
  14 C :   -0.115363
  15 C :   -0.368737
  16 O :   -0.228504
  17 C :   -0.110818
  18 C :   -0.365221
  19 H :    0.120627
  20 H :    0.123409
  21 H :    0.128656
  22 H :    0.117275
  23 H :    0.109028
  24 H :    0.117508
  25 H :    0.109266
  26 H :    0.120100
  27 H :    0.123238
  28 H :    0.129733
  29 H :    0.127608
  30 H :    0.137315
  31 H :    0.121286
  32 H :    0.107123
  33 H :    0.129920
  34 H :    0.122135
  35 H :    0.131098
  36 H :    0.107134
  37 H :    0.120745
  38 H :    0.127411
  39 H :    0.114178
  40 H :    0.126465

  Mayer bond orders larger than 0.100000
B(  0-C ,  1-C ) :   1.1568 B(  0-C , 19-H ) :   0.9382 B(  0-C , 20-H ) :   0.9449
B(  0-C , 21-H ) :   0.9397 B(  1-C ,  2-O ) :   0.9044 B(  1-C , 22-H ) :   0.9355
B(  1-C , 23-H ) :   0.9127 B(  2-O ,  3-P ) :   1.1440 B(  3-P ,  4-S ) :   1.5960
B(  3-P ,  5-O ) :   1.0941 B(  3-P ,  8-S ) :   0.9685 B(  4-S ,  8-S ) :   0.1137
B(  5-O ,  6-C ) :   0.9123 B(  6-C ,  7-C ) :   1.1678 B(  6-C , 24-H ) :   0.9339
B(  6-C , 25-H ) :   0.9137 B(  7-C , 26-H ) :   0.9365 B(  7-C , 27-H ) :   0.9443
B(  7-C , 28-H ) :   0.9382 B(  8-S ,  9-C ) :   0.9934 B(  9-C , 10-S ) :   1.0116
B(  9-C , 29-H ) :   0.8443 B(  9-C , 30-H ) :   0.9109 B( 10-S , 11-P ) :   0.9265
B( 10-S , 12-S ) :   0.1066 B( 11-P , 12-S ) :   1.6513 B( 11-P , 13-O ) :   1.0844
B( 11-P , 16-O ) :   1.1443 B( 13-O , 14-C ) :   0.9112 B( 14-C , 15-C ) :   1.1671
B( 14-C , 31-H ) :   0.9332 B( 14-C , 32-H ) :   0.9257 B( 15-C , 33-H ) :   0.9350
B( 15-C , 34-H ) :   0.9319 B( 15-C , 35-H ) :   0.9432 B( 16-O , 17-C ) :   0.8965
B( 17-C , 18-C ) :   1.1692 B( 17-C , 36-H ) :   0.9192 B( 17-C , 37-H ) :   0.9353
B( 18-C , 38-H ) :   0.9420 B( 18-C , 39-H ) :   0.9331 B( 18-C , 40-H ) :   0.9371

Dispersion correction           -0.068532795
FINAL SINGLE POINT ENERGY     -2929.518196330167

DIPOLE MOMENT
-------------

Method             : SCF
Type of density    : Electron Density
Multiplicity       :   1
Irrep              :   0
Energy             : -2929.6358654787686646 Eh
Relativity type    :
Basis              : AO
                                X                 Y                 Z
Electronic contribution:     -1.720975386       5.957575920       4.416075912
Nuclear contribution   :      0.780233616      -7.010741350      -4.491471467
                        -----------------------------------------
Total Dipole Moment    :     -0.940741771      -1.053165430      -0.075395555
                        -----------------------------------------
Magnitude (a.u.)       :      1.414155929
Magnitude (Debye)      :      3.594498712

Rotational constants in cm-1:             0.012820             0.005335             0.005188
Rotational constants in MHz :           384.329537           159.929525           155.518612

                             ****ORCA TERMINATED NORMALLY****
TOTAL RUN TIME: 0 days 0 hours 0 minutes 24 seconds 213 msec
