                         Program Version 6.0.0  -   RELEASE  -
|  1> ! r2scan-3c def2/J RI DEFGRID2 scfconv6 printgap
|  2> %output
|  3>     printlevel normal
|  4> end
|  5> * xyz 0 1
|  6> C 4.90933e-05 1.8139604635 -0.0002190515
|  7> C 5.9371e-06 0.4970500667 -0.0022957273
|  8> Cl 1.4414760869 -0.4586368152 0.0002594083
|  9> Cl -1.4414991258 -0.4586009772 0.0002692627
| 10> H -0.9234881796 2.362169934 0.0054152631
| 11> H 0.9236427931 2.3621524625 0.0059558474
| 12> *
| 13>
| 14>                          ****END OF INPUT****

CARTESIAN COORDINATES (ANGSTROEM)
---------------------------------
  C      0.000049    1.813960   -0.000219
  C      0.000006    0.497050   -0.002296
  Cl     1.441476   -0.458637    0.000259
  Cl    -1.441499   -0.458601    0.000269
  H     -0.923488    2.362170    0.005415
  H      0.923643    2.362152    0.005956

 Total Charge           Charge          ....    0
 Multiplicity           Mult            ....    1
 Number of Electrons    NEL             ....   48
 Basis Dimension        Dim             ....  102

ORBITAL ENERGIES
----------------

  NO   OCC          E(Eh)            E(eV)
   0   2.0000    -101.240086     -2754.8828
   1   2.0000    -101.240079     -2754.8826
   2   2.0000     -10.164291      -276.5844
   3   2.0000     -10.055043      -273.6116
   4   2.0000      -9.395955      -255.6769
   5   2.0000      -9.395947      -255.6767
   6   2.0000      -7.142548      -194.3586
   7   2.0000      -7.142546      -194.3586
   8   2.0000      -7.132064      -194.0733
   9   2.0000      -7.132062      -194.0733
  10   2.0000      -7.131532      -194.0589
  11   2.0000      -7.131530      -194.0588
  12   2.0000      -0.893779       -24.3210
  13   2.0000      -0.807223       -21.9656
  14   2.0000      -0.728680       -19.8284
  15   2.0000      -0.549205       -14.9446
  16   2.0000      -0.474358       -12.9079
  17   2.0000      -0.452100       -12.3023
  18   2.0000      -0.389558       -10.6004
  19   2.0000      -0.382662       -10.4128
  20   2.0000      -0.323071        -8.7912
  21   2.0000      -0.310241        -8.4421
  22   2.0000      -0.290817        -7.9135
  23   2.0000      -0.246663        -6.7120
  24   0.0000      -0.049934        -1.3588
  25   0.0000      -0.026850        -0.7306
  26   0.0000       0.016878         0.4593
  27   0.0000       0.107108         2.9146
  28   0.0000       0.149496         4.0680

MULLIKEN ATOMIC CHARGES
-----------------------
   0 C :   -0.318648
   1 C :    0.149867
   2 Cl:   -0.083328
   3 Cl:   -0.083328
   4 H :    0.167717
   5 H :    0.167720
Sum of atomic charges:    0.0000000

LOEWDIN ATOMIC CHARGES
----------------------
   0 C :   -0.331774
   1 C :   -0.293520
   2 Cl:    0.136175
   3 Cl:    0.136174
   4 H :    0.176468
   5 H :    0.176478

  Mayer bond orders larger than 0.100000
B(  0-C ,  1-C ) :   1.7780 B(  0-C ,  4-H ) :   0.9506 B(  0-C ,  5-H ) :   0.9506
B(  1-C ,  2-Cl) :   1.0223 B(  1-C ,  3-Cl) :   1.0223

Dispersion correction           -0.001506372
FINAL SINGLE POINT ENERGY      -997.716358506745

DIPOLE MOMENT
-------------

Method             : SCF
Type of density    : Electron Density
Multiplicity       :   1
Irrep              :   0
Energy             :  -997.7189025075724658 Eh
Relativity type    :
Basis              : AO
                                X                 Y                 Z
Electronic contribution:     -0.000166094      -5.139642084      -0.005522326
Nuclear contribution   :      0.000175978       5.663378195       0.009958522
                        -----------------------------------------
Total Dipole Moment    :      0.000009884       0.523736110       0.004436196
                        -----------------------------------------
Magnitude (a.u.)       :      0.523754898
Magnitude (Debye)      :      1.331279152

Rotational constants in cm-1:             0.245553             0.113097             0.077433
Rotational constants in MHz :          7361.486849          3390.571833          2321.386207

                             ****ORCA TERMINATED NORMALLY****
TOTAL RUN TIME: 0 days 0 hours 0 minutes 8 seconds 336 msec
