                         Program Version 6.0.0  -   RELEASE  -
|  1> ! r2scan-3c def2/J RI DEFGRID2 scfconv6 printgap
|  2> %output
|  3>     printlevel normal
|  4> end
|  5> %cpcm
|  6>     smd true
|  7>     smdsolvent "water"
|  8> end
|  9> * xyz 0 1
| 10> C 4.90933e-05 1.8139604635 -0.0002190515
| 11> C 5.9371e-06 0.4970500667 -0.0022957273
| 12> Cl 1.4414760869 -0.4586368152 0.0002594083
| 13> Cl -1.4414991258 -0.4586009772 0.0002692627
| 14> H -0.9234881796 2.362169934 0.0054152631
| 15> H 0.9236427931 2.3621524625 0.0059558474
| 16> *
| 17>
| 18>                          ****END OF INPUT****

CARTESIAN COORDINATES (ANGSTROEM)
---------------------------------
  C      0.000049    1.813960   -0.000219
  C      0.000006    0.497050   -0.002296
  Cl     1.441476   -0.458637    0.000259
  Cl    -1.441499   -0.458601    0.000269
  H     -0.923488    2.362170    0.005415
  H      0.923643    2.362152    0.005956

 Total Charge           Charge          ....    0
 Multiplicity           Mult            ....    1
 Number of Electrons    NEL             ....   48
 Basis Dimension        Dim             ....  102

ORBITAL ENERGIES
----------------

  NO   OCC          E(Eh)            E(eV)
   0   2.0000    -101.238766     -2754.8469
   1   2.0000    -101.238760     -2754.8467
   2   2.0000     -10.157398      -276.3968
   3   2.0000     -10.046373      -273.3757
   4   2.0000      -9.394781      -255.6450
   5   2.0000      -9.394773      -255.6448
   6   2.0000      -7.141262      -194.3236
   7   2.0000      -7.141260      -194.3236
   8   2.0000      -7.130912      -194.0420
   9   2.0000      -7.130911      -194.0419
  10   2.0000      -7.130418      -194.0285
  11   2.0000      -7.130416      -194.0285
  12   2.0000      -0.891335       -24.2545
  13   2.0000      -0.806101       -21.9351
  14   2.0000      -0.721857       -19.6427
  15   2.0000      -0.543219       -14.7817
  16   2.0000      -0.468497       -12.7484
  17   2.0000      -0.444363       -12.0917
  18   2.0000      -0.387783       -10.5521
  19   2.0000      -0.373302       -10.1581
  20   2.0000      -0.322414        -8.7733
  21   2.0000      -0.310480        -8.4486
  22   2.0000      -0.290334        -7.9004
  23   2.0000      -0.242577        -6.6009
  24   0.0000      -0.043759        -1.1907
  25   0.0000      -0.024897        -0.6775
  26   0.0000       0.022671         0.6169
  27   0.0000       0.110180         2.9981
  28   0.0000       0.166237         4.5236

MULLIKEN ATOMIC CHARGES
-----------------------
   0 C :   -0.342710
   1 C :    0.131098
   2 Cl:   -0.097182
   3 Cl:   -0.097182
   4 H :    0.202985
   5 H :    0.202991
Sum of atomic charges:   -0.0000000

LOEWDIN ATOMIC CHARGES
----------------------
   0 C :   -0.316273
   1 C :   -0.307037
   2 Cl:    0.122345
   3 Cl:    0.122345
   4 H :    0.189304
   5 H :    0.189316

  Mayer bond orders larger than 0.100000
B(  0-C ,  1-C ) :   1.7556 B(  0-C ,  4-H ) :   0.9446 B(  0-C ,  5-H ) :   0.9446
B(  1-C ,  2-Cl) :   1.0150 B(  1-C ,  3-Cl) :   1.0150

Dispersion correction           -0.001506372
FINAL SINGLE POINT ENERGY      -997.715496662655

DIPOLE MOMENT
-------------

Method             : SCF
Type of density    : Electron Density
Multiplicity       :   1
Irrep              :   0
Energy             :  -997.7180406634827250 Eh
Relativity type    :
Basis              : AO
                                X                 Y                 Z
Electronic contribution:     -0.000157429      -4.884933515      -0.004207002
Nuclear contribution   :      0.000175978       5.663378195       0.009958522
                        -----------------------------------------
Total Dipole Moment    :      0.000018549       0.778444679       0.005751520
                        -----------------------------------------
Magnitude (a.u.)       :      0.778465927
Magnitude (Debye)      :      1.978703136

Rotational constants in cm-1:             0.245553             0.113097             0.077433
Rotational constants in MHz :          7361.486849          3390.571833          2321.386207

                             ****ORCA TERMINATED NORMALLY****
TOTAL RUN TIME: 0 days 0 hours 0 minutes 9 seconds 580 msec
