                         Program Version 6.0.0  -   RELEASE  -
|  1> ! r2scan-3c def2/J RI DEFGRID2 scfconv6 printgap
|  2> %output
|  3>     printlevel normal
|  4> end
|  5> * xyz 0 1
|  6> C 0.8563041262 1.3790422725 -0.6269621148
|  7> C 1.5889944885 0.1620506523 -0.0480823084
|  8> H 2.5584787307 0.0592234656 -0.5554463168
|  9> C 0.7703655001 -1.1102963164 -0.3336666744
| 10> H 1.2158730141 -1.9329755455 0.244696564
| 11> C -0.6813169819 -0.9142283276 0.1457678622
| 12> H -1.3089059667 -1.7456212351 -0.1947648453
| 13> C -1.2630601064 0.3894191428 -0.4482104858
| 14> H -1.3130086841 0.3069165832 -1.5460371238
| 15> O -0.4485753919 1.4940749006 -0.0976818392
| 16> O -2.5427018645 0.6250980579 0.0034234811
| 17> O -0.7806999432 -0.8979290349 1.5470107561
| 18> O 0.8411747123 -1.3541206092 -1.7156661754
| 19> O 1.7551919803 0.2513699729 1.3480964906
| 20> H 0.8173715932 1.2765487648 -1.7189841555
| 21> H 1.3585393645 2.3088720301 -0.3582527821
| 22> H -2.5516001464 0.5211113267 0.9714350939
| 23> H -0.0526445596 -0.353393492 1.8981632829
| 24> H 0.5267335135 -2.2484818069 -1.9094917227
| 25> H 2.2610534775 1.0471724213 1.5673277454
| 26> *
| 27>
| 28>                          ****END OF INPUT****

CARTESIAN COORDINATES (ANGSTROEM)
---------------------------------
  C      0.856304    1.379042   -0.626962
  C      1.588994    0.162051   -0.048082
  H      2.558479    0.059223   -0.555446
  C      0.770366   -1.110296   -0.333667
  H      1.215873   -1.932976    0.244697
  C     -0.681317   -0.914228    0.145768
  H     -1.308906   -1.745621   -0.194765
  C     -1.263060    0.389419   -0.448210
  H     -1.313009    0.306917   -1.546037
  O     -0.448575    1.494075   -0.097682
  O     -2.542702    0.625098    0.003423
  O     -0.780700   -0.897929    1.547011
  O      0.841175   -1.354121   -1.715666
  O      1.755192    0.251370    1.348096
  H      0.817372    1.276549   -1.718984
  H      1.358539    2.308872   -0.358253
  H     -2.551600    0.521111    0.971435
  H     -0.052645   -0.353393    1.898163
  H      0.526734   -2.248482   -1.909492
  H      2.261053    1.047172    1.567328

 Total Charge           Charge          ....    0
 Multiplicity           Mult            ....    1
 Number of Electrons    NEL             ....   80
 Basis Dimension        Dim             ....  265

ORBITAL ENERGIES
----------------

  NO   OCC          E(Eh)            E(eV)
   0   2.0000     -18.981629      -516.5164
   1   2.0000     -18.973972      -516.3080
   2   2.0000     -18.957677      -515.8646
   3   2.0000     -18.951940      -515.7085
   4   2.0000     -18.951182      -515.6879
   5   2.0000     -10.124370      -275.4981
   6   2.0000     -10.101845      -274.8852
   7   2.0000     -10.099907      -274.8325
   8   2.0000     -10.087384      -274.4917
   9   2.0000     -10.085146      -274.4308
  10   2.0000      -1.042781       -28.3755
  11   2.0000      -1.019812       -27.7505
  12   2.0000      -1.010597       -27.4997
  13   2.0000      -0.987670       -26.8759
  14   2.0000      -0.970465       -26.4077
  15   2.0000      -0.750681       -20.4271
  16   2.0000      -0.713338       -19.4109
  17   2.0000      -0.634431       -17.2637
  18   2.0000      -0.610566       -16.6143
  19   2.0000      -0.561943       -15.2912
  20   2.0000      -0.527490       -14.3537
  21   2.0000      -0.513704       -13.9786
  22   2.0000      -0.484779       -13.1915
  23   2.0000      -0.461286       -12.5522
  24   2.0000      -0.450630       -12.2623
  25   2.0000      -0.441895       -12.0246
  26   2.0000      -0.438865       -11.9421
  27   2.0000      -0.409724       -11.1492
  28   2.0000      -0.393605       -10.7105
  29   2.0000      -0.371034       -10.0963
  30   2.0000      -0.349798        -9.5185
  31   2.0000      -0.344395        -9.3715
  32   2.0000      -0.320383        -8.7181
  33   2.0000      -0.315603        -8.5880
  34   2.0000      -0.295227        -8.0335
  35   2.0000      -0.272904        -7.4261
  36   2.0000      -0.267247        -7.2722
  37   2.0000      -0.260799        -7.0967
  38   2.0000      -0.245504        -6.6805
  39   2.0000      -0.213417        -5.8074
  40   0.0000       0.022555         0.6138
  41   0.0000       0.050201         1.3660
  42   0.0000       0.070141         1.9086
  43   0.0000       0.091047         2.4775
  44   0.0000       0.102777         2.7967

MULLIKEN ATOMIC CHARGES
-----------------------
   0 C :   -0.300693
   1 C :    0.013084
   2 H :    0.149041
   3 C :   -0.045264
   4 H :    0.148287
   5 C :   -0.041739
   6 H :    0.155904
   7 C :   -0.009409
   8 H :    0.145093
   9 O :   -0.180921
  10 O :   -0.377379
  11 O :   -0.428788
  12 O :   -0.409666
  13 O :   -0.412095
  14 H :    0.173151
  15 H :    0.149926
  16 H :    0.323102
  17 H :    0.342947
  18 H :    0.304350
  19 H :    0.301068
Sum of atomic charges:   -0.0000000

LOEWDIN ATOMIC CHARGES
----------------------
   0 C :    0.040642
   1 C :    0.102173
   2 H :    0.183089
   3 C :    0.119382
   4 H :    0.185205
   5 C :    0.103645
   6 H :    0.192215
   7 C :    0.280844
   8 H :    0.197457
   9 O :   -0.676462
  10 O :   -0.481473
  11 O :   -0.566905
  12 O :   -0.585591
  13 O :   -0.593243
  14 H :    0.184626
  15 H :    0.183330
  16 H :    0.287199
  17 H :    0.288679
  18 H :    0.276702
  19 H :    0.278486

  Mayer bond orders larger than 0.100000
B(  0-C ,  1-C ) :   0.9040 B(  0-C ,  9-O ) :   0.9188 B(  0-C , 14-H ) :   0.9757
B(  0-C , 15-H ) :   0.9627 B(  1-C ,  2-H ) :   0.9361 B(  1-C ,  3-C ) :   0.9581
B(  1-C , 13-O ) :   0.9178 B(  3-C ,  4-H ) :   0.9663 B(  3-C ,  5-C ) :   0.8656
B(  3-C , 12-O ) :   0.9654 B(  5-C ,  6-H ) :   0.9729 B(  5-C ,  7-C ) :   0.8787
B(  5-C , 11-O ) :   0.9964 B(  7-C ,  8-H ) :   0.9844 B(  7-C ,  9-O ) :   0.9075
B(  7-C , 10-O ) :   1.1362 B( 10-O , 16-H ) :   0.8540 B( 11-O , 17-H ) :   0.8300
B( 12-O , 18-H ) :   0.8943 B( 13-O , 19-H ) :   0.8947

Dispersion correction           -0.006467081
FINAL SINGLE POINT ENERGY      -572.562002002078

DIPOLE MOMENT
-------------

Method             : SCF
Type of density    : Electron Density
Multiplicity       :   1
Irrep              :   0
Energy             :  -572.5726409635619802 Eh
Relativity type    :
Basis              : AO
                                X                 Y                 Z
Electronic contribution:     -2.019798084       0.446381996       1.310954078
Nuclear contribution   :      3.277334500      -0.711842562      -1.486266285
                        -----------------------------------------
Total Dipole Moment    :      1.257536416      -0.265460566      -0.175312207
                        -----------------------------------------
Magnitude (a.u.)       :      1.297151309
Magnitude (Debye)      :      3.297096604

Rotational constants in cm-1:             0.058111             0.040684             0.038754
Rotational constants in MHz :          1742.129184          1219.670926          1161.819054

                             ****ORCA TERMINATED NORMALLY****
TOTAL RUN TIME: 0 days 0 hours 0 minutes 45 seconds 655 msec
