                         Program Version 6.0.0  -   RELEASE  -
|  1> ! r2scan-3c def2/J RI DEFGRID2 scfconv6 printgap
|  2> %output
|  3>     printlevel normal
|  4> end
|  5> %cpcm
|  6>     smd true
|  7>     smdsolvent "water"
|  8> end
|  9> * xyz 0 1
| 10> C 0.8563041262 1.3790422725 -0.6269621148
| 11> C 1.5889944885 0.1620506523 -0.0480823084
| 12> H 2.5584787307 0.0592234656 -0.5554463168
| 13> C 0.7703655001 -1.1102963164 -0.3336666744
| 14> H 1.2158730141 -1.9329755455 0.244696564
| 15> C -0.6813169819 -0.9142283276 0.1457678622
| 16> H -1.3089059667 -1.7456212351 -0.1947648453
| 17> C -1.2630601064 0.3894191428 -0.4482104858
| 18> H -1.3130086841 0.3069165832 -1.5460371238
| 19> O -0.4485753919 1.4940749006 -0.0976818392
| 20> O -2.5427018645 0.6250980579 0.0034234811
| 21> O -0.7806999432 -0.8979290349 1.5470107561
| 22> O 0.8411747123 -1.3541206092 -1.7156661754
| 23> O 1.7551919803 0.2513699729 1.3480964906
| 24> H 0.8173715932 1.2765487648 -1.7189841555
| 25> H 1.3585393645 2.3088720301 -0.3582527821
| 26> H -2.5516001464 0.5211113267 0.9714350939
| 27> H -0.0526445596 -0.353393492 1.8981632829
| 28> H 0.5267335135 -2.2484818069 -1.9094917227
| 29> H 2.2610534775 1.0471724213 1.5673277454
| 30> *
| 31>
| 32>                          ****END OF INPUT****

CARTESIAN COORDINATES (ANGSTROEM)
---------------------------------
  C      0.856304    1.379042   -0.626962
  C      1.588994    0.162051   -0.048082
  H      2.558479    0.059223   -0.555446
  C      0.770366   -1.110296   -0.333667
  H      1.215873   -1.932976    0.244697
  C     -0.681317   -0.914228    0.145768
  H     -1.308906   -1.745621   -0.194765
  C     -1.263060    0.389419   -0.448210
  H     -1.313009    0.306917   -1.546037
  O     -0.448575    1.494075   -0.097682
  O     -2.542702    0.625098    0.003423
  O     -0.780700   -0.897929    1.547011
  O      0.841175   -1.354121   -1.715666
  O      1.755192    0.251370    1.348096
  H      0.817372    1.276549   -1.718984
  H      1.358539    2.308872   -0.358253
  H     -2.551600    0.521111    0.971435
  H     -0.052645   -0.353393    1.898163
  H      0.526734   -2.248482   -1.909492
  H      2.261053    1.047172    1.567328

 Total Charge           Charge          ....    0
 Multiplicity           Mult            ....    1
 Number of Electrons    NEL             ....   80
 Basis Dimension        Dim             ....  265

ORBITAL ENERGIES
----------------

  NO   OCC          E(Eh)            E(eV)
   0   2.0000     -18.966677      -516.1095
   1   2.0000     -18.966433      -516.1029
   2   2.0000     -18.965033      -516.0648
   3   2.0000     -18.963117      -516.0126
   4   2.0000     -18.957967      -515.8725
   5   2.0000     -10.128328      -275.6058
   6   2.0000     -10.089481      -274.5487
   7   2.0000     -10.087916      -274.5061
   8   2.0000     -10.082268      -274.3524
   9   2.0000     -10.076635      -274.1992
  10   2.0000      -1.048740       -28.5377
  11   2.0000      -1.010920       -27.5085
  12   2.0000      -0.997952       -27.1557
  13   2.0000      -0.992618       -27.0105
  14   2.0000      -0.979098       -26.6426
  15   2.0000      -0.740857       -20.1597
  16   2.0000      -0.710583       -19.3360
  17   2.0000      -0.627747       -17.0819
  18   2.0000      -0.609268       -16.5790
  19   2.0000      -0.553509       -15.0617
  20   2.0000      -0.521717       -14.1966
  21   2.0000      -0.513084       -13.9617
  22   2.0000      -0.477452       -12.9921
  23   2.0000      -0.460719       -12.5368
  24   2.0000      -0.445347       -12.1185
  25   2.0000      -0.439298       -11.9539
  26   2.0000      -0.431823       -11.7505
  27   2.0000      -0.405445       -11.0327
  28   2.0000      -0.389671       -10.6035
  29   2.0000      -0.365491        -9.9455
  30   2.0000      -0.351525        -9.5655
  31   2.0000      -0.339270        -9.2320
  32   2.0000      -0.325692        -8.8625
  33   2.0000      -0.321184        -8.7399
  34   2.0000      -0.296823        -8.0770
  35   2.0000      -0.280175        -7.6240
  36   2.0000      -0.267707        -7.2847
  37   2.0000      -0.255983        -6.9656
  38   2.0000      -0.245983        -6.6935
  39   2.0000      -0.216629        -5.8948
  40   0.0000       0.041928         1.1409
  41   0.0000       0.070898         1.9292
  42   0.0000       0.083416         2.2699
  43   0.0000       0.104577         2.8457
  44   0.0000       0.110801         3.0151

MULLIKEN ATOMIC CHARGES
-----------------------
   0 C :   -0.297157
   1 C :    0.022027
   2 H :    0.171956
   3 C :   -0.053940
   4 H :    0.173534
   5 C :   -0.019564
   6 H :    0.179051
   7 C :   -0.027323
   8 H :    0.167386
   9 O :   -0.248656
  10 O :   -0.445406
  11 O :   -0.483836
  12 O :   -0.471085
  13 O :   -0.469806
  14 H :    0.184387
  15 H :    0.179543
  16 H :    0.362263
  17 H :    0.369537
  18 H :    0.354734
  19 H :    0.352356
Sum of atomic charges:   -0.0000000

LOEWDIN ATOMIC CHARGES
----------------------
   0 C :    0.046586
   1 C :    0.106431
   2 H :    0.192250
   3 C :    0.122218
   4 H :    0.192415
   5 C :    0.107379
   6 H :    0.203349
   7 C :    0.277093
   8 H :    0.206699
   9 O :   -0.711638
  10 O :   -0.514569
  11 O :   -0.594009
  12 O :   -0.602083
  13 O :   -0.604258
  14 H :    0.189614
  15 H :    0.197154
  16 H :    0.298827
  17 H :    0.293682
  18 H :    0.295561
  19 H :    0.297300

  Mayer bond orders larger than 0.100000
B(  0-C ,  1-C ) :   0.8890 B(  0-C ,  9-O ) :   0.9007 B(  0-C , 14-H ) :   0.9722
B(  0-C , 15-H ) :   0.9480 B(  1-C ,  2-H ) :   0.9434 B(  1-C ,  3-C ) :   0.9351
B(  1-C , 13-O ) :   0.9225 B(  3-C ,  4-H ) :   0.9788 B(  3-C ,  5-C ) :   0.8631
B(  3-C , 12-O ) :   0.9633 B(  5-C ,  6-H ) :   0.9541 B(  5-C ,  7-C ) :   0.8878
B(  5-C , 11-O ) :   0.9735 B(  7-C ,  8-H ) :   0.9814 B(  7-C ,  9-O ) :   0.9095
B(  7-C , 10-O ) :   1.1070 B( 10-O , 16-H ) :   0.8349 B( 11-O , 17-H ) :   0.8136
B( 12-O , 18-H ) :   0.8677 B( 13-O , 19-H ) :   0.8687

Dispersion correction           -0.006467081
FINAL SINGLE POINT ENERGY      -572.590324908621

DIPOLE MOMENT
-------------

Method             : SCF
Type of density    : Electron Density
Multiplicity       :   1
Irrep              :   0
Energy             :  -572.6009638701057156 Eh
Relativity type    :
Basis              : AO
                                X                 Y                 Z
Electronic contribution:     -1.580959160       0.304923942       1.198251999
Nuclear contribution   :      3.277334500      -0.711842562      -1.486266285
                        -----------------------------------------
Total Dipole Moment    :      1.696375340      -0.406918620      -0.288014286
                        -----------------------------------------
Magnitude (a.u.)       :      1.768113200
Magnitude (Debye)      :      4.494186595

Rotational constants in cm-1:             0.058111             0.040684             0.038754
Rotational constants in MHz :          1742.129184          1219.670926          1161.819054

                             ****ORCA TERMINATED NORMALLY****
TOTAL RUN TIME: 0 days 0 hours 0 minutes 50 seconds 550 msec
