                         Program Version 6.0.0  -   RELEASE  -
|  1> ! pbe def2-sv(p) def2/J RI DEFGRID1 loosescf d4 GCP(DFT/SV(P)) printgap
|  2> %output
|  3>     printlevel normal
|  4> end
|  5> * xyz 0 1
|  6> C 3.5775866384 2.4469456487 -0.4009054545
|  7> C 2.1018523438 2.2217219326 -0.1515215514
|  8> O 1.7173295798 0.870130028 -0.4701617899
|  9> P 2.1792567385 -0.3652382224 0.4086170161
| 10> S 2.4829375116 0.0634285438 2.301253486
| 11> O 3.4220814236 -0.8825201487 -0.4336432527
| 12> C 3.9582969155 -2.2176349238 -0.4106966856
| 13> C 4.2441731493 -2.7169709313 0.99062614
| 14> S 0.6769791774 -1.7899323573 -0.0012107369
| 15> C -0.4607259932 -1.2625657328 1.3111332678
| 16> S -1.0667885743 0.4351198323 1.1390051137
| 17> P -2.1751948508 0.2026650416 -0.6882523891
| 18> S -1.2086316858 -0.0394345691 -2.371037888
| 19> O -3.1723330195 1.4380650111 -0.6006630011
| 20> C -2.7750323732 2.7963964786 -0.3426987072
| 21> C -1.782628848 3.3156809772 -1.3614754347
| 22> O -3.1189088732 -1.0341721551 -0.4384903755
| 23> C -4.1243526667 -1.092166485 0.6061641272
| 24> C -5.4841261608 -0.7158975168 0.0545144696
| 25> H 3.8230248264 3.4865260794 -0.20838165
| 26> H 4.1612669295 1.8120038941 0.2652972424
| 27> H 3.8256778619 2.1964353058 -1.4289856101
| 28> H 1.4826338513 2.8349253174 -0.8078136559
| 29> H 1.847002442 2.4186294799 0.895427815
| 30> H 3.249451304 -2.8767379132 -0.9207161646
| 31> H 4.8732352036 -2.135505732 -1.0004298934
| 32> H 4.7206379605 -3.6904417234 0.9343900486
| 33> H 4.8989632562 -2.0247223122 1.5146781814
| 34> H 3.3160381215 -2.8081791161 1.5535973462
| 35> H 0.0598134452 -1.2861063393 2.269335495
| 36> H -1.291055827 -1.9640922508 1.2937209429
| 37> H -3.7134483385 3.3524995898 -0.3802654687
| 38> H -2.3548200453 2.8447424331 0.6664390875
| 39> H -0.8682467982 2.7248695871 -1.3203916996
| 40> H -2.1921251056 3.2366508276 -2.3655600882
| 41> H -1.5488365643 4.3530480803 -1.1450970853
| 42> H -4.1104895478 -2.1303562156 0.9438517869
| 43> H -3.8316201478 -0.4283994728 1.4240412085
| 44> H -5.4776441088 0.313190833 -0.2940894578
| 45> H -5.7388496094 -1.3644611832 -0.7791275094
| 46> H -6.2284222371 -0.8269236041 0.8368987252
| 47> *
| 48>
| 49>                          ****END OF INPUT****

CARTESIAN COORDINATES (ANGSTROEM)
---------------------------------
  C      3.577587    2.446946   -0.400905
  C      2.101852    2.221722   -0.151522
  O      1.717330    0.870130   -0.470162
  P      2.179257   -0.365238    0.408617
  S      2.482938    0.063429    2.301253
  O      3.422081   -0.882520   -0.433643
  C      3.958297   -2.217635   -0.410697
  C      4.244173   -2.716971    0.990626
  S      0.676979   -1.789932   -0.001211
  C     -0.460726   -1.262566    1.311133
  S     -1.066789    0.435120    1.139005
  P     -2.175195    0.202665   -0.688252
  S     -1.208632   -0.039435   -2.371038
  O     -3.172333    1.438065   -0.600663
  C     -2.775032    2.796396   -0.342699
  C     -1.782629    3.315681   -1.361475
  O     -3.118909   -1.034172   -0.438490
  C     -4.124353   -1.092166    0.606164
  C     -5.484126   -0.715898    0.054514
  H      3.823025    3.486526   -0.208382
  H      4.161267    1.812004    0.265297
  H      3.825678    2.196435   -1.428986
  H      1.482634    2.834925   -0.807814
  H      1.847002    2.418629    0.895428
  H      3.249451   -2.876738   -0.920716
  H      4.873235   -2.135506   -1.000430
  H      4.720638   -3.690442    0.934390
  H      4.898963   -2.024722    1.514678
  H      3.316038   -2.808179    1.553597
  H      0.059813   -1.286106    2.269335
  H     -1.291056   -1.964092    1.293721
  H     -3.713448    3.352500   -0.380265
  H     -2.354820    2.844742    0.666439
  H     -0.868247    2.724870   -1.320392
  H     -2.192125    3.236651   -2.365560
  H     -1.548837    4.353048   -1.145097
  H     -4.110490   -2.130356    0.943852
  H     -3.831620   -0.428399    1.424041
  H     -5.477644    0.313191   -0.294089
  H     -5.738850   -1.364461   -0.779128
  H     -6.228422   -0.826924    0.836899

 Total Charge           Charge          ....    0
 Multiplicity           Mult            ....    1
 Number of Electrons    NEL             ....  202
 Basis Dimension        Dim             ....  334

ORBITAL ENERGIES
----------------

  NO   OCC          E(Eh)            E(eV)
   0   2.0000     -88.041973     -2395.7439
   1   2.0000     -88.040362     -2395.7000
   2   2.0000     -87.983750     -2394.1596
   3   2.0000     -87.974184     -2393.8993
   4   2.0000     -76.424119     -2079.6060
   5   2.0000     -76.423474     -2079.5884
   6   2.0000     -18.794253      -511.4176
   7   2.0000     -18.793401      -511.3944
   8   2.0000     -18.790247      -511.3086
   9   2.0000     -18.781295      -511.0650
  10   2.0000      -9.961621      -271.0695
  11   2.0000      -9.960046      -271.0266
  12   2.0000      -9.958708      -270.9902
  13   2.0000      -9.956336      -270.9257
  14   2.0000      -9.944194      -270.5953
  15   2.0000      -9.887973      -269.0654
  16   2.0000      -9.885256      -268.9915
  17   2.0000      -9.882124      -268.9063
  18   2.0000      -9.877573      -268.7824
  19   2.0000      -7.686404      -209.1577
  20   2.0000      -7.685590      -209.1355
  21   2.0000      -7.628759      -207.5891
  22   2.0000      -7.619496      -207.3370
  23   2.0000      -6.421232      -174.7306
  24   2.0000      -6.420619      -174.7139
  25   2.0000      -5.714152      -155.4900
  26   2.0000      -5.713427      -155.4703
  27   2.0000      -5.710957      -155.4030
  28   2.0000      -5.710142      -155.3809
  29   2.0000      -5.703569      -155.2020
  30   2.0000      -5.702476      -155.1722
  31   2.0000      -5.657546      -153.9497
  32   2.0000      -5.649561      -153.7324
  33   2.0000      -5.648874      -153.7137
  34   2.0000      -5.648769      -153.7108
  35   2.0000      -5.639871      -153.4687
  36   2.0000      -5.639534      -153.4595
  37   2.0000      -4.643796      -126.3641
  38   2.0000      -4.643721      -126.3621
  39   2.0000      -4.643111      -126.3455
  40   2.0000      -4.642719      -126.3348
  41   2.0000      -4.641743      -126.3082
  42   2.0000      -4.640230      -126.2671
  43   2.0000      -0.989701       -26.9311
  44   2.0000      -0.982008       -26.7218
  45   2.0000      -0.947486       -25.7824
  46   2.0000      -0.940278       -25.5863
  47   2.0000      -0.763610       -20.7789
  48   2.0000      -0.719773       -19.5860
  49   2.0000      -0.708899       -19.2901
  50   2.0000      -0.693893       -18.8818
  51   2.0000      -0.684264       -18.6198
  52   2.0000      -0.672186       -18.2911
  53   2.0000      -0.649454       -17.6725
  54   2.0000      -0.638616       -17.3776
  55   2.0000      -0.594310       -16.1720
  56   2.0000      -0.586577       -15.9616
  57   2.0000      -0.577786       -15.7224
  58   2.0000      -0.573151       -15.5962
  59   2.0000      -0.564269       -15.3545
  60   2.0000      -0.507776       -13.8173
  61   2.0000      -0.490608       -13.3501
  62   2.0000      -0.477409       -12.9910
  63   2.0000      -0.465939       -12.6789
  64   2.0000      -0.461536       -12.5590
  65   2.0000      -0.448492       -12.2041
  66   2.0000      -0.438897       -11.9430
  67   2.0000      -0.434971       -11.8362
  68   2.0000      -0.429652       -11.6914
  69   2.0000      -0.414780       -11.2867
  70   2.0000      -0.411496       -11.1974
  71   2.0000      -0.399222       -10.8634
  72   2.0000      -0.391602       -10.6560
  73   2.0000      -0.387387       -10.5413
  74   2.0000      -0.383559       -10.4372
  75   2.0000      -0.375618       -10.2211
  76   2.0000      -0.362187        -9.8556
  77   2.0000      -0.357444        -9.7265
  78   2.0000      -0.353334        -9.6147
  79   2.0000      -0.348563        -9.4849
  80   2.0000      -0.345662        -9.4059
  81   2.0000      -0.343569        -9.3490
  82   2.0000      -0.340109        -9.2548
  83   2.0000      -0.338663        -9.2155
  84   2.0000      -0.332666        -9.0523
  85   2.0000      -0.322512        -8.7760
  86   2.0000      -0.312717        -8.5095
  87   2.0000      -0.298164        -8.1134
  88   2.0000      -0.294360        -8.0099
  89   2.0000      -0.292440        -7.9577
  90   2.0000      -0.282967        -7.6999
  91   2.0000      -0.279538        -7.6066
  92   2.0000      -0.269579        -7.3356
  93   2.0000      -0.262217        -7.1353
  94   2.0000      -0.256184        -6.9711
  95   2.0000      -0.235761        -6.4154
  96   2.0000      -0.217526        -5.9192
  97   2.0000      -0.205374        -5.5885
  98   2.0000      -0.199028        -5.4158
  99   2.0000      -0.190308        -5.1785
 100   2.0000      -0.181353        -4.9349
 101   0.0000      -0.045964        -1.2507
 102   0.0000      -0.020361        -0.5541
 103   0.0000      -0.014705        -0.4001
 104   0.0000      -0.000110        -0.0030
 105   0.0000       0.017391         0.4732

MULLIKEN ATOMIC CHARGES
-----------------------
   0 C :   -0.298324
   1 C :   -0.021246
   2 O :   -0.346977
   3 P :    0.615473
   4 S :   -0.343223
   5 O :   -0.371618
   6 C :   -0.011257
   7 C :   -0.310122
   8 S :   -0.069887
   9 C :   -0.347056
  10 S :   -0.116273
  11 P :    0.586753
  12 S :   -0.283560
  13 O :   -0.381080
  14 C :   -0.017697
  15 C :   -0.335647
  16 O :   -0.360488
  17 C :   -0.023176
  18 C :   -0.282766
  19 H :    0.107217
  20 H :    0.122038
  21 H :    0.117279
  22 H :    0.112799
  23 H :    0.109230
  24 H :    0.116530
  25 H :    0.109863
  26 H :    0.110923
  27 H :    0.125759
  28 H :    0.123240
  29 H :    0.193618
  30 H :    0.184718
  31 H :    0.109999
  32 H :    0.117278
  33 H :    0.158001
  34 H :    0.126860
  35 H :    0.110598
  36 H :    0.108359
  37 H :    0.100009
  38 H :    0.123745
  39 H :    0.121486
  40 H :    0.108625
Sum of atomic charges:    0.0000000

LOEWDIN ATOMIC CHARGES
----------------------
   0 C :   -0.364076
   1 C :   -0.121146
   2 O :   -0.231328
   3 P :    0.575578
   4 S :   -0.327872
   5 O :   -0.242435
   6 C :   -0.113240
   7 C :   -0.370225
   8 S :    0.096918
   9 C :   -0.476181
  10 S :    0.063476
  11 P :    0.559211
  12 S :   -0.297777
  13 O :   -0.247591
  14 C :   -0.115253
  15 C :   -0.371325
  16 O :   -0.238229
  17 C :   -0.118616
  18 C :   -0.357361
  19 H :    0.128388
  20 H :    0.121942
  21 H :    0.126812
  22 H :    0.116250
  23 H :    0.107202
  24 H :    0.111087
  25 H :    0.121932
  26 H :    0.129708
  27 H :    0.129309
  28 H :    0.119833
  29 H :    0.131505
  30 H :    0.130743
  31 H :    0.121185
  32 H :    0.107097
  33 H :    0.124878
  34 H :    0.131891
  35 H :    0.128985
  36 H :    0.117932
  37 H :    0.104395
  38 H :    0.127550
  39 H :    0.129686
  40 H :    0.129161

  Mayer bond orders larger than 0.100000
B(  0-C ,  1-C ) :   1.1672 B(  0-C , 19-H ) :   0.9396 B(  0-C , 20-H ) :   0.9344
B(  0-C , 21-H ) :   0.9460 B(  1-C ,  2-O ) :   0.9098 B(  1-C , 22-H ) :   0.9213
B(  1-C , 23-H ) :   0.9130 B(  2-O ,  3-P ) :   1.1374 B(  3-P ,  4-S ) :   1.5821
B(  3-P ,  5-O ) :   1.1134 B(  3-P ,  8-S ) :   0.9580 B(  4-S ,  8-S ) :   0.1099
B(  5-O ,  6-C ) :   0.9147 B(  6-C ,  7-C ) :   1.1634 B(  6-C , 24-H ) :   0.9282
B(  6-C , 25-H ) :   0.9344 B(  7-C , 26-H ) :   0.9350 B(  7-C , 27-H ) :   0.9426
B(  7-C , 28-H ) :   0.9327 B(  8-S ,  9-C ) :   1.0130 B(  9-C , 10-S ) :   1.0042
B(  9-C , 29-H ) :   0.8818 B(  9-C , 30-H ) :   0.9006 B( 10-S , 11-P ) :   0.9254
B( 10-S , 12-S ) :   0.1144 B( 11-P , 12-S ) :   1.7130 B( 11-P , 13-O ) :   1.0621
B( 11-P , 16-O ) :   1.1147 B( 13-O , 14-C ) :   0.9185 B( 14-C , 15-C ) :   1.1635
B( 14-C , 31-H ) :   0.9334 B( 14-C , 32-H ) :   0.9221 B( 15-C , 33-H ) :   0.9161
B( 15-C , 34-H ) :   0.9408 B( 15-C , 35-H ) :   0.9356 B( 16-O , 17-C ) :   0.8919
B( 17-C , 18-C ) :   1.1700 B( 17-C , 36-H ) :   0.9322 B( 17-C , 37-H ) :   0.9099
B( 18-C , 38-H ) :   0.9421 B( 18-C , 39-H ) :   0.9471 B( 18-C , 40-H ) :   0.9397

Dispersion correction           -0.066496660
FINAL SINGLE POINT ENERGY     -2929.510903129331

DIPOLE MOMENT
-------------

Method             : SCF
Type of density    : Electron Density
Multiplicity       :   1
Irrep              :   0
Energy             : -2929.6291202573638657 Eh
Relativity type    :
Basis              : AO
                                X                 Y                 Z
Electronic contribution:      0.464712928      -7.508831958      -1.444735251
Nuclear contribution   :     -1.076229154       7.730227277       2.016615394
                        -----------------------------------------
Total Dipole Moment    :     -0.611516226       0.221395319       0.571880143
                        -----------------------------------------
Magnitude (a.u.)       :      0.866033994
Magnitude (Debye)      :      2.201283475

Rotational constants in cm-1:             0.012985             0.005105             0.004535
Rotational constants in MHz :           389.274191           153.036806           135.961087

                             ****ORCA TERMINATED NORMALLY****
TOTAL RUN TIME: 0 days 0 hours 0 minutes 21 seconds 322 msec
