                         Program Version 6.0.0  -   RELEASE  -
|  1> ! pbe def2-sv(p) def2/J RI DEFGRID1 loosescf d4 GCP(DFT/SV(P)) printgap
|  2> %output
|  3>     printlevel normal
|  4> end
|  5> * xyz 0 1
|  6> C 3.2335651314 -0.8712908947 -3.1652307689
|  7> C 4.0934045393 -0.7362095117 -1.9267052591
|  8> O 3.5583852075 0.2010586114 -0.9715408048
|  9> P 2.0723538037 0.1970440494 -0.4092180257
| 10> S 0.7109872553 1.0098533917 -1.559203003
| 11> O 2.2247425755 1.0671151815 0.89424412
| 12> C 3.2276423938 0.8832622758 1.9240351753
| 13> C 2.6747558853 0.0810667033 3.086230228
| 14> S 1.8532129705 -1.8475207051 0.1549992891
| 15> C 0.2018577117 -1.8349098605 0.896441323
| 16> S -1.1369948351 -1.6055910114 -0.3163678095
| 17> P -1.9520486975 0.193571938 0.4286906228
| 18> S -0.9245413147 1.198741644 1.75316726
| 19> O -3.3000063187 -0.4459622371 1.0237806589
| 20> C -4.0475319567 0.1792538099 2.0821181433
| 21> C -4.7884367789 1.4117157856 1.6026145797
| 22> O -2.3987452898 1.0956142128 -0.792379653
| 23> C -3.3378107901 0.6890543478 -1.8159182776
| 24> C -2.6427360905 -0.0036048374 -2.9708990145
| 25> H 3.0745205136 0.1014815045 -3.624809984
| 26> H 3.724068575 -1.5304068981 -3.8741133928
| 27> H 2.2618565693 -1.2889406876 -2.9044318525
| 28> H 5.075355385 -0.3235243417 -2.1651815689
| 29> H 4.2055260964 -1.701890437 -1.4263623269
| 30> H 4.1065662966 0.4077112339 1.4848659251
| 31> H 3.4721428925 1.9012320927 2.2316825139
| 32> H 2.5451490755 -0.9631580257 2.8125459003
| 33> H 3.36792826 0.1433897825 3.9189616689
| 34> H 1.7147836796 0.4937995688 3.3903512661
| 35> H 0.1367862617 -1.0358337887 1.6397641184
| 36> H 0.0815555567 -2.8152182135 1.3499014848
| 37> H -4.7317287421 -0.6011397063 2.4178615832
| 38> H -3.3535018577 0.4397716856 2.8876082361
| 39> H -5.3598078187 1.8294336 2.4256127781
| 40> H -4.0749068389 2.1586329157 1.2541979725
| 41> H -5.4628718121 1.1605728718 0.7879475331
| 42> H -4.096472723 0.0442651122 -1.3642125531
| 43> H -3.7869633045 1.6310015793 -2.1358881448
| 44> H -3.3356497667 -0.0910798357 -3.8016373478
| 45> H -1.7771174121 0.5782610082 -3.2798613996
| 46> H -2.3044946849 -0.9962816439 -2.6824158991
| 47> *
| 48>
| 49>                          ****END OF INPUT****

CARTESIAN COORDINATES (ANGSTROEM)
---------------------------------
  C      3.233565   -0.871291   -3.165231
  C      4.093405   -0.736210   -1.926705
  O      3.558385    0.201059   -0.971541
  P      2.072354    0.197044   -0.409218
  S      0.710987    1.009853   -1.559203
  O      2.224743    1.067115    0.894244
  C      3.227642    0.883262    1.924035
  C      2.674756    0.081067    3.086230
  S      1.853213   -1.847521    0.154999
  C      0.201858   -1.834910    0.896441
  S     -1.136995   -1.605591   -0.316368
  P     -1.952049    0.193572    0.428691
  S     -0.924541    1.198742    1.753167
  O     -3.300006   -0.445962    1.023781
  C     -4.047532    0.179254    2.082118
  C     -4.788437    1.411716    1.602615
  O     -2.398745    1.095614   -0.792380
  C     -3.337811    0.689054   -1.815918
  C     -2.642736   -0.003605   -2.970899
  H      3.074521    0.101482   -3.624810
  H      3.724069   -1.530407   -3.874113
  H      2.261857   -1.288941   -2.904432
  H      5.075355   -0.323524   -2.165182
  H      4.205526   -1.701890   -1.426362
  H      4.106566    0.407711    1.484866
  H      3.472143    1.901232    2.231683
  H      2.545149   -0.963158    2.812546
  H      3.367928    0.143390    3.918962
  H      1.714784    0.493800    3.390351
  H      0.136786   -1.035834    1.639764
  H      0.081556   -2.815218    1.349901
  H     -4.731729   -0.601140    2.417862
  H     -3.353502    0.439772    2.887608
  H     -5.359808    1.829434    2.425613
  H     -4.074907    2.158633    1.254198
  H     -5.462872    1.160573    0.787948
  H     -4.096473    0.044265   -1.364213
  H     -3.786963    1.631002   -2.135888
  H     -3.335650   -0.091080   -3.801637
  H     -1.777117    0.578261   -3.279861
  H     -2.304495   -0.996282   -2.682416

 Total Charge           Charge          ....    0
 Multiplicity           Mult            ....    1
 Number of Electrons    NEL             ....  202
 Basis Dimension        Dim             ....  334

ORBITAL ENERGIES
----------------

  NO   OCC          E(Eh)            E(eV)
   0   2.0000     -88.041964     -2395.7437
   1   2.0000     -88.034740     -2395.5471
   2   2.0000     -87.980172     -2394.0622
   3   2.0000     -87.970512     -2393.7993
   4   2.0000     -76.419161     -2079.4711
   5   2.0000     -76.418264     -2079.4467
   6   2.0000     -18.787080      -511.2224
   7   2.0000     -18.786640      -511.2105
   8   2.0000     -18.779635      -511.0199
   9   2.0000     -18.779273      -511.0100
  10   2.0000      -9.956027      -270.9173
  11   2.0000      -9.955284      -270.8970
  12   2.0000      -9.953500      -270.8485
  13   2.0000      -9.949157      -270.7303
  14   2.0000      -9.944982      -270.6167
  15   2.0000      -9.881951      -268.9015
  16   2.0000      -9.880276      -268.8560
  17   2.0000      -9.880260      -268.8555
  18   2.0000      -9.879494      -268.8347
  19   2.0000      -7.686810      -209.1687
  20   2.0000      -7.680098      -208.9861
  21   2.0000      -7.625347      -207.4962
  22   2.0000      -7.615463      -207.2273
  23   2.0000      -6.416835      -174.6110
  24   2.0000      -6.415288      -174.5689
  25   2.0000      -5.714392      -155.4965
  26   2.0000      -5.711299      -155.4124
  27   2.0000      -5.708059      -155.3242
  28   2.0000      -5.704913      -155.2386
  29   2.0000      -5.704135      -155.2174
  30   2.0000      -5.696576      -155.0117
  31   2.0000      -5.654294      -153.8612
  32   2.0000      -5.646208      -153.6411
  33   2.0000      -5.645109      -153.6112
  34   2.0000      -5.644635      -153.5983
  35   2.0000      -5.635935      -153.3616
  36   2.0000      -5.635519      -153.3503
  37   2.0000      -4.639762      -126.2544
  38   2.0000      -4.638263      -126.2135
  39   2.0000      -4.638149      -126.2104
  40   2.0000      -4.637436      -126.1910
  41   2.0000      -4.637433      -126.1910
  42   2.0000      -4.635100      -126.1275
  43   2.0000      -0.980575       -26.6828
  44   2.0000      -0.977439       -26.5975
  45   2.0000      -0.936574       -25.4855
  46   2.0000      -0.935279       -25.4502
  47   2.0000      -0.758863       -20.6497
  48   2.0000      -0.715827       -19.4787
  49   2.0000      -0.707342       -19.2477
  50   2.0000      -0.687149       -18.6983
  51   2.0000      -0.685565       -18.6552
  52   2.0000      -0.671061       -18.2605
  53   2.0000      -0.646721       -17.5982
  54   2.0000      -0.630263       -17.1503
  55   2.0000      -0.590377       -16.0650
  56   2.0000      -0.581214       -15.8156
  57   2.0000      -0.574463       -15.6319
  58   2.0000      -0.570579       -15.5262
  59   2.0000      -0.559967       -15.2375
  60   2.0000      -0.497682       -13.5426
  61   2.0000      -0.492326       -13.3969
  62   2.0000      -0.471912       -12.8414
  63   2.0000      -0.465492       -12.6667
  64   2.0000      -0.450464       -12.2577
  65   2.0000      -0.445569       -12.1245
  66   2.0000      -0.437234       -11.8977
  67   2.0000      -0.432199       -11.7607
  68   2.0000      -0.428764       -11.6673
  69   2.0000      -0.415854       -11.3160
  70   2.0000      -0.405015       -11.0210
  71   2.0000      -0.395724       -10.7682
  72   2.0000      -0.391338       -10.6488
  73   2.0000      -0.382338       -10.4039
  74   2.0000      -0.379522       -10.3273
  75   2.0000      -0.367827       -10.0091
  76   2.0000      -0.351367        -9.5612
  77   2.0000      -0.349538        -9.5114
  78   2.0000      -0.347740        -9.4625
  79   2.0000      -0.346207        -9.4208
  80   2.0000      -0.341973        -9.3055
  81   2.0000      -0.341551        -9.2941
  82   2.0000      -0.339780        -9.2459
  83   2.0000      -0.336469        -9.1558
  84   2.0000      -0.333514        -9.0754
  85   2.0000      -0.314071        -8.5463
  86   2.0000      -0.310946        -8.4613
  87   2.0000      -0.298900        -8.1335
  88   2.0000      -0.291576        -7.9342
  89   2.0000      -0.285768        -7.7761
  90   2.0000      -0.271952        -7.4002
  91   2.0000      -0.268738        -7.3127
  92   2.0000      -0.266852        -7.2614
  93   2.0000      -0.262237        -7.1358
  94   2.0000      -0.253904        -6.9091
  95   2.0000      -0.235082        -6.3969
  96   2.0000      -0.214273        -5.8307
  97   2.0000      -0.202272        -5.5041
  98   2.0000      -0.198765        -5.4087
  99   2.0000      -0.178486        -4.8569
 100   2.0000      -0.177359        -4.8262
 101   0.0000      -0.038482        -1.0471
 102   0.0000      -0.029713        -0.8085
 103   0.0000      -0.010141        -0.2760
 104   0.0000       0.003202         0.0871
 105   0.0000       0.024106         0.6560

MULLIKEN ATOMIC CHARGES
-----------------------
   0 C :   -0.309536
   1 C :   -0.012557
   2 O :   -0.381850
   3 P :    0.602742
   4 S :   -0.296480
   5 O :   -0.343191
   6 C :   -0.003275
   7 C :   -0.310031
   8 S :   -0.139005
   9 C :   -0.338670
  10 S :   -0.090433
  11 P :    0.635805
  12 S :   -0.299971
  13 O :   -0.391201
  14 C :   -0.002668
  15 C :   -0.317381
  16 O :   -0.358582
  17 C :   -0.032772
  18 C :   -0.303210
  19 H :    0.127868
  20 H :    0.108608
  21 H :    0.127800
  22 H :    0.108947
  23 H :    0.112727
  24 H :    0.099247
  25 H :    0.110255
  26 H :    0.117511
  27 H :    0.107433
  28 H :    0.136506
  29 H :    0.195991
  30 H :    0.181485
  31 H :    0.100506
  32 H :    0.106507
  33 H :    0.111590
  34 H :    0.131709
  35 H :    0.111849
  36 H :    0.106421
  37 H :    0.110376
  38 H :    0.107644
  39 H :    0.139984
  40 H :    0.131301
Sum of atomic charges:    0.0000000

LOEWDIN ATOMIC CHARGES
----------------------
   0 C :   -0.371350
   1 C :   -0.115090
   2 O :   -0.247680
   3 P :    0.560876
   4 S :   -0.296963
   5 O :   -0.226260
   6 C :   -0.110208
   7 C :   -0.367412
   8 S :    0.056534
   9 C :   -0.477842
  10 S :    0.085746
  11 P :    0.576737
  12 S :   -0.287320
  13 O :   -0.264771
  14 C :   -0.122290
  15 C :   -0.366055
  16 O :   -0.231215
  17 C :   -0.115353
  18 C :   -0.364319
  19 H :    0.130557
  20 H :    0.128703
  21 H :    0.121844
  22 H :    0.121204
  23 H :    0.106793
  24 H :    0.107663
  25 H :    0.122783
  26 H :    0.116273
  27 H :    0.128393
  28 H :    0.130391
  29 H :    0.121310
  30 H :    0.137514
  31 H :    0.116051
  32 H :    0.106508
  33 H :    0.130293
  34 H :    0.126887
  35 H :    0.121290
  36 H :    0.107568
  37 H :    0.121720
  38 H :    0.128800
  39 H :    0.132870
  40 H :    0.118820

  Mayer bond orders larger than 0.100000
B(  0-C ,  1-C ) :   1.1681 B(  0-C , 19-H ) :   0.9414 B(  0-C , 20-H ) :   0.9340
B(  0-C , 21-H ) :   0.9312 B(  1-C ,  2-O ) :   0.9151 B(  1-C , 22-H ) :   0.9335
B(  1-C , 23-H ) :   0.9261 B(  2-O ,  3-P ) :   1.0796 B(  3-P ,  4-S ) :   1.6666
B(  3-P ,  5-O ) :   1.1385 B(  3-P ,  8-S ) :   0.9294 B(  4-S ,  8-S ) :   0.1181
B(  5-O ,  6-C ) :   0.9013 B(  6-C ,  7-C ) :   1.1686 B(  6-C , 24-H ) :   0.9194
B(  6-C , 25-H ) :   0.9350 B(  7-C , 26-H ) :   0.9331 B(  7-C , 27-H ) :   0.9385
B(  7-C , 28-H ) :   0.9367 B(  8-S ,  9-C ) :   0.9888 B(  9-C , 10-S ) :   1.0136
B(  9-C , 29-H ) :   0.8459 B(  9-C , 30-H ) :   0.9116 B( 10-S , 11-P ) :   0.9507
B( 10-S , 12-S ) :   0.1101 B( 11-P , 12-S ) :   1.6117 B( 11-P , 13-O ) :   1.0583
B( 11-P , 16-O ) :   1.1214 B( 12-S , 29-H ) :   0.1112 B( 13-O , 14-C ) :   0.9217
B( 14-C , 15-C ) :   1.1596 B( 14-C , 31-H ) :   0.9347 B( 14-C , 32-H ) :   0.9105
B( 15-C , 33-H ) :   0.9398 B( 15-C , 34-H ) :   0.9370 B( 15-C , 35-H ) :   0.9463
B( 16-O , 17-C ) :   0.9064 B( 17-C , 18-C ) :   1.1710 B( 17-C , 36-H ) :   0.9156
B( 17-C , 37-H ) :   0.9344 B( 18-C , 38-H ) :   0.9374 B( 18-C , 39-H ) :   0.9385
B( 18-C , 40-H ) :   0.9345

Dispersion correction           -0.068391857
FINAL SINGLE POINT ENERGY     -2929.504627898505

DIPOLE MOMENT
-------------

Method             : SCF
Type of density    : Electron Density
Multiplicity       :   1
Irrep              :   0
Energy             : -2929.6215037885131096 Eh
Relativity type    :
Basis              : AO
                                X                 Y                 Z
Electronic contribution:      4.341256424      -0.216851979       0.801964314
Nuclear contribution   :     -4.358775061      -0.714197015      -0.633014640
                        -----------------------------------------
Total Dipole Moment    :     -0.017518637      -0.931048994       0.168949674
                        -----------------------------------------
Magnitude (a.u.)       :      0.946415936
Magnitude (Debye)      :      2.405598134

Rotational constants in cm-1:             0.012585             0.005654             0.004815
Rotational constants in MHz :           377.293448           169.506327           144.338457

                             ****ORCA TERMINATED NORMALLY****
TOTAL RUN TIME: 0 days 0 hours 0 minutes 21 seconds 347 msec
