                         Program Version 6.0.1  -  RELEASE   -
|  1> ! pbe def2-sv(p) def2/J RI DEFGRID1 loosescf d4 GCP(DFT/SV(P)) printgap
|  2> %output
|  3>     printlevel normal
|  4> end
|  5> * xyz 0 1
|  6> C 3.2991321995 -3.3839683848 0.2915124284
|  7> C 2.9619538934 -1.9965993001 0.8135043953
|  8> O 2.7389983869 -1.0752030733 -0.2711439915
|  9> C 1.5626248199 -1.0507905418 -0.8490587194
| 10> O 0.6204425663 -1.7563326775 -0.5337392831
| 11> C 1.485787238 -0.027046609 -1.958686788
| 12> C 0.3146380223 0.9246225228 -1.7271613226
| 13> H 0.2120445511 1.5959583748 -2.5860990092
| 14> C 0.4398756191 1.7904411558 -0.4822257646
| 15> O -0.5286772598 2.269074518 0.0690968949
| 16> O 1.6855602094 1.9603898995 -0.1215960142
| 17> C 1.9539950309 2.763554813 1.0462420483
| 18> C 1.8855728368 4.2469933008 0.7243360761
| 19> S -1.3093986036 0.0887730586 -1.6632651444
| 20> P -1.525463229 -0.5169212996 0.3723123215
| 21> S -0.2740432378 -0.1873312326 1.8454496818
| 22> O -2.9882207673 0.0825575904 0.6919273978
| 23> C -3.2617878406 1.4535325136 0.9715969098
| 24> O -1.9240742508 -2.0449450508 0.3315265646
| 25> C -2.8409302606 -2.6002879505 -0.6273268439
| 26> H 4.1532946619 -3.3338033006 -0.3781725518
| 27> H 3.536110022 -4.0313876443 1.1291577638
| 28> H 2.44825578 -3.799517138 -0.243746271
| 29> H 3.7956849441 -1.5634166852 1.3654473887
| 30> H 2.0668477567 -2.0180109128 1.4427496455
| 31> H 1.3218360265 -0.5554201267 -2.8993274659
| 32> H 2.4198723966 0.5318057866 -1.9945617679
| 33> H 1.2335257903 2.4895941635 1.8227427538
| 34> H 2.9577770901 2.4624710788 1.3446588695
| 35> H 0.8746744996 4.5221231602 0.4327315079
| 36> H 2.1621813814 4.8131856728 1.6073374089
| 37> H 2.5696973141 4.4865978555 -0.0850097097
| 38> H -2.5674221839 1.8322231795 1.7224947641
| 39> H -4.2822731477 1.4754380829 1.3459209533
| 40> H -3.165955032 2.0483949462 0.0636956811
| 41> H -2.9571396398 -3.6401789418 -0.3331175289
| 42> H -2.4150299053 -2.529354013 -1.6280227755
| 43> H -3.7938568375 -2.0750950974 -0.5838983095
| 44> *
| 45>
| 46>                          ****END OF INPUT****

CARTESIAN COORDINATES (ANGSTROEM)
---------------------------------
  C      3.299132   -3.383968    0.291512
  C      2.961954   -1.996599    0.813504
  O      2.738998   -1.075203   -0.271144
  C      1.562625   -1.050791   -0.849059
  O      0.620443   -1.756333   -0.533739
  C      1.485787   -0.027047   -1.958687
  C      0.314638    0.924623   -1.727161
  H      0.212045    1.595958   -2.586099
  C      0.439876    1.790441   -0.482226
  O     -0.528677    2.269075    0.069097
  O      1.685560    1.960390   -0.121596
  C      1.953995    2.763555    1.046242
  C      1.885573    4.246993    0.724336
  S     -1.309399    0.088773   -1.663265
  P     -1.525463   -0.516921    0.372312
  S     -0.274043   -0.187331    1.845450
  O     -2.988221    0.082558    0.691927
  C     -3.261788    1.453533    0.971597
  O     -1.924074   -2.044945    0.331527
  C     -2.840930   -2.600288   -0.627327
  H      4.153295   -3.333803   -0.378173
  H      3.536110   -4.031388    1.129158
  H      2.448256   -3.799517   -0.243746
  H      3.795685   -1.563417    1.365447
  H      2.066848   -2.018011    1.442750
  H      1.321836   -0.555420   -2.899327
  H      2.419872    0.531806   -1.994562
  H      1.233526    2.489594    1.822743
  H      2.957777    2.462471    1.344659
  H      0.874674    4.522123    0.432732
  H      2.162181    4.813186    1.607337
  H      2.569697    4.486598   -0.085010
  H     -2.567422    1.832223    1.722495
  H     -4.282273    1.475438    1.345921
  H     -3.165955    2.048395    0.063696
  H     -2.957140   -3.640179   -0.333118
  H     -2.415030   -2.529354   -1.628023
  H     -3.793857   -2.075095   -0.583898

 Total Charge           Charge          ....    0
 Multiplicity           Mult            ....    1
 Number of Electrons    NEL             ....  174
 Basis Dimension        Dim             ....  316

ORBITAL ENERGIES
----------------

  NO   OCC          E(Eh)            E(eV)
   0   2.0000     -88.030381     -2395.4284
   1   2.0000     -87.968031     -2393.7318
   2   2.0000     -76.415044     -2079.3591
   3   2.0000     -18.812398      -511.9114
   4   2.0000     -18.803090      -511.6581
   5   2.0000     -18.773628      -510.8564
   6   2.0000     -18.768927      -510.7285
   7   2.0000     -18.741225      -509.9747
   8   2.0000     -18.736223      -509.8386
   9   2.0000     -10.018673      -272.6220
  10   2.0000     -10.009289      -272.3666
  11   2.0000      -9.953101      -270.8376
  12   2.0000      -9.948947      -270.7246
  13   2.0000      -9.940858      -270.5045
  14   2.0000      -9.935987      -270.3720
  15   2.0000      -9.921208      -269.9698
  16   2.0000      -9.911278      -269.6996
  17   2.0000      -9.888255      -269.0731
  18   2.0000      -9.882602      -268.9193
  19   2.0000      -7.675227      -208.8535
  20   2.0000      -7.613166      -207.1648
  21   2.0000      -6.410416      -174.4363
  22   2.0000      -5.703535      -155.2011
  23   2.0000      -5.699963      -155.1039
  24   2.0000      -5.691524      -154.8742
  25   2.0000      -5.642544      -153.5414
  26   2.0000      -5.633677      -153.3001
  27   2.0000      -5.632826      -153.2770
  28   2.0000      -4.633155      -126.0746
  29   2.0000      -4.632593      -126.0593
  30   2.0000      -4.630822      -126.0111
  31   2.0000      -1.020326       -27.7645
  32   2.0000      -1.010047       -27.4848
  33   2.0000      -0.966834       -26.3089
  34   2.0000      -0.923010       -25.1164
  35   2.0000      -0.919849       -25.0304
  36   2.0000      -0.913796       -24.8657
  37   2.0000      -0.763378       -20.7726
  38   2.0000      -0.707323       -19.2472
  39   2.0000      -0.704955       -19.1828
  40   2.0000      -0.684078       -18.6147
  41   2.0000      -0.653561       -17.7843
  42   2.0000      -0.622864       -16.9490
  43   2.0000      -0.615519       -16.7491
  44   2.0000      -0.606237       -16.4965
  45   2.0000      -0.595123       -16.1941
  46   2.0000      -0.568688       -15.4748
  47   2.0000      -0.507883       -13.8202
  48   2.0000      -0.499006       -13.5786
  49   2.0000      -0.492952       -13.4139
  50   2.0000      -0.477988       -13.0067
  51   2.0000      -0.459050       -12.4914
  52   2.0000      -0.453047       -12.3280
  53   2.0000      -0.442634       -12.0447
  54   2.0000      -0.434962       -11.8359
  55   2.0000      -0.425446       -11.5770
  56   2.0000      -0.417749       -11.3675
  57   2.0000      -0.414560       -11.2807
  58   2.0000      -0.410065       -11.1584
  59   2.0000      -0.401121       -10.9151
  60   2.0000      -0.393405       -10.7051
  61   2.0000      -0.388208       -10.5637
  62   2.0000      -0.386875       -10.5274
  63   2.0000      -0.383814       -10.4441
  64   2.0000      -0.372984       -10.1494
  65   2.0000      -0.370983       -10.0950
  66   2.0000      -0.360498        -9.8097
  67   2.0000      -0.353073        -9.6076
  68   2.0000      -0.347309        -9.4508
  69   2.0000      -0.335700        -9.1349
  70   2.0000      -0.332529        -9.0486
  71   2.0000      -0.324911        -8.8413
  72   2.0000      -0.318287        -8.6610
  73   2.0000      -0.304461        -8.2848
  74   2.0000      -0.300137        -8.1671
  75   2.0000      -0.291130        -7.9221
  76   2.0000      -0.282153        -7.6778
  77   2.0000      -0.280396        -7.6300
  78   2.0000      -0.268491        -7.3060
  79   2.0000      -0.259091        -7.0502
  80   2.0000      -0.251259        -6.8371
  81   2.0000      -0.247107        -6.7241
  82   2.0000      -0.233735        -6.3603
  83   2.0000      -0.226574        -6.1654
  84   2.0000      -0.195514        -5.3202
  85   2.0000      -0.187710        -5.1079
  86   2.0000      -0.177974        -4.8429
  87   0.0000      -0.044544        -1.2121
  88   0.0000      -0.034982        -0.9519
  89   0.0000      -0.028031        -0.7628
  90   0.0000       0.005744         0.1563
  91   0.0000       0.035610         0.9690

MULLIKEN ATOMIC CHARGES
-----------------------
   0 C :   -0.308237
   1 C :   -0.023502
   2 O :   -0.214901
   3 C :    0.098714
   4 O :   -0.208495
   5 C :    0.015620
   6 C :   -0.331756
   7 H :    0.154458
   8 C :    0.187510
   9 O :   -0.182510
  10 O :   -0.218753
  11 C :   -0.010545
  12 C :   -0.310716
  13 S :   -0.096561
  14 P :    0.631715
  15 S :   -0.328628
  16 O :   -0.394008
  17 C :   -0.088582
  18 O :   -0.355715
  19 C :   -0.107188
  20 H :    0.108252
  21 H :    0.113530
  22 H :    0.128705
  23 H :    0.098136
  24 H :    0.132256
  25 H :    0.114207
  26 H :    0.107758
  27 H :    0.126145
  28 H :    0.102853
  29 H :    0.130373
  30 H :    0.115832
  31 H :    0.110354
  32 H :    0.115088
  33 H :    0.110114
  34 H :    0.110951
  35 H :    0.126966
  36 H :    0.122519
  37 H :    0.118040
Sum of atomic charges:   -0.0000000

LOEWDIN ATOMIC CHARGES
----------------------
   0 C :   -0.357250
   1 C :   -0.113562
   2 O :   -0.041731
   3 C :    0.028413
   4 O :   -0.174847
   5 C :   -0.251962
   6 C :   -0.258771
   7 H :    0.153438
   8 C :   -0.000759
   9 O :   -0.160662
  10 O :   -0.037658
  11 C :   -0.107716
  12 C :   -0.358410
  13 S :    0.102537
  14 P :    0.596227
  15 S :   -0.305533
  16 O :   -0.265783
  17 C :   -0.214507
  18 O :   -0.232975
  19 C :   -0.212190
  20 H :    0.121795
  21 H :    0.131268
  22 H :    0.130747
  23 H :    0.116515
  24 H :    0.123359
  25 H :    0.144764
  26 H :    0.138700
  27 H :    0.124129
  28 H :    0.119166
  29 H :    0.131123
  30 H :    0.132573
  31 H :    0.123067
  32 H :    0.109550
  33 H :    0.113493
  34 H :    0.107465
  35 H :    0.124465
  36 H :    0.109677
  37 H :    0.111843

  Mayer bond orders larger than 0.100000
B(  0-C ,  1-C ) :   1.1677 B(  0-C , 20-H ) :   0.9481 B(  0-C , 21-H ) :   0.9446
B(  0-C , 22-H ) :   0.9455 B(  1-C ,  2-O ) :   0.9085 B(  1-C , 23-H ) :   0.9385
B(  1-C , 24-H ) :   0.9065 B(  2-O ,  3-C ) :   1.2682 B(  3-C ,  4-O ) :   1.9458
B(  3-C ,  5-C ) :   1.0057 B(  5-C ,  6-C ) :   1.0282 B(  5-C , 25-H ) :   0.8798
B(  5-C , 26-H ) :   0.8802 B(  6-C ,  7-H ) :   0.8710 B(  6-C ,  8-C ) :   0.8875
B(  6-C , 13-S ) :   1.0463 B(  8-C ,  9-O ) :   2.0178 B(  8-C , 10-O ) :   1.2719
B( 10-O , 11-C ) :   0.9012 B( 11-C , 12-C ) :   1.1696 B( 11-C , 27-H ) :   0.9111
B( 11-C , 28-H ) :   0.9380 B( 12-C , 29-H ) :   0.9433 B( 12-C , 30-H ) :   0.9440
B( 12-C , 31-H ) :   0.9475 B( 13-S , 14-P ) :   0.9180 B( 13-S , 15-S ) :   0.1203
B( 14-P , 15-S ) :   1.5691 B( 14-P , 16-O ) :   1.0670 B( 14-P , 18-O ) :   1.1318
B( 16-O , 17-C ) :   0.9393 B( 17-C , 32-H ) :   0.9397 B( 17-C , 33-H ) :   0.9563
B( 17-C , 34-H ) :   0.9471 B( 18-O , 19-C ) :   0.9282 B( 19-C , 35-H ) :   0.9603
B( 19-C , 36-H ) :   0.9393 B( 19-C , 37-H ) :   0.9446

Dispersion correction           -0.056004020
FINAL SINGLE POINT ENERGY     -1979.003132823827

DIPOLE MOMENT
-------------

Method             : SCF
Type of density    : Electron Density
Multiplicity       :   1
Irrep              :   0
Energy             : -1979.1314142545688810 Eh
Relativity type    :
Basis              : AO
                                X                 Y                 Z
Electronic contribution:    -10.412233243      -2.591504027      -1.987370731
Nuclear contribution   :     11.319574188       3.000319186       1.113979155
                        -----------------------------------------
Total Dipole Moment    :      0.907340945       0.408815159      -0.873391576
                        -----------------------------------------
Magnitude (a.u.)       :      1.324088468
Magnitude (Debye)      :      3.365565419

Rotational constants in cm-1:             0.011205             0.010149             0.007068
Rotational constants in MHz :           335.930638           304.269157           211.889727

                             ****ORCA TERMINATED NORMALLY****
TOTAL RUN TIME: 0 days 0 hours 0 minutes 42 seconds 706 msec
