                         Program Version 6.0.0  -   RELEASE  -
|  1> ! pbe def2-sv(p) def2/J RI DEFGRID1 loosescf d4 GCP(DFT/SV(P)) printgap
|  2> %output
|  3>     printlevel normal
|  4> end
|  5> * xyz 0 1
|  6> C 5.3565341904 -0.1145727187 1.4427618982
|  7> C 3.898456992 -0.457959567 1.2183548229
|  8> O 3.5473265939 -0.0400428252 -0.1249314193
|  9> P 2.0388459007 0.1664598761 -0.5744346793
| 10> S 1.9511973175 0.7170287101 -2.4448618703
| 11> O 1.3828019291 1.1486605472 0.506645603
| 12> C 1.3940086419 2.5757296414 0.3283526381
| 13> C 2.785471544 3.1512479854 0.4908838727
| 14> S 1.1533162365 -1.664599873 -0.0328902394
| 15> C -0.1217965029 -1.8105728082 -1.329897369
| 16> S -1.7817796043 -1.9727080471 -0.6504570303
| 17> P -1.9673952364 0.0079863684 0.1142359384
| 18> S -1.4599937169 1.3816326457 -1.1901252467
| 19> O -1.1611544428 0.140007607 1.4570778943
| 20> C -1.546196999 -0.4040060497 2.7473640729
| 21> C -1.5697258697 -1.917737458 2.7615889136
| 22> O -3.4731453382 0.0541110821 0.6082801818
| 23> C -4.5659627817 0.0451480038 -0.3341949912
| 24> C -5.8237277278 0.4410310242 0.411777301
| 25> H 5.5086595834 0.9584857998 1.3663680121
| 26> H 5.6533087879 -0.4515314317 2.4306509139
| 27> H 5.9702886522 -0.6067129918 0.694052686
| 28> H 3.2467797814 0.0570747038 1.9292155177
| 29> H 3.7250560673 -1.5349555107 1.2872873571
| 30> H 0.9893124014 2.8055009551 -0.6630782743
| 31> H 0.7032198033 2.9414906005 1.0900140824
| 32> H 3.1883127284 2.9012465152 1.4692195876
| 33> H 3.4408782503 2.7484483098 -0.2814611524
| 34> H 2.7392665117 4.2306256624 0.3853495627
| 35> H 0.0706851493 -2.7227699515 -1.8887010192
| 36> H -0.0633914466 -0.9315137855 -1.978373013
| 37> H -0.7782540059 -0.0099006538 3.4147898979
| 38> H -2.5207450857 0.0092088859 3.0116865601
| 39> H -0.6284721461 -2.3152870183 2.3878460218
| 40> H -1.7189485861 -2.2553814805 3.7825337723
| 41> H -2.3810796595 -2.2941877459 2.14275152
| 42> H -4.3353803601 0.7492165299 -1.1402845679
| 43> H -4.6465856039 -0.9618352042 -0.7516416189
| 44> H -6.6613183461 0.4349914183 -0.277799472
| 45> H -6.0158544309 -0.2620085325 1.216820375
| 46> H -5.7121945305 1.4373311692 0.8303354158
| 47> *
| 48>
| 49>                          ****END OF INPUT****

CARTESIAN COORDINATES (ANGSTROEM)
---------------------------------
  C      5.356534   -0.114573    1.442762
  C      3.898457   -0.457960    1.218355
  O      3.547327   -0.040043   -0.124931
  P      2.038846    0.166460   -0.574435
  S      1.951197    0.717029   -2.444862
  O      1.382802    1.148661    0.506646
  C      1.394009    2.575730    0.328353
  C      2.785472    3.151248    0.490884
  S      1.153316   -1.664600   -0.032890
  C     -0.121797   -1.810573   -1.329897
  S     -1.781780   -1.972708   -0.650457
  P     -1.967395    0.007986    0.114236
  S     -1.459994    1.381633   -1.190125
  O     -1.161154    0.140008    1.457078
  C     -1.546197   -0.404006    2.747364
  C     -1.569726   -1.917737    2.761589
  O     -3.473145    0.054111    0.608280
  C     -4.565963    0.045148   -0.334195
  C     -5.823728    0.441031    0.411777
  H      5.508660    0.958486    1.366368
  H      5.653309   -0.451531    2.430651
  H      5.970289   -0.606713    0.694053
  H      3.246780    0.057075    1.929216
  H      3.725056   -1.534956    1.287287
  H      0.989312    2.805501   -0.663078
  H      0.703220    2.941491    1.090014
  H      3.188313    2.901247    1.469220
  H      3.440878    2.748448   -0.281461
  H      2.739267    4.230626    0.385350
  H      0.070685   -2.722770   -1.888701
  H     -0.063391   -0.931514   -1.978373
  H     -0.778254   -0.009901    3.414790
  H     -2.520745    0.009209    3.011687
  H     -0.628472   -2.315287    2.387846
  H     -1.718949   -2.255381    3.782534
  H     -2.381080   -2.294188    2.142752
  H     -4.335380    0.749217   -1.140285
  H     -4.646586   -0.961835   -0.751642
  H     -6.661318    0.434991   -0.277799
  H     -6.015854   -0.262009    1.216820
  H     -5.712195    1.437331    0.830335

 Total Charge           Charge          ....    0
 Multiplicity           Mult            ....    1
 Number of Electrons    NEL             ....  202
 Basis Dimension        Dim             ....  334

ORBITAL ENERGIES
----------------

  NO   OCC          E(Eh)            E(eV)
   0   2.0000     -88.040630     -2395.7073
   1   2.0000     -88.037465     -2395.6212
   2   2.0000     -87.977536     -2393.9905
   3   2.0000     -87.976668     -2393.9669
   4   2.0000     -76.423984     -2079.6023
   5   2.0000     -76.416538     -2079.3997
   6   2.0000     -18.797605      -511.5088
   7   2.0000     -18.789442      -511.2867
   8   2.0000     -18.787738      -511.2404
   9   2.0000     -18.777648      -510.9658
  10   2.0000      -9.957359      -270.9535
  11   2.0000      -9.956706      -270.9357
  12   2.0000      -9.955540      -270.9040
  13   2.0000      -9.952363      -270.8176
  14   2.0000      -9.936705      -270.3915
  15   2.0000      -9.892133      -269.1786
  16   2.0000      -9.890189      -269.1257
  17   2.0000      -9.886622      -269.0287
  18   2.0000      -9.878100      -268.7968
  19   2.0000      -7.685836      -209.1422
  20   2.0000      -7.682789      -209.0593
  21   2.0000      -7.622467      -207.4179
  22   2.0000      -7.621947      -207.4037
  23   2.0000      -6.421373      -174.7344
  24   2.0000      -6.414591      -174.5499
  25   2.0000      -5.713634      -155.4759
  26   2.0000      -5.710643      -155.3945
  27   2.0000      -5.710316      -155.3856
  28   2.0000      -5.707398      -155.3062
  29   2.0000      -5.702912      -155.1841
  30   2.0000      -5.699586      -155.0936
  31   2.0000      -5.651486      -153.7848
  32   2.0000      -5.651077      -153.7736
  33   2.0000      -5.643157      -153.5581
  34   2.0000      -5.642816      -153.5488
  35   2.0000      -5.642434      -153.5384
  36   2.0000      -5.641590      -153.5155
  37   2.0000      -4.644453      -126.3820
  38   2.0000      -4.643083      -126.3447
  39   2.0000      -4.641393      -126.2987
  40   2.0000      -4.637364      -126.1891
  41   2.0000      -4.635973      -126.1512
  42   2.0000      -4.635220      -126.1308
  43   2.0000      -0.990207       -26.9449
  44   2.0000      -0.977134       -26.5892
  45   2.0000      -0.945804       -25.7366
  46   2.0000      -0.934226       -25.4216
  47   2.0000      -0.760366       -20.6906
  48   2.0000      -0.721120       -19.6227
  49   2.0000      -0.710746       -19.3404
  50   2.0000      -0.694852       -18.9079
  51   2.0000      -0.685957       -18.6658
  52   2.0000      -0.670799       -18.2534
  53   2.0000      -0.645880       -17.5753
  54   2.0000      -0.630256       -17.1501
  55   2.0000      -0.592777       -16.1303
  56   2.0000      -0.582349       -15.8465
  57   2.0000      -0.575524       -15.6608
  58   2.0000      -0.570183       -15.5155
  59   2.0000      -0.558647       -15.2016
  60   2.0000      -0.509102       -13.8534
  61   2.0000      -0.499682       -13.5970
  62   2.0000      -0.475362       -12.9353
  63   2.0000      -0.469496       -12.7756
  64   2.0000      -0.449416       -12.2292
  65   2.0000      -0.447114       -12.1666
  66   2.0000      -0.444448       -12.0941
  67   2.0000      -0.434733       -11.8297
  68   2.0000      -0.431521       -11.7423
  69   2.0000      -0.411605       -11.2003
  70   2.0000      -0.403254       -10.9731
  71   2.0000      -0.399099       -10.8600
  72   2.0000      -0.391455       -10.6520
  73   2.0000      -0.386997       -10.5307
  74   2.0000      -0.378143       -10.2898
  75   2.0000      -0.367760       -10.0073
  76   2.0000      -0.359614        -9.7856
  77   2.0000      -0.357835        -9.7372
  78   2.0000      -0.355616        -9.6768
  79   2.0000      -0.350952        -9.5499
  80   2.0000      -0.344525        -9.3750
  81   2.0000      -0.342100        -9.3090
  82   2.0000      -0.340606        -9.2684
  83   2.0000      -0.335580        -9.1316
  84   2.0000      -0.331219        -9.0129
  85   2.0000      -0.322293        -8.7700
  86   2.0000      -0.312208        -8.4956
  87   2.0000      -0.306579        -8.3424
  88   2.0000      -0.304850        -8.2954
  89   2.0000      -0.294126        -8.0036
  90   2.0000      -0.274884        -7.4800
  91   2.0000      -0.270408        -7.3582
  92   2.0000      -0.263549        -7.1715
  93   2.0000      -0.258803        -7.0424
  94   2.0000      -0.255523        -6.9531
  95   2.0000      -0.231616        -6.3026
  96   2.0000      -0.215608        -5.8670
  97   2.0000      -0.209946        -5.7129
  98   2.0000      -0.198187        -5.3930
  99   2.0000      -0.187854        -5.1118
 100   2.0000      -0.181837        -4.9480
 101   0.0000      -0.041438        -1.1276
 102   0.0000      -0.028844        -0.7849
 103   0.0000      -0.005600        -0.1524
 104   0.0000       0.012278         0.3341
 105   0.0000       0.020911         0.5690

MULLIKEN ATOMIC CHARGES
-----------------------
   0 C :   -0.275908
   1 C :   -0.037252
   2 O :   -0.374378
   3 P :    0.612926
   4 S :   -0.297043
   5 O :   -0.372076
   6 C :   -0.006520
   7 C :   -0.314886
   8 S :   -0.118423
   9 C :   -0.347790
  10 S :   -0.116392
  11 P :    0.605278
  12 S :   -0.303008
  13 O :   -0.344921
  14 C :    0.006099
  15 C :   -0.319391
  16 O :   -0.388564
  17 C :   -0.013456
  18 C :   -0.281231
  19 H :    0.120835
  20 H :    0.109306
  21 H :    0.124110
  22 H :    0.106805
  23 H :    0.112880
  24 H :    0.125488
  25 H :    0.098724
  26 H :    0.107048
  27 H :    0.130608
  28 H :    0.111226
  29 H :    0.184155
  30 H :    0.212534
  31 H :    0.106428
  32 H :    0.109274
  33 H :    0.129293
  34 H :    0.110189
  35 H :    0.121081
  36 H :    0.109542
  37 H :    0.106748
  38 H :    0.114937
  39 H :    0.113882
  40 H :    0.121844
Sum of atomic charges:    0.0000000

LOEWDIN ATOMIC CHARGES
----------------------
   0 C :   -0.348867
   1 C :   -0.123671
   2 O :   -0.248453
   3 P :    0.567440
   4 S :   -0.296826
   5 O :   -0.244695
   6 C :   -0.124113
   7 C :   -0.368073
   8 S :    0.068688
   9 C :   -0.475973
  10 S :    0.066093
  11 P :    0.563831
  12 S :   -0.294528
  13 O :   -0.226504
  14 C :   -0.106010
  15 C :   -0.371301
  16 O :   -0.251570
  17 C :   -0.119699
  18 C :   -0.350566
  19 H :    0.128044
  20 H :    0.129678
  21 H :    0.131549
  22 H :    0.107377
  23 H :    0.110339
  24 H :    0.109605
  25 H :    0.115987
  26 H :    0.118248
  27 H :    0.124625
  28 H :    0.130509
  29 H :    0.137913
  30 H :    0.127033
  31 H :    0.121023
  32 H :    0.113885
  33 H :    0.123573
  34 H :    0.129472
  35 H :    0.117093
  36 H :    0.111915
  37 H :    0.109503
  38 H :    0.132476
  39 H :    0.125413
  40 H :    0.129536

  Mayer bond orders larger than 0.100000
B(  0-C ,  1-C ) :   1.1683 B(  0-C , 19-H ) :   0.9503 B(  0-C , 20-H ) :   0.9407
B(  0-C , 21-H ) :   0.9486 B(  1-C ,  2-O ) :   0.9048 B(  1-C , 22-H ) :   0.9144
B(  1-C , 23-H ) :   0.9223 B(  2-O ,  3-P ) :   1.0987 B(  3-P ,  4-S ) :   1.6471
B(  3-P ,  5-O ) :   1.0915 B(  3-P ,  8-S ) :   0.9639 B(  4-S ,  8-S ) :   0.1083
B(  5-O ,  6-C ) :   0.9066 B(  6-C ,  7-C ) :   1.1535 B(  6-C , 24-H ) :   0.9100
B(  6-C , 25-H ) :   0.9353 B(  7-C , 26-H ) :   0.9438 B(  7-C , 27-H ) :   0.9339
B(  7-C , 28-H ) :   0.9396 B(  8-S ,  9-C ) :   0.9993 B(  9-C , 10-S ) :   1.0105
B(  9-C , 29-H ) :   0.9118 B(  9-C , 30-H ) :   0.8443 B( 10-S , 11-P ) :   0.9348
B( 10-S , 12-S ) :   0.1069 B( 11-P , 12-S ) :   1.6598 B( 11-P , 13-O ) :   1.1489
B( 11-P , 16-O ) :   1.0731 B( 13-O , 14-C ) :   0.8971 B( 14-C , 15-C ) :   1.1703
B( 14-C , 31-H ) :   0.9344 B( 14-C , 32-H ) :   0.9281 B( 15-C , 33-H ) :   0.9372
B( 15-C , 34-H ) :   0.9351 B( 15-C , 35-H ) :   0.9395 B( 16-O , 17-C ) :   0.9014
B( 17-C , 18-C ) :   1.1597 B( 17-C , 36-H ) :   0.9101 B( 17-C , 37-H ) :   0.9286
B( 18-C , 38-H ) :   0.9416 B( 18-C , 39-H ) :   0.9512 B( 18-C , 40-H ) :   0.9508

Dispersion correction           -0.066631547
FINAL SINGLE POINT ENERGY     -2929.513405265987

DIPOLE MOMENT
-------------

Method             : SCF
Type of density    : Electron Density
Multiplicity       :   1
Irrep              :   0
Energy             : -2929.6326545296660697 Eh
Relativity type    :
Basis              : AO
                                X                 Y                 Z
Electronic contribution:     -0.344118598      -5.051785597     -17.728817342
Nuclear contribution   :     -0.267942140       4.530840227      19.765162190
                        -----------------------------------------
Total Dipole Moment    :     -0.612060739      -0.520945370       2.036344848
                        -----------------------------------------
Magnitude (a.u.)       :      2.189224238
Magnitude (Debye)      :      5.564565790

Rotational constants in cm-1:             0.013047             0.005094             0.004858
Rotational constants in MHz :           391.144861           152.718131           145.626735

                             ****ORCA TERMINATED NORMALLY****
TOTAL RUN TIME: 0 days 0 hours 0 minutes 21 seconds 573 msec
