                         Program Version 6.0.1  -  RELEASE   -
|  1> ! pbe def2-sv(p) def2/J RI DEFGRID1 loosescf d4 GCP(DFT/SV(P)) printgap
|  2> %output
|  3>     printlevel normal
|  4> end
|  5> * xyz 0 1
|  6> C 5.1281731194 -1.0021174866 0.6588639777
|  7> C 4.7333808887 -1.3931822601 -0.7560250547
|  8> O 3.3223535322 -1.6772323256 -0.8338591344
|  9> C 2.4912546825 -0.692988715 -1.1032865014
| 10> O 2.8248698017 0.4503663528 -1.3387114288
| 11> C 1.0538826412 -1.1677736321 -1.0936647288
| 12> C 0.1425180426 -0.0429739915 -1.5523767073
| 13> H 0.3218801229 0.2170263093 -2.5988948049
| 14> C 0.277006465 1.2291317729 -0.737087807
| 15> O -0.0197465732 2.317920309 -1.1793230826
| 16> O 0.6754869951 0.9915367138 0.4919033254
| 17> C 0.9048528398 2.097445934 1.3851393473
| 18> C 2.370000375 2.1187517201 1.7827963419
| 19> S -1.6206699593 -0.5151894891 -1.5089062327
| 20> P -2.0995194353 -0.2488089668 0.5533226394
| 21> S -1.0528379306 -1.187437485 1.9105243672
| 22> O -2.203219182 1.3063736847 0.8328313837
| 23> C -3.0275188731 2.205204479 0.0611089033
| 24> O -3.6428799189 -0.6560633348 0.5243904148
| 25> C -4.0449053866 -2.0259374776 0.3894025185
| 26> H 4.8303913524 -1.7790044261 1.3575072874
| 27> H 6.2036323027 -0.8675783494 0.7076599601
| 28> H 4.6427480236 -0.0701341345 0.9393180459
| 29> H 5.2153047097 -2.3224429811 -1.0601238422
| 30> H 4.9677606606 -0.5914338736 -1.4621666992
| 31> H 0.8112940696 -1.4789545964 -0.0732564747
| 32> H 0.9515270814 -2.0368260203 -1.7439745939
| 33> H 0.6108803863 3.0191850132 0.8758349963
| 34> H 0.2573264023 1.9229466583 2.2479242811
| 35> H 2.5530903603 2.9668689807 2.4337813594
| 36> H 2.6247418574 1.2008862019 2.3058193158
| 37> H 2.9901151751 2.2065191994 0.8928539112
| 38> H -3.3508597919 2.9744281809 0.7576799908
| 39> H -3.8837889037 1.6786496077 -0.3539409795
| 40> H -2.4209336326 2.6412894709 -0.7334629532
| 41> H -3.4621757557 -2.6546252002 1.0641169425
| 42> H -3.9037826773 -2.351625055 -0.6403987325
| 43> H -5.0972000914 -2.0492378145 0.660871133
| 44> *
| 45>
| 46>                          ****END OF INPUT****

CARTESIAN COORDINATES (ANGSTROEM)
---------------------------------
  C      5.128173   -1.002117    0.658864
  C      4.733381   -1.393182   -0.756025
  O      3.322354   -1.677232   -0.833859
  C      2.491255   -0.692989   -1.103287
  O      2.824870    0.450366   -1.338711
  C      1.053883   -1.167774   -1.093665
  C      0.142518   -0.042974   -1.552377
  H      0.321880    0.217026   -2.598895
  C      0.277006    1.229132   -0.737088
  O     -0.019747    2.317920   -1.179323
  O      0.675487    0.991537    0.491903
  C      0.904853    2.097446    1.385139
  C      2.370000    2.118752    1.782796
  S     -1.620670   -0.515189   -1.508906
  P     -2.099519   -0.248809    0.553323
  S     -1.052838   -1.187437    1.910524
  O     -2.203219    1.306374    0.832831
  C     -3.027519    2.205204    0.061109
  O     -3.642880   -0.656063    0.524390
  C     -4.044905   -2.025937    0.389403
  H      4.830391   -1.779004    1.357507
  H      6.203632   -0.867578    0.707660
  H      4.642748   -0.070134    0.939318
  H      5.215305   -2.322443   -1.060124
  H      4.967761   -0.591434   -1.462167
  H      0.811294   -1.478955   -0.073256
  H      0.951527   -2.036826   -1.743975
  H      0.610880    3.019185    0.875835
  H      0.257326    1.922947    2.247924
  H      2.553090    2.966869    2.433781
  H      2.624742    1.200886    2.305819
  H      2.990115    2.206519    0.892854
  H     -3.350860    2.974428    0.757680
  H     -3.883789    1.678650   -0.353941
  H     -2.420934    2.641289   -0.733463
  H     -3.462176   -2.654625    1.064117
  H     -3.903783   -2.351625   -0.640399
  H     -5.097200   -2.049238    0.660871

 Total Charge           Charge          ....    0
 Multiplicity           Mult            ....    1
 Number of Electrons    NEL             ....  174
 Basis Dimension        Dim             ....  316

ORBITAL ENERGIES
----------------

  NO   OCC          E(Eh)            E(eV)
   0   2.0000     -88.043885     -2395.7959
   1   2.0000     -87.984403     -2394.1773
   2   2.0000     -76.429536     -2079.7534
   3   2.0000     -18.805346      -511.7195
   4   2.0000     -18.798719      -511.5392
   5   2.0000     -18.798562      -511.5349
   6   2.0000     -18.797061      -511.4940
   7   2.0000     -18.745621      -510.0943
   8   2.0000     -18.729023      -509.6426
   9   2.0000     -10.014341      -272.5041
  10   2.0000     -10.011214      -272.4190
  11   2.0000      -9.951071      -270.7824
  12   2.0000      -9.950091      -270.7557
  13   2.0000      -9.946386      -270.6549
  14   2.0000      -9.943231      -270.5691
  15   2.0000      -9.936416      -270.3836
  16   2.0000      -9.904814      -269.5237
  17   2.0000      -9.889934      -269.1188
  18   2.0000      -9.879367      -268.8313
  19   2.0000      -7.688728      -209.2209
  20   2.0000      -7.629684      -207.6143
  21   2.0000      -6.426548      -174.8753
  22   2.0000      -5.716556      -155.5554
  23   2.0000      -5.713397      -155.4694
  24   2.0000      -5.705644      -155.2585
  25   2.0000      -5.658784      -153.9834
  26   2.0000      -5.650011      -153.7446
  27   2.0000      -5.649863      -153.7406
  28   2.0000      -4.649553      -126.5208
  29   2.0000      -4.648445      -126.4906
  30   2.0000      -4.646614      -126.4408
  31   2.0000      -1.015022       -27.6202
  32   2.0000      -1.007243       -27.4085
  33   2.0000      -0.990143       -26.9432
  34   2.0000      -0.946791       -25.7635
  35   2.0000      -0.921271       -25.0691
  36   2.0000      -0.910040       -24.7634
  37   2.0000      -0.765276       -20.8242
  38   2.0000      -0.714729       -19.4488
  39   2.0000      -0.701639       -19.0926
  40   2.0000      -0.691479       -18.8161
  41   2.0000      -0.661060       -17.9884
  42   2.0000      -0.641331       -17.4515
  43   2.0000      -0.623357       -16.9624
  44   2.0000      -0.612384       -16.6638
  45   2.0000      -0.593260       -16.1434
  46   2.0000      -0.563639       -15.3374
  47   2.0000      -0.515781       -14.0351
  48   2.0000      -0.503286       -13.6951
  49   2.0000      -0.497685       -13.5427
  50   2.0000      -0.479123       -13.0376
  51   2.0000      -0.473683       -12.8896
  52   2.0000      -0.461206       -12.5500
  53   2.0000      -0.441633       -12.0174
  54   2.0000      -0.439505       -11.9595
  55   2.0000      -0.432987       -11.7822
  56   2.0000      -0.425439       -11.5768
  57   2.0000      -0.417961       -11.3733
  58   2.0000      -0.415215       -11.2986
  59   2.0000      -0.407809       -11.0970
  60   2.0000      -0.403292       -10.9741
  61   2.0000      -0.400242       -10.8911
  62   2.0000      -0.390211       -10.6182
  63   2.0000      -0.383383       -10.4324
  64   2.0000      -0.376351       -10.2410
  65   2.0000      -0.362407        -9.8616
  66   2.0000      -0.357299        -9.7226
  67   2.0000      -0.352972        -9.6049
  68   2.0000      -0.346160        -9.4195
  69   2.0000      -0.335239        -9.1223
  70   2.0000      -0.333175        -9.0662
  71   2.0000      -0.332544        -9.0490
  72   2.0000      -0.321485        -8.7481
  73   2.0000      -0.311898        -8.4872
  74   2.0000      -0.308708        -8.4004
  75   2.0000      -0.301557        -8.2058
  76   2.0000      -0.295823        -8.0497
  77   2.0000      -0.288197        -7.8422
  78   2.0000      -0.272884        -7.4256
  79   2.0000      -0.265394        -7.2217
  80   2.0000      -0.263570        -7.1721
  81   2.0000      -0.251233        -6.8364
  82   2.0000      -0.239833        -6.5262
  83   2.0000      -0.228059        -6.2058
  84   2.0000      -0.215805        -5.8724
  85   2.0000      -0.201757        -5.4901
  86   2.0000      -0.196729        -5.3533
  87   0.0000      -0.044445        -1.2094
  88   0.0000      -0.030535        -0.8309
  89   0.0000      -0.023863        -0.6494
  90   0.0000      -0.000636        -0.0173
  91   0.0000       0.023405         0.6369

MULLIKEN ATOMIC CHARGES
-----------------------
   0 C :   -0.314258
   1 C :   -0.015172
   2 O :   -0.226369
   3 C :    0.126255
   4 O :   -0.213068
   5 C :   -0.047116
   6 C :   -0.305595
   7 H :    0.147551
   8 C :    0.169725
   9 O :   -0.188873
  10 O :   -0.230136
  11 C :   -0.015737
  12 C :   -0.313574
  13 S :   -0.089154
  14 P :    0.596010
  15 S :   -0.298432
  16 O :   -0.367966
  17 C :   -0.120523
  18 O :   -0.383565
  19 C :   -0.103014
  20 H :    0.118593
  21 H :    0.113785
  22 H :    0.134246
  23 H :    0.105039
  24 H :    0.110817
  25 H :    0.143589
  26 H :    0.113670
  27 H :    0.110605
  28 H :    0.109412
  29 H :    0.108605
  30 H :    0.120774
  31 H :    0.134791
  32 H :    0.126461
  33 H :    0.120444
  34 H :    0.151751
  35 H :    0.121861
  36 H :    0.119766
  37 H :    0.128803
Sum of atomic charges:   -0.0000000

LOEWDIN ATOMIC CHARGES
----------------------
   0 C :   -0.356429
   1 C :   -0.109929
   2 O :   -0.055653
   3 C :    0.040622
   4 O :   -0.165661
   5 C :   -0.268500
   6 C :   -0.254143
   7 H :    0.150278
   8 C :   -0.000470
   9 O :   -0.165041
  10 O :   -0.042687
  11 C :   -0.110715
  12 C :   -0.356535
  13 S :    0.099316
  14 P :    0.568029
  15 S :   -0.299757
  16 O :   -0.236662
  17 C :   -0.212865
  18 O :   -0.256809
  19 C :   -0.213776
  20 H :    0.127397
  21 H :    0.131490
  22 H :    0.130968
  23 H :    0.118823
  24 H :    0.120434
  25 H :    0.144738
  26 H :    0.142311
  27 H :    0.119230
  28 H :    0.117775
  29 H :    0.128465
  30 H :    0.124096
  31 H :    0.130449
  32 H :    0.124471
  33 H :    0.112640
  34 H :    0.124875
  35 H :    0.113280
  36 H :    0.111622
  37 H :    0.124320

  Mayer bond orders larger than 0.100000
B(  0-C ,  1-C ) :   1.1754 B(  0-C , 20-H ) :   0.9482 B(  0-C , 21-H ) :   0.9424
B(  0-C , 22-H ) :   0.9401 B(  1-C ,  2-O ) :   0.9119 B(  1-C , 23-H ) :   0.9370
B(  1-C , 24-H ) :   0.9129 B(  2-O ,  3-C ) :   1.2473 B(  3-C ,  4-O ) :   1.9936
B(  3-C ,  5-C ) :   1.0113 B(  5-C ,  6-C ) :   1.0025 B(  5-C , 25-H ) :   0.8467
B(  5-C , 26-H ) :   0.8873 B(  6-C ,  7-H ) :   0.8868 B(  6-C ,  8-C ) :   0.9048
B(  6-C , 13-S ) :   1.0046 B(  8-C ,  9-O ) :   2.0452 B(  8-C , 10-O ) :   1.2089
B( 10-O , 11-C ) :   0.9001 B( 11-C , 12-C ) :   1.1712 B( 11-C , 27-H ) :   0.9081
B( 11-C , 28-H ) :   0.9263 B( 12-C , 29-H ) :   0.9424 B( 12-C , 30-H ) :   0.9446
B( 12-C , 31-H ) :   0.9384 B( 13-S , 14-P ) :   0.9626 B( 13-S , 15-S ) :   0.1169
B( 14-P , 15-S ) :   1.6596 B( 14-P , 16-O ) :   1.1098 B( 14-P , 18-O ) :   1.0764
B( 16-O , 17-C ) :   0.9011 B( 17-C , 32-H ) :   0.9578 B( 17-C , 33-H ) :   0.9414
B( 17-C , 34-H ) :   0.9338 B( 18-O , 19-C ) :   0.9265 B( 19-C , 35-H ) :   0.9328
B( 19-C , 36-H ) :   0.9499 B( 19-C , 37-H ) :   0.9585

Dispersion correction           -0.053707728
FINAL SINGLE POINT ENERGY     -1979.021846544669

DIPOLE MOMENT
-------------

Method             : SCF
Type of density    : Electron Density
Multiplicity       :   1
Irrep              :   0
Energy             : -1979.1532534706561819 Eh
Relativity type    :
Basis              : AO
                                X                 Y                 Z
Electronic contribution:    -15.917199769      -3.325243125      -4.824633675
Nuclear contribution   :     15.910556914       2.775654812       4.704040717
                        -----------------------------------------
Total Dipole Moment    :     -0.006642856      -0.549588312      -0.120592958
                        -----------------------------------------
Magnitude (a.u.)       :      0.562702499
Magnitude (Debye)      :      1.430276086

Rotational constants in cm-1:             0.016103             0.006448             0.006019
Rotational constants in MHz :           482.766857           193.315052           180.442179

                             ****ORCA TERMINATED NORMALLY****
TOTAL RUN TIME: 0 days 0 hours 0 minutes 36 seconds 760 msec
