                         Program Version 6.0.0  -   RELEASE  -
|  1> ! pbe def2-sv(p) def2/J RI DEFGRID1 loosescf d4 GCP(DFT/SV(P)) printgap
|  2> %output
|  3>     printlevel normal
|  4> end
|  5> * xyz 0 1
|  6> C 3.5324827613 -2.795126269 0.9591897862
|  7> C 3.8323184402 -1.327439153 1.1873426928
|  8> O 3.7719492891 -0.5837439382 -0.0561162716
|  9> P 2.4943107182 0.2153620412 -0.5431765874
| 10> S 2.87522677 1.2739398286 -2.1412789488
| 11> O 1.9595448582 1.0366996477 0.7240389038
| 12> C 2.2428807876 2.4342600595 0.9044840852
| 13> C 3.6805939548 2.6518936159 1.3305891824
| 14> S 0.9534268255 -1.2192205831 -0.709150175
| 15> C -0.1796105589 -0.17981179 -1.6569644781
| 16> S -0.9494275401 1.1583711114 -0.6889129162
| 17> P -2.5768555362 0.0715698246 0.1116604738
| 18> S -3.8252743972 1.0529503911 1.2568915558
| 19> O -1.9479780315 -1.2440129626 0.7568018905
| 20> C -1.6696729682 -1.3515618314 2.1621652105
| 21> C -0.5948004509 -0.3831132013 2.6113789921
| 22> O -3.1688408804 -0.4939463736 -1.2500534112
| 23> C -4.5296477433 -0.9637061899 -1.345187214
| 24> C -4.7489352014 -2.2311369655 -0.5462170621
| 25> H 2.5083986279 -2.9296432479 0.617187305
| 26> H 4.2058824468 -3.1993744684 0.2085827513
| 27> H 3.6709373855 -3.3331420712 1.8917859904
| 28> H 4.8574890403 -1.1839957608 1.5331326622
| 29> H 3.1351430877 -0.8836120887 1.9018841511
| 30> H 2.0316108937 2.9575023043 -0.0333193963
| 31> H 1.5344833966 2.7555714024 1.6692076913
| 32> H 4.3517006931 2.294874553 0.5493465701
| 33> H 3.8537850274 3.7120398902 1.485758347
| 34> H 3.8900829171 2.1142667706 2.2516349272
| 35> H -0.9547478834 -0.825435266 -2.0578083465
| 36> H 0.3807023221 0.3121004312 -2.4531132309
| 37> H -2.5978893826 -1.1651859668 2.7117365205
| 38> H -1.3582515061 -2.3890424741 2.2885023638
| 39> H -0.9390808499 0.6413778496 2.4656516102
| 40> H -0.3862176835 -0.5384044141 3.6649243397
| 41> H 0.3161742376 -0.5299725669 2.036982975
| 42> H -5.1945235133 -0.1672534056 -0.9965462151
| 43> H -4.6742494969 -1.1261043763 -2.4141683181
| 44> H -5.7486594698 -2.6076179246 -0.7389793938
| 45> H -4.0173831223 -2.9850328597 -0.8250754526
| 46> H -4.6506155552 -2.0190986194 0.5174784841
| 47> *
| 48>
| 49>                          ****END OF INPUT****

CARTESIAN COORDINATES (ANGSTROEM)
---------------------------------
  C      3.532483   -2.795126    0.959190
  C      3.832318   -1.327439    1.187343
  O      3.771949   -0.583744   -0.056116
  P      2.494311    0.215362   -0.543177
  S      2.875227    1.273940   -2.141279
  O      1.959545    1.036700    0.724039
  C      2.242881    2.434260    0.904484
  C      3.680594    2.651894    1.330589
  S      0.953427   -1.219221   -0.709150
  C     -0.179611   -0.179812   -1.656964
  S     -0.949428    1.158371   -0.688913
  P     -2.576856    0.071570    0.111660
  S     -3.825274    1.052950    1.256892
  O     -1.947978   -1.244013    0.756802
  C     -1.669673   -1.351562    2.162165
  C     -0.594800   -0.383113    2.611379
  O     -3.168841   -0.493946   -1.250053
  C     -4.529648   -0.963706   -1.345187
  C     -4.748935   -2.231137   -0.546217
  H      2.508399   -2.929643    0.617187
  H      4.205882   -3.199374    0.208583
  H      3.670937   -3.333142    1.891786
  H      4.857489   -1.183996    1.533133
  H      3.135143   -0.883612    1.901884
  H      2.031611    2.957502   -0.033319
  H      1.534483    2.755571    1.669208
  H      4.351701    2.294875    0.549347
  H      3.853785    3.712040    1.485758
  H      3.890083    2.114267    2.251635
  H     -0.954748   -0.825435   -2.057808
  H      0.380702    0.312100   -2.453113
  H     -2.597889   -1.165186    2.711737
  H     -1.358252   -2.389042    2.288502
  H     -0.939081    0.641378    2.465652
  H     -0.386218   -0.538404    3.664924
  H      0.316174   -0.529973    2.036983
  H     -5.194524   -0.167253   -0.996546
  H     -4.674249   -1.126104   -2.414168
  H     -5.748659   -2.607618   -0.738979
  H     -4.017383   -2.985033   -0.825075
  H     -4.650616   -2.019099    0.517478

 Total Charge           Charge          ....    0
 Multiplicity           Mult            ....    1
 Number of Electrons    NEL             ....  202
 Basis Dimension        Dim             ....  334

ORBITAL ENERGIES
----------------

  NO   OCC          E(Eh)            E(eV)
   0   2.0000     -88.045665     -2395.8443
   1   2.0000     -88.040170     -2395.6948
   2   2.0000     -87.990156     -2394.3339
   3   2.0000     -87.989826     -2394.3249
   4   2.0000     -76.429702     -2079.7579
   5   2.0000     -76.427259     -2079.6914
   6   2.0000     -18.800934      -511.5994
   7   2.0000     -18.794181      -511.4157
   8   2.0000     -18.792995      -511.3834
   9   2.0000     -18.791870      -511.3528
  10   2.0000      -9.965586      -271.1774
  11   2.0000      -9.955843      -270.9123
  12   2.0000      -9.954379      -270.8724
  13   2.0000      -9.951616      -270.7972
  14   2.0000      -9.951274      -270.7879
  15   2.0000      -9.896111      -269.2869
  16   2.0000      -9.887041      -269.0400
  17   2.0000      -9.886515      -269.0258
  18   2.0000      -9.878988      -268.8209
  19   2.0000      -7.690748      -209.2759
  20   2.0000      -7.685433      -209.1313
  21   2.0000      -7.635360      -207.7687
  22   2.0000      -7.634938      -207.7572
  23   2.0000      -6.427610      -174.9042
  24   2.0000      -6.424962      -174.8321
  25   2.0000      -5.718500      -155.6083
  26   2.0000      -5.715384      -155.5235
  27   2.0000      -5.713663      -155.4767
  28   2.0000      -5.709866      -155.3733
  29   2.0000      -5.707666      -155.3135
  30   2.0000      -5.702088      -155.1617
  31   2.0000      -5.664442      -154.1373
  32   2.0000      -5.663905      -154.1227
  33   2.0000      -5.655952      -153.9063
  34   2.0000      -5.655607      -153.8969
  35   2.0000      -5.655334      -153.8895
  36   2.0000      -5.655022      -153.8810
  37   2.0000      -4.650574      -126.5485
  38   2.0000      -4.648941      -126.5041
  39   2.0000      -4.648101      -126.4813
  40   2.0000      -4.647336      -126.4604
  41   2.0000      -4.646894      -126.4484
  42   2.0000      -4.645463      -126.4095
  43   2.0000      -0.990493       -26.9527
  44   2.0000      -0.987525       -26.8719
  45   2.0000      -0.949258       -25.8306
  46   2.0000      -0.946573       -25.7576
  47   2.0000      -0.765592       -20.8328
  48   2.0000      -0.725979       -19.7549
  49   2.0000      -0.712100       -19.3772
  50   2.0000      -0.694838       -18.9075
  51   2.0000      -0.686507       -18.6808
  52   2.0000      -0.676201       -18.4004
  53   2.0000      -0.657597       -17.8941
  54   2.0000      -0.640897       -17.4397
  55   2.0000      -0.600724       -16.3465
  56   2.0000      -0.593550       -16.1513
  57   2.0000      -0.584901       -15.9160
  58   2.0000      -0.573245       -15.5988
  59   2.0000      -0.562211       -15.2986
  60   2.0000      -0.504877       -13.7384
  61   2.0000      -0.494643       -13.4599
  62   2.0000      -0.482999       -13.1431
  63   2.0000      -0.472021       -12.8443
  64   2.0000      -0.461518       -12.5585
  65   2.0000      -0.453224       -12.3328
  66   2.0000      -0.441582       -12.0161
  67   2.0000      -0.439683       -11.9644
  68   2.0000      -0.430942       -11.7265
  69   2.0000      -0.414406       -11.2766
  70   2.0000      -0.411671       -11.2021
  71   2.0000      -0.402437       -10.9509
  72   2.0000      -0.396472       -10.7885
  73   2.0000      -0.394953       -10.7472
  74   2.0000      -0.382380       -10.4051
  75   2.0000      -0.376823       -10.2539
  76   2.0000      -0.367666       -10.0047
  77   2.0000      -0.363522        -9.8919
  78   2.0000      -0.362042        -9.8517
  79   2.0000      -0.354101        -9.6356
  80   2.0000      -0.350594        -9.5401
  81   2.0000      -0.349335        -9.5059
  82   2.0000      -0.344315        -9.3693
  83   2.0000      -0.341396        -9.2899
  84   2.0000      -0.331751        -9.0274
  85   2.0000      -0.323708        -8.8085
  86   2.0000      -0.316887        -8.6229
  87   2.0000      -0.308281        -8.3888
  88   2.0000      -0.297442        -8.0938
  89   2.0000      -0.288549        -7.8518
  90   2.0000      -0.284053        -7.7295
  91   2.0000      -0.278272        -7.5722
  92   2.0000      -0.275396        -7.4939
  93   2.0000      -0.274157        -7.4602
  94   2.0000      -0.257899        -7.0178
  95   2.0000      -0.231247        -6.2925
  96   2.0000      -0.217572        -5.9204
  97   2.0000      -0.211581        -5.7574
  98   2.0000      -0.210034        -5.7153
  99   2.0000      -0.205459        -5.5908
 100   2.0000      -0.203481        -5.5370
 101   0.0000      -0.041021        -1.1162
 102   0.0000      -0.024631        -0.6702
 103   0.0000      -0.013654        -0.3715
 104   0.0000       0.000106         0.0029
 105   0.0000       0.009215         0.2508

MULLIKEN ATOMIC CHARGES
-----------------------
   0 C :   -0.301318
   1 C :   -0.037673
   2 O :   -0.366088
   3 P :    0.620863
   4 S :   -0.307938
   5 O :   -0.379471
   6 C :   -0.005804
   7 C :   -0.312812
   8 S :   -0.100046
   9 C :   -0.358101
  10 S :   -0.058547
  11 P :    0.606055
  12 S :   -0.320199
  13 O :   -0.378806
  14 C :    0.003252
  15 C :   -0.344834
  16 O :   -0.383081
  17 C :   -0.003814
  18 C :   -0.307851
  19 H :    0.134974
  20 H :    0.126689
  21 H :    0.113724
  22 H :    0.114067
  23 H :    0.120265
  24 H :    0.114438
  25 H :    0.109103
  26 H :    0.128256
  27 H :    0.115754
  28 H :    0.110068
  29 H :    0.194888
  30 H :    0.195564
  31 H :    0.108633
  32 H :    0.099910
  33 H :    0.123329
  34 H :    0.104764
  35 H :    0.147214
  36 H :    0.114925
  37 H :    0.106604
  38 H :    0.113386
  39 H :    0.115640
  40 H :    0.124017
Sum of atomic charges:   -0.0000000

LOEWDIN ATOMIC CHARGES
----------------------
   0 C :   -0.361194
   1 C :   -0.117193
   2 O :   -0.241137
   3 P :    0.571478
   4 S :   -0.303379
   5 O :   -0.246893
   6 C :   -0.121778
   7 C :   -0.364970
   8 S :    0.093937
   9 C :   -0.481299
  10 S :    0.095577
  11 P :    0.571988
  12 S :   -0.319792
  13 O :   -0.247678
  14 C :   -0.118622
  15 C :   -0.377025
  16 O :   -0.248674
  17 C :   -0.115556
  18 C :   -0.365340
  19 H :    0.118475
  20 H :    0.132362
  21 H :    0.132254
  22 H :    0.123201
  23 H :    0.111405
  24 H :    0.110191
  25 H :    0.119568
  26 H :    0.125105
  27 H :    0.132473
  28 H :    0.121555
  29 H :    0.136725
  30 H :    0.131973
  31 H :    0.108709
  32 H :    0.117032
  33 H :    0.120569
  34 H :    0.127352
  35 H :    0.116340
  36 H :    0.112923
  37 H :    0.119346
  38 H :    0.131070
  39 H :    0.125906
  40 H :    0.123018

  Mayer bond orders larger than 0.100000
B(  0-C ,  1-C ) :   1.1689 B(  0-C , 19-H ) :   0.9329 B(  0-C , 20-H ) :   0.9455
B(  0-C , 21-H ) :   0.9380 B(  1-C ,  2-O ) :   0.8987 B(  1-C , 22-H ) :   0.9330
B(  1-C , 23-H ) :   0.9123 B(  2-O ,  3-P ) :   1.1270 B(  3-P ,  4-S ) :   1.6348
B(  3-P ,  5-O ) :   1.0711 B(  3-P ,  8-S ) :   0.9648 B(  4-S ,  8-S ) :   0.1025
B(  5-O ,  6-C ) :   0.9024 B(  6-C ,  7-C ) :   1.1606 B(  6-C , 24-H ) :   0.9125
B(  6-C , 25-H ) :   0.9324 B(  7-C , 26-H ) :   0.9360 B(  7-C , 27-H ) :   0.9405
B(  7-C , 28-H ) :   0.9474 B(  8-S ,  9-C ) :   1.0007 B(  9-C , 10-S ) :   0.9844
B(  9-C , 29-H ) :   0.8891 B(  9-C , 30-H ) :   0.8702 B( 10-S , 11-P ) :   0.9867
B( 11-P , 12-S ) :   1.6303 B( 11-P , 13-O ) :   1.0840 B( 11-P , 16-O ) :   1.0928
B( 13-O , 14-C ) :   0.9055 B( 14-C , 15-C ) :   1.1633 B( 14-C , 31-H ) :   0.9181
B( 14-C , 32-H ) :   0.9332 B( 15-C , 33-H ) :   0.9320 B( 15-C , 34-H ) :   0.9373
B( 15-C , 35-H ) :   0.9232 B( 16-O , 17-C ) :   0.9062 B( 17-C , 18-C ) :   1.1627
B( 17-C , 36-H ) :   0.9178 B( 17-C , 37-H ) :   0.9356 B( 18-C , 38-H ) :   0.9380
B( 18-C , 39-H ) :   0.9462 B( 18-C , 40-H ) :   0.9361

Dispersion correction           -0.065542572
FINAL SINGLE POINT ENERGY     -2929.519514286346

DIPOLE MOMENT
-------------

Method             : SCF
Type of density    : Electron Density
Multiplicity       :   1
Irrep              :   0
Energy             : -2929.6411020928226208 Eh
Relativity type    :
Basis              : AO
                                X                 Y                 Z
Electronic contribution:     -3.751905658       9.483749904     -14.655386349
Nuclear contribution   :      4.064423016     -10.750189002      15.722765154
                        -----------------------------------------
Total Dipole Moment    :      0.312517359      -1.266439097       1.067378805
                        -----------------------------------------
Magnitude (a.u.)       :      1.685476965
Magnitude (Debye)      :      4.284141978

Rotational constants in cm-1:             0.013136             0.004564             0.004465
Rotational constants in MHz :           393.797444           136.821297           133.845873

                             ****ORCA TERMINATED NORMALLY****
TOTAL RUN TIME: 0 days 0 hours 0 minutes 21 seconds 600 msec
