                         Program Version 6.0.0  -   RELEASE  -
|  1> ! r2scan-3c def2/J RI DEFGRID2 scfconv6 printgap
|  2> %output
|  3>     printlevel normal
|  4> end
|  5> * xyz 0 1
|  6> C 1.4472549316 -0.7313642122 -0.2254813977
|  7> C 1.4474876156 0.7312392928 0.2254117545
|  8> C 0.0431537725 1.2170624228 -0.127073711
|  9> C -0.836103916 4.50008e-05 0.0001424497
| 10> O -2.049784195 0.0001088974 -7.39664e-05
| 11> C 0.0429399367 -1.2171063437 0.1271036736
| 12> H 2.2236141676 -1.3157609557 0.262816313
| 13> H 1.5986851845 -0.7882067993 -1.3039339709
| 14> H 1.5990570205 0.7880428243 1.3038589393
| 15> H 2.2239113658 1.3155343935 -0.262993702
| 16> H -0.321374177 2.035580047 0.491225539
| 17> H -0.0109241554 1.5429801192 -1.1685307166
| 18> H -0.0110674498 -1.5428304369 1.1685966792
| 19> H -0.3218154593 -2.035592074 -0.4910895961
| 20> *
| 21>
| 22>                          ****END OF INPUT****

CARTESIAN COORDINATES (ANGSTROEM)
---------------------------------
  C      1.447255   -0.731364   -0.225481
  C      1.447488    0.731239    0.225412
  C      0.043154    1.217062   -0.127074
  C     -0.836104    0.000045    0.000142
  O     -2.049784    0.000109   -0.000074
  C      0.042940   -1.217106    0.127104
  H      2.223614   -1.315761    0.262816
  H      1.598685   -0.788207   -1.303934
  H      1.599057    0.788043    1.303859
  H      2.223911    1.315534   -0.262994
  H     -0.321374    2.035580    0.491226
  H     -0.010924    1.542980   -1.168531
  H     -0.011067   -1.542830    1.168597
  H     -0.321815   -2.035592   -0.491090

 Total Charge           Charge          ....    0
 Multiplicity           Mult            ....    1
 Number of Electrons    NEL             ....   46
 Basis Dimension        Dim             ....  159

ORBITAL ENERGIES
----------------

  NO   OCC          E(Eh)            E(eV)
   0   2.0000     -18.936321      -515.2835
   1   2.0000     -10.115523      -275.2574
   2   2.0000     -10.040677      -273.2207
   3   2.0000     -10.040548      -273.2172
   4   2.0000     -10.038506      -273.1616
   5   2.0000     -10.038501      -273.1615
   6   2.0000      -1.001168       -27.2432
   7   2.0000      -0.815566       -22.1927
   8   2.0000      -0.701047       -19.0764
   9   2.0000      -0.661214       -17.9925
  10   2.0000      -0.560917       -15.2633
  11   2.0000      -0.505141       -13.7456
  12   2.0000      -0.469270       -12.7695
  13   2.0000      -0.438180       -11.9235
  14   2.0000      -0.404527       -11.0077
  15   2.0000      -0.395343       -10.7578
  16   2.0000      -0.374251       -10.1839
  17   2.0000      -0.359864        -9.7924
  18   2.0000      -0.329579        -8.9683
  19   2.0000      -0.325054        -8.8452
  20   2.0000      -0.310451        -8.4478
  21   2.0000      -0.310208        -8.4412
  22   2.0000      -0.209587        -5.7031
  23   0.0000      -0.049062        -1.3350
  24   0.0000       0.082371         2.2414
  25   0.0000       0.102557         2.7907
  26   0.0000       0.117981         3.2104
  27   0.0000       0.122992         3.3468

MULLIKEN ATOMIC CHARGES
-----------------------
   0 C :   -0.289228
   1 C :   -0.289263
   2 C :   -0.328858
   3 C :    0.233705
   4 O :   -0.332006
   5 C :   -0.328851
   6 H :    0.155765
   7 H :    0.158642
   8 H :    0.158645
   9 H :    0.155768
  10 H :    0.176801
  11 H :    0.176042
  12 H :    0.176023
  13 H :    0.176816
Sum of atomic charges:    0.0000000

LOEWDIN ATOMIC CHARGES
----------------------
   0 C :   -0.296923
   1 C :   -0.296928
   2 C :   -0.280128
   3 C :    0.231061
   4 O :   -0.445987
   5 C :   -0.280114
   6 H :    0.158522
   7 H :    0.158889
   8 H :    0.158886
   9 H :    0.158533
  10 H :    0.180753
  11 H :    0.186339
  12 H :    0.186334
  13 H :    0.180764

  Mayer bond orders larger than 0.100000
B(  0-C ,  1-C ) :   0.8768 B(  0-C ,  5-C ) :   0.9021 B(  0-C ,  6-H ) :   0.9563
B(  0-C ,  7-H ) :   0.9853 B(  1-C ,  2-C ) :   0.9021 B(  1-C ,  8-H ) :   0.9853
B(  1-C ,  9-H ) :   0.9563 B(  2-C ,  3-C ) :   0.9529 B(  2-C , 10-H ) :   0.9426
B(  2-C , 11-H ) :   0.9464 B(  3-C ,  4-O ) :   1.9722 B(  3-C ,  5-C ) :   0.9530
B(  5-C , 12-H ) :   0.9464 B(  5-C , 13-H ) :   0.9426

Dispersion correction           -0.003450548
FINAL SINGLE POINT ENERGY      -270.502632974170

DIPOLE MOMENT
-------------

Method             : SCF
Type of density    : Electron Density
Multiplicity       :   1
Irrep              :   0
Energy             :  -270.5045850142308836 Eh
Relativity type    :
Basis              : AO
                                X                 Y                 Z
Electronic contribution:     -5.258477042       0.000157694       0.000143100
Nuclear contribution   :      6.518075852      -0.000235629      -0.000048491
                        -----------------------------------------
Total Dipole Moment    :      1.259598810      -0.000077935       0.000094609
                        -----------------------------------------
Magnitude (a.u.)       :      1.259598816
Magnitude (Debye)      :      3.201645750

Rotational constants in cm-1:             0.225550             0.112585             0.081186
Rotational constants in MHz :          6761.815403          3375.208794          2433.887210

                             ****ORCA TERMINATED NORMALLY****
TOTAL RUN TIME: 0 days 0 hours 0 minutes 19 seconds 174 msec
