                         Program Version 6.0.0  -   RELEASE  -
|  1> ! r2scan-3c def2/J RI DEFGRID2 scfconv6 printgap
|  2> %output
|  3>     printlevel normal
|  4> end
|  5> %cpcm
|  6>     smd true
|  7>     smdsolvent "water"
|  8> end
|  9> * xyz 0 1
| 10> C 1.4472549316 -0.7313642122 -0.2254813977
| 11> C 1.4474876156 0.7312392928 0.2254117545
| 12> C 0.0431537725 1.2170624228 -0.127073711
| 13> C -0.836103916 4.50008e-05 0.0001424497
| 14> O -2.049784195 0.0001088974 -7.39664e-05
| 15> C 0.0429399367 -1.2171063437 0.1271036736
| 16> H 2.2236141676 -1.3157609557 0.262816313
| 17> H 1.5986851845 -0.7882067993 -1.3039339709
| 18> H 1.5990570205 0.7880428243 1.3038589393
| 19> H 2.2239113658 1.3155343935 -0.262993702
| 20> H -0.321374177 2.035580047 0.491225539
| 21> H -0.0109241554 1.5429801192 -1.1685307166
| 22> H -0.0110674498 -1.5428304369 1.1685966792
| 23> H -0.3218154593 -2.035592074 -0.4910895961
| 24> *
| 25>
| 26>                          ****END OF INPUT****

CARTESIAN COORDINATES (ANGSTROEM)
---------------------------------
  C      1.447255   -0.731364   -0.225481
  C      1.447488    0.731239    0.225412
  C      0.043154    1.217062   -0.127074
  C     -0.836104    0.000045    0.000142
  O     -2.049784    0.000109   -0.000074
  C      0.042940   -1.217106    0.127104
  H      2.223614   -1.315761    0.262816
  H      1.598685   -0.788207   -1.303934
  H      1.599057    0.788043    1.303859
  H      2.223911    1.315534   -0.262994
  H     -0.321374    2.035580    0.491226
  H     -0.010924    1.542980   -1.168531
  H     -0.011067   -1.542830    1.168597
  H     -0.321815   -2.035592   -0.491090

 Total Charge           Charge          ....    0
 Multiplicity           Mult            ....    1
 Number of Electrons    NEL             ....   46
 Basis Dimension        Dim             ....  159

ORBITAL ENERGIES
----------------

  NO   OCC          E(Eh)            E(eV)
   0   2.0000     -18.946959      -515.5730
   1   2.0000     -10.122508      -275.4475
   2   2.0000     -10.027878      -272.8724
   3   2.0000     -10.027872      -272.8723
   4   2.0000     -10.023770      -272.7607
   5   2.0000     -10.023641      -272.7571
   6   2.0000      -1.014717       -27.6118
   7   2.0000      -0.803596       -21.8670
   8   2.0000      -0.689212       -18.7544
   9   2.0000      -0.650462       -17.7000
  10   2.0000      -0.547178       -14.8895
  11   2.0000      -0.497399       -13.5349
  12   2.0000      -0.456883       -12.4324
  13   2.0000      -0.443999       -12.0818
  14   2.0000      -0.392494       -10.6803
  15   2.0000      -0.389521       -10.5994
  16   2.0000      -0.370899       -10.0927
  17   2.0000      -0.359859        -9.7923
  18   2.0000      -0.316103        -8.6016
  19   2.0000      -0.311956        -8.4888
  20   2.0000      -0.309541        -8.4230
  21   2.0000      -0.292511        -7.9596
  22   2.0000      -0.219898        -5.9837
  23   0.0000      -0.050773        -1.3816
  24   0.0000       0.097958         2.6656
  25   0.0000       0.108264         2.9460
  26   0.0000       0.133954         3.6451
  27   0.0000       0.140152         3.8137

MULLIKEN ATOMIC CHARGES
-----------------------
   0 C :   -0.303195
   1 C :   -0.303230
   2 C :   -0.350825
   3 C :    0.291922
   4 O :   -0.448869
   5 C :   -0.350815
   6 H :    0.167621
   7 H :    0.172212
   8 H :    0.172218
   9 H :    0.167631
  10 H :    0.190424
  11 H :    0.202242
  12 H :    0.202223
  13 H :    0.190442
Sum of atomic charges:   -0.0000000

LOEWDIN ATOMIC CHARGES
----------------------
   0 C :   -0.294238
   1 C :   -0.294241
   2 C :   -0.277631
   3 C :    0.249818
   4 O :   -0.528184
   5 C :   -0.277616
   6 H :    0.163126
   7 H :    0.163631
   8 H :    0.163630
   9 H :    0.163139
  10 H :    0.186427
  11 H :    0.197852
  12 H :    0.197850
  13 H :    0.186438

  Mayer bond orders larger than 0.100000
B(  0-C ,  1-C ) :   0.8800 B(  0-C ,  5-C ) :   0.8999 B(  0-C ,  6-H ) :   0.9536
B(  0-C ,  7-H ) :   0.9841 B(  1-C ,  2-C ) :   0.8999 B(  1-C ,  8-H ) :   0.9841
B(  1-C ,  9-H ) :   0.9536 B(  2-C ,  3-C ) :   0.9738 B(  2-C , 10-H ) :   0.9378
B(  2-C , 11-H ) :   0.9321 B(  3-C ,  4-O ) :   1.8875 B(  3-C ,  5-C ) :   0.9739
B(  5-C , 12-H ) :   0.9321 B(  5-C , 13-H ) :   0.9378

Dispersion correction           -0.003450548
FINAL SINGLE POINT ENERGY      -270.511122399849

DIPOLE MOMENT
-------------

Method             : SCF
Type of density    : Electron Density
Multiplicity       :   1
Irrep              :   0
Energy             :  -270.5130744399100422 Eh
Relativity type    :
Basis              : AO
                                X                 Y                 Z
Electronic contribution:     -4.751012641       0.000126848       0.000211180
Nuclear contribution   :      6.518075852      -0.000235629      -0.000048491
                        -----------------------------------------
Total Dipole Moment    :      1.767063211      -0.000108781       0.000162689
                        -----------------------------------------
Magnitude (a.u.)       :      1.767063222
Magnitude (Debye)      :      4.491517763

Rotational constants in cm-1:             0.225550             0.112585             0.081186
Rotational constants in MHz :          6761.815403          3375.208794          2433.887210

                             ****ORCA TERMINATED NORMALLY****
TOTAL RUN TIME: 0 days 0 hours 0 minutes 20 seconds 528 msec
