                         Program Version 6.0.0  -   RELEASE  -
|  1> ! pbe def2-sv(p) def2/J RI DEFGRID1 loosescf d4 GCP(DFT/SV(P)) printgap
|  2> %output
|  3>     printlevel normal
|  4> end
|  5> * xyz 0 1
|  6> C 0.5035859149 -1.7941278685 2.1832298047
|  7> C 1.8751707253 -1.164077353 2.3136435673
|  8> O 2.2112111144 -0.3493555141 1.1804166842
|  9> P 2.4273536451 -0.9675503592 -0.2752643987
| 10> S 3.1693160009 -2.7788745961 -0.31020716
| 11> O 3.2979831041 0.1624436908 -0.9747161415
| 12> C 4.740190252 0.1273957073 -0.9528442256
| 13> C 5.2915241885 0.3496210155 0.4398239032
| 14> S 0.6172075939 -0.6510095342 -1.3170550992
| 15> C 0.4382071219 1.1383775088 -1.0352630431
| 16> S -0.3410397407 1.5518478481 0.5464431148
| 17> P -2.2786241298 0.912739514 0.0294160963
| 18> S -2.8600859925 1.2577212355 -1.8165794542
| 19> O -3.2102971881 1.5703077416 1.1374202077
| 20> C -3.675520373 2.9320742414 1.0427108899
| 21> C -4.9528985721 3.0488611664 1.8498974772
| 22> O -2.2507255632 -0.5921793367 0.5132157723
| 23> C -3.2097014569 -1.5718774706 0.0524729978
| 24> C -2.6169678267 -2.4095683215 -1.0625243287
| 25> H -0.2612719581 -1.0327002292 2.0513677637
| 26> H 0.4875065865 -2.4614820862 1.3208362845
| 27> H 0.2846908715 -2.3699542562 3.0766958774
| 28> H 2.6382119904 -1.9426433088 2.4156826328
| 29> H 1.9249391099 -0.4750435241 3.1575699269
| 30> H 5.0676555729 -0.8392211724 -1.3481518267
| 31> H 5.0298522629 0.9257967727 -1.6373517517
| 32> H 6.3727777983 0.430911776 0.3887858919
| 33> H 4.8790720306 1.2591493673 0.8687753468
| 34> H 5.030814742 -0.4924653866 1.0794880345
| 35> H -0.1940311065 1.504194131 -1.845077768
| 36> H 1.416208229 1.6087461071 -1.0499442271
| 37> H -2.8924398979 3.5837438616 1.4379725856
| 38> H -3.8454753738 3.1712445234 -0.012625895
| 39> H -5.3008628483 4.0761074078 1.8185273331
| 40> H -5.7189279363 2.3988240928 1.4364308592
| 41> H -4.7667677963 2.762035006 2.8807390854
| 42> H -3.4326510572 -2.1758403927 0.9330795295
| 43> H -4.1155139297 -1.0604826456 -0.2839752059
| 44> H -2.4015808567 -1.7866528066 -1.9283543208
| 45> H -1.6899232262 -2.8725151911 -0.7356572751
| 46> H -3.3249546051 -3.1812521887 -1.346702263
| 47> *
| 48>
| 49>                          ****END OF INPUT****

CARTESIAN COORDINATES (ANGSTROEM)
---------------------------------
  C      0.503586   -1.794128    2.183230
  C      1.875171   -1.164077    2.313644
  O      2.211211   -0.349356    1.180417
  P      2.427354   -0.967550   -0.275264
  S      3.169316   -2.778875   -0.310207
  O      3.297983    0.162444   -0.974716
  C      4.740190    0.127396   -0.952844
  C      5.291524    0.349621    0.439824
  S      0.617208   -0.651010   -1.317055
  C      0.438207    1.138378   -1.035263
  S     -0.341040    1.551848    0.546443
  P     -2.278624    0.912740    0.029416
  S     -2.860086    1.257721   -1.816579
  O     -3.210297    1.570308    1.137420
  C     -3.675520    2.932074    1.042711
  C     -4.952899    3.048861    1.849897
  O     -2.250726   -0.592179    0.513216
  C     -3.209701   -1.571877    0.052473
  C     -2.616968   -2.409568   -1.062524
  H     -0.261272   -1.032700    2.051368
  H      0.487507   -2.461482    1.320836
  H      0.284691   -2.369954    3.076696
  H      2.638212   -1.942643    2.415683
  H      1.924939   -0.475044    3.157570
  H      5.067656   -0.839221   -1.348152
  H      5.029852    0.925797   -1.637352
  H      6.372778    0.430912    0.388786
  H      4.879072    1.259149    0.868775
  H      5.030815   -0.492465    1.079488
  H     -0.194031    1.504194   -1.845078
  H      1.416208    1.608746   -1.049944
  H     -2.892440    3.583744    1.437973
  H     -3.845475    3.171245   -0.012626
  H     -5.300863    4.076107    1.818527
  H     -5.718928    2.398824    1.436431
  H     -4.766768    2.762035    2.880739
  H     -3.432651   -2.175840    0.933080
  H     -4.115514   -1.060483   -0.283975
  H     -2.401581   -1.786653   -1.928354
  H     -1.689923   -2.872515   -0.735657
  H     -3.324955   -3.181252   -1.346702

 Total Charge           Charge          ....    0
 Multiplicity           Mult            ....    1
 Number of Electrons    NEL             ....  202
 Basis Dimension        Dim             ....  334

ORBITAL ENERGIES
----------------

  NO   OCC          E(Eh)            E(eV)
   0   2.0000     -88.045716     -2395.8457
   1   2.0000     -88.040048     -2395.6915
   2   2.0000     -87.992581     -2394.3999
   3   2.0000     -87.988676     -2394.2936
   4   2.0000     -76.430025     -2079.7667
   5   2.0000     -76.426180     -2079.6621
   6   2.0000     -18.796558      -511.4803
   7   2.0000     -18.794071      -511.4127
   8   2.0000     -18.792883      -511.3804
   9   2.0000     -18.789883      -511.2987
  10   2.0000      -9.956064      -270.9183
  11   2.0000      -9.955501      -270.9030
  12   2.0000      -9.954526      -270.8764
  13   2.0000      -9.953852      -270.8581
  14   2.0000      -9.947734      -270.6916
  15   2.0000      -9.890995      -269.1476
  16   2.0000      -9.885638      -269.0019
  17   2.0000      -9.878504      -268.8078
  18   2.0000      -9.874012      -268.6855
  19   2.0000      -7.691202      -209.2882
  20   2.0000      -7.685268      -209.1268
  21   2.0000      -7.637469      -207.8261
  22   2.0000      -7.633806      -207.7264
  23   2.0000      -6.427868      -174.9112
  24   2.0000      -6.423910      -174.8035
  25   2.0000      -5.718964      -155.6209
  26   2.0000      -5.715782      -155.5343
  27   2.0000      -5.713511      -155.4725
  28   2.0000      -5.709662      -155.3678
  29   2.0000      -5.708110      -155.3256
  30   2.0000      -5.701940      -155.1577
  31   2.0000      -5.666220      -154.1857
  32   2.0000      -5.662780      -154.0921
  33   2.0000      -5.658207      -153.9676
  34   2.0000      -5.657700      -153.9538
  35   2.0000      -5.654487      -153.8664
  36   2.0000      -5.653868      -153.8496
  37   2.0000      -4.650320      -126.5416
  38   2.0000      -4.649577      -126.5214
  39   2.0000      -4.648422      -126.4900
  40   2.0000      -4.646268      -126.4314
  41   2.0000      -4.645820      -126.4192
  42   2.0000      -4.644444      -126.3817
  43   2.0000      -0.990285       -26.9470
  44   2.0000      -0.986143       -26.8343
  45   2.0000      -0.948510       -25.8103
  46   2.0000      -0.945091       -25.7172
  47   2.0000      -0.765635       -20.8340
  48   2.0000      -0.724974       -19.7275
  49   2.0000      -0.709003       -19.2930
  50   2.0000      -0.688775       -18.7425
  51   2.0000      -0.683740       -18.6055
  52   2.0000      -0.674165       -18.3450
  53   2.0000      -0.655314       -17.8320
  54   2.0000      -0.640638       -17.4326
  55   2.0000      -0.599530       -16.3140
  56   2.0000      -0.593310       -16.1448
  57   2.0000      -0.572818       -15.5872
  58   2.0000      -0.570298       -15.5186
  59   2.0000      -0.560591       -15.2545
  60   2.0000      -0.510094       -13.8804
  61   2.0000      -0.493014       -13.4156
  62   2.0000      -0.478973       -13.0335
  63   2.0000      -0.470439       -12.8013
  64   2.0000      -0.462253       -12.5785
  65   2.0000      -0.447345       -12.1729
  66   2.0000      -0.437410       -11.9025
  67   2.0000      -0.436956       -11.8902
  68   2.0000      -0.434100       -11.8125
  69   2.0000      -0.412981       -11.2378
  70   2.0000      -0.409566       -11.1449
  71   2.0000      -0.395471       -10.7613
  72   2.0000      -0.394051       -10.7227
  73   2.0000      -0.387584       -10.5467
  74   2.0000      -0.383302       -10.4302
  75   2.0000      -0.381087       -10.3699
  76   2.0000      -0.366013        -9.9597
  77   2.0000      -0.356347        -9.6967
  78   2.0000      -0.352639        -9.5958
  79   2.0000      -0.351823        -9.5736
  80   2.0000      -0.347185        -9.4474
  81   2.0000      -0.345994        -9.4150
  82   2.0000      -0.341024        -9.2797
  83   2.0000      -0.337607        -9.1868
  84   2.0000      -0.329087        -8.9549
  85   2.0000      -0.319863        -8.7039
  86   2.0000      -0.309438        -8.4202
  87   2.0000      -0.303256        -8.2520
  88   2.0000      -0.295414        -8.0386
  89   2.0000      -0.291026        -7.9192
  90   2.0000      -0.286831        -7.8051
  91   2.0000      -0.280254        -7.6261
  92   2.0000      -0.274273        -7.4633
  93   2.0000      -0.267889        -7.2896
  94   2.0000      -0.257472        -7.0062
  95   2.0000      -0.232800        -6.3348
  96   2.0000      -0.217865        -5.9284
  97   2.0000      -0.212357        -5.7785
  98   2.0000      -0.209677        -5.7056
  99   2.0000      -0.206521        -5.6197
 100   2.0000      -0.203467        -5.5366
 101   0.0000      -0.042523        -1.1571
 102   0.0000      -0.023793        -0.6474
 103   0.0000      -0.014081        -0.3832
 104   0.0000       0.004018         0.1093
 105   0.0000       0.010161         0.2765

MULLIKEN ATOMIC CHARGES
-----------------------
   0 C :   -0.339965
   1 C :    0.001380
   2 O :   -0.378086
   3 P :    0.607200
   4 S :   -0.319766
   5 O :   -0.384074
   6 C :   -0.003891
   7 C :   -0.307636
   8 S :   -0.056008
   9 C :   -0.377004
  10 S :   -0.074874
  11 P :    0.612934
  12 S :   -0.335608
  13 O :   -0.377108
  14 C :   -0.011491
  15 C :   -0.281374
  16 O :   -0.356293
  17 C :   -0.001337
  18 C :   -0.298022
  19 H :    0.142447
  20 H :    0.125237
  21 H :    0.104726
  22 H :    0.107355
  23 H :    0.101645
  24 H :    0.115087
  25 H :    0.105760
  26 H :    0.112986
  27 H :    0.115787
  28 H :    0.124744
  29 H :    0.198424
  30 H :    0.193798
  31 H :    0.102300
  32 H :    0.107763
  33 H :    0.113162
  34 H :    0.118123
  35 H :    0.117523
  36 H :    0.107978
  37 H :    0.103192
  38 H :    0.126570
  39 H :    0.128858
  40 H :    0.107560
Sum of atomic charges:    0.0000000

LOEWDIN ATOMIC CHARGES
----------------------
   0 C :   -0.376071
   1 C :   -0.119808
   2 O :   -0.247712
   3 P :    0.571691
   4 S :   -0.318593
   5 O :   -0.249254
   6 C :   -0.115545
   7 C :   -0.365186
   8 S :    0.102510
   9 C :   -0.482467
  10 S :    0.093807
  11 P :    0.568642
  12 S :   -0.320760
  13 O :   -0.250268
  14 C :   -0.120234
  15 C :   -0.350517
  16 O :   -0.233228
  17 C :   -0.110823
  18 C :   -0.361832
  19 H :    0.121017
  20 H :    0.118534
  21 H :    0.127937
  22 H :    0.107434
  23 H :    0.117849
  24 H :    0.112945
  25 H :    0.118933
  26 H :    0.130866
  27 H :    0.125967
  28 H :    0.123347
  29 H :    0.131170
  30 H :    0.135794
  31 H :    0.111307
  32 H :    0.107825
  33 H :    0.131436
  34 H :    0.127969
  35 H :    0.127182
  36 H :    0.119669
  37 H :    0.109386
  38 H :    0.123790
  39 H :    0.126772
  40 H :    0.128517

  Mayer bond orders larger than 0.100000
B(  0-C ,  1-C ) :   1.1639 B(  0-C , 19-H ) :   0.9277 B(  0-C , 20-H ) :   0.9321
B(  0-C , 21-H ) :   0.9368 B(  1-C ,  2-O ) :   0.9044 B(  1-C , 22-H ) :   0.9175
B(  1-C , 23-H ) :   0.9329 B(  2-O ,  3-P ) :   1.0867 B(  3-P ,  4-S ) :   1.6309
B(  3-P ,  5-O ) :   1.0917 B(  3-P ,  8-S ) :   0.9836 B(  5-O ,  6-C ) :   0.9063
B(  6-C ,  7-C ) :   1.1623 B(  6-C , 24-H ) :   0.9179 B(  6-C , 25-H ) :   0.9357
B(  7-C , 26-H ) :   0.9380 B(  7-C , 27-H ) :   0.9461 B(  7-C , 28-H ) :   0.9360
B(  8-S ,  9-C ) :   0.9862 B(  9-C , 10-S ) :   0.9998 B(  9-C , 29-H ) :   0.8716
B(  9-C , 30-H ) :   0.8888 B( 10-S , 11-P ) :   0.9752 B( 10-S , 12-S ) :   0.1101
B( 11-P , 12-S ) :   1.5924 B( 11-P , 13-O ) :   1.1147 B( 11-P , 16-O ) :   1.1380
B( 13-O , 14-C ) :   0.9039 B( 14-C , 15-C ) :   1.1619 B( 14-C , 31-H ) :   0.9307
B( 14-C , 32-H ) :   0.9068 B( 15-C , 33-H ) :   0.9418 B( 15-C , 34-H ) :   0.9511
B( 15-C , 35-H ) :   0.9507 B( 16-O , 17-C ) :   0.8848 B( 17-C , 18-C ) :   1.1720
B( 17-C , 36-H ) :   0.9329 B( 17-C , 37-H ) :   0.9145 B( 18-C , 38-H ) :   0.9369
B( 18-C , 39-H ) :   0.9426 B( 18-C , 40-H ) :   0.9387

Dispersion correction           -0.064410931
FINAL SINGLE POINT ENERGY     -2929.524366026084

DIPOLE MOMENT
-------------

Method             : SCF
Type of density    : Electron Density
Multiplicity       :   1
Irrep              :   0
Energy             : -2929.6454648451972389 Eh
Relativity type    :
Basis              : AO
                                X                 Y                 Z
Electronic contribution:      4.425954107      -0.165763792     -11.139114708
Nuclear contribution   :     -4.664235402       1.045434097      12.225277008
                        -----------------------------------------
Total Dipole Moment    :     -0.238281296       0.879670305       1.086162300
                        -----------------------------------------
Magnitude (a.u.)       :      1.417866836
Magnitude (Debye)      :      3.603931087

Rotational constants in cm-1:             0.014053             0.004346             0.004143
Rotational constants in MHz :           421.293177           130.293266           124.200112

                             ****ORCA TERMINATED NORMALLY****
TOTAL RUN TIME: 0 days 0 hours 0 minutes 21 seconds 59 msec
