                         Program Version 6.0.0  -   RELEASE  -
|  1> ! pbe def2-sv(p) def2/J RI DEFGRID1 loosescf d4 GCP(DFT/SV(P)) printgap
|  2> %output
|  3>     printlevel normal
|  4> end
|  5> * xyz 0 1
|  6> C 5.470796145 -0.5871377604 0.0080436131
|  7> C 4.2580219892 -1.4930272406 -0.0488558598
|  8> O 3.322849676 -1.0498159205 -1.063094606
|  9> P 2.0991161078 -0.095727127 -0.7864682247
| 10> S 1.1072734537 0.2037454401 -2.4441448581
| 11> O 2.7912898036 1.1629729908 -0.1148265915
| 12> C 2.108949902 2.3949913753 0.181535431
| 13> C 3.1540186334 3.4855577206 0.2963962147
| 14> S 1.0434643318 -1.0263602759 0.817977774
| 15> C -0.2147142054 -1.8823355995 -0.1868419671
| 16> S -1.8418298198 -1.9455481604 0.6021675509
| 17> P -2.4928497852 0.0840468614 0.4940033421
| 18> S -1.1640515124 1.4844824241 0.120780451
| 19> O -3.2975530064 0.3101602806 1.8347077734
| 20> C -2.6722657488 0.8524548776 3.0111427266
| 21> C -1.7191197552 -0.1367069709 3.6529921161
| 22> O -3.768871327 0.0338645218 -0.4440704552
| 23> C -3.8122302238 -0.5787852244 -1.7430822169
| 24> C -2.9907034094 0.1764898513 -2.7702813958
| 25> H 6.1827279197 -0.9931894332 0.7198901981
| 26> H 5.9366609546 -0.527635891 -0.971791509
| 27> H 5.181828069 0.4128180551 0.3193491859
| 28> H 3.7426511934 -1.5285295493 0.9154395123
| 29> H 4.5309300386 -2.5027910338 -0.3605976545
| 30> H 1.3902995257 2.6058506787 -0.6168231471
| 31> H 1.5560207189 2.265404905 1.1151013389
| 32> H 3.6956972833 3.5830570259 -0.6404442279
| 33> H 2.6601391529 4.4243576083 0.523730345
| 34> H 3.8560962496 3.2466563546 1.0899524805
| 35> H 0.0808587222 -2.9212435015 -0.3098887275
| 36> H -0.2748826336 -1.3707188813 -1.1511799206
| 37> H -2.1471791655 1.7729638896 2.7343740175
| 38> H -3.5106429713 1.0880814601 3.668024252
| 39> H -2.2221312871 -1.0844203237 3.8272277711
| 40> H -0.8604613076 -0.3090885026 3.0039693777
| 41> H -1.3680725206 0.2646657847 4.5981522937
| 42> H -3.4747317614 -1.6166461673 -1.6562218825
| 43> H -4.873061924 -0.5602639738 -1.9994672378
| 44> H -3.2970292586 1.2190995982 -2.80405893
| 45> H -1.9284934237 0.1438685974 -2.527931853
| 46> H -3.1349786962 -0.2709073023 -3.7484446588
| 47> *
| 48>
| 49>                          ****END OF INPUT****

CARTESIAN COORDINATES (ANGSTROEM)
---------------------------------
  C      5.470796   -0.587138    0.008044
  C      4.258022   -1.493027   -0.048856
  O      3.322850   -1.049816   -1.063095
  P      2.099116   -0.095727   -0.786468
  S      1.107273    0.203745   -2.444145
  O      2.791290    1.162973   -0.114827
  C      2.108950    2.394991    0.181535
  C      3.154019    3.485558    0.296396
  S      1.043464   -1.026360    0.817978
  C     -0.214714   -1.882336   -0.186842
  S     -1.841830   -1.945548    0.602168
  P     -2.492850    0.084047    0.494003
  S     -1.164052    1.484482    0.120780
  O     -3.297553    0.310160    1.834708
  C     -2.672266    0.852455    3.011143
  C     -1.719120   -0.136707    3.652992
  O     -3.768871    0.033865   -0.444070
  C     -3.812230   -0.578785   -1.743082
  C     -2.990703    0.176490   -2.770281
  H      6.182728   -0.993189    0.719890
  H      5.936661   -0.527636   -0.971792
  H      5.181828    0.412818    0.319349
  H      3.742651   -1.528530    0.915440
  H      4.530930   -2.502791   -0.360598
  H      1.390300    2.605851   -0.616823
  H      1.556021    2.265405    1.115101
  H      3.695697    3.583057   -0.640444
  H      2.660139    4.424358    0.523730
  H      3.856096    3.246656    1.089952
  H      0.080859   -2.921244   -0.309889
  H     -0.274883   -1.370719   -1.151180
  H     -2.147179    1.772964    2.734374
  H     -3.510643    1.088081    3.668024
  H     -2.222131   -1.084420    3.827228
  H     -0.860461   -0.309089    3.003969
  H     -1.368073    0.264666    4.598152
  H     -3.474732   -1.616646   -1.656222
  H     -4.873062   -0.560264   -1.999467
  H     -3.297029    1.219100   -2.804059
  H     -1.928493    0.143869   -2.527932
  H     -3.134979   -0.270907   -3.748445

 Total Charge           Charge          ....    0
 Multiplicity           Mult            ....    1
 Number of Electrons    NEL             ....  202
 Basis Dimension        Dim             ....  334

ORBITAL ENERGIES
----------------

  NO   OCC          E(Eh)            E(eV)
   0   2.0000     -88.048342     -2395.9172
   1   2.0000     -88.040641     -2395.7076
   2   2.0000     -87.984121     -2394.1697
   3   2.0000     -87.983683     -2394.1577
   4   2.0000     -76.425237     -2079.6364
   5   2.0000     -76.424765     -2079.6236
   6   2.0000     -18.796213      -511.4710
   7   2.0000     -18.789662      -511.2927
   8   2.0000     -18.786168      -511.1976
   9   2.0000     -18.785857      -511.1891
  10   2.0000      -9.956043      -270.9177
  11   2.0000      -9.955856      -270.9126
  12   2.0000      -9.950415      -270.7646
  13   2.0000      -9.950396      -270.7641
  14   2.0000      -9.948350      -270.7084
  15   2.0000      -9.887472      -269.0518
  16   2.0000      -9.886393      -269.0224
  17   2.0000      -9.880542      -268.8632
  18   2.0000      -9.875326      -268.7213
  19   2.0000      -7.692912      -209.3348
  20   2.0000      -7.685152      -209.1236
  21   2.0000      -7.629249      -207.6024
  22   2.0000      -7.628373      -207.5786
  23   2.0000      -6.422849      -174.7746
  24   2.0000      -6.421842      -174.7472
  25   2.0000      -5.720732      -155.6690
  26   2.0000      -5.717260      -155.5745
  27   2.0000      -5.712978      -155.4580
  28   2.0000      -5.710175      -155.3818
  29   2.0000      -5.709859      -155.3732
  30   2.0000      -5.702058      -155.1609
  31   2.0000      -5.658247      -153.9687
  32   2.0000      -5.657245      -153.9415
  33   2.0000      -5.649996      -153.7442
  34   2.0000      -5.649137      -153.7208
  35   2.0000      -5.648999      -153.7171
  36   2.0000      -5.648618      -153.7067
  37   2.0000      -4.645662      -126.4149
  38   2.0000      -4.644559      -126.3849
  39   2.0000      -4.644129      -126.3732
  40   2.0000      -4.644082      -126.3719
  41   2.0000      -4.643116      -126.3456
  42   2.0000      -4.642148      -126.3193
  43   2.0000      -0.988588       -26.9009
  44   2.0000      -0.985507       -26.8170
  45   2.0000      -0.945498       -25.7283
  46   2.0000      -0.941285       -25.6137
  47   2.0000      -0.761014       -20.7083
  48   2.0000      -0.721466       -19.6321
  49   2.0000      -0.710036       -19.3211
  50   2.0000      -0.692324       -18.8391
  51   2.0000      -0.678588       -18.4653
  52   2.0000      -0.675768       -18.3886
  53   2.0000      -0.650216       -17.6933
  54   2.0000      -0.636337       -17.3156
  55   2.0000      -0.595834       -16.2135
  56   2.0000      -0.589095       -16.0301
  57   2.0000      -0.572549       -15.5799
  58   2.0000      -0.568293       -15.4640
  59   2.0000      -0.560081       -15.2406
  60   2.0000      -0.509363       -13.8605
  61   2.0000      -0.493598       -13.4315
  62   2.0000      -0.482067       -13.1177
  63   2.0000      -0.465422       -12.6648
  64   2.0000      -0.450876       -12.2690
  65   2.0000      -0.446911       -12.1611
  66   2.0000      -0.440348       -11.9825
  67   2.0000      -0.431800       -11.7499
  68   2.0000      -0.425092       -11.5673
  69   2.0000      -0.418869       -11.3980
  70   2.0000      -0.411166       -11.1884
  71   2.0000      -0.404848       -11.0165
  72   2.0000      -0.391222       -10.6457
  73   2.0000      -0.387529       -10.5452
  74   2.0000      -0.379255       -10.3201
  75   2.0000      -0.367489        -9.9999
  76   2.0000      -0.365530        -9.9466
  77   2.0000      -0.356055        -9.6888
  78   2.0000      -0.354263        -9.6400
  79   2.0000      -0.349011        -9.4971
  80   2.0000      -0.345338        -9.3971
  81   2.0000      -0.343391        -9.3442
  82   2.0000      -0.339902        -9.2492
  83   2.0000      -0.337699        -9.1892
  84   2.0000      -0.333378        -9.0717
  85   2.0000      -0.315225        -8.5777
  86   2.0000      -0.310779        -8.4567
  87   2.0000      -0.299129        -8.1397
  88   2.0000      -0.295775        -8.0484
  89   2.0000      -0.290403        -7.9023
  90   2.0000      -0.285215        -7.7611
  91   2.0000      -0.273611        -7.4453
  92   2.0000      -0.267975        -7.2920
  93   2.0000      -0.261092        -7.1047
  94   2.0000      -0.258473        -7.0334
  95   2.0000      -0.239439        -6.5155
  96   2.0000      -0.224918        -6.1203
  97   2.0000      -0.211662        -5.7596
  98   2.0000      -0.203540        -5.5386
  99   2.0000      -0.189086        -5.1453
 100   2.0000      -0.187732        -5.1084
 101   0.0000      -0.046761        -1.2724
 102   0.0000      -0.033441        -0.9100
 103   0.0000      -0.016166        -0.4399
 104   0.0000       0.002628         0.0715
 105   0.0000       0.018016         0.4902

MULLIKEN ATOMIC CHARGES
-----------------------
   0 C :   -0.293828
   1 C :   -0.012873
   2 O :   -0.356202
   3 P :    0.614886
   4 S :   -0.296900
   5 O :   -0.383460
   6 C :   -0.029929
   7 C :   -0.277384
   8 S :   -0.110719
   9 C :   -0.337364
  10 S :   -0.119400
  11 P :    0.601092
  12 S :   -0.324190
  13 O :   -0.354318
  14 C :   -0.000773
  15 C :   -0.325753
  16 O :   -0.351274
  17 C :   -0.010770
  18 C :   -0.329054
  19 H :    0.108602
  20 H :    0.120093
  21 H :    0.124513
  22 H :    0.100780
  23 H :    0.108412
  24 H :    0.124622
  25 H :    0.113260
  26 H :    0.119993
  27 H :    0.115109
  28 H :    0.114334
  29 H :    0.181032
  30 H :    0.197911
  31 H :    0.107964
  32 H :    0.105345
  33 H :    0.116573
  34 H :    0.136307
  35 H :    0.108644
  36 H :    0.105116
  37 H :    0.107006
  38 H :    0.120175
  39 H :    0.154450
  40 H :    0.107971
Sum of atomic charges:   -0.0000000

LOEWDIN ATOMIC CHARGES
----------------------
   0 C :   -0.360938
   1 C :   -0.116097
   2 O :   -0.239217
   3 P :    0.571723
   4 S :   -0.289653
   5 O :   -0.242919
   6 C :   -0.120575
   7 C :   -0.351035
   8 S :    0.062701
   9 C :   -0.479873
  10 S :    0.082635
  11 P :    0.563958
  12 S :   -0.299694
  13 O :   -0.234117
  14 C :   -0.119493
  15 C :   -0.371564
  16 O :   -0.232160
  17 C :   -0.119463
  18 C :   -0.369893
  19 H :    0.128886
  20 H :    0.129005
  21 H :    0.125509
  22 H :    0.101620
  23 H :    0.120676
  24 H :    0.111344
  25 H :    0.110738
  26 H :    0.128695
  27 H :    0.132579
  28 H :    0.124213
  29 H :    0.135708
  30 H :    0.119477
  31 H :    0.107669
  32 H :    0.118734
  33 H :    0.124507
  34 H :    0.115054
  35 H :    0.128978
  36 H :    0.101697
  37 H :    0.120296
  38 H :    0.129532
  39 H :    0.121863
  40 H :    0.128893

  Mayer bond orders larger than 0.100000
B(  0-C ,  1-C ) :   1.1623 B(  0-C , 19-H ) :   0.9395 B(  0-C , 20-H ) :   0.9468
B(  0-C , 21-H ) :   0.9406 B(  1-C ,  2-O ) :   0.8996 B(  1-C , 22-H ) :   0.9107
B(  1-C , 23-H ) :   0.9368 B(  2-O ,  3-P ) :   1.1367 B(  3-P ,  4-S ) :   1.6405
B(  3-P ,  5-O ) :   1.0973 B(  3-P ,  8-S ) :   0.9453 B(  4-S ,  8-S ) :   0.1156
B(  4-S , 30-H ) :   0.1162 B(  5-O ,  6-C ) :   0.8978 B(  6-C ,  7-C ) :   1.1533
B(  6-C , 24-H ) :   0.9119 B(  6-C , 25-H ) :   0.9281 B(  7-C , 26-H ) :   0.9498
B(  7-C , 27-H ) :   0.9421 B(  7-C , 28-H ) :   0.9498 B(  8-S ,  9-C ) :   0.9932
B(  9-C , 10-S ) :   1.0000 B(  9-C , 29-H ) :   0.9088 B(  9-C , 30-H ) :   0.8495
B( 10-S , 11-P ) :   0.9252 B( 10-S , 12-S ) :   0.1264 B( 11-P , 12-S ) :   1.6376
B( 11-P , 13-O ) :   1.1312 B( 11-P , 16-O ) :   1.1316 B( 13-O , 14-C ) :   0.9129
B( 14-C , 15-C ) :   1.1629 B( 14-C , 31-H ) :   0.9116 B( 14-C , 32-H ) :   0.9339
B( 15-C , 33-H ) :   0.9446 B( 15-C , 34-H ) :   0.9297 B( 15-C , 35-H ) :   0.9383
B( 16-O , 17-C ) :   0.9229 B( 17-C , 18-C ) :   1.1579 B( 17-C , 36-H ) :   0.9153
B( 17-C , 37-H ) :   0.9342 B( 18-C , 38-H ) :   0.9443 B( 18-C , 39-H ) :   0.9250
B( 18-C , 40-H ) :   0.9371

Dispersion correction           -0.065197353
FINAL SINGLE POINT ENERGY     -2929.515647940153

DIPOLE MOMENT
-------------

Method             : SCF
Type of density    : Electron Density
Multiplicity       :   1
Irrep              :   0
Energy             : -2929.6342380619412324 Eh
Relativity type    :
Basis              : AO
                                X                 Y                 Z
Electronic contribution:    -10.765872516      -7.287976820      -4.698782955
Nuclear contribution   :     11.359933152       6.941850834       5.664801828
                        -----------------------------------------
Total Dipole Moment    :      0.594060636      -0.346125986       0.966018874
                        -----------------------------------------
Magnitude (a.u.)       :      1.185708101
Magnitude (Debye)      :      3.013830481

Rotational constants in cm-1:             0.011671             0.005009             0.004787
Rotational constants in MHz :           349.901576           150.151767           143.515793

                             ****ORCA TERMINATED NORMALLY****
TOTAL RUN TIME: 0 days 0 hours 0 minutes 20 seconds 960 msec
