                         Program Version 6.0.0  -   RELEASE  -
|  1> ! pbe def2-sv(p) def2/J RI DEFGRID1 loosescf d4 GCP(DFT/SV(P)) printgap
|  2> %output
|  3>     printlevel normal
|  4> end
|  5> * xyz 0 1
|  6> C 2.6563338819 2.3424512659 1.258091987
|  7> C 1.2449124056 1.9509222926 1.6363352837
|  8> O 1.0950582275 0.5384760544 1.921189728
|  9> P 1.60093418 -0.6587018921 1.0303664409
| 10> S 0.7990301205 -2.3743778113 1.5360432208
| 11> O 3.1713033379 -0.6092190787 1.3126473135
| 12> C 4.0410327191 -1.7286362811 1.0919072128
| 13> C 4.1475637421 -2.1044093216 -0.3727179333
| 14> S 1.4227764109 -0.0522515445 -1.0066691856
| 15> C 0.3620716652 -1.3724929796 -1.6371953132
| 16> S -1.2266963688 -0.7973639524 -2.3172915383
| 17> P -2.003633869 0.3778184713 -0.7448878862
| 18> S -3.9386596668 0.6563643795 -0.82339219
| 19> O -1.1536828263 1.7280458807 -0.6867129165
| 20> C -1.4708365251 2.8665805247 -1.5075458853
| 21> C -1.0174030167 2.6714887183 -2.9407147667
| 22> O -1.4205847777 -0.3679678388 0.5365019523
| 23> C -2.2370390317 -0.553377365 1.7114905096
| 24> C -2.3034124932 0.7084830087 2.543816292
| 25> H 2.7043290922 3.4218441056 1.1499106453
| 26> H 3.3552115701 2.0260487883 2.0279757621
| 27> H 2.9376570263 1.8796705985 0.3135314368
| 28> H 0.5403515322 2.205297214 0.8412574018
| 29> H 0.9358300951 2.4274121634 2.5686523032
| 30> H 4.999996345 -1.395050566 1.4908084044
| 31> H 3.6711319026 -2.5757732639 1.6784481209
| 32> H 4.9205447098 -2.8568163473 -0.492205276
| 33> H 3.2015614068 -2.5171546995 -0.7205102458
| 34> H 4.3971760443 -1.2324517864 -0.9716719373
| 35> H 0.1793418232 -2.0893021996 -0.8317840967
| 36> H 0.8594448369 -1.8432297438 -2.4820477679
| 37> H -2.5513205418 3.0373576916 -1.4582119091
| 38> H -0.9431611108 3.6937346825 -1.0300385837
| 39> H -1.6074503581 1.8918253254 -3.4203024211
| 40> H -1.1509583328 3.5999557561 -3.4864166863
| 41> H 0.0311999354 2.3845736198 -2.9666156193
| 42> H -3.2380360378 -0.8606374104 1.3934591947
| 43> H -1.7527957272 -1.3716711906 2.2477716051
| 44> H -2.9158109386 0.5233876933 3.4206251686
| 45> H -1.3053571131 1.0034052571 2.855201493
| 46> H -2.7510799571 1.5108573513 1.95872981
| 47> *
| 48>
| 49>                          ****END OF INPUT****

CARTESIAN COORDINATES (ANGSTROEM)
---------------------------------
  C      2.656334    2.342451    1.258092
  C      1.244912    1.950922    1.636335
  O      1.095058    0.538476    1.921190
  P      1.600934   -0.658702    1.030366
  S      0.799030   -2.374378    1.536043
  O      3.171303   -0.609219    1.312647
  C      4.041033   -1.728636    1.091907
  C      4.147564   -2.104409   -0.372718
  S      1.422776   -0.052252   -1.006669
  C      0.362072   -1.372493   -1.637195
  S     -1.226696   -0.797364   -2.317292
  P     -2.003634    0.377818   -0.744888
  S     -3.938660    0.656364   -0.823392
  O     -1.153683    1.728046   -0.686713
  C     -1.470837    2.866581   -1.507546
  C     -1.017403    2.671489   -2.940715
  O     -1.420585   -0.367968    0.536502
  C     -2.237039   -0.553377    1.711491
  C     -2.303412    0.708483    2.543816
  H      2.704329    3.421844    1.149911
  H      3.355212    2.026049    2.027976
  H      2.937657    1.879671    0.313531
  H      0.540352    2.205297    0.841257
  H      0.935830    2.427412    2.568652
  H      4.999996   -1.395051    1.490808
  H      3.671132   -2.575773    1.678448
  H      4.920545   -2.856816   -0.492205
  H      3.201561   -2.517155   -0.720510
  H      4.397176   -1.232452   -0.971672
  H      0.179342   -2.089302   -0.831784
  H      0.859445   -1.843230   -2.482048
  H     -2.551321    3.037358   -1.458212
  H     -0.943161    3.693735   -1.030039
  H     -1.607450    1.891825   -3.420302
  H     -1.150958    3.599956   -3.486417
  H      0.031200    2.384574   -2.966616
  H     -3.238036   -0.860637    1.393459
  H     -1.752796   -1.371671    2.247772
  H     -2.915811    0.523388    3.420625
  H     -1.305357    1.003405    2.855201
  H     -2.751080    1.510857    1.958730

 Total Charge           Charge          ....    0
 Multiplicity           Mult            ....    1
 Number of Electrons    NEL             ....  202
 Basis Dimension        Dim             ....  334

ORBITAL ENERGIES
----------------

  NO   OCC          E(Eh)            E(eV)
   0   2.0000     -88.049243     -2395.9417
   1   2.0000     -88.042557     -2395.7598
   2   2.0000     -87.990757     -2394.3502
   3   2.0000     -87.988326     -2394.2841
   4   2.0000     -76.431785     -2079.8146
   5   2.0000     -76.425794     -2079.6516
   6   2.0000     -18.795782      -511.4592
   7   2.0000     -18.792636      -511.3736
   8   2.0000     -18.791603      -511.3455
   9   2.0000     -18.788064      -511.2492
  10   2.0000      -9.957861      -270.9672
  11   2.0000      -9.957742      -270.9639
  12   2.0000      -9.953955      -270.8609
  13   2.0000      -9.953465      -270.8475
  14   2.0000      -9.939657      -270.4718
  15   2.0000      -9.893038      -269.2033
  16   2.0000      -9.887526      -269.0533
  17   2.0000      -9.885075      -268.9866
  18   2.0000      -9.874627      -268.7023
  19   2.0000      -7.693617      -209.3540
  20   2.0000      -7.687919      -209.1989
  21   2.0000      -7.635683      -207.7775
  22   2.0000      -7.633443      -207.7166
  23   2.0000      -6.428775      -174.9359
  24   2.0000      -6.423636      -174.7960
  25   2.0000      -5.721529      -155.6907
  26   2.0000      -5.718190      -155.5999
  27   2.0000      -5.716265      -155.5475
  28   2.0000      -5.712063      -155.4331
  29   2.0000      -5.710527      -155.3913
  30   2.0000      -5.704752      -155.2342
  31   2.0000      -5.664693      -154.1441
  32   2.0000      -5.662388      -154.0814
  33   2.0000      -5.656471      -153.9204
  34   2.0000      -5.655518      -153.8945
  35   2.0000      -5.654233      -153.8595
  36   2.0000      -5.653413      -153.8372
  37   2.0000      -4.651414      -126.5714
  38   2.0000      -4.650487      -126.5462
  39   2.0000      -4.649335      -126.5148
  40   2.0000      -4.645942      -126.4225
  41   2.0000      -4.645595      -126.4131
  42   2.0000      -4.644109      -126.3726
  43   2.0000      -0.989614       -26.9288
  44   2.0000      -0.984116       -26.7791
  45   2.0000      -0.946892       -25.7662
  46   2.0000      -0.943188       -25.6655
  47   2.0000      -0.764275       -20.7970
  48   2.0000      -0.722306       -19.6549
  49   2.0000      -0.709813       -19.3150
  50   2.0000      -0.693475       -18.8704
  51   2.0000      -0.685379       -18.6501
  52   2.0000      -0.676537       -18.4095
  53   2.0000      -0.655699       -17.8425
  54   2.0000      -0.640336       -17.4244
  55   2.0000      -0.604009       -16.4359
  56   2.0000      -0.597212       -16.2510
  57   2.0000      -0.579001       -15.7554
  58   2.0000      -0.566296       -15.4097
  59   2.0000      -0.563727       -15.3398
  60   2.0000      -0.498395       -13.5620
  61   2.0000      -0.490582       -13.3494
  62   2.0000      -0.473543       -12.8857
  63   2.0000      -0.471289       -12.8244
  64   2.0000      -0.458329       -12.4718
  65   2.0000      -0.450306       -12.2534
  66   2.0000      -0.443749       -12.0750
  67   2.0000      -0.439022       -11.9464
  68   2.0000      -0.431832       -11.7507
  69   2.0000      -0.417454       -11.3595
  70   2.0000      -0.412833       -11.2337
  71   2.0000      -0.403614       -10.9829
  72   2.0000      -0.396611       -10.7923
  73   2.0000      -0.390456       -10.6249
  74   2.0000      -0.383047       -10.4232
  75   2.0000      -0.372756       -10.1432
  76   2.0000      -0.367775       -10.0077
  77   2.0000      -0.362044        -9.8517
  78   2.0000      -0.358860        -9.7651
  79   2.0000      -0.353349        -9.6151
  80   2.0000      -0.349751        -9.5172
  81   2.0000      -0.345829        -9.4105
  82   2.0000      -0.340822        -9.2742
  83   2.0000      -0.339266        -9.2319
  84   2.0000      -0.327003        -8.8982
  85   2.0000      -0.320370        -8.7177
  86   2.0000      -0.314131        -8.5479
  87   2.0000      -0.299893        -8.1605
  88   2.0000      -0.297580        -8.0976
  89   2.0000      -0.293510        -7.9868
  90   2.0000      -0.282732        -7.6935
  91   2.0000      -0.274331        -7.4649
  92   2.0000      -0.272067        -7.4033
  93   2.0000      -0.262564        -7.1447
  94   2.0000      -0.261943        -7.1278
  95   2.0000      -0.230436        -6.2705
  96   2.0000      -0.220936        -6.0120
  97   2.0000      -0.213112        -5.7991
  98   2.0000      -0.209387        -5.6977
  99   2.0000      -0.203073        -5.5259
 100   2.0000      -0.199085        -5.4174
 101   0.0000      -0.045509        -1.2384
 102   0.0000      -0.036711        -0.9990
 103   0.0000      -0.024156        -0.6573
 104   0.0000       0.002132         0.0580
 105   0.0000       0.012834         0.3492

MULLIKEN ATOMIC CHARGES
-----------------------
   0 C :   -0.304905
   1 C :   -0.047142
   2 O :   -0.364270
   3 P :    0.619805
   4 S :   -0.303538
   5 O :   -0.374593
   6 C :    0.001508
   7 C :   -0.315732
   8 S :   -0.123413
   9 C :   -0.336100
  10 S :   -0.089548
  11 P :    0.627317
  12 S :   -0.318348
  13 O :   -0.368052
  14 C :   -0.007342
  15 C :   -0.308657
  16 O :   -0.380683
  17 C :   -0.010094
  18 C :   -0.316748
  19 H :    0.114097
  20 H :    0.125440
  21 H :    0.123941
  22 H :    0.147473
  23 H :    0.112012
  24 H :    0.103635
  25 H :    0.113069
  26 H :    0.113549
  27 H :    0.119480
  28 H :    0.117635
  29 H :    0.202552
  30 H :    0.180963
  31 H :    0.112166
  32 H :    0.100012
  33 H :    0.127158
  34 H :    0.111500
  35 H :    0.114490
  36 H :    0.112103
  37 H :    0.116452
  38 H :    0.108718
  39 H :    0.131163
  40 H :    0.112928
Sum of atomic charges:    0.0000000

LOEWDIN ATOMIC CHARGES
----------------------
   0 C :   -0.366482
   1 C :   -0.121200
   2 O :   -0.230153
   3 P :    0.586943
   4 S :   -0.285757
   5 O :   -0.246911
   6 C :   -0.118852
   7 C :   -0.370318
   8 S :    0.080743
   9 C :   -0.482159
  10 S :    0.086123
  11 P :    0.570172
  12 S :   -0.311610
  13 O :   -0.241391
  14 C :   -0.121552
  15 C :   -0.367288
  16 O :   -0.244208
  17 C :   -0.123409
  18 C :   -0.366289
  19 H :    0.132311
  20 H :    0.129800
  21 H :    0.115570
  22 H :    0.117625
  23 H :    0.121520
  24 H :    0.118256
  25 H :    0.111335
  26 H :    0.130835
  27 H :    0.118652
  28 H :    0.123150
  29 H :    0.124446
  30 H :    0.137152
  31 H :    0.109361
  32 H :    0.113678
  33 H :    0.121168
  34 H :    0.129823
  35 H :    0.122613
  36 H :    0.108428
  37 H :    0.113815
  38 H :    0.130203
  39 H :    0.125485
  40 H :    0.118375

  Mayer bond orders larger than 0.100000
B(  0-C ,  1-C ) :   1.1735 B(  0-C , 19-H ) :   0.9342 B(  0-C , 20-H ) :   0.9403
B(  0-C , 21-H ) :   0.9359 B(  1-C ,  2-O ) :   0.8870 B(  1-C , 22-H ) :   0.9021
B(  1-C , 23-H ) :   0.9284 B(  2-O ,  3-P ) :   1.1448 B(  3-P ,  4-S ) :   1.5923
B(  3-P ,  5-O ) :   1.0812 B(  3-P ,  8-S ) :   0.9434 B(  4-S ,  8-S ) :   0.1134
B(  4-S , 29-H ) :   0.1181 B(  5-O ,  6-C ) :   0.9169 B(  6-C ,  7-C ) :   1.1640
B(  6-C , 24-H ) :   0.9340 B(  6-C , 25-H ) :   0.9160 B(  7-C , 26-H ) :   0.9375
B(  7-C , 27-H ) :   0.9387 B(  7-C , 28-H ) :   0.9428 B(  8-S ,  9-C ) :   1.0120
B(  9-C , 10-S ) :   0.9820 B(  9-C , 29-H ) :   0.8467 B(  9-C , 30-H ) :   0.9076
B( 10-S , 11-P ) :   0.9839 B( 11-P , 12-S ) :   1.6366 B( 11-P , 13-O ) :   1.0611
B( 11-P , 16-O ) :   1.1070 B( 13-O , 14-C ) :   0.9107 B( 14-C , 15-C ) :   1.1658
B( 14-C , 31-H ) :   0.9118 B( 14-C , 32-H ) :   0.9314 B( 15-C , 33-H ) :   0.9381
B( 15-C , 34-H ) :   0.9387 B( 15-C , 35-H ) :   0.9449 B( 16-O , 17-C ) :   0.8868
B( 17-C , 18-C ) :   1.1668 B( 17-C , 36-H ) :   0.9144 B( 17-C , 37-H ) :   0.9134
B( 18-C , 38-H ) :   0.9389 B( 18-C , 39-H ) :   0.9368 B( 18-C , 40-H ) :   0.9373

Dispersion correction           -0.070218103
FINAL SINGLE POINT ENERGY     -2929.516043118607

DIPOLE MOMENT
-------------

Method             : SCF
Type of density    : Electron Density
Multiplicity       :   1
Irrep              :   0
Energy             : -2929.6361921260604504 Eh
Relativity type    :
Basis              : AO
                                X                 Y                 Z
Electronic contribution:    -12.391634966     -11.427936091      -3.760374877
Nuclear contribution   :     14.090278406      12.412361343       3.700084396
                        -----------------------------------------
Total Dipole Moment    :      1.698643440       0.984425252      -0.060290481
                        -----------------------------------------
Magnitude (a.u.)       :      1.964209142
Magnitude (Debye)      :      4.992622870

Rotational constants in cm-1:             0.012057             0.005853             0.005703
Rotational constants in MHz :           361.451615           175.467688           170.968123

                             ****ORCA TERMINATED NORMALLY****
TOTAL RUN TIME: 0 days 0 hours 0 minutes 23 seconds 817 msec
