                         Program Version 6.0.0  -   RELEASE  -
|  1> ! pbe def2-sv(p) def2/J RI DEFGRID1 loosescf d4 GCP(DFT/SV(P)) printgap
|  2> %output
|  3>     printlevel normal
|  4> end
|  5> * xyz 0 1
|  6> C 1.2678715362 -0.3776490341 -3.431708135
|  7> C 1.8637867736 -0.9627600221 -2.1692693357
|  8> O 1.9628801643 0.1026351777 -1.1902467378
|  9> P 2.175860566 -0.1720247925 0.3448576208
| 10> S 2.4284951183 1.4819904695 1.3562852482
| 11> O 3.3970078311 -1.1937109709 0.2767652946
| 12> C 3.8898955496 -1.9886188834 1.3715496924
| 13> C 4.5891096554 -1.1566908571 2.4274326989
| 14> S 0.6092599606 -1.4430419258 1.028614494
| 15> C -0.3669883417 -0.2677010563 2.0186823479
| 16> S -2.1058169857 -0.2401153563 1.5473752046
| 17> P -1.8520787904 0.582635416 -0.4025379624
| 18> S -0.5875772703 2.0711227806 -0.5589392092
| 19> O -3.3496257355 0.8105411742 -0.8776322301
| 20> C -4.3665930724 1.4883509028 -0.1163130844
| 21> C -3.9449755078 2.8744439868 0.3228978876
| 22> O -1.3904885028 -0.6013288923 -1.336181424
| 23> C -2.1403796016 -1.8345279315 -1.4887946732
| 24> C -2.8954634175 -1.8298073657 -2.8015077715
| 25> H 1.8986710108 0.4250554399 -3.803007899
| 26> H 1.1883271453 -1.1558764897 -4.1838513191
| 27> H 0.2818579884 0.0290054082 -3.2204248033
| 28> H 2.8690650813 -1.3531927185 -2.3387187637
| 29> H 1.2307930561 -1.7538459718 -1.7558172589
| 30> H 3.0528675478 -2.5452384638 1.8022781886
| 31> H 4.5833639841 -2.6807121646 0.8899866326
| 32> H 5.0126632925 -1.8156788768 3.178436666
| 33> H 5.3829678945 -0.5664060206 1.9768698231
| 34> H 3.8865352582 -0.4762039163 2.9039494933
| 35> H 0.0733290687 0.7274452365 1.9020462385
| 36> H -0.3393621807 -0.5900967974 3.0565441237
| 37> H -5.2157169459 1.529112182 -0.8007757707
| 38> H -4.6141952398 0.8674389916 0.7490362232
| 39> H -3.6395644523 3.4687650165 -0.5352107234
| 40> H -4.7742189572 3.3636318915 0.8235974039
| 41> H -3.1022791378 2.8116723065 1.0104257321
| 42> H -1.3887102464 -2.6259559479 -1.459427756
| 43> H -2.8195148974 -1.9462311253 -0.639304408
| 44> H -3.419172472 -2.7739597448 -2.9125370369
| 45> H -3.6144946363 -1.0149340471 -2.8166294962
| 46> H -2.2053790725 -1.7020742635 -3.630838346
| 47> *
| 48>
| 49>                          ****END OF INPUT****

CARTESIAN COORDINATES (ANGSTROEM)
---------------------------------
  C      1.267872   -0.377649   -3.431708
  C      1.863787   -0.962760   -2.169269
  O      1.962880    0.102635   -1.190247
  P      2.175861   -0.172025    0.344858
  S      2.428495    1.481990    1.356285
  O      3.397008   -1.193711    0.276765
  C      3.889896   -1.988619    1.371550
  C      4.589110   -1.156691    2.427433
  S      0.609260   -1.443042    1.028614
  C     -0.366988   -0.267701    2.018682
  S     -2.105817   -0.240115    1.547375
  P     -1.852079    0.582635   -0.402538
  S     -0.587577    2.071123   -0.558939
  O     -3.349626    0.810541   -0.877632
  C     -4.366593    1.488351   -0.116313
  C     -3.944976    2.874444    0.322898
  O     -1.390489   -0.601329   -1.336181
  C     -2.140380   -1.834528   -1.488795
  C     -2.895463   -1.829807   -2.801508
  H      1.898671    0.425055   -3.803008
  H      1.188327   -1.155876   -4.183851
  H      0.281858    0.029005   -3.220425
  H      2.869065   -1.353193   -2.338719
  H      1.230793   -1.753846   -1.755817
  H      3.052868   -2.545238    1.802278
  H      4.583364   -2.680712    0.889987
  H      5.012663   -1.815679    3.178437
  H      5.382968   -0.566406    1.976870
  H      3.886535   -0.476204    2.903949
  H      0.073329    0.727445    1.902046
  H     -0.339362   -0.590097    3.056544
  H     -5.215717    1.529112   -0.800776
  H     -4.614195    0.867439    0.749036
  H     -3.639564    3.468765   -0.535211
  H     -4.774219    3.363632    0.823597
  H     -3.102279    2.811672    1.010426
  H     -1.388710   -2.625956   -1.459428
  H     -2.819515   -1.946231   -0.639304
  H     -3.419172   -2.773960   -2.912537
  H     -3.614495   -1.014934   -2.816629
  H     -2.205379   -1.702074   -3.630838

 Total Charge           Charge          ....    0
 Multiplicity           Mult            ....    1
 Number of Electrons    NEL             ....  202
 Basis Dimension        Dim             ....  334

ORBITAL ENERGIES
----------------

  NO   OCC          E(Eh)            E(eV)
   0   2.0000     -88.046364     -2395.8634
   1   2.0000     -88.041293     -2395.7254
   2   2.0000     -87.977422     -2393.9874
   3   2.0000     -87.976722     -2393.9683
   4   2.0000     -76.424457     -2079.6152
   5   2.0000     -76.419600     -2079.4830
   6   2.0000     -18.796371      -511.4753
   7   2.0000     -18.791584      -511.3450
   8   2.0000     -18.788264      -511.2547
   9   2.0000     -18.780753      -511.0503
  10   2.0000      -9.961521      -271.0668
  11   2.0000      -9.956866      -270.9401
  12   2.0000      -9.954373      -270.8723
  13   2.0000      -9.951957      -270.8065
  14   2.0000      -9.946865      -270.6680
  15   2.0000      -9.889595      -269.1096
  16   2.0000      -9.883459      -268.9426
  17   2.0000      -9.877600      -268.7832
  18   2.0000      -9.875729      -268.7322
  19   2.0000      -7.691374      -209.2929
  20   2.0000      -7.685902      -209.1440
  21   2.0000      -7.622325      -207.4140
  22   2.0000      -7.621949      -207.4038
  23   2.0000      -6.421637      -174.7416
  24   2.0000      -6.416809      -174.6103
  25   2.0000      -5.719116      -155.6250
  26   2.0000      -5.715673      -155.5314
  27   2.0000      -5.713676      -155.4770
  28   2.0000      -5.710263      -155.3842
  29   2.0000      -5.708732      -155.3425
  30   2.0000      -5.703174      -155.1913
  31   2.0000      -5.651531      -153.7860
  32   2.0000      -5.651125      -153.7749
  33   2.0000      -5.642803      -153.5485
  34   2.0000      -5.642447      -153.5388
  35   2.0000      -5.642379      -153.5369
  36   2.0000      -5.641912      -153.5242
  37   2.0000      -4.644531      -126.3841
  38   2.0000      -4.643743      -126.3627
  39   2.0000      -4.641476      -126.3010
  40   2.0000      -4.639488      -126.2469
  41   2.0000      -4.638785      -126.2277
  42   2.0000      -4.637044      -126.1804
  43   2.0000      -0.990575       -26.9549
  44   2.0000      -0.981333       -26.7034
  45   2.0000      -0.946954       -25.7679
  46   2.0000      -0.935449       -25.4549
  47   2.0000      -0.762537       -20.7497
  48   2.0000      -0.719393       -19.5757
  49   2.0000      -0.709933       -19.3183
  50   2.0000      -0.693203       -18.8630
  51   2.0000      -0.683279       -18.5930
  52   2.0000      -0.675940       -18.3933
  53   2.0000      -0.647683       -17.6244
  54   2.0000      -0.631915       -17.1953
  55   2.0000      -0.589331       -16.0365
  56   2.0000      -0.582664       -15.8551
  57   2.0000      -0.576597       -15.6900
  58   2.0000      -0.569651       -15.5010
  59   2.0000      -0.562042       -15.2939
  60   2.0000      -0.508237       -13.8298
  61   2.0000      -0.498480       -13.5643
  62   2.0000      -0.476770       -12.9736
  63   2.0000      -0.471605       -12.8330
  64   2.0000      -0.454241       -12.3605
  65   2.0000      -0.448663       -12.2087
  66   2.0000      -0.441283       -12.0079
  67   2.0000      -0.433566       -11.7979
  68   2.0000      -0.426394       -11.6028
  69   2.0000      -0.413082       -11.2405
  70   2.0000      -0.411473       -11.1968
  71   2.0000      -0.404535       -11.0080
  72   2.0000      -0.397292       -10.8109
  73   2.0000      -0.387913       -10.5557
  74   2.0000      -0.378869       -10.3095
  75   2.0000      -0.362509        -9.8644
  76   2.0000      -0.357851        -9.7376
  77   2.0000      -0.351331        -9.5602
  78   2.0000      -0.349147        -9.5008
  79   2.0000      -0.347527        -9.4567
  80   2.0000      -0.344586        -9.3767
  81   2.0000      -0.343700        -9.3526
  82   2.0000      -0.340373        -9.2620
  83   2.0000      -0.333051        -9.0628
  84   2.0000      -0.330333        -8.9888
  85   2.0000      -0.320496        -8.7211
  86   2.0000      -0.312074        -8.4920
  87   2.0000      -0.298481        -8.1221
  88   2.0000      -0.292802        -7.9675
  89   2.0000      -0.291146        -7.9225
  90   2.0000      -0.287532        -7.8241
  91   2.0000      -0.280143        -7.6231
  92   2.0000      -0.266352        -7.2478
  93   2.0000      -0.262585        -7.1453
  94   2.0000      -0.255944        -6.9646
  95   2.0000      -0.236914        -6.4468
  96   2.0000      -0.222398        -6.0517
  97   2.0000      -0.208004        -5.6601
  98   2.0000      -0.196226        -5.3396
  99   2.0000      -0.188146        -5.1197
 100   2.0000      -0.179104        -4.8737
 101   0.0000      -0.039864        -1.0847
 102   0.0000      -0.029326        -0.7980
 103   0.0000      -0.011673        -0.3176
 104   0.0000       0.011155         0.3035
 105   0.0000       0.019411         0.5282

MULLIKEN ATOMIC CHARGES
-----------------------
   0 C :   -0.290832
   1 C :   -0.012104
   2 O :   -0.345642
   3 P :    0.615635
   4 S :   -0.286614
   5 O :   -0.386188
   6 C :   -0.009188
   7 C :   -0.302228
   8 S :   -0.136059
   9 C :   -0.339872
  10 S :   -0.120650
  11 P :    0.576107
  12 S :   -0.266442
  13 O :   -0.379635
  14 C :   -0.014293
  15 C :   -0.309340
  16 O :   -0.348295
  17 C :   -0.012246
  18 C :   -0.286648
  19 H :    0.118396
  20 H :    0.098613
  21 H :    0.139595
  22 H :    0.103801
  23 H :    0.097378
  24 H :    0.104074
  25 H :    0.102840
  26 H :    0.105307
  27 H :    0.119684
  28 H :    0.125512
  29 H :    0.209868
  30 H :    0.179764
  31 H :    0.109286
  32 H :    0.113890
  33 H :    0.128360
  34 H :    0.111397
  35 H :    0.129932
  36 H :    0.109350
  37 H :    0.098035
  38 H :    0.109168
  39 H :    0.120743
  40 H :    0.119543
Sum of atomic charges:   -0.0000000

LOEWDIN ATOMIC CHARGES
----------------------
   0 C :   -0.355718
   1 C :   -0.112726
   2 O :   -0.225710
   3 P :    0.567940
   4 S :   -0.288374
   5 O :   -0.248820
   6 C :   -0.118361
   7 C :   -0.367661
   8 S :    0.057385
   9 C :   -0.479337
  10 S :    0.060535
  11 P :    0.555763
  12 S :   -0.277596
  13 O :   -0.246754
  14 C :   -0.115265
  15 C :   -0.369409
  16 O :   -0.230146
  17 C :   -0.118314
  18 C :   -0.357368
  19 H :    0.129477
  20 H :    0.124108
  21 H :    0.129518
  22 H :    0.111686
  23 H :    0.100940
  24 H :    0.101932
  25 H :    0.117530
  26 H :    0.127315
  27 H :    0.128913
  28 H :    0.121328
  29 H :    0.125973
  30 H :    0.135881
  31 H :    0.121088
  32 H :    0.107767
  33 H :    0.131520
  34 H :    0.130178
  35 H :    0.123086
  36 H :    0.114793
  37 H :    0.103051
  38 H :    0.129101
  39 H :    0.127324
  40 H :    0.127429

  Mayer bond orders larger than 0.100000
B(  0-C ,  1-C ) :   1.1665 B(  0-C , 19-H ) :   0.9475 B(  0-C , 20-H ) :   0.9402
B(  0-C , 21-H ) :   0.9342 B(  1-C ,  2-O ) :   0.8934 B(  1-C , 22-H ) :   0.9299
B(  1-C , 23-H ) :   0.9133 B(  2-O ,  3-P ) :   1.1432 B(  3-P ,  4-S ) :   1.6504
B(  3-P ,  5-O ) :   1.0695 B(  3-P ,  8-S ) :   0.9388 B(  4-S ,  8-S ) :   0.1163
B(  5-O ,  6-C ) :   0.9204 B(  6-C ,  7-C ) :   1.1641 B(  6-C , 24-H ) :   0.9177
B(  6-C , 25-H ) :   0.9349 B(  7-C , 26-H ) :   0.9368 B(  7-C , 27-H ) :   0.9468
B(  7-C , 28-H ) :   0.9316 B(  8-S ,  9-C ) :   0.9953 B(  9-C , 10-S ) :   1.0031
B(  9-C , 29-H ) :   0.8405 B(  9-C , 30-H ) :   0.9112 B( 10-S , 11-P ) :   0.9296
B( 10-S , 12-S ) :   0.1087 B( 11-P , 12-S ) :   1.6898 B( 11-P , 13-O ) :   1.0739
B( 11-P , 16-O ) :   1.1132 B( 13-O , 14-C ) :   0.9131 B( 14-C , 15-C ) :   1.1668
B( 14-C , 31-H ) :   0.9332 B( 14-C , 32-H ) :   0.9264 B( 15-C , 33-H ) :   0.9428
B( 15-C , 34-H ) :   0.9344 B( 15-C , 35-H ) :   0.9312 B( 16-O , 17-C ) :   0.8880
B( 17-C , 18-C ) :   1.1646 B( 17-C , 36-H ) :   0.9282 B( 17-C , 37-H ) :   0.9123
B( 18-C , 38-H ) :   0.9406 B( 18-C , 39-H ) :   0.9432 B( 18-C , 40-H ) :   0.9475

Dispersion correction           -0.067500027
FINAL SINGLE POINT ENERGY     -2929.514895242338

DIPOLE MOMENT
-------------

Method             : SCF
Type of density    : Electron Density
Multiplicity       :   1
Irrep              :   0
Energy             : -2929.6336593713467664 Eh
Relativity type    :
Basis              : AO
                                X                 Y                 Z
Electronic contribution:      4.449213282       7.707287458       9.124320504
Nuclear contribution   :     -5.611557173      -9.607780077      -9.289675008
                        -----------------------------------------
Total Dipole Moment    :     -1.162343891      -1.900492619      -0.165354504
                        -----------------------------------------
Magnitude (a.u.)       :      2.233888455
Magnitude (Debye)      :      5.678093207

Rotational constants in cm-1:             0.012470             0.005460             0.004962
Rotational constants in MHz :           373.846312           163.687104           148.744278

                             ****ORCA TERMINATED NORMALLY****
TOTAL RUN TIME: 0 days 0 hours 0 minutes 21 seconds 727 msec
