                         Program Version 6.0.1  -  RELEASE   -
|  1> ! pbe def2-sv(p) def2/J RI DEFGRID1 loosescf d4 GCP(DFT/SV(P)) printgap
|  2> %output
|  3>     printlevel normal
|  4> end
|  5> * xyz 0 1
|  6> C 5.3586705261 -2.2020445326 -0.5481225834
|  7> C 4.6282742175 -1.072860739 0.1612813207
|  8> O 3.2049130899 -1.2987619227 0.1676869417
|  9> C 2.5072349961 -0.9129536968 -0.8784280054
| 10> O 2.9677551655 -0.3601955048 -1.8533205216
| 11> C 1.0360289372 -1.2558499436 -0.7217020193
| 12> C 0.1965744263 -0.118978142 -1.2888620731
| 13> H 0.5679542338 0.1285787627 -2.2910512344
| 14> C 0.2638291307 1.1456196133 -0.4561247633
| 15> O -0.6740082646 1.912501068 -0.3540541136
| 16> O 1.4363885428 1.320035743 0.0879005379
| 17> C 1.6191258699 2.47658695 0.9334911016
| 18> C 3.0692017905 2.5100325787 1.3695456914
| 19> S -1.5494256501 -0.5511125674 -1.5312023091
| 20> P -2.303886591 -0.2405467912 0.443170481
| 21> S -1.0772464491 -0.0890619144 1.9612065951
| 22> O -3.4639207647 0.8521756991 0.3336715967
| 23> C -3.3564442345 2.2650365691 0.5076129393
| 24> O -3.1880006493 -1.5397945062 0.6472581352
| 25> C -4.2274220329 -1.9341342192 -0.2674258939
| 26> H 5.1065747824 -3.1554097982 -0.0920050131
| 27> H 5.0792911429 -2.2259555947 -1.598901403
| 28> H 6.4287874002 -2.0402858808 -0.4717429176
| 29> H 4.825005409 -0.1157707894 -0.3295419453
| 30> H 4.9003015978 -1.0247149393 1.2156598644
| 31> H 0.817477364 -1.4350969976 0.3319298992
| 32> H 0.8348276338 -2.1661385239 -1.2903490196
| 33> H 1.3373133613 3.3669078435 0.3637144548
| 34> H 0.938932442 2.3711065497 1.7848677211
| 35> H 3.3083300255 1.6066655779 1.9227848319
| 36> H 3.7179619529 2.5763644093 0.500803437
| 37> H 3.2303590349 3.3737154536 2.0055516686
| 38> H -4.3633797442 2.6026408424 0.7424545592
| 39> H -2.9915583375 2.7269561049 -0.4076352315
| 40> H -2.6732675933 2.4958192351 1.3250120583
| 41> H -4.5441755843 -2.9172040259 0.0711788572
| 42> H -3.8316685133 -1.9836254937 -1.2821260896
| 43> H -5.0500702085 -1.2235084186 -0.2201895386
| 44> *
| 45>
| 46>                          ****END OF INPUT****

CARTESIAN COORDINATES (ANGSTROEM)
---------------------------------
  C      5.358671   -2.202045   -0.548123
  C      4.628274   -1.072861    0.161281
  O      3.204913   -1.298762    0.167687
  C      2.507235   -0.912954   -0.878428
  O      2.967755   -0.360196   -1.853321
  C      1.036029   -1.255850   -0.721702
  C      0.196574   -0.118978   -1.288862
  H      0.567954    0.128579   -2.291051
  C      0.263829    1.145620   -0.456125
  O     -0.674008    1.912501   -0.354054
  O      1.436389    1.320036    0.087901
  C      1.619126    2.476587    0.933491
  C      3.069202    2.510033    1.369546
  S     -1.549426   -0.551113   -1.531202
  P     -2.303887   -0.240547    0.443170
  S     -1.077246   -0.089062    1.961207
  O     -3.463921    0.852176    0.333672
  C     -3.356444    2.265037    0.507613
  O     -3.188001   -1.539795    0.647258
  C     -4.227422   -1.934134   -0.267426
  H      5.106575   -3.155410   -0.092005
  H      5.079291   -2.225956   -1.598901
  H      6.428787   -2.040286   -0.471743
  H      4.825005   -0.115771   -0.329542
  H      4.900302   -1.024715    1.215660
  H      0.817477   -1.435097    0.331930
  H      0.834828   -2.166139   -1.290349
  H      1.337313    3.366908    0.363714
  H      0.938932    2.371107    1.784868
  H      3.308330    1.606666    1.922785
  H      3.717962    2.576364    0.500803
  H      3.230359    3.373715    2.005552
  H     -4.363380    2.602641    0.742455
  H     -2.991558    2.726956   -0.407635
  H     -2.673268    2.495819    1.325012
  H     -4.544176   -2.917204    0.071179
  H     -3.831669   -1.983625   -1.282126
  H     -5.050070   -1.223508   -0.220190

 Total Charge           Charge          ....    0
 Multiplicity           Mult            ....    1
 Number of Electrons    NEL             ....  174
 Basis Dimension        Dim             ....  316

ORBITAL ENERGIES
----------------

  NO   OCC          E(Eh)            E(eV)
   0   2.0000     -88.035179     -2395.5590
   1   2.0000     -87.980538     -2394.0722
   2   2.0000     -76.423696     -2079.5945
   3   2.0000     -18.814546      -511.9698
   4   2.0000     -18.801252      -511.6081
   5   2.0000     -18.787007      -511.2204
   6   2.0000     -18.783873      -511.1352
   7   2.0000     -18.742279      -510.0033
   8   2.0000     -18.736915      -509.8574
   9   2.0000     -10.021081      -272.6875
  10   2.0000     -10.008316      -272.3401
  11   2.0000      -9.951652      -270.7982
  12   2.0000      -9.948633      -270.7161
  13   2.0000      -9.946676      -270.6628
  14   2.0000      -9.945880      -270.6412
  15   2.0000      -9.934821      -270.3402
  16   2.0000      -9.902177      -269.4519
  17   2.0000      -9.891790      -269.1693
  18   2.0000      -9.887786      -269.0603
  19   2.0000      -7.680287      -208.9912
  20   2.0000      -7.625756      -207.5074
  21   2.0000      -6.420280      -174.7047
  22   2.0000      -5.708358      -155.3323
  23   2.0000      -5.704924      -155.2389
  24   2.0000      -5.696908      -155.0208
  25   2.0000      -5.654927      -153.8784
  26   2.0000      -5.646415      -153.6468
  27   2.0000      -5.645520      -153.6224
  28   2.0000      -4.643045      -126.3437
  29   2.0000      -4.642108      -126.3182
  30   2.0000      -4.640778      -126.2820
  31   2.0000      -1.023677       -27.8557
  32   2.0000      -1.009183       -27.4613
  33   2.0000      -0.979386       -26.6504
  34   2.0000      -0.934534       -25.4300
  35   2.0000      -0.923948       -25.1419
  36   2.0000      -0.914536       -24.8858
  37   2.0000      -0.763492       -20.7757
  38   2.0000      -0.712788       -19.3959
  39   2.0000      -0.710254       -19.3270
  40   2.0000      -0.692374       -18.8404
  41   2.0000      -0.656356       -17.8604
  42   2.0000      -0.632729       -17.2174
  43   2.0000      -0.620853       -16.8943
  44   2.0000      -0.615537       -16.7496
  45   2.0000      -0.593309       -16.1448
  46   2.0000      -0.561664       -15.2837
  47   2.0000      -0.516299       -14.0492
  48   2.0000      -0.506589       -13.7850
  49   2.0000      -0.500322       -13.6145
  50   2.0000      -0.477123       -12.9832
  51   2.0000      -0.470102       -12.7921
  52   2.0000      -0.463460       -12.6114
  53   2.0000      -0.446426       -12.1479
  54   2.0000      -0.438211       -11.9243
  55   2.0000      -0.432556       -11.7704
  56   2.0000      -0.426901       -11.6166
  57   2.0000      -0.417362       -11.3570
  58   2.0000      -0.411470       -11.1967
  59   2.0000      -0.404573       -11.0090
  60   2.0000      -0.402406       -10.9500
  61   2.0000      -0.394751       -10.7417
  62   2.0000      -0.387816       -10.5530
  63   2.0000      -0.381925       -10.3927
  64   2.0000      -0.376411       -10.2427
  65   2.0000      -0.364107        -9.9078
  66   2.0000      -0.362096        -9.8531
  67   2.0000      -0.357807        -9.7364
  68   2.0000      -0.346442        -9.4272
  69   2.0000      -0.340620        -9.2687
  70   2.0000      -0.333046        -9.0627
  71   2.0000      -0.325248        -8.8505
  72   2.0000      -0.321072        -8.7368
  73   2.0000      -0.313456        -8.5296
  74   2.0000      -0.304722        -8.2919
  75   2.0000      -0.297631        -8.0990
  76   2.0000      -0.293084        -7.9752
  77   2.0000      -0.292209        -7.9514
  78   2.0000      -0.273656        -7.4466
  79   2.0000      -0.263933        -7.1820
  80   2.0000      -0.257879        -7.0172
  81   2.0000      -0.255425        -6.9505
  82   2.0000      -0.235588        -6.4107
  83   2.0000      -0.227070        -6.1789
  84   2.0000      -0.209119        -5.6904
  85   2.0000      -0.198579        -5.4036
  86   2.0000      -0.195088        -5.3086
  87   0.0000      -0.047124        -1.2823
  88   0.0000      -0.029811        -0.8112
  89   0.0000      -0.015270        -0.4155
  90   0.0000       0.003013         0.0820
  91   0.0000       0.025457         0.6927

MULLIKEN ATOMIC CHARGES
-----------------------
   0 C :   -0.301311
   1 C :   -0.021044
   2 O :   -0.223672
   3 C :    0.115647
   4 O :   -0.217699
   5 C :   -0.048445
   6 C :   -0.299491
   7 H :    0.165754
   8 C :    0.181458
   9 O :   -0.203692
  10 O :   -0.214325
  11 C :   -0.027580
  12 C :   -0.287401
  13 S :   -0.102531
  14 P :    0.632704
  15 S :   -0.319426
  16 O :   -0.396470
  17 C :   -0.085280
  18 O :   -0.364718
  19 C :   -0.111592
  20 H :    0.115507
  21 H :    0.127024
  22 H :    0.112222
  23 H :    0.109774
  24 H :    0.104546
  25 H :    0.120299
  26 H :    0.118214
  27 H :    0.107509
  28 H :    0.118773
  29 H :    0.124320
  30 H :    0.124022
  31 H :    0.113339
  32 H :    0.114632
  33 H :    0.127340
  34 H :    0.114828
  35 H :    0.131199
  36 H :    0.122859
  37 H :    0.122708
Sum of atomic charges:   -0.0000000

LOEWDIN ATOMIC CHARGES
----------------------
   0 C :   -0.355927
   1 C :   -0.111396
   2 O :   -0.051991
   3 C :    0.027521
   4 O :   -0.178620
   5 C :   -0.257735
   6 C :   -0.265771
   7 H :    0.158133
   8 C :    0.007738
   9 O :   -0.173149
  10 O :   -0.028990
  11 C :   -0.103211
  12 C :   -0.351927
  13 S :    0.097101
  14 P :    0.585413
  15 S :   -0.301836
  16 O :   -0.253126
  17 C :   -0.206043
  18 O :   -0.248300
  19 C :   -0.211473
  20 H :    0.125666
  21 H :    0.130581
  22 H :    0.130481
  23 H :    0.118955
  24 H :    0.117548
  25 H :    0.133865
  26 H :    0.145429
  27 H :    0.118241
  28 H :    0.120770
  29 H :    0.128784
  30 H :    0.128196
  31 H :    0.132254
  32 H :    0.115585
  33 H :    0.117123
  34 H :    0.111859
  35 H :    0.125927
  36 H :    0.106597
  37 H :    0.115728

  Mayer bond orders larger than 0.100000
B(  0-C ,  1-C ) :   1.1738 B(  0-C , 20-H ) :   0.9484 B(  0-C , 21-H ) :   0.9455
B(  0-C , 22-H ) :   0.9443 B(  1-C ,  2-O ) :   0.9162 B(  1-C , 23-H ) :   0.9126
B(  1-C , 24-H ) :   0.9358 B(  2-O ,  3-C ) :   1.2463 B(  3-C ,  4-O ) :   2.0213
B(  3-C ,  5-C ) :   0.9927 B(  5-C ,  6-C ) :   1.0288 B(  5-C , 25-H ) :   0.8866
B(  5-C , 26-H ) :   0.8794 B(  6-C ,  7-H ) :   0.8461 B(  6-C ,  8-C ) :   0.9109
B(  6-C , 13-S ) :   1.0357 B(  8-C ,  9-O ) :   1.9867 B(  8-C , 10-O ) :   1.2726
B( 10-O , 11-C ) :   0.8914 B( 11-C , 12-C ) :   1.1569 B( 11-C , 27-H ) :   0.9296
B( 11-C , 28-H ) :   0.9240 B( 12-C , 29-H ) :   0.9460 B( 12-C , 30-H ) :   0.9471
B( 12-C , 31-H ) :   0.9416 B( 13-S , 14-P ) :   0.9350 B( 13-S , 15-S ) :   0.1117
B( 14-P , 15-S ) :   1.5905 B( 14-P , 16-O ) :   1.0962 B( 14-P , 18-O ) :   1.1249
B( 16-O , 17-C ) :   0.9233 B( 17-C , 32-H ) :   0.9538 B( 17-C , 33-H ) :   0.9493
B( 17-C , 34-H ) :   0.9439 B( 18-O , 19-C ) :   0.9256 B( 19-C , 35-H ) :   0.9603
B( 19-C , 36-H ) :   0.9363 B( 19-C , 37-H ) :   0.9472

Dispersion correction           -0.052361885
FINAL SINGLE POINT ENERGY     -1979.015577511527

DIPOLE MOMENT
-------------

Method             : SCF
Type of density    : Electron Density
Multiplicity       :   1
Irrep              :   0
Energy             : -1979.1468672886453533 Eh
Relativity type    :
Basis              : AO
                                X                 Y                 Z
Electronic contribution:    -18.315465705      -2.779544898      -1.819622746
Nuclear contribution   :     18.687170055       3.024550298       1.716617713
                        -----------------------------------------
Total Dipole Moment    :      0.371704350       0.245005400      -0.103005033
                        -----------------------------------------
Magnitude (a.u.)       :      0.456948363
Magnitude (Debye)      :      1.161470435

Rotational constants in cm-1:             0.016718             0.006095             0.005328
Rotational constants in MHz :           501.204008           182.725497           159.717259

                             ****ORCA TERMINATED NORMALLY****
TOTAL RUN TIME: 0 days 0 hours 0 minutes 28 seconds 205 msec
