                         Program Version 6.0.1  -  RELEASE   -
|  1> ! pbe def2-sv(p) def2/J RI DEFGRID1 loosescf d4 GCP(DFT/SV(P)) printgap
|  2> %output
|  3>     printlevel normal
|  4> end
|  5> * xyz 0 1
|  6> C 3.6448582584 -2.2100435408 1.6059416527
|  7> C 2.9076692371 -2.8193816926 0.4246157718
|  8> O 2.7955411421 -1.8630473275 -0.6492599489
|  9> C 1.7802377297 -1.0386049526 -0.6549607335
| 10> O 0.8944547597 -1.043717947 0.1864580992
| 11> C 1.8019728113 -0.0861595557 -1.8206805422
| 12> C 0.6993065675 0.9487624952 -1.6801265325
| 13> H 0.6817493766 1.6244741656 -2.5388108031
| 14> C 0.8191327622 1.7785778544 -0.4115797436
| 15> O 1.7189683158 1.6455886558 0.3882970591
| 16> O -0.1514469998 2.6599194747 -0.3293900377
| 17> C -0.1791361805 3.5550177901 0.7980395021
| 18> C 0.6467201393 4.7998275855 0.5166813042
| 19> S -0.9740889401 0.1970503928 -1.754688038
| 20> P -1.4790349265 -0.5581367116 0.1759482116
| 21> S -1.5268822216 -2.4945200356 0.5306263718
| 22> O -0.9695887687 0.4378715133 1.3083005662
| 23> C -0.24048827 0.0220899119 2.4633037866
| 24> O -2.9929727909 0.0028187823 0.2075129098
| 25> C -3.997678251 -0.5279608087 -0.6547671384
| 26> H 4.6339763483 -1.8808263556 1.3004159874
| 27> H 3.0923202427 -1.3551734821 1.9909091437
| 28> H 3.7381741694 -2.951363574 2.3923675082
| 29> H 1.9034552773 -3.144924709 0.7123888434
| 30> H 3.4644792798 -3.6497344919 -0.0090176017
| 31> H 1.668161664 -0.6546896564 -2.7425730522
| 32> H 2.7803765874 0.3966538874 -1.8486431685
| 33> H -1.2352086801 3.7920565734 0.928590382
| 34> H 0.1980649068 3.0233130337 1.6756496936
| 35> H 1.6945427543 4.5348859555 0.3951160695
| 36> H 0.2941185718 5.2852574539 -0.388916644
| 37> H 0.5512934195 5.4859379843 1.3516484615
| 38> H 0.7909005516 0.363336248 2.3648636187
| 39> H -0.2616901239 -1.0649181056 2.5581470952
| 40> H -0.7237251646 0.4868001663 3.3203318383
| 41> H -4.0148449956 -1.6176992106 -0.5833055228
| 42> H -3.8056576773 -0.2290237621 -1.6864599219
| 43> H -4.937490635 -0.1097077707 -0.3033785209
| 44> *
| 45>
| 46>                          ****END OF INPUT****

CARTESIAN COORDINATES (ANGSTROEM)
---------------------------------
  C      3.644858   -2.210044    1.605942
  C      2.907669   -2.819382    0.424616
  O      2.795541   -1.863047   -0.649260
  C      1.780238   -1.038605   -0.654961
  O      0.894455   -1.043718    0.186458
  C      1.801973   -0.086160   -1.820681
  C      0.699307    0.948762   -1.680127
  H      0.681749    1.624474   -2.538811
  C      0.819133    1.778578   -0.411580
  O      1.718968    1.645589    0.388297
  O     -0.151447    2.659919   -0.329390
  C     -0.179136    3.555018    0.798040
  C      0.646720    4.799828    0.516681
  S     -0.974089    0.197050   -1.754688
  P     -1.479035   -0.558137    0.175948
  S     -1.526882   -2.494520    0.530626
  O     -0.969589    0.437872    1.308301
  C     -0.240488    0.022090    2.463304
  O     -2.992973    0.002819    0.207513
  C     -3.997678   -0.527961   -0.654767
  H      4.633976   -1.880826    1.300416
  H      3.092320   -1.355173    1.990909
  H      3.738174   -2.951364    2.392368
  H      1.903455   -3.144925    0.712389
  H      3.464479   -3.649734   -0.009018
  H      1.668162   -0.654690   -2.742573
  H      2.780377    0.396654   -1.848643
  H     -1.235209    3.792057    0.928590
  H      0.198065    3.023313    1.675650
  H      1.694543    4.534886    0.395116
  H      0.294119    5.285257   -0.388917
  H      0.551293    5.485938    1.351648
  H      0.790901    0.363336    2.364864
  H     -0.261690   -1.064918    2.558147
  H     -0.723725    0.486800    3.320332
  H     -4.014845   -1.617699   -0.583306
  H     -3.805658   -0.229024   -1.686460
  H     -4.937491   -0.109708   -0.303379

 Total Charge           Charge          ....    0
 Multiplicity           Mult            ....    1
 Number of Electrons    NEL             ....  174
 Basis Dimension        Dim             ....  316

ORBITAL ENERGIES
----------------

  NO   OCC          E(Eh)            E(eV)
   0   2.0000     -88.030787     -2395.4395
   1   2.0000     -87.962483     -2393.5809
   2   2.0000     -76.415000     -2079.3579
   3   2.0000     -18.813701      -511.9468
   4   2.0000     -18.807318      -511.7732
   5   2.0000     -18.781769      -511.0779
   6   2.0000     -18.762795      -510.5616
   7   2.0000     -18.755411      -510.3607
   8   2.0000     -18.746529      -510.1190
   9   2.0000     -10.023608      -272.7562
  10   2.0000     -10.022219      -272.7184
  11   2.0000      -9.954362      -270.8720
  12   2.0000      -9.951166      -270.7850
  13   2.0000      -9.949606      -270.7425
  14   2.0000      -9.929452      -270.1941
  15   2.0000      -9.925630      -270.0901
  16   2.0000      -9.919551      -269.9247
  17   2.0000      -9.890352      -269.1302
  18   2.0000      -9.889879      -269.1173
  19   2.0000      -7.675710      -208.8667
  20   2.0000      -7.607857      -207.0203
  21   2.0000      -6.410436      -174.4368
  22   2.0000      -5.704311      -155.2222
  23   2.0000      -5.700085      -155.1072
  24   2.0000      -5.692074      -154.8892
  25   2.0000      -5.637051      -153.3919
  26   2.0000      -5.628840      -153.1685
  27   2.0000      -5.627317      -153.1271
  28   2.0000      -4.633157      -126.0746
  29   2.0000      -4.632707      -126.0624
  30   2.0000      -4.630712      -126.0081
  31   2.0000      -1.024508       -27.8783
  32   2.0000      -1.017243       -27.6806
  33   2.0000      -0.968461       -26.3532
  34   2.0000      -0.932448       -25.3732
  35   2.0000      -0.923306       -25.1244
  36   2.0000      -0.921113       -25.0648
  37   2.0000      -0.765847       -20.8397
  38   2.0000      -0.718915       -19.5627
  39   2.0000      -0.703013       -19.1300
  40   2.0000      -0.686499       -18.6806
  41   2.0000      -0.654983       -17.8230
  42   2.0000      -0.622363       -16.9354
  43   2.0000      -0.613547       -16.6955
  44   2.0000      -0.605078       -16.4650
  45   2.0000      -0.603805       -16.4304
  46   2.0000      -0.566648       -15.4193
  47   2.0000      -0.509355       -13.8603
  48   2.0000      -0.506460       -13.7815
  49   2.0000      -0.496329       -13.5058
  50   2.0000      -0.487137       -13.2557
  51   2.0000      -0.467487       -12.7210
  52   2.0000      -0.458947       -12.4886
  53   2.0000      -0.446031       -12.1371
  54   2.0000      -0.438889       -11.9428
  55   2.0000      -0.436826       -11.8866
  56   2.0000      -0.429401       -11.6846
  57   2.0000      -0.414527       -11.2799
  58   2.0000      -0.409318       -11.1381
  59   2.0000      -0.400654       -10.9023
  60   2.0000      -0.397184       -10.8079
  61   2.0000      -0.393619       -10.7109
  62   2.0000      -0.385694       -10.4953
  63   2.0000      -0.382015       -10.3952
  64   2.0000      -0.380739       -10.3604
  65   2.0000      -0.375412       -10.2155
  66   2.0000      -0.364273        -9.9124
  67   2.0000      -0.358955        -9.7677
  68   2.0000      -0.346767        -9.4360
  69   2.0000      -0.339409        -9.2358
  70   2.0000      -0.335254        -9.1227
  71   2.0000      -0.329016        -8.9530
  72   2.0000      -0.327084        -8.9004
  73   2.0000      -0.309212        -8.4141
  74   2.0000      -0.301068        -8.1925
  75   2.0000      -0.296248        -8.0613
  76   2.0000      -0.288390        -7.8475
  77   2.0000      -0.279727        -7.6118
  78   2.0000      -0.269323        -7.3286
  79   2.0000      -0.265198        -7.2164
  80   2.0000      -0.256788        -6.9876
  81   2.0000      -0.244279        -6.6472
  82   2.0000      -0.240549        -6.5457
  83   2.0000      -0.229330        -6.2404
  84   2.0000      -0.211299        -5.7498
  85   2.0000      -0.183823        -5.0021
  86   2.0000      -0.171435        -4.6650
  87   0.0000      -0.048534        -1.3207
  88   0.0000      -0.041513        -1.1296
  89   0.0000      -0.021204        -0.5770
  90   0.0000      -0.006622        -0.1802
  91   0.0000       0.035759         0.9730

MULLIKEN ATOMIC CHARGES
-----------------------
   0 C :   -0.312470
   1 C :   -0.023427
   2 O :   -0.220440
   3 C :    0.156424
   4 O :   -0.216016
   5 C :   -0.045312
   6 C :   -0.306993
   7 H :    0.148820
   8 C :    0.200486
   9 O :   -0.200682
  10 O :   -0.216168
  11 C :   -0.012036
  12 C :   -0.302798
  13 S :   -0.103936
  14 P :    0.629846
  15 S :   -0.336360
  16 O :   -0.380661
  17 C :   -0.114419
  18 O :   -0.379560
  19 C :   -0.106795
  20 H :    0.114909
  21 H :    0.135517
  22 H :    0.116559
  23 H :    0.129329
  24 H :    0.106602
  25 H :    0.128237
  26 H :    0.124478
  27 H :    0.111858
  28 H :    0.113109
  29 H :    0.121411
  30 H :    0.114919
  31 H :    0.114360
  32 H :    0.138015
  33 H :    0.122217
  34 H :    0.114240
  35 H :    0.110470
  36 H :    0.108425
  37 H :    0.117843
Sum of atomic charges:    0.0000000

LOEWDIN ATOMIC CHARGES
----------------------
   0 C :   -0.354980
   1 C :   -0.109340
   2 O :   -0.042355
   3 C :    0.055839
   4 O :   -0.159622
   5 C :   -0.250705
   6 C :   -0.260288
   7 H :    0.151540
   8 C :    0.012254
   9 O :   -0.160637
  10 O :   -0.044401
  11 C :   -0.106825
  12 C :   -0.356136
  13 S :    0.093795
  14 P :    0.591984
  15 S :   -0.338147
  16 O :   -0.235906
  17 C :   -0.220333
  18 O :   -0.267584
  19 C :   -0.224702
  20 H :    0.125561
  21 H :    0.131773
  22 H :    0.132661
  23 H :    0.126736
  24 H :    0.120115
  25 H :    0.149802
  26 H :    0.149907
  27 H :    0.123098
  28 H :    0.120301
  29 H :    0.128111
  30 H :    0.125182
  31 H :    0.131388
  32 H :    0.111994
  33 H :    0.109695
  34 H :    0.115009
  35 H :    0.104882
  36 H :    0.101670
  37 H :    0.118664

  Mayer bond orders larger than 0.100000
B(  0-C ,  1-C ) :   1.1734 B(  0-C , 20-H ) :   0.9479 B(  0-C , 21-H ) :   0.9427
B(  0-C , 22-H ) :   0.9432 B(  1-C ,  2-O ) :   0.9006 B(  1-C , 23-H ) :   0.9102
B(  1-C , 24-H ) :   0.9367 B(  2-O ,  3-C ) :   1.2748 B(  3-C ,  4-O ) :   1.8597
B(  3-C ,  5-C ) :   1.0169 B(  4-O , 14-P ) :   0.1375 B(  5-C ,  6-C ) :   1.0239
B(  5-C , 25-H ) :   0.8819 B(  5-C , 26-H ) :   0.8774 B(  6-C ,  7-H ) :   0.8757
B(  6-C ,  8-C ) :   0.8970 B(  6-C , 13-S ) :   1.0299 B(  8-C ,  9-O ) :   2.0202
B(  8-C , 10-O ) :   1.2599 B( 10-O , 11-C ) :   0.9078 B( 11-C , 12-C ) :   1.1702
B( 11-C , 27-H ) :   0.9372 B( 11-C , 28-H ) :   0.9150 B( 12-C , 29-H ) :   0.9468
B( 12-C , 30-H ) :   0.9480 B( 12-C , 31-H ) :   0.9447 B( 13-S , 14-P ) :   0.9333
B( 14-P , 15-S ) :   1.5910 B( 14-P , 16-O ) :   1.0874 B( 14-P , 18-O ) :   1.0569
B( 16-O , 17-C ) :   0.9213 B( 17-C , 32-H ) :   0.9341 B( 17-C , 33-H ) :   0.9266
B( 17-C , 34-H ) :   0.9519 B( 18-O , 19-C ) :   0.9552 B( 19-C , 35-H ) :   0.9297
B( 19-C , 36-H ) :   0.9426 B( 19-C , 37-H ) :   0.9605

Dispersion correction           -0.055107286
FINAL SINGLE POINT ENERGY     -1979.003483928069

DIPOLE MOMENT
-------------

Method             : SCF
Type of density    : Electron Density
Multiplicity       :   1
Irrep              :   0
Energy             : -1979.1351584762492166 Eh
Relativity type    :
Basis              : AO
                                X                 Y                 Z
Electronic contribution:    -10.155390459      -7.438055217      -8.440061190
Nuclear contribution   :     11.276097015       8.411783714       8.234400136
                        -----------------------------------------
Total Dipole Moment    :      1.120706557       0.973728498      -0.205661054
                        -----------------------------------------
Magnitude (a.u.)       :      1.498808474
Magnitude (Debye)      :      3.809668382

Rotational constants in cm-1:             0.010958             0.009778             0.006901
Rotational constants in MHz :           328.525374           293.146307           206.882450

                             ****ORCA TERMINATED NORMALLY****
TOTAL RUN TIME: 0 days 0 hours 0 minutes 45 seconds 500 msec
