                         Program Version 6.0.0  -   RELEASE  -
|  1> ! pbe def2-sv(p) def2/J RI DEFGRID1 loosescf d4 GCP(DFT/SV(P)) printgap
|  2> %output
|  3>     printlevel normal
|  4> end
|  5> * xyz 0 1
|  6> C 4.4353774904 -1.6259958114 -0.8199028467
|  7> C 4.623274794 -0.1238377116 -0.7653396295
|  8> O 3.5821859053 0.5384551033 -0.0255440483
|  9> P 2.0673997913 0.5732486555 -0.5161586615
| 10> S 1.8453141441 0.7263969289 -2.4556254816
| 11> O 1.5150936986 1.8179911518 0.2814314137
| 12> C 2.0051443457 2.2859419175 1.5607831149
| 13> C 1.7425861776 1.2929721237 2.6727585627
| 14> S 1.231845837 -1.1852248786 0.3535482085
| 15> C 0.1337472383 -1.7442482225 -0.9844843167
| 16> S -1.5709501357 -1.9952583668 -0.4401681768
| 17> P -1.9901424213 -0.0059546359 0.1868627188
| 18> S -1.3805357809 1.4391036102 -0.9859243304
| 19> O -1.382073416 0.1046707511 1.6386874664
| 20> C -1.7162493977 -0.8222212048 2.7071260377
| 21> C -2.7316283558 -0.2042546535 3.6452878568
| 22> O -3.5530215968 -0.0385069546 0.4759735561
| 23> C -4.5392537144 0.2262000462 -0.5368246552
| 24> C -4.5578030665 -0.8356341486 -1.6170710403
| 25> H 3.5680776304 -1.8681243373 -1.4321259239
| 26> H 5.3155753664 -2.0774153193 -1.2661881817
| 27> H 4.2883653776 -2.028781214 0.1788739486
| 28> H 4.6456937029 0.295522719 -1.7758700795
| 29> H 5.5326520701 0.1493748648 -0.2280490187
| 30> H 3.0716818252 2.4980318459 1.4624284116
| 31> H 1.4513923174 3.2144551696 1.7104549418
| 32> H 2.0487437148 1.7287585697 3.6186020402
| 33> H 0.6825289553 1.0551206681 2.7101921126
| 34> H 2.3058206154 0.3769998889 2.5004393284
| 35> H 0.4777663216 -2.714790183 -1.333185425
| 36> H 0.1677144386 -1.0023850081 -1.787871366
| 37> H -2.0952790536 -1.7482054208 2.2669497085
| 38> H -0.7676096546 -1.0191099566 3.2108188582
| 39> H -2.9150566489 -0.8892181386 4.4670107869
| 40> H -2.3561503874 0.7362924126 4.0390118349
| 41> H -3.6636242379 -0.0164365529 3.1189600715
| 42> H -5.478882484 0.2528337527 0.0171075511
| 43> H -4.3328240292 1.2105259271 -0.9683421673
| 44> H -4.6347560815 -1.8257676646 -1.1746855427
| 45> H -5.4065912784 -0.6649060083 -2.2715720729
| 46> H -3.6441125545 -0.7835188209 -2.2074958695
| 47> *
| 48>
| 49>                          ****END OF INPUT****

CARTESIAN COORDINATES (ANGSTROEM)
---------------------------------
  C      4.435377   -1.625996   -0.819903
  C      4.623275   -0.123838   -0.765340
  O      3.582186    0.538455   -0.025544
  P      2.067400    0.573249   -0.516159
  S      1.845314    0.726397   -2.455625
  O      1.515094    1.817991    0.281431
  C      2.005144    2.285942    1.560783
  C      1.742586    1.292972    2.672759
  S      1.231846   -1.185225    0.353548
  C      0.133747   -1.744248   -0.984484
  S     -1.570950   -1.995258   -0.440168
  P     -1.990142   -0.005955    0.186863
  S     -1.380536    1.439104   -0.985924
  O     -1.382073    0.104671    1.638687
  C     -1.716249   -0.822221    2.707126
  C     -2.731628   -0.204255    3.645288
  O     -3.553022   -0.038507    0.475974
  C     -4.539254    0.226200   -0.536825
  C     -4.557803   -0.835634   -1.617071
  H      3.568078   -1.868124   -1.432126
  H      5.315575   -2.077415   -1.266188
  H      4.288365   -2.028781    0.178874
  H      4.645694    0.295523   -1.775870
  H      5.532652    0.149375   -0.228049
  H      3.071682    2.498032    1.462428
  H      1.451392    3.214455    1.710455
  H      2.048744    1.728759    3.618602
  H      0.682529    1.055121    2.710192
  H      2.305821    0.377000    2.500439
  H      0.477766   -2.714790   -1.333185
  H      0.167714   -1.002385   -1.787871
  H     -2.095279   -1.748205    2.266950
  H     -0.767610   -1.019110    3.210819
  H     -2.915057   -0.889218    4.467011
  H     -2.356150    0.736292    4.039012
  H     -3.663624   -0.016437    3.118960
  H     -5.478882    0.252834    0.017108
  H     -4.332824    1.210526   -0.968342
  H     -4.634756   -1.825768   -1.174686
  H     -5.406591   -0.664906   -2.271572
  H     -3.644113   -0.783519   -2.207496

 Total Charge           Charge          ....    0
 Multiplicity           Mult            ....    1
 Number of Electrons    NEL             ....  202
 Basis Dimension        Dim             ....  334

ORBITAL ENERGIES
----------------

  NO   OCC          E(Eh)            E(eV)
   0   2.0000     -88.041257     -2395.7244
   1   2.0000     -88.037481     -2395.6216
   2   2.0000     -87.978602     -2394.0195
   3   2.0000     -87.977971     -2394.0023
   4   2.0000     -76.421953     -2079.5471
   5   2.0000     -76.421385     -2079.5316
   6   2.0000     -18.792489      -511.3696
   7   2.0000     -18.789853      -511.2979
   8   2.0000     -18.789185      -511.2797
   9   2.0000     -18.780816      -511.0520
  10   2.0000      -9.954419      -270.8735
  11   2.0000      -9.952444      -270.8198
  12   2.0000      -9.950655      -270.7711
  13   2.0000      -9.950564      -270.7686
  14   2.0000      -9.949517      -270.7401
  15   2.0000      -9.887045      -269.0402
  16   2.0000      -9.883182      -268.9351
  17   2.0000      -9.883120      -268.9334
  18   2.0000      -9.881976      -268.9022
  19   2.0000      -7.686277      -209.1542
  20   2.0000      -7.681907      -209.0353
  21   2.0000      -7.623772      -207.4534
  22   2.0000      -7.622872      -207.4289
  23   2.0000      -6.419354      -174.6795
  24   2.0000      -6.418463      -174.6553
  25   2.0000      -5.714108      -155.4888
  26   2.0000      -5.710652      -155.3947
  27   2.0000      -5.709798      -155.3715
  28   2.0000      -5.706512      -155.2821
  29   2.0000      -5.703444      -155.1986
  30   2.0000      -5.698831      -155.0731
  31   2.0000      -5.652820      -153.8211
  32   2.0000      -5.651949      -153.7974
  33   2.0000      -5.644279      -153.5886
  34   2.0000      -5.643872      -153.5776
  35   2.0000      -5.643335      -153.5629
  36   2.0000      -5.643059      -153.5554
  37   2.0000      -4.642272      -126.3226
  38   2.0000      -4.641481      -126.3011
  39   2.0000      -4.641139      -126.2918
  40   2.0000      -4.639869      -126.2572
  41   2.0000      -4.639467      -126.2463
  42   2.0000      -4.638932      -126.2318
  43   2.0000      -0.986699       -26.8494
  44   2.0000      -0.982391       -26.7322
  45   2.0000      -0.943742       -25.6805
  46   2.0000      -0.936681       -25.4884
  47   2.0000      -0.758667       -20.6444
  48   2.0000      -0.716359       -19.4931
  49   2.0000      -0.707830       -19.2610
  50   2.0000      -0.689676       -18.7671
  51   2.0000      -0.686995       -18.6941
  52   2.0000      -0.675346       -18.3771
  53   2.0000      -0.647355       -17.6154
  54   2.0000      -0.629333       -17.1250
  55   2.0000      -0.596153       -16.2221
  56   2.0000      -0.588304       -16.0086
  57   2.0000      -0.575383       -15.6570
  58   2.0000      -0.573525       -15.6064
  59   2.0000      -0.557328       -15.1657
  60   2.0000      -0.499430       -13.5902
  61   2.0000      -0.491147       -13.3648
  62   2.0000      -0.473303       -12.8792
  63   2.0000      -0.465020       -12.6538
  64   2.0000      -0.448527       -12.2050
  65   2.0000      -0.447056       -12.1650
  66   2.0000      -0.441908       -12.0249
  67   2.0000      -0.437431       -11.9031
  68   2.0000      -0.427802       -11.6411
  69   2.0000      -0.420398       -11.4396
  70   2.0000      -0.411212       -11.1896
  71   2.0000      -0.394900       -10.7458
  72   2.0000      -0.392739       -10.6870
  73   2.0000      -0.383350       -10.4315
  74   2.0000      -0.377582       -10.2745
  75   2.0000      -0.366363        -9.9692
  76   2.0000      -0.362869        -9.8742
  77   2.0000      -0.357635        -9.7317
  78   2.0000      -0.354334        -9.6419
  79   2.0000      -0.350762        -9.5447
  80   2.0000      -0.348133        -9.4732
  81   2.0000      -0.343319        -9.3422
  82   2.0000      -0.340407        -9.2630
  83   2.0000      -0.335071        -9.1177
  84   2.0000      -0.332920        -9.0592
  85   2.0000      -0.315741        -8.5917
  86   2.0000      -0.308145        -8.3851
  87   2.0000      -0.296943        -8.0802
  88   2.0000      -0.292286        -7.9535
  89   2.0000      -0.290562        -7.9066
  90   2.0000      -0.288695        -7.8558
  91   2.0000      -0.272049        -7.4028
  92   2.0000      -0.264948        -7.2096
  93   2.0000      -0.260823        -7.0974
  94   2.0000      -0.253318        -6.8931
  95   2.0000      -0.230404        -6.2696
  96   2.0000      -0.218192        -5.9373
  97   2.0000      -0.209580        -5.7030
  98   2.0000      -0.196749        -5.3538
  99   2.0000      -0.188481        -5.1288
 100   2.0000      -0.182015        -4.9529
 101   0.0000      -0.038471        -1.0469
 102   0.0000      -0.032491        -0.8841
 103   0.0000      -0.007127        -0.1939
 104   0.0000       0.011684         0.3179
 105   0.0000       0.017171         0.4673

MULLIKEN ATOMIC CHARGES
-----------------------
   0 C :   -0.310482
   1 C :    0.003002
   2 O :   -0.390876
   3 P :    0.628411
   4 S :   -0.298703
   5 O :   -0.349403
   6 C :    0.012121
   7 C :   -0.355004
   8 S :   -0.127930
   9 C :   -0.341295
  10 S :   -0.106936
  11 P :    0.580489
  12 S :   -0.276848
  13 O :   -0.352365
  14 C :   -0.010591
  15 C :   -0.284434
  16 O :   -0.382248
  17 C :    0.001891
  18 C :   -0.321727
  19 H :    0.119996
  20 H :    0.111071
  21 H :    0.115676
  22 H :    0.112128
  23 H :    0.101279
  24 H :    0.106229
  25 H :    0.110925
  26 H :    0.109074
  27 H :    0.155461
  28 H :    0.118586
  29 H :    0.177829
  30 H :    0.206812
  31 H :    0.104184
  32 H :    0.108650
  33 H :    0.108699
  34 H :    0.115929
  35 H :    0.120722
  36 H :    0.102928
  37 H :    0.112726
  38 H :    0.116002
  39 H :    0.114406
  40 H :    0.133618
Sum of atomic charges:   -0.0000000

LOEWDIN ATOMIC CHARGES
----------------------
   0 C :   -0.370723
   1 C :   -0.116820
   2 O :   -0.251212
   3 P :    0.578542
   4 S :   -0.295912
   5 O :   -0.229035
   6 C :   -0.105876
   7 C :   -0.373961
   8 S :    0.067768
   9 C :   -0.482162
  10 S :    0.072314
  11 P :    0.559091
  12 S :   -0.285705
  13 O :   -0.233504
  14 C :   -0.118467
  15 C :   -0.357658
  16 O :   -0.249963
  17 C :   -0.117017
  18 C :   -0.371892
  19 H :    0.119327
  20 H :    0.129797
  21 H :    0.122289
  22 H :    0.112118
  23 H :    0.116766
  24 H :    0.111919
  25 H :    0.123771
  26 H :    0.129346
  27 H :    0.131905
  28 H :    0.115119
  29 H :    0.134307
  30 H :    0.125333
  31 H :    0.103230
  32 H :    0.115749
  33 H :    0.129102
  34 H :    0.126635
  35 H :    0.126902
  36 H :    0.117384
  37 H :    0.113336
  38 H :    0.122321
  39 H :    0.131781
  40 H :    0.123754

  Mayer bond orders larger than 0.100000
B(  0-C ,  1-C ) :   1.1678 B(  0-C , 19-H ) :   0.9363 B(  0-C , 20-H ) :   0.9369
B(  0-C , 21-H ) :   0.9430 B(  1-C ,  2-O ) :   0.9107 B(  1-C , 22-H ) :   0.9164
B(  1-C , 23-H ) :   0.9344 B(  2-O ,  3-P ) :   1.0631 B(  3-P ,  4-S ) :   1.6229
B(  3-P ,  5-O ) :   1.1388 B(  3-P ,  8-S ) :   0.9364 B(  4-S ,  8-S ) :   0.1187
B(  4-S , 30-H ) :   0.1031 B(  5-O ,  6-C ) :   0.9058 B(  6-C ,  7-C ) :   1.1709
B(  6-C , 24-H ) :   0.9266 B(  6-C , 25-H ) :   0.9316 B(  7-C , 26-H ) :   0.9352
B(  7-C , 27-H ) :   0.9243 B(  7-C , 28-H ) :   0.9371 B(  8-S ,  9-C ) :   1.0006
B(  9-C , 10-S ) :   0.9963 B(  9-C , 29-H ) :   0.9102 B(  9-C , 30-H ) :   0.8444
B( 10-S , 11-P ) :   0.9433 B( 10-S , 12-S ) :   0.1081 B( 11-P , 12-S ) :   1.6779
B( 11-P , 13-O ) :   1.1186 B( 11-P , 16-O ) :   1.0749 B( 13-O , 14-C ) :   0.8770
B( 14-C , 15-C ) :   1.1688 B( 14-C , 31-H ) :   0.9102 B( 14-C , 32-H ) :   0.9293
B( 15-C , 33-H ) :   0.9402 B( 15-C , 34-H ) :   0.9492 B( 15-C , 35-H ) :   0.9418
B( 16-O , 17-C ) :   0.9067 B( 17-C , 18-C ) :   1.1666 B( 17-C , 36-H ) :   0.9341
B( 17-C , 37-H ) :   0.9169 B( 18-C , 38-H ) :   0.9435 B( 18-C , 39-H ) :   0.9371
B( 18-C , 40-H ) :   0.9342

Dispersion correction           -0.068173936
FINAL SINGLE POINT ENERGY     -2929.513365183641

DIPOLE MOMENT
-------------

Method             : SCF
Type of density    : Electron Density
Multiplicity       :   1
Irrep              :   0
Energy             : -2929.6318347435221767 Eh
Relativity type    :
Basis              : AO
                                X                 Y                 Z
Electronic contribution:      1.640264108       4.351914778     -12.858179957
Nuclear contribution   :     -1.701628442      -5.245756397      14.368444089
                        -----------------------------------------
Total Dipole Moment    :     -0.061364334      -0.893841618       1.510264132
                        -----------------------------------------
Magnitude (a.u.)       :      1.756022827
Magnitude (Debye)      :      4.463455309

Rotational constants in cm-1:             0.012657             0.005489             0.004995
Rotational constants in MHz :           379.440774           164.566480           149.749572

                             ****ORCA TERMINATED NORMALLY****
TOTAL RUN TIME: 0 days 0 hours 0 minutes 21 seconds 743 msec
