                         Program Version 6.0.0  -   RELEASE  -
|  1> ! pbe def2-sv(p) def2/J RI DEFGRID1 loosescf d4 GCP(DFT/SV(P)) printgap
|  2> %output
|  3>     printlevel normal
|  4> end
|  5> * xyz 0 1
|  6> C 3.2817565817 1.0429273354 3.1300709194
|  7> C 1.90418452 0.525059633 2.7750234144
|  8> O 1.6266930368 0.6738931696 1.3653295061
|  9> P 2.3577703057 -0.2053705337 0.2700039714
| 10> S 2.8496681222 -2.0244810271 0.8252279288
| 11> O 3.5699624008 0.730734443 -0.1512697958
| 12> C 4.7011497654 0.2403836336 -0.8909784819
| 13> C 4.3329221592 -0.1437061851 -2.3095995351
| 14> S 0.9731030515 -0.0339917491 -1.3185536099
| 15> C -0.1100536121 -1.3788501135 -0.7636128682
| 16> S -1.2024969682 -0.8896656882 0.5839505235
| 17> P -2.5308398417 0.2866529512 -0.6124003751
| 18> S -2.8067750067 -0.4241635161 -2.4176626031
| 19> O -1.9772582934 1.7583269857 -0.7297135679
| 20> C -2.0603259932 2.7989994694 0.2734127494
| 21> C -1.262156982 2.4734602156 1.5181912922
| 22> O -3.792702004 0.4914354484 0.3287638223
| 23> C -4.4826017145 -0.5578490817 1.0338849411
| 24> C -4.9708985069 -1.658897844 0.1166623359
| 25> H 3.4133291106 1.0071474679 4.2069015144
| 26> H 4.0432976787 0.4218055432 2.6599829207
| 27> H 3.4003853253 2.0659746482 2.783143289
| 28> H 1.1148509128 1.0995404999 3.2610596508
| 29> H 1.8070031754 -0.5334928303 3.035705387
| 30> H 5.4089288007 1.0700835481 -0.8687592418
| 31> H 5.116938338 -0.6203142404 -0.3570542368
| 32> H 3.6706659575 -1.0088413963 -2.3024365737
| 33> H 3.8238615889 0.6795362797 -2.8049514958
| 34> H 5.233533595 -0.3952223222 -2.8605374488
| 35> H 0.4988099532 -2.2083292554 -0.4019061326
| 36> H -0.7147253658 -1.670275507 -1.6239724369
| 37> H -1.6575715202 3.6715887624 -0.2435085979
| 38> H -3.1133713342 2.959634834 0.5115302433
| 39> H -0.2330589011 2.2413168203 1.2538256872
| 40> H -1.276014771 3.3330055724 2.1813079444
| 41> H -1.694370382 1.6182297021 2.0346352261
| 42> H -3.8070661778 -0.9600880027 1.793837958
| 43> H -5.3149940654 -0.038602552 1.5122998736
| 44> H -5.5587588442 -2.3697848323 0.6882561179
| 45> H -5.5815402449 -1.2451122879 -0.68226234
| 46> H -4.1253502314 -2.1773800361 -0.3328148735
| 47> *
| 48>
| 49>                          ****END OF INPUT****

CARTESIAN COORDINATES (ANGSTROEM)
---------------------------------
  C      3.281757    1.042927    3.130071
  C      1.904185    0.525060    2.775023
  O      1.626693    0.673893    1.365330
  P      2.357770   -0.205371    0.270004
  S      2.849668   -2.024481    0.825228
  O      3.569962    0.730734   -0.151270
  C      4.701150    0.240384   -0.890978
  C      4.332922   -0.143706   -2.309600
  S      0.973103   -0.033992   -1.318554
  C     -0.110054   -1.378850   -0.763613
  S     -1.202497   -0.889666    0.583951
  P     -2.530840    0.286653   -0.612400
  S     -2.806775   -0.424164   -2.417663
  O     -1.977258    1.758327   -0.729714
  C     -2.060326    2.798999    0.273413
  C     -1.262157    2.473460    1.518191
  O     -3.792702    0.491435    0.328764
  C     -4.482602   -0.557849    1.033885
  C     -4.970899   -1.658898    0.116662
  H      3.413329    1.007147    4.206902
  H      4.043298    0.421806    2.659983
  H      3.400385    2.065975    2.783143
  H      1.114851    1.099540    3.261060
  H      1.807003   -0.533493    3.035705
  H      5.408929    1.070084   -0.868759
  H      5.116938   -0.620314   -0.357054
  H      3.670666   -1.008841   -2.302437
  H      3.823862    0.679536   -2.804951
  H      5.233534   -0.395222   -2.860537
  H      0.498810   -2.208329   -0.401906
  H     -0.714725   -1.670276   -1.623972
  H     -1.657572    3.671589   -0.243509
  H     -3.113371    2.959635    0.511530
  H     -0.233059    2.241317    1.253826
  H     -1.276015    3.333006    2.181308
  H     -1.694370    1.618230    2.034635
  H     -3.807066   -0.960088    1.793838
  H     -5.314994   -0.038603    1.512300
  H     -5.558759   -2.369785    0.688256
  H     -5.581540   -1.245112   -0.682262
  H     -4.125350   -2.177380   -0.332815

 Total Charge           Charge          ....    0
 Multiplicity           Mult            ....    1
 Number of Electrons    NEL             ....  202
 Basis Dimension        Dim             ....  334

ORBITAL ENERGIES
----------------

  NO   OCC          E(Eh)            E(eV)
   0   2.0000     -88.041123     -2395.7208
   1   2.0000     -88.040994     -2395.7173
   2   2.0000     -87.992563     -2394.3994
   3   2.0000     -87.980051     -2394.0589
   4   2.0000     -76.428752     -2079.7321
   5   2.0000     -76.426107     -2079.6601
   6   2.0000     -18.799197      -511.5521
   7   2.0000     -18.797609      -511.5090
   8   2.0000     -18.794070      -511.4126
   9   2.0000     -18.786928      -511.2183
  10   2.0000      -9.961520      -271.0667
  11   2.0000      -9.955466      -270.9020
  12   2.0000      -9.954245      -270.8688
  13   2.0000      -9.953204      -270.8405
  14   2.0000      -9.949060      -270.7277
  15   2.0000      -9.887295      -269.0470
  16   2.0000      -9.885196      -268.9899
  17   2.0000      -9.883853      -268.9533
  18   2.0000      -9.883678      -268.9486
  19   2.0000      -7.686288      -209.1545
  20   2.0000      -7.685817      -209.1417
  21   2.0000      -7.637406      -207.8244
  22   2.0000      -7.625383      -207.4972
  23   2.0000      -6.426599      -174.8767
  24   2.0000      -6.423120      -174.7820
  25   2.0000      -5.714071      -155.4878
  26   2.0000      -5.713468      -155.4714
  27   2.0000      -5.711009      -155.4045
  28   2.0000      -5.710409      -155.3881
  29   2.0000      -5.703118      -155.1897
  30   2.0000      -5.702992      -155.1863
  31   2.0000      -5.666154      -154.1839
  32   2.0000      -5.658091      -153.9645
  33   2.0000      -5.657710      -153.9541
  34   2.0000      -5.654419      -153.8646
  35   2.0000      -5.646005      -153.6356
  36   2.0000      -5.645368      -153.6183
  37   2.0000      -4.649046      -126.5070
  38   2.0000      -4.648299      -126.4866
  39   2.0000      -4.647162      -126.4557
  40   2.0000      -4.646251      -126.4309
  41   2.0000      -4.644923      -126.3948
  42   2.0000      -4.643100      -126.3452
  43   2.0000      -0.990970       -26.9657
  44   2.0000      -0.989362       -26.9219
  45   2.0000      -0.950432       -25.8626
  46   2.0000      -0.943764       -25.6811
  47   2.0000      -0.763729       -20.7821
  48   2.0000      -0.722329       -19.6556
  49   2.0000      -0.710643       -19.3376
  50   2.0000      -0.691799       -18.8248
  51   2.0000      -0.689795       -18.7703
  52   2.0000      -0.677437       -18.4340
  53   2.0000      -0.651880       -17.7386
  54   2.0000      -0.637043       -17.3348
  55   2.0000      -0.603967       -16.4348
  56   2.0000      -0.590867       -16.0783
  57   2.0000      -0.581593       -15.8260
  58   2.0000      -0.575280       -15.6542
  59   2.0000      -0.558487       -15.1972
  60   2.0000      -0.500136       -13.6094
  61   2.0000      -0.494978       -13.4690
  62   2.0000      -0.477292       -12.9878
  63   2.0000      -0.471003       -12.8166
  64   2.0000      -0.460834       -12.5399
  65   2.0000      -0.447166       -12.1680
  66   2.0000      -0.442702       -12.0465
  67   2.0000      -0.434879       -11.8337
  68   2.0000      -0.433090       -11.7850
  69   2.0000      -0.417492       -11.3605
  70   2.0000      -0.411071       -11.1858
  71   2.0000      -0.407429       -11.0867
  72   2.0000      -0.396940       -10.8013
  73   2.0000      -0.389969       -10.6116
  74   2.0000      -0.384800       -10.4709
  75   2.0000      -0.373933       -10.1752
  76   2.0000      -0.360653        -9.8139
  77   2.0000      -0.357427        -9.7261
  78   2.0000      -0.353580        -9.6214
  79   2.0000      -0.351952        -9.5771
  80   2.0000      -0.348940        -9.4951
  81   2.0000      -0.347349        -9.4519
  82   2.0000      -0.341520        -9.2932
  83   2.0000      -0.339979        -9.2513
  84   2.0000      -0.334902        -9.1131
  85   2.0000      -0.326747        -8.8912
  86   2.0000      -0.313455        -8.5296
  87   2.0000      -0.299377        -8.1465
  88   2.0000      -0.298258        -8.1160
  89   2.0000      -0.291599        -7.9348
  90   2.0000      -0.285298        -7.7633
  91   2.0000      -0.279194        -7.5972
  92   2.0000      -0.275762        -7.5039
  93   2.0000      -0.267265        -7.2727
  94   2.0000      -0.255546        -6.9538
  95   2.0000      -0.233638        -6.3576
  96   2.0000      -0.219921        -5.9843
  97   2.0000      -0.214067        -5.8251
  98   2.0000      -0.204840        -5.5740
  99   2.0000      -0.199398        -5.4259
 100   2.0000      -0.193578        -5.2675
 101   0.0000      -0.044370        -1.2074
 102   0.0000      -0.025363        -0.6902
 103   0.0000      -0.006233        -0.1696
 104   0.0000      -0.001224        -0.0333
 105   0.0000       0.016508         0.4492

MULLIKEN ATOMIC CHARGES
-----------------------
   0 C :   -0.305942
   1 C :   -0.005100
   2 O :   -0.357582
   3 P :    0.610586
   4 S :   -0.338045
   5 O :   -0.371274
   6 C :   -0.006188
   7 C :   -0.317527
   8 S :   -0.052238
   9 C :   -0.379566
  10 S :   -0.108535
  11 P :    0.615383
  12 S :   -0.314298
  13 O :   -0.352843
  14 C :    0.012780
  15 C :   -0.350566
  16 O :   -0.386086
  17 C :   -0.011283
  18 C :   -0.307788
  19 H :    0.112728
  20 H :    0.122510
  21 H :    0.116973
  22 H :    0.107797
  23 H :    0.113012
  24 H :    0.106802
  25 H :    0.111760
  26 H :    0.129731
  27 H :    0.121463
  28 H :    0.114735
  29 H :    0.190414
  30 H :    0.198715
  31 H :    0.108999
  32 H :    0.106843
  33 H :    0.154478
  34 H :    0.107150
  35 H :    0.114366
  36 H :    0.113437
  37 H :    0.108318
  38 H :    0.111490
  39 H :    0.127136
  40 H :    0.127251
Sum of atomic charges:    0.0000000

LOEWDIN ATOMIC CHARGES
----------------------
   0 C :   -0.363741
   1 C :   -0.117274
   2 O :   -0.234566
   3 P :    0.575399
   4 S :   -0.323792
   5 O :   -0.242386
   6 C :   -0.118924
   7 C :   -0.369337
   8 S :    0.103598
   9 C :   -0.492550
  10 S :    0.068052
  11 P :    0.571952
  12 S :   -0.307169
  13 O :   -0.233851
  14 C :   -0.106910
  15 C :   -0.375615
  16 O :   -0.245224
  17 C :   -0.114391
  18 C :   -0.368540
  19 H :    0.130770
  20 H :    0.122854
  21 H :    0.126637
  22 H :    0.117383
  23 H :    0.110791
  24 H :    0.119436
  25 H :    0.110804
  26 H :    0.122630
  27 H :    0.126154
  28 H :    0.132086
  29 H :    0.126880
  30 H :    0.127976
  31 H :    0.122515
  32 H :    0.112652
  33 H :    0.131375
  34 H :    0.127896
  35 H :    0.114165
  36 H :    0.107870
  37 H :    0.120636
  38 H :    0.130346
  39 H :    0.130959
  40 H :    0.122455

  Mayer bond orders larger than 0.100000
B(  0-C ,  1-C ) :   1.1640 B(  0-C , 19-H ) :   0.9392 B(  0-C , 20-H ) :   0.9370
B(  0-C , 21-H ) :   0.9465 B(  1-C ,  2-O ) :   0.8988 B(  1-C , 22-H ) :   0.9314
B(  1-C , 23-H ) :   0.9157 B(  2-O ,  3-P ) :   1.1193 B(  3-P ,  4-S ) :   1.5818
B(  3-P ,  5-O ) :   1.1130 B(  3-P ,  8-S ) :   0.9727 B(  4-S ,  8-S ) :   0.1097
B(  5-O ,  6-C ) :   0.9059 B(  6-C ,  7-C ) :   1.1662 B(  6-C , 24-H ) :   0.9335
B(  6-C , 25-H ) :   0.9165 B(  7-C , 26-H ) :   0.9350 B(  7-C , 27-H ) :   0.9445
B(  7-C , 28-H ) :   0.9376 B(  8-S ,  9-C ) :   1.0050 B(  9-C , 10-S ) :   1.0101
B(  9-C , 29-H ) :   0.8672 B(  9-C , 30-H ) :   0.8607 B( 10-S , 11-P ) :   0.9303
B( 10-S , 12-S ) :   0.1138 B( 11-P , 12-S ) :   1.6415 B( 11-P , 13-O ) :   1.1419
B( 11-P , 16-O ) :   1.0794 B( 13-O , 14-C ) :   0.9013 B( 14-C , 15-C ) :   1.1694
B( 14-C , 31-H ) :   0.9339 B( 14-C , 32-H ) :   0.9284 B( 15-C , 33-H ) :   0.9221
B( 15-C , 34-H ) :   0.9353 B( 15-C , 35-H ) :   0.9412 B( 16-O , 17-C ) :   0.9099
B( 17-C , 18-C ) :   1.1680 B( 17-C , 36-H ) :   0.9252 B( 17-C , 37-H ) :   0.9333
B( 18-C , 38-H ) :   0.9349 B( 18-C , 39-H ) :   0.9435 B( 18-C , 40-H ) :   0.9317

Dispersion correction           -0.065603594
FINAL SINGLE POINT ENERGY     -2929.519541289052

DIPOLE MOMENT
-------------

Method             : SCF
Type of density    : Electron Density
Multiplicity       :   1
Irrep              :   0
Energy             : -2929.6398028160992908 Eh
Relativity type    :
Basis              : AO
                                X                 Y                 Z
Electronic contribution:     -4.123755537      -5.729251260     -11.506291056
Nuclear contribution   :      4.330897865       6.590421516      12.998383343
                        -----------------------------------------
Total Dipole Moment    :      0.207142328       0.861170255       1.492092287
                        -----------------------------------------
Magnitude (a.u.)       :      1.735183432
Magnitude (Debye)      :      4.410485778

Rotational constants in cm-1:             0.013116             0.004687             0.004350
Rotational constants in MHz :           393.204977           140.498487           130.420050

                             ****ORCA TERMINATED NORMALLY****
TOTAL RUN TIME: 0 days 0 hours 0 minutes 21 seconds 296 msec
