                         Program Version 6.0.0  -   RELEASE  -
|  1> ! pbe def2-sv(p) def2/J RI DEFGRID1 loosescf d4 GCP(DFT/SV(P)) printgap
|  2> %output
|  3>     printlevel normal
|  4> end
|  5> * xyz 0 1
|  6> C 0.4831515542 -2.4929523761 1.3531025962
|  7> C 1.7883869742 -1.8879414658 1.8282496299
|  8> O 2.1348653791 -0.6972035439 1.1045360903
|  9> P 2.4597653346 -0.7151097675 -0.457754415
| 10> S 3.3255907991 -2.3429569848 -1.1155982877
| 11> O 3.2806211372 0.6345795731 -0.6263332935
| 12> C 4.719294633 0.6625658828 -0.5206246482
| 13> C 5.1898860191 0.3687422052 0.8882594928
| 14> S 0.6791996775 -0.111698145 -1.4231041316
| 15> C 0.3694780328 1.425767067 -0.4986740657
| 16> S -0.4833307544 1.1670038527 1.075436308
| 17> P -2.3838767146 0.7527129026 0.26007424
| 18> S -2.8669737243 1.7688734518 -1.3528280619
| 19> O -3.347537426 0.8884283837 1.5174664056
| 20> C -3.6293448208 2.1471750461 2.162069701
| 21> C -4.8376976263 2.8230660828 1.5431800155
| 22> O -2.3668768779 -0.8185648763 0.0934714263
| 23> C -3.1077771581 -1.531976146 -0.9200716877
| 24> C -2.2263109434 -2.616179775 -1.5056199381
| 25> H -0.3309479961 -1.7770118621 1.439158013
| 26> H 0.5789865029 -2.7946472151 0.3095378116
| 27> H 0.2531465612 -3.3680692598 1.9525444385
| 28> H 2.6020735299 -2.6106607183 1.709484468
| 29> H 1.7273501135 -1.5565084376 2.8655549667
| 30> H 5.1310280987 -0.0665859952 -1.2253440239
| 31> H 4.9832279494 1.6730969703 -0.8354322262
| 32> H 6.2642947364 0.5129157207 0.944773837
| 33> H 4.6972862593 1.0294548514 1.5969106976
| 34> H 4.9582575721 -0.6633880053 1.1477166848
| 35> H -0.2609735662 2.0386006905 -1.1446422715
| 36> H 1.3140229037 1.9148529056 -0.2828566307
| 37> H -3.8148945305 1.8800453017 3.2040942034
| 38> H -2.745126545 2.7880661409 2.1021968916
| 39> H -5.0585035524 3.7330370468 2.0917243132
| 40> H -4.6408059775 3.0747939022 0.5035130525
| 41> H -5.6978918742 2.1606746194 1.5842176072
| 42> H -3.9877755826 -1.9547456836 -0.4310347064
| 43> H -3.426324768 -0.8216742158 -1.6907137707
| 44> H -1.3512733351 -2.176219043 -1.9785810055
| 45> H -1.9010589044 -3.2964459903 -0.7238977175
| 46> H -2.7922139355 -3.1679405187 -2.2491546353
| 47> *
| 48>
| 49>                          ****END OF INPUT****

CARTESIAN COORDINATES (ANGSTROEM)
---------------------------------
  C      0.483152   -2.492952    1.353103
  C      1.788387   -1.887941    1.828250
  O      2.134865   -0.697204    1.104536
  P      2.459765   -0.715110   -0.457754
  S      3.325591   -2.342957   -1.115598
  O      3.280621    0.634580   -0.626333
  C      4.719295    0.662566   -0.520625
  C      5.189886    0.368742    0.888259
  S      0.679200   -0.111698   -1.423104
  C      0.369478    1.425767   -0.498674
  S     -0.483331    1.167004    1.075436
  P     -2.383877    0.752713    0.260074
  S     -2.866974    1.768873   -1.352828
  O     -3.347537    0.888428    1.517466
  C     -3.629345    2.147175    2.162070
  C     -4.837698    2.823066    1.543180
  O     -2.366877   -0.818565    0.093471
  C     -3.107777   -1.531976   -0.920072
  C     -2.226311   -2.616180   -1.505620
  H     -0.330948   -1.777012    1.439158
  H      0.578987   -2.794647    0.309538
  H      0.253147   -3.368069    1.952544
  H      2.602074   -2.610661    1.709484
  H      1.727350   -1.556508    2.865555
  H      5.131028   -0.066586   -1.225344
  H      4.983228    1.673097   -0.835432
  H      6.264295    0.512916    0.944774
  H      4.697286    1.029455    1.596911
  H      4.958258   -0.663388    1.147717
  H     -0.260974    2.038601   -1.144642
  H      1.314023    1.914853   -0.282857
  H     -3.814895    1.880045    3.204094
  H     -2.745127    2.788066    2.102197
  H     -5.058504    3.733037    2.091724
  H     -4.640806    3.074794    0.503513
  H     -5.697892    2.160675    1.584218
  H     -3.987776   -1.954746   -0.431035
  H     -3.426325   -0.821674   -1.690714
  H     -1.351273   -2.176219   -1.978581
  H     -1.901059   -3.296446   -0.723898
  H     -2.792214   -3.167941   -2.249155

 Total Charge           Charge          ....    0
 Multiplicity           Mult            ....    1
 Number of Electrons    NEL             ....  202
 Basis Dimension        Dim             ....  334

ORBITAL ENERGIES
----------------

  NO   OCC          E(Eh)            E(eV)
   0   2.0000     -88.047373     -2395.8908
   1   2.0000     -88.041813     -2395.7395
   2   2.0000     -87.992782     -2394.4053
   3   2.0000     -87.989934     -2394.3278
   4   2.0000     -76.430811     -2079.7881
   5   2.0000     -76.427559     -2079.6996
   6   2.0000     -18.796266      -511.4724
   7   2.0000     -18.794076      -511.4128
   8   2.0000     -18.793485      -511.3967
   9   2.0000     -18.791269      -511.3364
  10   2.0000      -9.958258      -270.9780
  11   2.0000      -9.956727      -270.9363
  12   2.0000      -9.954753      -270.8826
  13   2.0000      -9.950804      -270.7752
  14   2.0000      -9.948990      -270.7258
  15   2.0000      -9.886417      -269.0231
  16   2.0000      -9.883448      -268.9423
  17   2.0000      -9.880986      -268.8753
  18   2.0000      -9.875048      -268.7137
  19   2.0000      -7.692634      -209.3272
  20   2.0000      -7.686950      -209.1726
  21   2.0000      -7.637634      -207.8306
  22   2.0000      -7.635059      -207.7605
  23   2.0000      -6.428430      -174.9265
  24   2.0000      -6.425246      -174.8398
  25   2.0000      -5.720364      -155.6590
  26   2.0000      -5.717088      -155.5699
  27   2.0000      -5.715193      -155.5183
  28   2.0000      -5.711350      -155.4137
  29   2.0000      -5.709727      -155.3696
  30   2.0000      -5.703645      -155.2041
  31   2.0000      -5.666348      -154.1892
  32   2.0000      -5.663997      -154.1252
  33   2.0000      -5.658244      -153.9686
  34   2.0000      -5.658018      -153.9625
  35   2.0000      -5.655755      -153.9009
  36   2.0000      -5.655138      -153.8841
  37   2.0000      -4.650838      -126.5557
  38   2.0000      -4.650236      -126.5394
  39   2.0000      -4.648967      -126.5048
  40   2.0000      -4.647626      -126.4683
  41   2.0000      -4.647168      -126.4559
  42   2.0000      -4.645755      -126.4174
  43   2.0000      -0.989791       -26.9336
  44   2.0000      -0.987423       -26.8691
  45   2.0000      -0.948011       -25.7967
  46   2.0000      -0.946309       -25.7504
  47   2.0000      -0.766534       -20.8585
  48   2.0000      -0.725051       -19.7296
  49   2.0000      -0.709448       -19.3051
  50   2.0000      -0.686986       -18.6938
  51   2.0000      -0.684800       -18.6344
  52   2.0000      -0.675331       -18.3767
  53   2.0000      -0.656433       -17.8625
  54   2.0000      -0.641789       -17.4640
  55   2.0000      -0.600468       -16.3396
  56   2.0000      -0.593877       -16.1602
  57   2.0000      -0.574639       -15.6367
  58   2.0000      -0.571087       -15.5401
  59   2.0000      -0.560543       -15.2531
  60   2.0000      -0.506856       -13.7923
  61   2.0000      -0.493823       -13.4376
  62   2.0000      -0.481232       -13.0950
  63   2.0000      -0.471337       -12.8257
  64   2.0000      -0.461897       -12.5689
  65   2.0000      -0.444304       -12.0901
  66   2.0000      -0.438679       -11.9371
  67   2.0000      -0.437498       -11.9049
  68   2.0000      -0.429229       -11.6799
  69   2.0000      -0.413005       -11.2384
  70   2.0000      -0.411025       -11.1846
  71   2.0000      -0.401129       -10.9153
  72   2.0000      -0.396476       -10.7887
  73   2.0000      -0.394684       -10.7399
  74   2.0000      -0.385148       -10.4804
  75   2.0000      -0.374190       -10.1822
  76   2.0000      -0.366509        -9.9732
  77   2.0000      -0.354638        -9.6502
  78   2.0000      -0.352710        -9.5977
  79   2.0000      -0.351530        -9.5656
  80   2.0000      -0.347719        -9.4619
  81   2.0000      -0.341700        -9.2981
  82   2.0000      -0.337736        -9.1903
  83   2.0000      -0.335990        -9.1428
  84   2.0000      -0.334458        -9.1011
  85   2.0000      -0.322806        -8.7840
  86   2.0000      -0.311865        -8.4863
  87   2.0000      -0.301205        -8.1962
  88   2.0000      -0.296275        -8.0620
  89   2.0000      -0.290598        -7.9076
  90   2.0000      -0.288078        -7.8390
  91   2.0000      -0.278504        -7.5785
  92   2.0000      -0.275326        -7.4920
  93   2.0000      -0.270211        -7.3528
  94   2.0000      -0.256661        -6.9841
  95   2.0000      -0.234556        -6.3826
  96   2.0000      -0.219188        -5.9644
  97   2.0000      -0.211462        -5.7542
  98   2.0000      -0.209740        -5.7073
  99   2.0000      -0.207344        -5.6421
 100   2.0000      -0.204914        -5.5760
 101   0.0000      -0.042562        -1.1582
 102   0.0000      -0.024620        -0.6699
 103   0.0000      -0.016397        -0.4462
 104   0.0000       0.001918         0.0522
 105   0.0000       0.009966         0.2712

MULLIKEN ATOMIC CHARGES
-----------------------
   0 C :   -0.347863
   1 C :    0.008410
   2 O :   -0.378370
   3 P :    0.606498
   4 S :   -0.317387
   5 O :   -0.384032
   6 C :   -0.003066
   7 C :   -0.308583
   8 S :   -0.058764
   9 C :   -0.376615
  10 S :   -0.073182
  11 P :    0.613072
  12 S :   -0.334796
  13 O :   -0.370447
  14 C :   -0.010739
  15 C :   -0.295152
  16 O :   -0.357558
  17 C :   -0.012549
  18 C :   -0.299212
  19 H :    0.142195
  20 H :    0.125931
  21 H :    0.106324
  22 H :    0.106890
  23 H :    0.101879
  24 H :    0.115171
  25 H :    0.105982
  26 H :    0.113409
  27 H :    0.116024
  28 H :    0.124991
  29 H :    0.199205
  30 H :    0.194025
  31 H :    0.108441
  32 H :    0.101782
  33 H :    0.108228
  34 H :    0.131602
  35 H :    0.113797
  36 H :    0.103060
  37 H :    0.112552
  38 H :    0.136030
  39 H :    0.123894
  40 H :    0.108924
Sum of atomic charges:    0.0000000

LOEWDIN ATOMIC CHARGES
----------------------
   0 C :   -0.377261
   1 C :   -0.118765
   2 O :   -0.247568
   3 P :    0.572205
   4 S :   -0.317286
   5 O :   -0.248972
   6 C :   -0.115285
   7 C :   -0.365296
   8 S :    0.100932
   9 C :   -0.484323
  10 S :    0.097204
  11 P :    0.567692
  12 S :   -0.313253
  13 O :   -0.246093
  14 C :   -0.115934
  15 C :   -0.364043
  16 O :   -0.234266
  17 C :   -0.115614
  18 C :   -0.355614
  19 H :    0.120389
  20 H :    0.119090
  21 H :    0.128452
  22 H :    0.108086
  23 H :    0.118147
  24 H :    0.113057
  25 H :    0.119075
  26 H :    0.131076
  27 H :    0.126062
  28 H :    0.123376
  29 H :    0.130661
  30 H :    0.136021
  31 H :    0.119535
  32 H :    0.105842
  33 H :    0.129078
  34 H :    0.124699
  35 H :    0.126241
  36 H :    0.114483
  37 H :    0.107191
  38 H :    0.124512
  39 H :    0.126673
  40 H :    0.129797

  Mayer bond orders larger than 0.100000
B(  0-C ,  1-C ) :   1.1626 B(  0-C , 19-H ) :   0.9283 B(  0-C , 20-H ) :   0.9296
B(  0-C , 21-H ) :   0.9373 B(  1-C ,  2-O ) :   0.9029 B(  1-C , 22-H ) :   0.9183
B(  1-C , 23-H ) :   0.9323 B(  2-O ,  3-P ) :   1.0874 B(  3-P ,  4-S ) :   1.6321
B(  3-P ,  5-O ) :   1.0927 B(  3-P ,  8-S ) :   0.9804 B(  5-O ,  6-C ) :   0.9056
B(  6-C ,  7-C ) :   1.1625 B(  6-C , 24-H ) :   0.9180 B(  6-C , 25-H ) :   0.9357
B(  7-C , 26-H ) :   0.9380 B(  7-C , 27-H ) :   0.9461 B(  7-C , 28-H ) :   0.9360
B(  8-S ,  9-C ) :   0.9831 B(  9-C , 10-S ) :   1.0037 B(  9-C , 29-H ) :   0.8673
B(  9-C , 30-H ) :   0.8880 B( 10-S , 11-P ) :   0.9711 B( 10-S , 12-S ) :   0.1102
B( 11-P , 12-S ) :   1.6018 B( 11-P , 13-O ) :   1.1214 B( 11-P , 16-O ) :   1.1364
B( 13-O , 14-C ) :   0.9058 B( 14-C , 15-C ) :   1.1667 B( 14-C , 31-H ) :   0.9361
B( 14-C , 32-H ) :   0.9158 B( 15-C , 33-H ) :   0.9392 B( 15-C , 34-H ) :   0.9318
B( 15-C , 35-H ) :   0.9476 B( 16-O , 17-C ) :   0.8951 B( 17-C , 18-C ) :   1.1666
B( 17-C , 36-H ) :   0.9328 B( 17-C , 37-H ) :   0.9025 B( 18-C , 38-H ) :   0.9407
B( 18-C , 39-H ) :   0.9453 B( 18-C , 40-H ) :   0.9389

Dispersion correction           -0.064798163
FINAL SINGLE POINT ENERGY     -2929.523814119011

DIPOLE MOMENT
-------------

Method             : SCF
Type of density    : Electron Density
Multiplicity       :   1
Irrep              :   0
Energy             : -2929.6448348563717445 Eh
Relativity type    :
Basis              : AO
                                X                 Y                 Z
Electronic contribution:      3.231379429       3.698506903      -9.197763781
Nuclear contribution   :     -3.373013722      -3.282574468      10.505562124
                        -----------------------------------------
Total Dipole Moment    :     -0.141634293       0.415932435       1.307798343
                        -----------------------------------------
Magnitude (a.u.)       :      1.379636390
Magnitude (Debye)      :      3.506757017

Rotational constants in cm-1:             0.013849             0.004487             0.004170
Rotational constants in MHz :           415.180151           134.503800           125.005327

                             ****ORCA TERMINATED NORMALLY****
TOTAL RUN TIME: 0 days 0 hours 0 minutes 21 seconds 21 msec
