                         Program Version 6.0.1  -  RELEASE   -
|  1> ! r2scan-3c def2/J RI DEFGRID2 scfconv6 printgap
|  2> %output
|  3>     printlevel normal
|  4> end
|  5> * xyz 0 1
|  6> C 5.0154672544 -0.1239223923 -0.9193567562
|  7> C 4.4660162948 -1.4363848131 -1.45444457
|  8> O 3.0282562371 -1.3866025233 -1.5278982915
|  9> C 2.3250313333 -1.9202639763 -0.541963571
| 10> O 2.7974578688 -2.5297402795 0.3895077845
| 11> C 0.8325922245 -1.7558816113 -0.7715704715
| 12> C 0.497241388 -0.3155184256 -1.1396347628
| 13> H 1.0093775188 -0.0533583159 -2.0729654467
| 14> C 0.9996662572 0.6609470011 -0.0918212075
| 15> O 2.0135875847 0.4623294501 0.5361238458
| 16> O 0.27944414 1.7645522497 -0.0386732
| 17> C 0.7586928473 2.8521373273 0.7814117013
| 18> C 0.3762254247 2.6885061232 2.2415212886
| 19> S -1.2651091932 -0.0827453473 -1.5251609699
| 20> P -2.0957232528 0.1711686866 0.4140092239
| 21> S -1.1160846359 -0.5797425616 1.9382104068
| 22> O -2.4568010291 1.6956521086 0.6071714196
| 23> C -3.2263528849 2.4294345088 -0.3673131954
| 24> O -3.5612569379 -0.4405755075 0.2075616938
| 25> C -3.7654937659 -1.8471404767 0.0387739979
| 26> H 4.76770115 0.6917599557 -1.5927563335
| 27> H 4.5797000254 0.083765502 0.0559316495
| 28> H 6.0934718062 -0.195809437 -0.8215813325
| 29> H 4.7500902541 -2.2700284133 -0.8062424227
| 30> H 4.7946568255 -1.6201603392 -2.478256317
| 31> H 0.3220660498 -2.0589769968 0.1445509972
| 32> H 0.5366695066 -2.4160328117 -1.5883603956
| 33> H 1.8462076139 2.8970569675 0.675022735
| 34> H 0.2911110149 3.7343483383 0.34408797
| 35> H 0.841275528 1.7958788873 2.6559957868
| 36> H 0.7167949338 3.5552717386 2.7979960651
| 37> H -0.7021931793 2.5936632702 2.3437183629
| 38> H -2.7358798232 2.3808805227 -1.3393327303
| 39> H -3.2524603299 3.4511405312 0.0020896461
| 40> H -4.2305346637 2.0159664258 -0.433283153
| 41> H -3.4320715791 -2.153391081 -0.9524644292
| 42> H -4.8356475225 -2.0031587565 0.1483782464
| 43> H -3.2209846157 -2.4012282193 0.805023326
| 44> *
| 45>
| 46>                          ****END OF INPUT****

CARTESIAN COORDINATES (ANGSTROEM)
---------------------------------
  C      5.015467   -0.123922   -0.919357
  C      4.466016   -1.436385   -1.454445
  O      3.028256   -1.386603   -1.527898
  C      2.325031   -1.920264   -0.541964
  O      2.797458   -2.529740    0.389508
  C      0.832592   -1.755882   -0.771570
  C      0.497241   -0.315518   -1.139635
  H      1.009378   -0.053358   -2.072965
  C      0.999666    0.660947   -0.091821
  O      2.013588    0.462329    0.536124
  O      0.279444    1.764552   -0.038673
  C      0.758693    2.852137    0.781412
  C      0.376225    2.688506    2.241521
  S     -1.265109   -0.082745   -1.525161
  P     -2.095723    0.171169    0.414009
  S     -1.116085   -0.579743    1.938210
  O     -2.456801    1.695652    0.607171
  C     -3.226353    2.429435   -0.367313
  O     -3.561257   -0.440576    0.207562
  C     -3.765494   -1.847140    0.038774
  H      4.767701    0.691760   -1.592756
  H      4.579700    0.083766    0.055932
  H      6.093472   -0.195809   -0.821581
  H      4.750090   -2.270028   -0.806242
  H      4.794657   -1.620160   -2.478256
  H      0.322066   -2.058977    0.144551
  H      0.536670   -2.416033   -1.588360
  H      1.846208    2.897057    0.675023
  H      0.291111    3.734348    0.344088
  H      0.841276    1.795879    2.655996
  H      0.716795    3.555272    2.797996
  H     -0.702193    2.593663    2.343718
  H     -2.735880    2.380881   -1.339333
  H     -3.252460    3.451141    0.002090
  H     -4.230535    2.015966   -0.433283
  H     -3.432072   -2.153391   -0.952464
  H     -4.835648   -2.003159    0.148378
  H     -3.220985   -2.401228    0.805023

 Total Charge           Charge          ....    0
 Multiplicity           Mult            ....    1
 Number of Electrons    NEL             ....  174
 Basis Dimension        Dim             ....  510

ORBITAL ENERGIES
----------------

  NO   OCC          E(Eh)            E(eV)
   0   2.0000     -88.580576     -2410.4000
   1   2.0000     -88.523380     -2408.8436
   2   2.0000     -76.919558     -2093.0876
   3   2.0000     -19.006086      -517.1819
   4   2.0000     -19.000125      -517.0197
   5   2.0000     -18.996869      -516.9311
   6   2.0000     -18.990290      -516.7521
   7   2.0000     -18.941207      -515.4164
   8   2.0000     -18.917572      -514.7733
   9   2.0000     -10.168665      -276.7034
  10   2.0000     -10.148029      -276.1419
  11   2.0000     -10.103056      -274.9181
  12   2.0000     -10.101924      -274.8873
  13   2.0000     -10.095991      -274.7259
  14   2.0000     -10.095164      -274.7034
  15   2.0000     -10.083763      -274.3931
  16   2.0000     -10.048948      -273.4458
  17   2.0000     -10.019248      -272.6376
  18   2.0000     -10.019040      -272.6320
  19   2.0000      -7.874996      -214.2895
  20   2.0000      -7.817948      -212.7372
  21   2.0000      -6.597718      -179.5330
  22   2.0000      -5.821955      -158.4234
  23   2.0000      -5.818710      -158.3351
  24   2.0000      -5.812145      -158.1565
  25   2.0000      -5.765897      -156.8980
  26   2.0000      -5.758044      -156.6843
  27   2.0000      -5.757881      -156.6799
  28   2.0000      -4.743467      -129.0763
  29   2.0000      -4.742779      -129.0576
  30   2.0000      -4.741173      -129.0139
  31   2.0000      -1.084949       -29.5230
  32   2.0000      -1.065113       -28.9832
  33   2.0000      -1.056819       -28.7575
  34   2.0000      -1.014682       -27.6109
  35   2.0000      -0.991143       -26.9704
  36   2.0000      -0.968264       -26.3478
  37   2.0000      -0.813130       -22.1264
  38   2.0000      -0.749016       -20.3818
  39   2.0000      -0.741829       -20.1862
  40   2.0000      -0.729813       -19.8592
  41   2.0000      -0.696412       -18.9503
  42   2.0000      -0.681619       -18.5478
  43   2.0000      -0.663250       -18.0479
  44   2.0000      -0.650313       -17.6959
  45   2.0000      -0.619623       -16.8608
  46   2.0000      -0.601316       -16.3626
  47   2.0000      -0.547972       -14.9111
  48   2.0000      -0.526017       -14.3136
  49   2.0000      -0.519381       -14.1331
  50   2.0000      -0.507327       -13.8051
  51   2.0000      -0.499584       -13.5944
  52   2.0000      -0.476427       -12.9642
  53   2.0000      -0.461459       -12.5570
  54   2.0000      -0.459442       -12.5021
  55   2.0000      -0.454657       -12.3718
  56   2.0000      -0.446031       -12.1371
  57   2.0000      -0.439331       -11.9548
  58   2.0000      -0.436445       -11.8763
  59   2.0000      -0.426436       -11.6039
  60   2.0000      -0.424287       -11.5454
  61   2.0000      -0.416950       -11.3458
  62   2.0000      -0.410796       -11.1783
  63   2.0000      -0.401241       -10.9183
  64   2.0000      -0.383822       -10.4443
  65   2.0000      -0.377027       -10.2594
  66   2.0000      -0.372514       -10.1366
  67   2.0000      -0.364760        -9.9256
  68   2.0000      -0.357186        -9.7195
  69   2.0000      -0.353257        -9.6126
  70   2.0000      -0.345070        -9.3898
  71   2.0000      -0.336943        -9.1687
  72   2.0000      -0.331539        -9.0216
  73   2.0000      -0.330219        -8.9857
  74   2.0000      -0.330099        -8.9825
  75   2.0000      -0.319498        -8.6940
  76   2.0000      -0.311642        -8.4802
  77   2.0000      -0.300889        -8.1876
  78   2.0000      -0.292536        -7.9603
  79   2.0000      -0.284712        -7.7474
  80   2.0000      -0.279839        -7.6148
  81   2.0000      -0.262045        -7.1306
  82   2.0000      -0.259851        -7.0709
  83   2.0000      -0.238341        -6.4856
  84   2.0000      -0.226062        -6.1515
  85   2.0000      -0.220817        -6.0087
  86   2.0000      -0.216534        -5.8922
  87   0.0000      -0.045028        -1.2253
  88   0.0000      -0.033630        -0.9151
  89   0.0000      -0.002966        -0.0807
  90   0.0000       0.004132         0.1124
  91   0.0000       0.006990         0.1902

MULLIKEN ATOMIC CHARGES
-----------------------
   0 C :   -0.470468
   1 C :   -0.151234
   2 O :   -0.144192
   3 C :    0.349661
   4 O :   -0.388592
   5 C :   -0.472604
   6 C :    0.054566
   7 H :    0.204475
   8 C :    0.239462
   9 O :   -0.375289
  10 O :   -0.135741
  11 C :   -0.111116
  12 C :   -0.498022
  13 S :   -0.187996
  14 P :    0.735332
  15 S :   -0.401778
  16 O :   -0.304534
  17 C :   -0.294769
  18 O :   -0.344935
  19 C :   -0.296881
  20 H :    0.143254
  21 H :    0.189190
  22 H :    0.143043
  23 H :    0.180842
  24 H :    0.142995
  25 H :    0.216718
  26 H :    0.184227
  27 H :    0.158186
  28 H :    0.144892
  29 H :    0.189600
  30 H :    0.143823
  31 H :    0.172772
  32 H :    0.170984
  33 H :    0.156581
  34 H :    0.169870
  35 H :    0.158449
  36 H :    0.153198
  37 H :    0.176032
Sum of atomic charges:   -0.0000000

LOEWDIN ATOMIC CHARGES
----------------------
   0 C :   -0.390682
   1 C :    0.030427
   2 O :   -0.603105
   3 C :    0.358332
   4 O :   -0.413112
   5 C :   -0.212312
   6 C :   -0.198541
   7 H :    0.214127
   8 C :    0.349374
   9 O :   -0.406870
  10 O :   -0.616445
  11 C :    0.035614
  12 C :   -0.396793
  13 S :    0.195849
  14 P :    0.396966
  15 S :   -0.049652
  16 O :   -0.657157
  17 C :   -0.051329
  18 O :   -0.683737
  19 C :   -0.058870
  20 H :    0.154015
  21 H :    0.175397
  22 H :    0.156624
  23 H :    0.193497
  24 H :    0.174755
  25 H :    0.200807
  26 H :    0.184671
  27 H :    0.187755
  28 H :    0.178918
  29 H :    0.172906
  30 H :    0.156178
  31 H :    0.168586
  32 H :    0.174578
  33 H :    0.179722
  34 H :    0.175087
  35 H :    0.169091
  36 H :    0.178015
  37 H :    0.177316

  Mayer bond orders larger than 0.100000
B(  0-C ,  1-C ) :   0.9348 B(  0-C , 20-H ) :   0.9723 B(  0-C , 21-H ) :   0.9670
B(  0-C , 22-H ) :   0.9666 B(  1-C ,  2-O ) :   0.7946 B(  1-C , 23-H ) :   0.9718
B(  1-C , 24-H ) :   0.9616 B(  2-O ,  3-C ) :   1.0737 B(  2-O ,  6-C ) :   0.1248
B(  3-C ,  4-O ) :   1.9099 B(  3-C ,  5-C ) :   0.8847 B(  5-C ,  6-C ) :   0.8639
B(  5-C , 25-H ) :   0.9838 B(  5-C , 26-H ) :   0.9540 B(  6-C ,  7-H ) :   0.8859
B(  6-C ,  8-C ) :   0.9783 B(  6-C , 13-S ) :   0.8264 B(  8-C ,  9-O ) :   1.7855
B(  8-C , 10-O ) :   1.1145 B( 10-O , 11-C ) :   0.7837 B( 11-C , 12-C ) :   0.9248
B( 11-C , 27-H ) :   0.9640 B( 11-C , 28-H ) :   0.9632 B( 12-C , 29-H ) :   0.9664
B( 12-C , 30-H ) :   0.9643 B( 12-C , 31-H ) :   0.9615 B( 13-S , 14-P ) :   1.0195
B( 14-P , 15-S ) :   1.7994 B( 14-P , 16-O ) :   1.1303 B( 14-P , 18-O ) :   1.0282
B( 16-O , 17-C ) :   0.7968 B( 17-C , 32-H ) :   0.9553 B( 17-C , 33-H ) :   0.9655
B( 17-C , 34-H ) :   0.9600 B( 18-O , 19-C ) :   0.8328 B( 19-C , 35-H ) :   0.9565
B( 19-C , 36-H ) :   0.9667 B( 19-C , 37-H ) :   0.9588

Dispersion correction           -0.018304541
FINAL SINGLE POINT ENERGY     -1981.453051858914

DIPOLE MOMENT
-------------

Method             : SCF
Type of density    : Electron Density
Multiplicity       :   1
Irrep              :   0
Energy             : -1981.4722315025483113 Eh
Relativity type    :
Basis              : AO
                                X                 Y                 Z
Electronic contribution:    -10.598501940      -6.142229716       0.707174789
Nuclear contribution   :      9.608691234       7.391057399      -2.361141264
                        -----------------------------------------
Total Dipole Moment    :     -0.989810706       1.248827683      -1.653966476
                        -----------------------------------------
Magnitude (a.u.)       :      2.296715245
Magnitude (Debye)      :      5.837786217

Rotational constants in cm-1:             0.016028             0.006800             0.005892
Rotational constants in MHz :           480.506736           203.866604           176.649224

                             ****ORCA TERMINATED NORMALLY****
TOTAL RUN TIME: 0 days 0 hours 1 minutes 38 seconds 656 msec
