                         Program Version 6.0.1  -  RELEASE   -
|  1> ! r2scan-3c def2/J RI DEFGRID2 scfconv6 printgap
|  2> %output
|  3>     printlevel normal
|  4> end
|  5> %cpcm
|  6>     smd true
|  7>     smdsolvent "water"
|  8> end
|  9> * xyz 0 1
| 10> C 5.0154672544 -0.1239223923 -0.9193567562
| 11> C 4.4660162948 -1.4363848131 -1.45444457
| 12> O 3.0282562371 -1.3866025233 -1.5278982915
| 13> C 2.3250313333 -1.9202639763 -0.541963571
| 14> O 2.7974578688 -2.5297402795 0.3895077845
| 15> C 0.8325922245 -1.7558816113 -0.7715704715
| 16> C 0.497241388 -0.3155184256 -1.1396347628
| 17> H 1.0093775188 -0.0533583159 -2.0729654467
| 18> C 0.9996662572 0.6609470011 -0.0918212075
| 19> O 2.0135875847 0.4623294501 0.5361238458
| 20> O 0.27944414 1.7645522497 -0.0386732
| 21> C 0.7586928473 2.8521373273 0.7814117013
| 22> C 0.3762254247 2.6885061232 2.2415212886
| 23> S -1.2651091932 -0.0827453473 -1.5251609699
| 24> P -2.0957232528 0.1711686866 0.4140092239
| 25> S -1.1160846359 -0.5797425616 1.9382104068
| 26> O -2.4568010291 1.6956521086 0.6071714196
| 27> C -3.2263528849 2.4294345088 -0.3673131954
| 28> O -3.5612569379 -0.4405755075 0.2075616938
| 29> C -3.7654937659 -1.8471404767 0.0387739979
| 30> H 4.76770115 0.6917599557 -1.5927563335
| 31> H 4.5797000254 0.083765502 0.0559316495
| 32> H 6.0934718062 -0.195809437 -0.8215813325
| 33> H 4.7500902541 -2.2700284133 -0.8062424227
| 34> H 4.7946568255 -1.6201603392 -2.478256317
| 35> H 0.3220660498 -2.0589769968 0.1445509972
| 36> H 0.5366695066 -2.4160328117 -1.5883603956
| 37> H 1.8462076139 2.8970569675 0.675022735
| 38> H 0.2911110149 3.7343483383 0.34408797
| 39> H 0.841275528 1.7958788873 2.6559957868
| 40> H 0.7167949338 3.5552717386 2.7979960651
| 41> H -0.7021931793 2.5936632702 2.3437183629
| 42> H -2.7358798232 2.3808805227 -1.3393327303
| 43> H -3.2524603299 3.4511405312 0.0020896461
| 44> H -4.2305346637 2.0159664258 -0.433283153
| 45> H -3.4320715791 -2.153391081 -0.9524644292
| 46> H -4.8356475225 -2.0031587565 0.1483782464
| 47> H -3.2209846157 -2.4012282193 0.805023326
| 48> *
| 49>
| 50>                          ****END OF INPUT****

CARTESIAN COORDINATES (ANGSTROEM)
---------------------------------
  C      5.015467   -0.123922   -0.919357
  C      4.466016   -1.436385   -1.454445
  O      3.028256   -1.386603   -1.527898
  C      2.325031   -1.920264   -0.541964
  O      2.797458   -2.529740    0.389508
  C      0.832592   -1.755882   -0.771570
  C      0.497241   -0.315518   -1.139635
  H      1.009378   -0.053358   -2.072965
  C      0.999666    0.660947   -0.091821
  O      2.013588    0.462329    0.536124
  O      0.279444    1.764552   -0.038673
  C      0.758693    2.852137    0.781412
  C      0.376225    2.688506    2.241521
  S     -1.265109   -0.082745   -1.525161
  P     -2.095723    0.171169    0.414009
  S     -1.116085   -0.579743    1.938210
  O     -2.456801    1.695652    0.607171
  C     -3.226353    2.429435   -0.367313
  O     -3.561257   -0.440576    0.207562
  C     -3.765494   -1.847140    0.038774
  H      4.767701    0.691760   -1.592756
  H      4.579700    0.083766    0.055932
  H      6.093472   -0.195809   -0.821581
  H      4.750090   -2.270028   -0.806242
  H      4.794657   -1.620160   -2.478256
  H      0.322066   -2.058977    0.144551
  H      0.536670   -2.416033   -1.588360
  H      1.846208    2.897057    0.675023
  H      0.291111    3.734348    0.344088
  H      0.841276    1.795879    2.655996
  H      0.716795    3.555272    2.797996
  H     -0.702193    2.593663    2.343718
  H     -2.735880    2.380881   -1.339333
  H     -3.252460    3.451141    0.002090
  H     -4.230535    2.015966   -0.433283
  H     -3.432072   -2.153391   -0.952464
  H     -4.835648   -2.003159    0.148378
  H     -3.220985   -2.401228    0.805023

 Total Charge           Charge          ....    0
 Multiplicity           Mult            ....    1
 Number of Electrons    NEL             ....  174
 Basis Dimension        Dim             ....  510

ORBITAL ENERGIES
----------------

  NO   OCC          E(Eh)            E(eV)
   0   2.0000     -88.581456     -2410.4240
   1   2.0000     -88.531530     -2409.0654
   2   2.0000     -76.922777     -2093.1752
   3   2.0000     -19.010765      -517.3092
   4   2.0000     -19.003276      -517.1054
   5   2.0000     -18.998447      -516.9740
   6   2.0000     -18.995892      -516.9045
   7   2.0000     -18.954953      -515.7905
   8   2.0000     -18.944398      -515.5033
   9   2.0000     -10.178968      -276.9838
  10   2.0000     -10.168929      -276.7106
  11   2.0000     -10.101608      -274.8787
  12   2.0000     -10.087617      -274.4980
  13   2.0000     -10.085166      -274.4313
  14   2.0000     -10.083486      -274.3856
  15   2.0000     -10.082304      -274.3534
  16   2.0000     -10.052289      -273.5367
  17   2.0000     -10.017770      -272.5974
  18   2.0000     -10.016465      -272.5619
  19   2.0000      -7.875754      -214.3102
  20   2.0000      -7.826520      -212.9704
  21   2.0000      -6.600994      -179.6222
  22   2.0000      -5.822792      -158.4462
  23   2.0000      -5.819525      -158.3573
  24   2.0000      -5.812779      -158.1738
  25   2.0000      -5.774323      -157.1273
  26   2.0000      -5.766729      -156.9207
  27   2.0000      -5.766404      -156.9118
  28   2.0000      -4.746671      -129.1635
  29   2.0000      -4.746013      -129.1456
  30   2.0000      -4.744607      -129.1073
  31   2.0000      -1.091743       -29.7078
  32   2.0000      -1.080938       -29.4138
  33   2.0000      -1.055244       -28.7147
  34   2.0000      -1.012421       -27.5494
  35   2.0000      -1.002835       -27.2885
  36   2.0000      -0.992497       -27.0072
  37   2.0000      -0.814889       -22.1743
  38   2.0000      -0.751247       -20.4425
  39   2.0000      -0.739568       -20.1247
  40   2.0000      -0.728574       -19.8255
  41   2.0000      -0.696472       -18.9520
  42   2.0000      -0.671694       -18.2777
  43   2.0000      -0.662037       -18.0149
  44   2.0000      -0.651629       -17.7317
  45   2.0000      -0.622001       -16.9255
  46   2.0000      -0.602206       -16.3868
  47   2.0000      -0.544184       -14.8080
  48   2.0000      -0.526512       -14.3271
  49   2.0000      -0.522034       -14.2053
  50   2.0000      -0.508740       -13.8435
  51   2.0000      -0.492896       -13.4124
  52   2.0000      -0.483014       -13.1435
  53   2.0000      -0.469171       -12.7668
  54   2.0000      -0.459713       -12.5094
  55   2.0000      -0.454334       -12.3631
  56   2.0000      -0.450440       -12.2571
  57   2.0000      -0.447474       -12.1764
  58   2.0000      -0.437657       -11.9093
  59   2.0000      -0.428598       -11.6627
  60   2.0000      -0.420339       -11.4380
  61   2.0000      -0.411831       -11.2065
  62   2.0000      -0.409325       -11.1383
  63   2.0000      -0.406053       -11.0493
  64   2.0000      -0.384792       -10.4707
  65   2.0000      -0.378870       -10.3096
  66   2.0000      -0.375084       -10.2065
  67   2.0000      -0.366851        -9.9825
  68   2.0000      -0.358824        -9.7641
  69   2.0000      -0.352588        -9.5944
  70   2.0000      -0.349407        -9.5078
  71   2.0000      -0.341430        -9.2908
  72   2.0000      -0.336015        -9.1434
  73   2.0000      -0.332368        -9.0442
  74   2.0000      -0.325776        -8.8648
  75   2.0000      -0.317677        -8.6444
  76   2.0000      -0.308806        -8.4030
  77   2.0000      -0.304951        -8.2981
  78   2.0000      -0.291284        -7.9263
  79   2.0000      -0.285698        -7.7742
  80   2.0000      -0.282909        -7.6983
  81   2.0000      -0.276964        -7.5366
  82   2.0000      -0.269178        -7.3247
  83   2.0000      -0.255560        -6.9541
  84   2.0000      -0.240354        -6.5404
  85   2.0000      -0.230464        -6.2712
  86   2.0000      -0.225010        -6.1228
  87   0.0000      -0.049197        -1.3387
  88   0.0000      -0.040625        -1.1055
  89   0.0000      -0.018208        -0.4955
  90   0.0000       0.002368         0.0644
  91   0.0000       0.004990         0.1358

MULLIKEN ATOMIC CHARGES
-----------------------
   0 C :   -0.505464
   1 C :   -0.139161
   2 O :   -0.160068
   3 C :    0.370124
   4 O :   -0.479563
   5 C :   -0.489767
   6 C :    0.072225
   7 H :    0.247085
   8 C :    0.255369
   9 O :   -0.442082
  10 O :   -0.143943
  11 C :   -0.121849
  12 C :   -0.519757
  13 S :   -0.179392
  14 P :    0.766692
  15 S :   -0.470658
  16 O :   -0.338695
  17 C :   -0.299651
  18 O :   -0.370699
  19 C :   -0.307890
  20 H :    0.168896
  21 H :    0.171889
  22 H :    0.169482
  23 H :    0.179866
  24 H :    0.173363
  25 H :    0.213164
  26 H :    0.224315
  27 H :    0.173909
  28 H :    0.179707
  29 H :    0.176404
  30 H :    0.171416
  31 H :    0.170845
  32 H :    0.180309
  33 H :    0.184446
  34 H :    0.185545
  35 H :    0.176088
  36 H :    0.180442
  37 H :    0.177057
Sum of atomic charges:    0.0000000

LOEWDIN ATOMIC CHARGES
----------------------
   0 C :   -0.393102
   1 C :    0.037077
   2 O :   -0.596774
   3 C :    0.364061
   4 O :   -0.481691
   5 C :   -0.209298
   6 C :   -0.193811
   7 H :    0.230734
   8 C :    0.355968
   9 O :   -0.455602
  10 O :   -0.613378
  11 C :    0.041913
  12 C :   -0.400219
  13 S :    0.215463
  14 P :    0.401530
  15 S :   -0.098900
  16 O :   -0.672913
  17 C :   -0.042416
  18 O :   -0.692267
  19 C :   -0.054182
  20 H :    0.161783
  21 H :    0.166627
  22 H :    0.166925
  23 H :    0.192952
  24 H :    0.188620
  25 H :    0.197273
  26 H :    0.202903
  27 H :    0.193041
  28 H :    0.193123
  29 H :    0.164590
  30 H :    0.166344
  31 H :    0.166093
  32 H :    0.179864
  33 H :    0.191709
  34 H :    0.182215
  35 H :    0.176557
  36 H :    0.189410
  37 H :    0.177777

  Mayer bond orders larger than 0.100000
B(  0-C ,  1-C ) :   0.9214 B(  0-C , 20-H ) :   0.9689 B(  0-C , 21-H ) :   0.9698
B(  0-C , 22-H ) :   0.9603 B(  1-C ,  2-O ) :   0.7805 B(  1-C , 23-H ) :   0.9684
B(  1-C , 24-H ) :   0.9506 B(  2-O ,  3-C ) :   1.0972 B(  2-O ,  6-C ) :   0.1085
B(  3-C ,  4-O ) :   1.8394 B(  3-C ,  5-C ) :   0.8985 B(  3-C ,  9-O ) :   0.1005
B(  5-C ,  6-C ) :   0.8341 B(  5-C , 25-H ) :   0.9906 B(  5-C , 26-H ) :   0.9270
B(  6-C ,  7-H ) :   0.8775 B(  6-C ,  8-C ) :   0.9789 B(  6-C , 13-S ) :   0.8128
B(  8-C ,  9-O ) :   1.7380 B(  8-C , 10-O ) :   1.1339 B( 10-O , 11-C ) :   0.7694
B( 11-C , 12-C ) :   0.9107 B( 11-C , 27-H ) :   0.9620 B( 11-C , 28-H ) :   0.9529
B( 12-C , 29-H ) :   0.9707 B( 12-C , 30-H ) :   0.9589 B( 12-C , 31-H ) :   0.9615
B( 13-S , 14-P ) :   1.0354 B( 14-P , 15-S ) :   1.7563 B( 14-P , 16-O ) :   1.1405
B( 14-P , 18-O ) :   1.0387 B( 16-O , 17-C ) :   0.7881 B( 17-C , 32-H ) :   0.9473
B( 17-C , 33-H ) :   0.9546 B( 17-C , 34-H ) :   0.9517 B( 18-O , 19-C ) :   0.8250
B( 19-C , 35-H ) :   0.9501 B( 19-C , 36-H ) :   0.9569 B( 19-C , 37-H ) :   0.9549

Dispersion correction           -0.018304541
FINAL SINGLE POINT ENERGY     -1981.468751874845

DIPOLE MOMENT
-------------

Method             : SCF
Type of density    : Electron Density
Multiplicity       :   1
Irrep              :   0
Energy             : -1981.4879315184800816 Eh
Relativity type    :
Basis              : AO
                                X                 Y                 Z
Electronic contribution:    -10.972021995      -5.653313432      -0.462183217
Nuclear contribution   :      9.608691234       7.391057399      -2.361141264
                        -----------------------------------------
Total Dipole Moment    :     -1.363330761       1.737743967      -2.823324481
                        -----------------------------------------
Magnitude (a.u.)       :      3.584631917
Magnitude (Debye)      :      9.111410239

Rotational constants in cm-1:             0.016028             0.006800             0.005892
Rotational constants in MHz :           480.506736           203.866604           176.649224

                             ****ORCA TERMINATED NORMALLY****
TOTAL RUN TIME: 0 days 0 hours 2 minutes 4 seconds 171 msec
