                         Program Version 6.0.0  -   RELEASE  -
|  1> ! pbe def2-sv(p) def2/J RI DEFGRID1 loosescf d4 GCP(DFT/SV(P)) printgap
|  2> %output
|  3>     printlevel normal
|  4> end
|  5> * xyz 0 1
|  6> C 4.3999060641 -1.6312417566 -0.8900355747
|  7> C 4.5808001588 -0.1516711862 -0.6198332899
|  8> O 3.5052250595 0.4070080574 0.1556257577
|  9> P 2.0136299106 0.5142072597 -0.3949930168
| 10> S 1.8735971113 0.9689893204 -2.2901457689
| 11> O 1.3996417996 1.6058295609 0.5642851925
| 12> C 1.4957176245 1.5414555096 2.007890308
| 13> C 2.6524173342 2.3779267874 2.5141883045
| 14> S 1.1718366777 -1.3463653696 0.2045480108
| 15> C 0.0071054063 -1.6360387882 -1.1656650255
| 16> S -1.6916833133 -1.8758986879 -0.6102173799
| 17> P -2.0323317579 0.0782905025 0.157166223
| 18> S -1.4686070775 1.5353465984 -1.0290412967
| 19> O -1.3146160546 0.1695637029 1.5614778119
| 20> C -1.7892771051 -0.4183073607 2.8018843262
| 21> C -1.749132312 -1.9319607717 2.7852342122
| 22> O -3.5661070959 0.0705947454 0.5674542538
| 23> C -4.6202983645 0.3970502685 -0.3558962373
| 24> C -4.7453960092 -0.6190821473 -1.4720333745
| 25> H 4.2066757412 -2.1666905691 0.0360310487
| 26> H 3.5637225002 -1.7844588935 -1.5704755306
| 27> H 5.3018142382 -2.0202365723 -1.3515631478
| 28> H 4.6483405358 0.4039650889 -1.5601059127
| 29> H 5.4649208748 0.0403486065 -0.0101593362
| 30> H 0.5374161931 1.93254647 2.3559517441
| 31> H 1.5986455993 0.4942815108 2.3073318979
| 32> H 2.5560375599 3.3989138513 2.1545920568
| 33> H 2.6399999569 2.3763944857 3.5996806379
| 34> H 3.5962715417 1.9697178215 2.1637220702
| 35> H 0.2919497378 -2.5594977948 -1.6633608659
| 36> H 0.0638935594 -0.7852757695 -1.8508980782
| 37> H -1.1025067202 -0.0098013685 3.5451779632
| 38> H -2.8005665765 -0.0525607629 2.9864402633
| 39> H -1.961181469 -2.297530688 3.7851584904
| 40> H -2.4936888499 -2.3275498837 2.0985569037
| 41> H -0.7659074416 -2.2815534296 2.4779211872
| 42> H -5.5130579343 0.4197100108 0.2708677057
| 43> H -4.4243812174 1.3935279201 -0.7636088511
| 44> H -5.6358691525 -0.4028437879 -2.0535508062
| 45> H -3.8767597818 -0.5622453191 -2.1262786472
| 46> H -4.8136967673 -1.6247098097 -1.065142943
| 47> *
| 48>
| 49>                          ****END OF INPUT****

CARTESIAN COORDINATES (ANGSTROEM)
---------------------------------
  C      4.399906   -1.631242   -0.890036
  C      4.580800   -0.151671   -0.619833
  O      3.505225    0.407008    0.155626
  P      2.013630    0.514207   -0.394993
  S      1.873597    0.968989   -2.290146
  O      1.399642    1.605830    0.564285
  C      1.495718    1.541456    2.007890
  C      2.652417    2.377927    2.514188
  S      1.171837   -1.346365    0.204548
  C      0.007105   -1.636039   -1.165665
  S     -1.691683   -1.875899   -0.610217
  P     -2.032332    0.078291    0.157166
  S     -1.468607    1.535347   -1.029041
  O     -1.314616    0.169564    1.561478
  C     -1.789277   -0.418307    2.801884
  C     -1.749132   -1.931961    2.785234
  O     -3.566107    0.070595    0.567454
  C     -4.620298    0.397050   -0.355896
  C     -4.745396   -0.619082   -1.472033
  H      4.206676   -2.166691    0.036031
  H      3.563723   -1.784459   -1.570476
  H      5.301814   -2.020237   -1.351563
  H      4.648341    0.403965   -1.560106
  H      5.464921    0.040349   -0.010159
  H      0.537416    1.932546    2.355952
  H      1.598646    0.494282    2.307332
  H      2.556038    3.398914    2.154592
  H      2.640000    2.376394    3.599681
  H      3.596272    1.969718    2.163722
  H      0.291950   -2.559498   -1.663361
  H      0.063894   -0.785276   -1.850898
  H     -1.102507   -0.009801    3.545178
  H     -2.800567   -0.052561    2.986440
  H     -1.961181   -2.297531    3.785158
  H     -2.493689   -2.327550    2.098557
  H     -0.765907   -2.281553    2.477921
  H     -5.513058    0.419710    0.270868
  H     -4.424381    1.393528   -0.763609
  H     -5.635869   -0.402844   -2.053551
  H     -3.876760   -0.562245   -2.126279
  H     -4.813697   -1.624710   -1.065143

 Total Charge           Charge          ....    0
 Multiplicity           Mult            ....    1
 Number of Electrons    NEL             ....  202
 Basis Dimension        Dim             ....  334

ORBITAL ENERGIES
----------------

  NO   OCC          E(Eh)            E(eV)
   0   2.0000     -88.040875     -2395.7140
   1   2.0000     -88.038003     -2395.6359
   2   2.0000     -87.979477     -2394.0433
   3   2.0000     -87.976922     -2393.9737
   4   2.0000     -76.423471     -2079.5884
   5   2.0000     -76.420257     -2079.5009
   6   2.0000     -18.795933      -511.4633
   7   2.0000     -18.789141      -511.2785
   8   2.0000     -18.788480      -511.2605
   9   2.0000     -18.781237      -511.0634
  10   2.0000      -9.957961      -270.9699
  11   2.0000      -9.954988      -270.8890
  12   2.0000      -9.951601      -270.7968
  13   2.0000      -9.949539      -270.7407
  14   2.0000      -9.948640      -270.7162
  15   2.0000      -9.887197      -269.0443
  16   2.0000      -9.884947      -268.9831
  17   2.0000      -9.881258      -268.8827
  18   2.0000      -9.880611      -268.8651
  19   2.0000      -7.685869      -209.1431
  20   2.0000      -7.682653      -209.0556
  21   2.0000      -7.624683      -207.4782
  22   2.0000      -7.621863      -207.4014
  23   2.0000      -6.420692      -174.7159
  24   2.0000      -6.417664      -174.6335
  25   2.0000      -5.713731      -155.4785
  26   2.0000      -5.710511      -155.3909
  27   2.0000      -5.710332      -155.3860
  28   2.0000      -5.707187      -155.3005
  29   2.0000      -5.702906      -155.1839
  30   2.0000      -5.699626      -155.0947
  31   2.0000      -5.653735      -153.8459
  32   2.0000      -5.650899      -153.7688
  33   2.0000      -5.645220      -153.6142
  34   2.0000      -5.644739      -153.6012
  35   2.0000      -5.642571      -153.5422
  36   2.0000      -5.641853      -153.5226
  37   2.0000      -4.643820      -126.3648
  38   2.0000      -4.642281      -126.3229
  39   2.0000      -4.640801      -126.2826
  40   2.0000      -4.640457      -126.2733
  41   2.0000      -4.639280      -126.2412
  42   2.0000      -4.638093      -126.2089
  43   2.0000      -0.988466       -26.8975
  44   2.0000      -0.981400       -26.7053
  45   2.0000      -0.944330       -25.6965
  46   2.0000      -0.937183       -25.5021
  47   2.0000      -0.759602       -20.6698
  48   2.0000      -0.717402       -19.5215
  49   2.0000      -0.708158       -19.2700
  50   2.0000      -0.691797       -18.8247
  51   2.0000      -0.685732       -18.6597
  52   2.0000      -0.675733       -18.3876
  53   2.0000      -0.647612       -17.6224
  54   2.0000      -0.629917       -17.1409
  55   2.0000      -0.596763       -16.2387
  56   2.0000      -0.587593       -15.9892
  57   2.0000      -0.580373       -15.7927
  58   2.0000      -0.569124       -15.4867
  59   2.0000      -0.557605       -15.1732
  60   2.0000      -0.498386       -13.5618
  61   2.0000      -0.494020       -13.4430
  62   2.0000      -0.471244       -12.8232
  63   2.0000      -0.468658       -12.7528
  64   2.0000      -0.451046       -12.2736
  65   2.0000      -0.444612       -12.0985
  66   2.0000      -0.443596       -12.0708
  67   2.0000      -0.436389       -11.8747
  68   2.0000      -0.428116       -11.6496
  69   2.0000      -0.422226       -11.4894
  70   2.0000      -0.412616       -11.2279
  71   2.0000      -0.400634       -10.9018
  72   2.0000      -0.388271       -10.5654
  73   2.0000      -0.382294       -10.4028
  74   2.0000      -0.376867       -10.2551
  75   2.0000      -0.366548        -9.9743
  76   2.0000      -0.362685        -9.8692
  77   2.0000      -0.357135        -9.7181
  78   2.0000      -0.353588        -9.6216
  79   2.0000      -0.349998        -9.5239
  80   2.0000      -0.348432        -9.4813
  81   2.0000      -0.344629        -9.3778
  82   2.0000      -0.338660        -9.2154
  83   2.0000      -0.336355        -9.1527
  84   2.0000      -0.333171        -9.0660
  85   2.0000      -0.319434        -8.6922
  86   2.0000      -0.309787        -8.4297
  87   2.0000      -0.299144        -8.1401
  88   2.0000      -0.294071        -8.0021
  89   2.0000      -0.291199        -7.9239
  90   2.0000      -0.286405        -7.7935
  91   2.0000      -0.272347        -7.4110
  92   2.0000      -0.263517        -7.1707
  93   2.0000      -0.261102        -7.1050
  94   2.0000      -0.255155        -6.9431
  95   2.0000      -0.230320        -6.2673
  96   2.0000      -0.215495        -5.8639
  97   2.0000      -0.211356        -5.7513
  98   2.0000      -0.197803        -5.3825
  99   2.0000      -0.187602        -5.1049
 100   2.0000      -0.182000        -4.9525
 101   0.0000      -0.040489        -1.1017
 102   0.0000      -0.030883        -0.8404
 103   0.0000      -0.007948        -0.2163
 104   0.0000       0.008687         0.2364
 105   0.0000       0.020323         0.5530

MULLIKEN ATOMIC CHARGES
-----------------------
   0 C :   -0.310088
   1 C :    0.001898
   2 O :   -0.387135
   3 P :    0.606487
   4 S :   -0.290238
   5 O :   -0.341954
   6 C :   -0.021012
   7 C :   -0.280361
   8 S :   -0.120382
   9 C :   -0.346882
  10 S :   -0.108979
  11 P :    0.597895
  12 S :   -0.281151
  13 O :   -0.358201
  14 C :    0.002733
  15 C :   -0.315662
  16 O :   -0.387021
  17 C :    0.001776
  18 C :   -0.323240
  19 H :    0.115104
  20 H :    0.120591
  21 H :    0.110919
  22 H :    0.111596
  23 H :    0.101441
  24 H :    0.117399
  25 H :    0.096920
  26 H :    0.120651
  27 H :    0.103009
  28 H :    0.119372
  29 H :    0.179596
  30 H :    0.207935
  31 H :    0.101993
  32 H :    0.111006
  33 H :    0.110457
  34 H :    0.123007
  35 H :    0.126823
  36 H :    0.103276
  37 H :    0.113841
  38 H :    0.115502
  39 H :    0.134829
  40 H :    0.116252
Sum of atomic charges:   -0.0000000

LOEWDIN ATOMIC CHARGES
----------------------
   0 C :   -0.370947
   1 C :   -0.117298
   2 O :   -0.251478
   3 P :    0.573959
   4 S :   -0.291751
   5 O :   -0.225843
   6 C :   -0.114229
   7 C :   -0.359757
   8 S :    0.064725
   9 C :   -0.481248
  10 S :    0.078842
  11 P :    0.562018
  12 S :   -0.290104
  13 O :   -0.236540
  14 C :   -0.108030
  15 C :   -0.370673
  16 O :   -0.249225
  17 C :   -0.116230
  18 C :   -0.372341
  19 H :    0.121921
  20 H :    0.119445
  21 H :    0.129630
  22 H :    0.112058
  23 H :    0.116547
  24 H :    0.120752
  25 H :    0.100450
  26 H :    0.129623
  27 H :    0.126482
  28 H :    0.125021
  29 H :    0.135811
  30 H :    0.125362
  31 H :    0.116271
  32 H :    0.114590
  33 H :    0.129519
  34 H :    0.118024
  35 H :    0.123499
  36 H :    0.117745
  37 H :    0.114101
  38 H :    0.132572
  39 H :    0.124255
  40 H :    0.122475

  Mayer bond orders larger than 0.100000
B(  0-C ,  1-C ) :   1.1674 B(  0-C , 19-H ) :   0.9426 B(  0-C , 20-H ) :   0.9367
B(  0-C , 21-H ) :   0.9371 B(  1-C ,  2-O ) :   0.9118 B(  1-C , 22-H ) :   0.9173
B(  1-C , 23-H ) :   0.9341 B(  2-O ,  3-P ) :   1.0673 B(  3-P ,  4-S ) :   1.6313
B(  3-P ,  5-O ) :   1.1447 B(  3-P ,  8-S ) :   0.9483 B(  4-S ,  8-S ) :   0.1132
B(  5-O ,  6-C ) :   0.8981 B(  6-C ,  7-C ) :   1.1565 B(  6-C , 24-H ) :   0.9281
B(  6-C , 25-H ) :   0.9159 B(  7-C , 26-H ) :   0.9463 B(  7-C , 27-H ) :   0.9403
B(  7-C , 28-H ) :   0.9408 B(  8-S ,  9-C ) :   0.9968 B(  9-C , 10-S ) :   1.0048
B(  9-C , 29-H ) :   0.9109 B(  9-C , 30-H ) :   0.8443 B( 10-S , 11-P ) :   0.9359
B( 10-S , 12-S ) :   0.1092 B( 11-P , 12-S ) :   1.6739 B( 11-P , 13-O ) :   1.1150
B( 11-P , 16-O ) :   1.0738 B( 13-O , 14-C ) :   0.9008 B( 14-C , 15-C ) :   1.1733
B( 14-C , 31-H ) :   0.9313 B( 14-C , 32-H ) :   0.9263 B( 15-C , 33-H ) :   0.9352
B( 15-C , 34-H ) :   0.9390 B( 15-C , 35-H ) :   0.9392 B( 16-O , 17-C ) :   0.9035
B( 17-C , 18-C ) :   1.1675 B( 17-C , 36-H ) :   0.9342 B( 17-C , 37-H ) :   0.9166
B( 18-C , 38-H ) :   0.9367 B( 18-C , 39-H ) :   0.9326 B( 18-C , 40-H ) :   0.9437

Dispersion correction           -0.068524069
FINAL SINGLE POINT ENERGY     -2929.512410103489

DIPOLE MOMENT
-------------

Method             : SCF
Type of density    : Electron Density
Multiplicity       :   1
Irrep              :   0
Energy             : -2929.6307795050597633 Eh
Relativity type    :
Basis              : AO
                                X                 Y                 Z
Electronic contribution:     -1.326871738       5.430233433     -11.694674433
Nuclear contribution   :      1.035562021      -6.522282722      13.277658820
                        -----------------------------------------
Total Dipole Moment    :     -0.291309717      -1.092049289       1.582984387
                        -----------------------------------------
Magnitude (a.u.)       :      1.945063642
Magnitude (Debye)      :      4.943958875

Rotational constants in cm-1:             0.012699             0.005407             0.005138
Rotational constants in MHz :           380.716036           162.095402           154.025873

                             ****ORCA TERMINATED NORMALLY****
TOTAL RUN TIME: 0 days 0 hours 0 minutes 24 seconds 301 msec
