                         Program Version 6.0.0  -   RELEASE  -
|  1> ! pbe def2-sv(p) def2/J RI DEFGRID1 loosescf d4 GCP(DFT/SV(P)) printgap
|  2> %output
|  3>     printlevel normal
|  4> end
|  5> * xyz 0 1
|  6> C 5.6699639029 0.9817571929 -1.5644577687
|  7> C 4.2555588041 0.4434725591 -1.6382353522
|  8> O 3.7119866996 0.4502894408 -0.3019657937
|  9> P 2.1519756125 0.3020174231 -0.0375606237
| 10> S 1.0151983527 1.5989102767 -0.9618524053
| 11> O 2.0748564939 0.4503660368 1.5251129542
| 12> C 2.8389762998 -0.3798659109 2.4427260197
| 13> C 1.9141793506 -1.322375081 3.1851191497
| 14> S 1.8222414526 -1.7508701575 -0.5199899785
| 15> C 0.0344448037 -1.6853385026 -0.7239492035
| 16> S -0.7984327229 -1.1316407798 0.8098156757
| 17> P -2.3923340328 -0.0657453726 -0.0435877124
| 18> S -2.286910359 0.4343660795 -1.942123768
| 19> O -2.7174352349 1.1424657074 0.941192102
| 20> C -2.0387539978 2.4095771931 0.9281547883
| 21> C -0.9990929173 2.4695838656 2.0296515325
| 22> O -3.5556780614 -1.0665682689 0.3445269547
| 23> C -4.9130081969 -0.8753806822 -0.1170992132
| 24> C -5.1967504282 -1.7783487616 -1.30110111
| 25> H 6.2695013615 0.3608019432 -0.9055373981
| 26> H 6.1046979665 0.9767944586 -2.5585196434
| 27> H 5.6625095299 1.9982029179 -1.1811020757
| 28> H 4.2361749034 -0.5850049915 -2.0085768429
| 29> H 3.6208630338 1.0669977883 -2.276565195
| 30> H 3.598646974 -0.9265217084 1.8808184217
| 31> H 3.3191536549 0.3265204884 3.1211462849
| 32> H 1.1331215789 -0.7614186102 3.6901160452
| 33> H 1.4437167812 -2.0204324602 2.4965397179
| 34> H 2.4904906141 -1.8772205745 3.9183605025
| 35> H -0.2838957223 -2.69659844 -0.9643257063
| 36> H -0.2234605229 -0.9856844204 -1.5244277243
| 37> H -1.5838486072 2.5686024577 -0.0555270531
| 38> H -2.8251805058 3.1500012391 1.0873411051
| 39> H -0.5858950783 3.472246951 2.0716525732
| 40> H -1.4551481363 2.2219940109 2.984015698
| 41> H -0.1898592429 1.7690584509 1.8306498082
| 42> H -5.536474501 -1.1309931599 0.7411593107
| 43> H -5.061516291 0.1757513716 -0.3783979191
| 44> H -4.9970082644 -2.8125338951 -1.0357658361
| 45> H -6.2374679963 -1.6739316837 -1.5905825257
| 46> H -4.5641867059 -1.5013530528 -2.1419316238
| 47> *
| 48>
| 49>                          ****END OF INPUT****

CARTESIAN COORDINATES (ANGSTROEM)
---------------------------------
  C      5.669964    0.981757   -1.564458
  C      4.255559    0.443473   -1.638235
  O      3.711987    0.450289   -0.301966
  P      2.151976    0.302017   -0.037561
  S      1.015198    1.598910   -0.961852
  O      2.074856    0.450366    1.525113
  C      2.838976   -0.379866    2.442726
  C      1.914179   -1.322375    3.185119
  S      1.822241   -1.750870   -0.519990
  C      0.034445   -1.685339   -0.723949
  S     -0.798433   -1.131641    0.809816
  P     -2.392334   -0.065745   -0.043588
  S     -2.286910    0.434366   -1.942124
  O     -2.717435    1.142466    0.941192
  C     -2.038754    2.409577    0.928155
  C     -0.999093    2.469584    2.029652
  O     -3.555678   -1.066568    0.344527
  C     -4.913008   -0.875381   -0.117099
  C     -5.196750   -1.778349   -1.301101
  H      6.269501    0.360802   -0.905537
  H      6.104698    0.976794   -2.558520
  H      5.662510    1.998203   -1.181102
  H      4.236175   -0.585005   -2.008577
  H      3.620863    1.066998   -2.276565
  H      3.598647   -0.926522    1.880818
  H      3.319154    0.326520    3.121146
  H      1.133122   -0.761419    3.690116
  H      1.443717   -2.020432    2.496540
  H      2.490491   -1.877221    3.918361
  H     -0.283896   -2.696598   -0.964326
  H     -0.223461   -0.985684   -1.524428
  H     -1.583849    2.568602   -0.055527
  H     -2.825181    3.150001    1.087341
  H     -0.585895    3.472247    2.071653
  H     -1.455148    2.221994    2.984016
  H     -0.189859    1.769058    1.830650
  H     -5.536475   -1.130993    0.741159
  H     -5.061516    0.175751   -0.378398
  H     -4.997008   -2.812534   -1.035766
  H     -6.237468   -1.673932   -1.590583
  H     -4.564187   -1.501353   -2.141932

 Total Charge           Charge          ....    0
 Multiplicity           Mult            ....    1
 Number of Electrons    NEL             ....  202
 Basis Dimension        Dim             ....  334

ORBITAL ENERGIES
----------------

  NO   OCC          E(Eh)            E(eV)
   0   2.0000     -88.047682     -2395.8992
   1   2.0000     -88.040394     -2395.7009
   2   2.0000     -87.982820     -2394.1342
   3   2.0000     -87.981068     -2394.0866
   4   2.0000     -76.427303     -2079.6926
   5   2.0000     -76.419960     -2079.4928
   6   2.0000     -18.796078      -511.4673
   7   2.0000     -18.795756      -511.4585
   8   2.0000     -18.784207      -511.1443
   9   2.0000     -18.781476      -511.0699
  10   2.0000      -9.959759      -271.0188
  11   2.0000      -9.955646      -270.9069
  12   2.0000      -9.953278      -270.8425
  13   2.0000      -9.948031      -270.6997
  14   2.0000      -9.938817      -270.4490
  15   2.0000      -9.890746      -269.1409
  16   2.0000      -9.886963      -269.0379
  17   2.0000      -9.877008      -268.7670
  18   2.0000      -9.868372      -268.5321
  19   2.0000      -7.692624      -209.3269
  20   2.0000      -7.685268      -209.1268
  21   2.0000      -7.627752      -207.5617
  22   2.0000      -7.626024      -207.5147
  23   2.0000      -6.424627      -174.8230
  24   2.0000      -6.417744      -174.6357
  25   2.0000      -5.720451      -155.6614
  26   2.0000      -5.716960      -155.5664
  27   2.0000      -5.713130      -155.4622
  28   2.0000      -5.709928      -155.3750
  29   2.0000      -5.709879      -155.3737
  30   2.0000      -5.702068      -155.1611
  31   2.0000      -5.656795      -153.9292
  32   2.0000      -5.654875      -153.8770
  33   2.0000      -5.648103      -153.6927
  34   2.0000      -5.648025      -153.6906
  35   2.0000      -5.646824      -153.6579
  36   2.0000      -5.646051      -153.6368
  37   2.0000      -4.647436      -126.4632
  38   2.0000      -4.646534      -126.4386
  39   2.0000      -4.644738      -126.3898
  40   2.0000      -4.640193      -126.2661
  41   2.0000      -4.639391      -126.2442
  42   2.0000      -4.638405      -126.2174
  43   2.0000      -0.991999       -26.9937
  44   2.0000      -0.978724       -26.6324
  45   2.0000      -0.948197       -25.8017
  46   2.0000      -0.935430       -25.4543
  47   2.0000      -0.763112       -20.7653
  48   2.0000      -0.722214       -19.6525
  49   2.0000      -0.708912       -19.2905
  50   2.0000      -0.694035       -18.8857
  51   2.0000      -0.676714       -18.4143
  52   2.0000      -0.672414       -18.2973
  53   2.0000      -0.647800       -17.6275
  54   2.0000      -0.631373       -17.1805
  55   2.0000      -0.591787       -16.1033
  56   2.0000      -0.584399       -15.9023
  57   2.0000      -0.575017       -15.6470
  58   2.0000      -0.563800       -15.3418
  59   2.0000      -0.560404       -15.2494
  60   2.0000      -0.512017       -13.9327
  61   2.0000      -0.495141       -13.4735
  62   2.0000      -0.482530       -13.1303
  63   2.0000      -0.466087       -12.6829
  64   2.0000      -0.451648       -12.2900
  65   2.0000      -0.448136       -12.1944
  66   2.0000      -0.438731       -11.9385
  67   2.0000      -0.437293       -11.8993
  68   2.0000      -0.427930       -11.6446
  69   2.0000      -0.412604       -11.2275
  70   2.0000      -0.406358       -11.0576
  71   2.0000      -0.390971       -10.6389
  72   2.0000      -0.387788       -10.5522
  73   2.0000      -0.384464       -10.4618
  74   2.0000      -0.374600       -10.1934
  75   2.0000      -0.370125       -10.0716
  76   2.0000      -0.366547        -9.9743
  77   2.0000      -0.355647        -9.6776
  78   2.0000      -0.353313        -9.6141
  79   2.0000      -0.351884        -9.5752
  80   2.0000      -0.346332        -9.4242
  81   2.0000      -0.342230        -9.3126
  82   2.0000      -0.336079        -9.1452
  83   2.0000      -0.334833        -9.1113
  84   2.0000      -0.323564        -8.8046
  85   2.0000      -0.316741        -8.6190
  86   2.0000      -0.304814        -8.2944
  87   2.0000      -0.303884        -8.2691
  88   2.0000      -0.300527        -8.1778
  89   2.0000      -0.286300        -7.7906
  90   2.0000      -0.281274        -7.6538
  91   2.0000      -0.278039        -7.5658
  92   2.0000      -0.268273        -7.3001
  93   2.0000      -0.262988        -7.1563
  94   2.0000      -0.256674        -6.9845
  95   2.0000      -0.234200        -6.3729
  96   2.0000      -0.223616        -6.0849
  97   2.0000      -0.210534        -5.7289
  98   2.0000      -0.200084        -5.4446
  99   2.0000      -0.194917        -5.3040
 100   2.0000      -0.185854        -5.0573
 101   0.0000      -0.045755        -1.2451
 102   0.0000      -0.034114        -0.9283
 103   0.0000      -0.006954        -0.1892
 104   0.0000       0.009307         0.2533
 105   0.0000       0.017651         0.4803

MULLIKEN ATOMIC CHARGES
-----------------------
   0 C :   -0.280720
   1 C :   -0.011527
   2 O :   -0.380501
   3 P :    0.593996
   4 S :   -0.296744
   5 O :   -0.348292
   6 C :   -0.012145
   7 C :   -0.286249
   8 S :   -0.124047
   9 C :   -0.342644
  10 S :   -0.108274
  11 P :    0.626891
  12 S :   -0.319015
  13 O :   -0.377476
  14 C :   -0.009859
  15 C :   -0.311570
  16 O :   -0.370887
  17 C :   -0.001362
  18 C :   -0.288216
  19 H :    0.113806
  20 H :    0.114016
  21 H :    0.122673
  22 H :    0.104407
  23 H :    0.108808
  24 H :    0.104178
  25 H :    0.113340
  26 H :    0.123501
  27 H :    0.123619
  28 H :    0.109511
  29 H :    0.180982
  30 H :    0.213410
  31 H :    0.119704
  32 H :    0.097347
  33 H :    0.104904
  34 H :    0.102091
  35 H :    0.143618
  36 H :    0.104999
  37 H :    0.103256
  38 H :    0.110498
  39 H :    0.105705
  40 H :    0.124264
Sum of atomic charges:   -0.0000000

LOEWDIN ATOMIC CHARGES
----------------------
   0 C :   -0.350144
   1 C :   -0.119887
   2 O :   -0.251866
   3 P :    0.560806
   4 S :   -0.290237
   5 O :   -0.229564
   6 C :   -0.110466
   7 C :   -0.359737
   8 S :    0.064011
   9 C :   -0.476907
  10 S :    0.087472
  11 P :    0.567001
  12 S :   -0.304038
  13 O :   -0.245630
  14 C :   -0.118147
  15 C :   -0.367509
  16 O :   -0.249615
  17 C :   -0.112502
  18 C :   -0.361107
  19 H :    0.125609
  20 H :    0.131884
  21 H :    0.130032
  22 H :    0.108524
  23 H :    0.111440
  24 H :    0.108128
  25 H :    0.122824
  26 H :    0.129650
  27 H :    0.115998
  28 H :    0.129510
  29 H :    0.134723
  30 H :    0.124306
  31 H :    0.107439
  32 H :    0.114269
  33 H :    0.128914
  34 H :    0.119511
  35 H :    0.120606
  36 H :    0.117967
  37 H :    0.110140
  38 H :    0.124531
  39 H :    0.127508
  40 H :    0.124551

  Mayer bond orders larger than 0.100000
B(  0-C ,  1-C ) :   1.1608 B(  0-C , 19-H ) :   0.9512 B(  0-C , 20-H ) :   0.9417
B(  0-C , 21-H ) :   0.9507 B(  1-C ,  2-O ) :   0.9014 B(  1-C , 22-H ) :   0.9282
B(  1-C , 23-H ) :   0.9109 B(  2-O ,  3-P ) :   1.0889 B(  3-P ,  4-S ) :   1.6635
B(  3-P ,  5-O ) :   1.1295 B(  3-P ,  8-S ) :   0.9312 B(  4-S ,  8-S ) :   0.1092
B(  5-O ,  6-C ) :   0.8848 B(  6-C ,  7-C ) :   1.1668 B(  6-C , 24-H ) :   0.9172
B(  6-C , 25-H ) :   0.9339 B(  7-C , 26-H ) :   0.9460 B(  7-C , 27-H ) :   0.9326
B(  7-C , 28-H ) :   0.9387 B(  8-S ,  9-C ) :   1.0105 B(  9-C , 10-S ) :   0.9928
B(  9-C , 29-H ) :   0.9086 B(  9-C , 30-H ) :   0.8475 B( 10-S , 11-P ) :   0.9573
B( 10-S , 12-S ) :   0.1187 B( 11-P , 12-S ) :   1.6124 B( 11-P , 13-O ) :   1.1174
B( 11-P , 16-O ) :   1.1300 B( 13-O , 14-C ) :   0.9009 B( 14-C , 15-C ) :   1.1708
B( 14-C , 31-H ) :   0.9041 B( 14-C , 32-H ) :   0.9346 B( 15-C , 33-H ) :   0.9403
B( 15-C , 34-H ) :   0.9463 B( 15-C , 35-H ) :   0.9251 B( 16-O , 17-C ) :   0.8941
B( 17-C , 18-C ) :   1.1683 B( 17-C , 36-H ) :   0.9350 B( 17-C , 37-H ) :   0.9153
B( 18-C , 38-H ) :   0.9476 B( 18-C , 39-H ) :   0.9409 B( 18-C , 40-H ) :   0.9356

Dispersion correction           -0.065049746
FINAL SINGLE POINT ENERGY     -2929.521920748437

DIPOLE MOMENT
-------------

Method             : SCF
Type of density    : Electron Density
Multiplicity       :   1
Irrep              :   0
Energy             : -2929.6407460289083247 Eh
Relativity type    :
Basis              : AO
                                X                 Y                 Z
Electronic contribution:     -3.496363724      -1.459691368      -6.180481100
Nuclear contribution   :      4.281649531       0.874259026       6.940679195
                        -----------------------------------------
Total Dipole Moment    :      0.785285807      -0.585432342       0.760198095
                        -----------------------------------------
Magnitude (a.u.)       :      1.239881434
Magnitude (Debye)      :      3.151528148

Rotational constants in cm-1:             0.013243             0.004656             0.004561
Rotational constants in MHz :           397.004076           139.569902           136.734491

                             ****ORCA TERMINATED NORMALLY****
TOTAL RUN TIME: 0 days 0 hours 0 minutes 20 seconds 923 msec
