                         Program Version 6.0.0  -   RELEASE  -
|  1> ! r2scan-3c def2/J RI DEFGRID2 scfconv6 printgap
|  2> %output
|  3>     printlevel normal
|  4> end
|  5> * xyz 0 1
|  6> C 4.6020015378 0.0355842043 -1.8926926564
|  7> C 4.4448112577 1.0066129921 -0.7403185775
|  8> O 3.5807011452 0.4986057419 0.2903149827
|  9> P 2.0231244529 0.2766799981 0.0741806334
| 10> S 1.15137806 1.6792638717 -0.9802837067
| 11> O 1.4654704443 0.2306394897 1.5477561341
| 12> C 1.6399888319 -0.8375617977 2.512999959
| 13> C 3.0914664817 -1.1938248488 2.7457888357
| 14> S 1.8748874096 -1.6950648133 -0.7040033768
| 15> C 0.1413788536 -1.6412515383 -1.2014976299
| 16> S -1.0045002135 -1.7047612188 0.2230775804
| 17> P -2.0806164701 0.0808111505 -0.040942148
| 18> S -2.2697839765 0.7783562869 -1.8667699611
| 19> O -1.3696028344 0.998590691 1.0374787322
| 20> C -1.5335221077 2.4283221832 1.0715583059
| 21> C -2.9506569954 2.8345115509 1.4140709688
| 22> O -3.4601217596 -0.2306543595 0.6884434017
| 23> C -4.5989164986 -0.7694014732 -0.0040897723
| 24> C -4.3749193653 -2.1986923184 -0.4543577949
| 25> H 4.8858973776 -0.9471329035 -1.5252701068
| 26> H 3.6643734988 -0.0501595758 -2.4394789967
| 27> H 5.3677725191 0.4039385715 -2.56779795
| 28> H 4.0389562116 1.9598661536 -1.0937091562
| 29> H 5.3907690317 1.175164962 -0.2238076991
| 30> H 1.1720068932 -0.4326992317 3.4116116902
| 31> H 1.0731409723 -1.7068790302 2.1668491566
| 32> H 3.1491189577 -1.9172130385 3.5533323882
| 33> H 3.522232793 -1.6305991357 1.8473045952
| 34> H 3.6598427976 -0.3072297653 3.0142267076
| 35> H -0.0268707091 -2.5276332506 -1.8072262887
| 36> H -0.0587016562 -0.7287766601 -1.770048542
| 37> H -0.8188409007 2.7507795192 1.8307822626
| 38> H -1.232535824 2.8334602248 0.0991802737
| 39> H -3.2697748504 2.3445226609 2.330321281
| 40> H -2.9913504717 3.9116228766 1.5429783782
| 41> H -3.6237156988 2.5494624131 0.6063031685
| 42> H -5.4057122572 -0.6983774911 0.7265777819
| 43> H -4.8148660339 -0.1270696785 -0.8640158503
| 44> H -5.3026279147 -2.5981052723 -0.8513282873
| 45> H -3.6163557499 -2.2272294264 -1.2353856676
| 46> H -4.0438978323 -2.8111656147 0.3805002543
| 47> *
| 48>
| 49>                          ****END OF INPUT****

CARTESIAN COORDINATES (ANGSTROEM)
---------------------------------
  C      4.602002    0.035584   -1.892693
  C      4.444811    1.006613   -0.740319
  O      3.580701    0.498606    0.290315
  P      2.023124    0.276680    0.074181
  S      1.151378    1.679264   -0.980284
  O      1.465470    0.230639    1.547756
  C      1.639989   -0.837562    2.513000
  C      3.091466   -1.193825    2.745789
  S      1.874887   -1.695065   -0.704003
  C      0.141379   -1.641252   -1.201498
  S     -1.004500   -1.704761    0.223078
  P     -2.080616    0.080811   -0.040942
  S     -2.269784    0.778356   -1.866770
  O     -1.369603    0.998591    1.037479
  C     -1.533522    2.428322    1.071558
  C     -2.950657    2.834512    1.414071
  O     -3.460122   -0.230654    0.688443
  C     -4.598916   -0.769401   -0.004090
  C     -4.374919   -2.198692   -0.454358
  H      4.885897   -0.947133   -1.525270
  H      3.664373   -0.050160   -2.439479
  H      5.367773    0.403939   -2.567798
  H      4.038956    1.959866   -1.093709
  H      5.390769    1.175165   -0.223808
  H      1.172007   -0.432699    3.411612
  H      1.073141   -1.706879    2.166849
  H      3.149119   -1.917213    3.553332
  H      3.522233   -1.630599    1.847305
  H      3.659843   -0.307230    3.014227
  H     -0.026871   -2.527633   -1.807226
  H     -0.058702   -0.728777   -1.770049
  H     -0.818841    2.750780    1.830782
  H     -1.232536    2.833460    0.099180
  H     -3.269775    2.344523    2.330321
  H     -2.991350    3.911623    1.542978
  H     -3.623716    2.549462    0.606303
  H     -5.405712   -0.698377    0.726578
  H     -4.814866   -0.127070   -0.864016
  H     -5.302628   -2.598105   -0.851328
  H     -3.616356   -2.227229   -1.235386
  H     -4.043898   -2.811166    0.380500

 Total Charge           Charge          ....    0
 Multiplicity           Mult            ....    1
 Number of Electrons    NEL             ....  202
 Basis Dimension        Dim             ....  539

ORBITAL ENERGIES
----------------

  NO   OCC          E(Eh)            E(eV)
   0   2.0000     -88.577403     -2410.3137
   1   2.0000     -88.572614     -2410.1834
   2   2.0000     -88.514852     -2408.6116
   3   2.0000     -88.511742     -2408.5270
   4   2.0000     -76.911486     -2092.8679
   5   2.0000     -76.908175     -2092.7778
   6   2.0000     -18.991249      -516.7781
   7   2.0000     -18.986748      -516.6557
   8   2.0000     -18.986523      -516.6495
   9   2.0000     -18.978203      -516.4231
  10   2.0000     -10.106923      -275.0234
  11   2.0000     -10.097865      -274.7769
  12   2.0000     -10.097460      -274.7659
  13   2.0000     -10.094208      -274.6774
  14   2.0000     -10.084032      -274.4005
  15   2.0000     -10.030453      -272.9425
  16   2.0000     -10.028030      -272.8766
  17   2.0000     -10.025446      -272.8062
  18   2.0000     -10.020014      -272.6585
  19   2.0000      -7.871967      -214.2071
  20   2.0000      -7.867420      -214.0834
  21   2.0000      -7.809512      -212.5076
  22   2.0000      -7.806640      -212.4295
  23   2.0000      -6.589750      -179.3162
  24   2.0000      -6.586608      -179.2307
  25   2.0000      -5.818842      -158.3387
  26   2.0000      -5.815608      -158.2507
  27   2.0000      -5.814226      -158.2131
  28   2.0000      -5.811295      -158.1334
  29   2.0000      -5.809250      -158.0777
  30   2.0000      -5.804483      -157.9480
  31   2.0000      -5.757161      -156.6603
  32   2.0000      -5.754410      -156.5855
  33   2.0000      -5.750033      -156.4664
  34   2.0000      -5.749298      -156.4463
  35   2.0000      -5.746879      -156.3805
  36   2.0000      -5.746541      -156.3713
  37   2.0000      -4.735498      -128.8594
  38   2.0000      -4.734827      -128.8412
  39   2.0000      -4.733137      -128.7952
  40   2.0000      -4.731896      -128.7614
  41   2.0000      -4.731422      -128.7485
  42   2.0000      -4.730654      -128.7276
  43   2.0000      -1.047418       -28.5017
  44   2.0000      -1.042212       -28.3600
  45   2.0000      -1.007969       -27.4282
  46   2.0000      -1.001893       -27.2629
  47   2.0000      -0.799533       -21.7564
  48   2.0000      -0.754956       -20.5434
  49   2.0000      -0.745668       -20.2907
  50   2.0000      -0.733314       -19.9545
  51   2.0000      -0.725359       -19.7380
  52   2.0000      -0.710312       -19.3286
  53   2.0000      -0.684194       -18.6179
  54   2.0000      -0.662254       -18.0209
  55   2.0000      -0.631188       -17.1755
  56   2.0000      -0.622333       -16.9345
  57   2.0000      -0.607646       -16.5349
  58   2.0000      -0.598542       -16.2872
  59   2.0000      -0.590500       -16.0683
  60   2.0000      -0.517501       -14.0819
  61   2.0000      -0.509726       -13.8704
  62   2.0000      -0.488703       -13.2983
  63   2.0000      -0.484109       -13.1733
  64   2.0000      -0.466785       -12.7019
  65   2.0000      -0.464085       -12.6284
  66   2.0000      -0.458483       -12.4760
  67   2.0000      -0.452093       -12.3021
  68   2.0000      -0.446948       -12.1621
  69   2.0000      -0.431081       -11.7303
  70   2.0000      -0.428842       -11.6694
  71   2.0000      -0.412893       -11.2354
  72   2.0000      -0.402699       -10.9580
  73   2.0000      -0.401346       -10.9212
  74   2.0000      -0.394142       -10.7251
  75   2.0000      -0.393382       -10.7045
  76   2.0000      -0.381160       -10.3719
  77   2.0000      -0.372646       -10.1402
  78   2.0000      -0.365927        -9.9574
  79   2.0000      -0.364869        -9.9286
  80   2.0000      -0.360244        -9.8027
  81   2.0000      -0.357026        -9.7152
  82   2.0000      -0.350161        -9.5284
  83   2.0000      -0.349374        -9.5070
  84   2.0000      -0.345702        -9.4070
  85   2.0000      -0.325827        -8.8662
  86   2.0000      -0.319870        -8.7041
  87   2.0000      -0.307854        -8.3771
  88   2.0000      -0.305067        -8.3013
  89   2.0000      -0.304470        -8.2851
  90   2.0000      -0.289178        -7.8689
  91   2.0000      -0.285247        -7.7620
  92   2.0000      -0.278254        -7.5717
  93   2.0000      -0.274510        -7.4698
  94   2.0000      -0.272197        -7.4069
  95   2.0000      -0.248940        -6.7740
  96   2.0000      -0.230684        -6.2772
  97   2.0000      -0.226411        -6.1609
  98   2.0000      -0.214848        -5.8463
  99   2.0000      -0.206132        -5.6092
 100   2.0000      -0.197948        -5.3864
 101   0.0000      -0.042666        -1.1610
 102   0.0000      -0.030904        -0.8409
 103   0.0000      -0.010190        -0.2773
 104   0.0000       0.016442         0.4474
 105   0.0000       0.021055         0.5729

MULLIKEN ATOMIC CHARGES
-----------------------
   0 C :   -0.456911
   1 C :   -0.166621
   2 O :   -0.281121
   3 P :    0.653827
   4 S :   -0.430471
   5 O :   -0.257286
   6 C :   -0.137694
   7 C :   -0.440869
   8 S :   -0.155239
   9 C :   -0.222742
  10 S :   -0.135640
  11 P :    0.653572
  12 S :   -0.460802
  13 O :   -0.265397
  14 C :   -0.155182
  15 C :   -0.449341
  16 O :   -0.297853
  17 C :   -0.157195
  18 C :   -0.446770
  19 H :    0.152643
  20 H :    0.182432
  21 H :    0.148516
  22 H :    0.176746
  23 H :    0.147559
  24 H :    0.153438
  25 H :    0.167010
  26 H :    0.149063
  27 H :    0.158709
  28 H :    0.160785
  29 H :    0.196703
  30 H :    0.219362
  31 H :    0.156118
  32 H :    0.181264
  33 H :    0.154626
  34 H :    0.145877
  35 H :    0.164657
  36 H :    0.146948
  37 H :    0.173117
  38 H :    0.146502
  39 H :    0.173717
  40 H :    0.153947
Sum of atomic charges:    0.0000000

LOEWDIN ATOMIC CHARGES
----------------------
   0 C :   -0.408887
   1 C :    0.020377
   2 O :   -0.670727
   3 P :    0.384085
   4 S :   -0.076186
   5 O :   -0.650742
   6 C :    0.019319
   7 C :   -0.400746
   8 S :    0.131817
   9 C :   -0.411989
  10 S :    0.165707
  11 P :    0.372046
  12 S :   -0.124595
  13 O :   -0.668953
  14 C :    0.012401
  15 C :   -0.400918
  16 O :   -0.667996
  17 C :    0.017509
  18 C :   -0.408323
  19 H :    0.158456
  20 H :    0.166877
  21 H :    0.159606
  22 H :    0.181499
  23 H :    0.178999
  24 H :    0.183416
  25 H :    0.178020
  26 H :    0.159412
  27 H :    0.162997
  28 H :    0.163707
  29 H :    0.180192
  30 H :    0.203043
  31 H :    0.183284
  32 H :    0.184278
  33 H :    0.160304
  34 H :    0.158505
  35 H :    0.163605
  36 H :    0.178655
  37 H :    0.179769
  38 H :    0.158122
  39 H :    0.164107
  40 H :    0.159947

  Mayer bond orders larger than 0.100000
B(  0-C ,  1-C ) :   0.9097 B(  0-C , 19-H ) :   0.9694 B(  0-C , 20-H ) :   0.9630
B(  0-C , 21-H ) :   0.9577 B(  1-C ,  2-O ) :   0.8147 B(  1-C , 22-H ) :   0.9670
B(  1-C , 23-H ) :   0.9616 B(  2-O ,  3-P ) :   1.0503 B(  3-P ,  4-S ) :   1.8139
B(  3-P ,  5-O ) :   1.1492 B(  3-P ,  8-S ) :   1.0109 B(  5-O ,  6-C ) :   0.8105
B(  6-C ,  7-C ) :   0.9158 B(  6-C , 24-H ) :   0.9586 B(  6-C , 25-H ) :   0.9608
B(  7-C , 26-H ) :   0.9583 B(  7-C , 27-H ) :   0.9624 B(  7-C , 28-H ) :   0.9704
B(  8-S ,  9-C ) :   0.9103 B(  9-C , 10-S ) :   0.8881 B(  9-C , 29-H ) :   0.9123
B(  9-C , 30-H ) :   0.9055 B( 10-S , 11-P ) :   1.1221 B( 11-P , 12-S ) :   1.7602
B( 11-P , 13-O ) :   1.1691 B( 11-P , 16-O ) :   1.0525 B( 13-O , 14-C ) :   0.8074
B( 14-C , 15-C ) :   0.9079 B( 14-C , 31-H ) :   0.9632 B( 14-C , 32-H ) :   0.9637
B( 15-C , 33-H ) :   0.9732 B( 15-C , 34-H ) :   0.9612 B( 15-C , 35-H ) :   0.9632
B( 16-O , 17-C ) :   0.8226 B( 17-C , 18-C ) :   0.9208 B( 17-C , 36-H ) :   0.9590
B( 17-C , 37-H ) :   0.9673 B( 18-C , 38-H ) :   0.9595 B( 18-C , 39-H ) :   0.9659
B( 18-C , 40-H ) :   0.9677

Dispersion correction           -0.022491650
FINAL SINGLE POINT ENERGY     -2932.457173159488

DIPOLE MOMENT
-------------

Method             : SCF
Type of density    : Electron Density
Multiplicity       :   1
Irrep              :   0
Energy             : -2932.4813234404705327 Eh
Relativity type    :
Basis              : AO
                                X                 Y                 Z
Electronic contribution:     -0.322164524       0.195871661      -5.870563645
Nuclear contribution   :      0.736169797      -1.003109297       6.810367385
                        -----------------------------------------
Total Dipole Moment    :      0.414005273      -0.807237636       0.939803740
                        -----------------------------------------
Magnitude (a.u.)       :      1.306240421
Magnitude (Debye)      :      3.320199289

Rotational constants in cm-1:             0.013103             0.005259             0.005054
Rotational constants in MHz :           392.825754           157.657259           151.505368

                             ****ORCA TERMINATED NORMALLY****
TOTAL RUN TIME: 0 days 0 hours 1 minutes 26 seconds 305 msec
