                         Program Version 6.0.0  -   RELEASE  -
|  1> ! r2scan-3c def2/J RI DEFGRID2 scfconv6 printgap
|  2> %output
|  3>     printlevel normal
|  4> end
|  5> %cpcm
|  6>     smd true
|  7>     smdsolvent "water"
|  8> end
|  9> * xyz 0 1
| 10> C 4.6020015378 0.0355842043 -1.8926926564
| 11> C 4.4448112577 1.0066129921 -0.7403185775
| 12> O 3.5807011452 0.4986057419 0.2903149827
| 13> P 2.0231244529 0.2766799981 0.0741806334
| 14> S 1.15137806 1.6792638717 -0.9802837067
| 15> O 1.4654704443 0.2306394897 1.5477561341
| 16> C 1.6399888319 -0.8375617977 2.512999959
| 17> C 3.0914664817 -1.1938248488 2.7457888357
| 18> S 1.8748874096 -1.6950648133 -0.7040033768
| 19> C 0.1413788536 -1.6412515383 -1.2014976299
| 20> S -1.0045002135 -1.7047612188 0.2230775804
| 21> P -2.0806164701 0.0808111505 -0.040942148
| 22> S -2.2697839765 0.7783562869 -1.8667699611
| 23> O -1.3696028344 0.998590691 1.0374787322
| 24> C -1.5335221077 2.4283221832 1.0715583059
| 25> C -2.9506569954 2.8345115509 1.4140709688
| 26> O -3.4601217596 -0.2306543595 0.6884434017
| 27> C -4.5989164986 -0.7694014732 -0.0040897723
| 28> C -4.3749193653 -2.1986923184 -0.4543577949
| 29> H 4.8858973776 -0.9471329035 -1.5252701068
| 30> H 3.6643734988 -0.0501595758 -2.4394789967
| 31> H 5.3677725191 0.4039385715 -2.56779795
| 32> H 4.0389562116 1.9598661536 -1.0937091562
| 33> H 5.3907690317 1.175164962 -0.2238076991
| 34> H 1.1720068932 -0.4326992317 3.4116116902
| 35> H 1.0731409723 -1.7068790302 2.1668491566
| 36> H 3.1491189577 -1.9172130385 3.5533323882
| 37> H 3.522232793 -1.6305991357 1.8473045952
| 38> H 3.6598427976 -0.3072297653 3.0142267076
| 39> H -0.0268707091 -2.5276332506 -1.8072262887
| 40> H -0.0587016562 -0.7287766601 -1.770048542
| 41> H -0.8188409007 2.7507795192 1.8307822626
| 42> H -1.232535824 2.8334602248 0.0991802737
| 43> H -3.2697748504 2.3445226609 2.330321281
| 44> H -2.9913504717 3.9116228766 1.5429783782
| 45> H -3.6237156988 2.5494624131 0.6063031685
| 46> H -5.4057122572 -0.6983774911 0.7265777819
| 47> H -4.8148660339 -0.1270696785 -0.8640158503
| 48> H -5.3026279147 -2.5981052723 -0.8513282873
| 49> H -3.6163557499 -2.2272294264 -1.2353856676
| 50> H -4.0438978323 -2.8111656147 0.3805002543
| 51> *
| 52>
| 53>                          ****END OF INPUT****

CARTESIAN COORDINATES (ANGSTROEM)
---------------------------------
  C      4.602002    0.035584   -1.892693
  C      4.444811    1.006613   -0.740319
  O      3.580701    0.498606    0.290315
  P      2.023124    0.276680    0.074181
  S      1.151378    1.679264   -0.980284
  O      1.465470    0.230639    1.547756
  C      1.639989   -0.837562    2.513000
  C      3.091466   -1.193825    2.745789
  S      1.874887   -1.695065   -0.704003
  C      0.141379   -1.641252   -1.201498
  S     -1.004500   -1.704761    0.223078
  P     -2.080616    0.080811   -0.040942
  S     -2.269784    0.778356   -1.866770
  O     -1.369603    0.998591    1.037479
  C     -1.533522    2.428322    1.071558
  C     -2.950657    2.834512    1.414071
  O     -3.460122   -0.230654    0.688443
  C     -4.598916   -0.769401   -0.004090
  C     -4.374919   -2.198692   -0.454358
  H      4.885897   -0.947133   -1.525270
  H      3.664373   -0.050160   -2.439479
  H      5.367773    0.403939   -2.567798
  H      4.038956    1.959866   -1.093709
  H      5.390769    1.175165   -0.223808
  H      1.172007   -0.432699    3.411612
  H      1.073141   -1.706879    2.166849
  H      3.149119   -1.917213    3.553332
  H      3.522233   -1.630599    1.847305
  H      3.659843   -0.307230    3.014227
  H     -0.026871   -2.527633   -1.807226
  H     -0.058702   -0.728777   -1.770049
  H     -0.818841    2.750780    1.830782
  H     -1.232536    2.833460    0.099180
  H     -3.269775    2.344523    2.330321
  H     -2.991350    3.911623    1.542978
  H     -3.623716    2.549462    0.606303
  H     -5.405712   -0.698377    0.726578
  H     -4.814866   -0.127070   -0.864016
  H     -5.302628   -2.598105   -0.851328
  H     -3.616356   -2.227229   -1.235386
  H     -4.043898   -2.811166    0.380500

 Total Charge           Charge          ....    0
 Multiplicity           Mult            ....    1
 Number of Electrons    NEL             ....  202
 Basis Dimension        Dim             ....  539

ORBITAL ENERGIES
----------------

  NO   OCC          E(Eh)            E(eV)
   0   2.0000     -88.579964     -2410.3834
   1   2.0000     -88.576886     -2410.2996
   2   2.0000     -88.525494     -2408.9011
   3   2.0000     -88.521806     -2408.8008
   4   2.0000     -76.918053     -2093.0466
   5   2.0000     -76.916923     -2093.0159
   6   2.0000     -18.993890      -516.8500
   7   2.0000     -18.992886      -516.8227
   8   2.0000     -18.992281      -516.8062
   9   2.0000     -18.988400      -516.7006
  10   2.0000     -10.105689      -274.9898
  11   2.0000     -10.091112      -274.5931
  12   2.0000     -10.089273      -274.5431
  13   2.0000     -10.087983      -274.5080
  14   2.0000     -10.085771      -274.4478
  15   2.0000     -10.019638      -272.6482
  16   2.0000     -10.018204      -272.6092
  17   2.0000     -10.017327      -272.5853
  18   2.0000     -10.017264      -272.5836
  19   2.0000      -7.874421      -214.2739
  20   2.0000      -7.871632      -214.1980
  21   2.0000      -7.820479      -212.8061
  22   2.0000      -7.817039      -212.7124
  23   2.0000      -6.596391      -179.4969
  24   2.0000      -6.595417      -179.4704
  25   2.0000      -5.821331      -158.4065
  26   2.0000      -5.818456      -158.3282
  27   2.0000      -5.818084      -158.3181
  28   2.0000      -5.815513      -158.2481
  29   2.0000      -5.811665      -158.1435
  30   2.0000      -5.808685      -158.0624
  31   2.0000      -5.768062      -156.9570
  32   2.0000      -5.764704      -156.8656
  33   2.0000      -5.760988      -156.7644
  34   2.0000      -5.760281      -156.7452
  35   2.0000      -5.757360      -156.6657
  36   2.0000      -5.756897      -156.6531
  37   2.0000      -4.742113      -129.0395
  38   2.0000      -4.741417      -129.0205
  39   2.0000      -4.740688      -129.0007
  40   2.0000      -4.740232      -128.9883
  41   2.0000      -4.739882      -128.9787
  42   2.0000      -4.739506      -128.9685
  43   2.0000      -1.051572       -28.6147
  44   2.0000      -1.049512       -28.5587
  45   2.0000      -1.011870       -27.5344
  46   2.0000      -1.009266       -27.4635
  47   2.0000      -0.801254       -21.8032
  48   2.0000      -0.754849       -20.5405
  49   2.0000      -0.743778       -20.2392
  50   2.0000      -0.725826       -19.7507
  51   2.0000      -0.722177       -19.6514
  52   2.0000      -0.711320       -19.3560
  53   2.0000      -0.689145       -18.7526
  54   2.0000      -0.669422       -18.2159
  55   2.0000      -0.633580       -17.2406
  56   2.0000      -0.621975       -16.9248
  57   2.0000      -0.603217       -16.4144
  58   2.0000      -0.597742       -16.2654
  59   2.0000      -0.589827       -16.0500
  60   2.0000      -0.516697       -14.0600
  61   2.0000      -0.509802       -13.8724
  62   2.0000      -0.487318       -13.2606
  63   2.0000      -0.485825       -13.2200
  64   2.0000      -0.469532       -12.7766
  65   2.0000      -0.464891       -12.6503
  66   2.0000      -0.456178       -12.4132
  67   2.0000      -0.451823       -12.2947
  68   2.0000      -0.443563       -12.0700
  69   2.0000      -0.431528       -11.7425
  70   2.0000      -0.425489       -11.5782
  71   2.0000      -0.410274       -11.1641
  72   2.0000      -0.403662       -10.9842
  73   2.0000      -0.402851       -10.9621
  74   2.0000      -0.395700       -10.7676
  75   2.0000      -0.391420       -10.6511
  76   2.0000      -0.380781       -10.3616
  77   2.0000      -0.369795       -10.0626
  78   2.0000      -0.363623        -9.8947
  79   2.0000      -0.358603        -9.7581
  80   2.0000      -0.353832        -9.6283
  81   2.0000      -0.353034        -9.6065
  82   2.0000      -0.350081        -9.5262
  83   2.0000      -0.346212        -9.4209
  84   2.0000      -0.343058        -9.3351
  85   2.0000      -0.323220        -8.7953
  86   2.0000      -0.320948        -8.7334
  87   2.0000      -0.307415        -8.3652
  88   2.0000      -0.303593        -8.2612
  89   2.0000      -0.302175        -8.2226
  90   2.0000      -0.294880        -8.0241
  91   2.0000      -0.287082        -7.8119
  92   2.0000      -0.283410        -7.7120
  93   2.0000      -0.276484        -7.5235
  94   2.0000      -0.275676        -7.5015
  95   2.0000      -0.252213        -6.8631
  96   2.0000      -0.238462        -6.4889
  97   2.0000      -0.236596        -6.4381
  98   2.0000      -0.225151        -6.1267
  99   2.0000      -0.214995        -5.8503
 100   2.0000      -0.209155        -5.6914
 101   0.0000      -0.046901        -1.2763
 102   0.0000      -0.036901        -1.0041
 103   0.0000      -0.013745        -0.3740
 104   0.0000       0.011690         0.3181
 105   0.0000       0.015076         0.4102

MULLIKEN ATOMIC CHARGES
-----------------------
   0 C :   -0.492301
   1 C :   -0.160636
   2 O :   -0.302733
   3 P :    0.668778
   4 S :   -0.482082
   5 O :   -0.294902
   6 C :   -0.131683
   7 C :   -0.481274
   8 S :   -0.149117
   9 C :   -0.221631
  10 S :   -0.133398
  11 P :    0.692665
  12 S :   -0.516744
  13 O :   -0.295974
  14 C :   -0.154341
  15 C :   -0.492754
  16 O :   -0.325543
  17 C :   -0.157831
  18 C :   -0.480589
  19 H :    0.170005
  20 H :    0.174910
  21 H :    0.172865
  22 H :    0.178228
  23 H :    0.174977
  24 H :    0.178391
  25 H :    0.174040
  26 H :    0.175156
  27 H :    0.164592
  28 H :    0.171244
  29 H :    0.238356
  30 H :    0.212171
  31 H :    0.177075
  32 H :    0.180673
  33 H :    0.169124
  34 H :    0.170775
  35 H :    0.168550
  36 H :    0.173825
  37 H :    0.177357
  38 H :    0.171296
  39 H :    0.172115
  40 H :    0.166365
Sum of atomic charges:    0.0000000

LOEWDIN ATOMIC CHARGES
----------------------
   0 C :   -0.411425
   1 C :    0.025261
   2 O :   -0.679707
   3 P :    0.385606
   4 S :   -0.113712
   5 O :   -0.674431
   6 C :    0.024054
   7 C :   -0.401846
   8 S :    0.143629
   9 C :   -0.405356
  10 S :    0.170375
  11 P :    0.376958
  12 S :   -0.158642
  13 O :   -0.689248
  14 C :    0.012676
  15 C :   -0.403127
  16 O :   -0.680432
  17 C :    0.023014
  18 C :   -0.410782
  19 H :    0.163489
  20 H :    0.161779
  21 H :    0.168395
  22 H :    0.181444
  23 H :    0.190663
  24 H :    0.193299
  25 H :    0.181084
  26 H :    0.169758
  27 H :    0.163155
  28 H :    0.165696
  29 H :    0.196970
  30 H :    0.200083
  31 H :    0.190391
  32 H :    0.183111
  33 H :    0.164156
  34 H :    0.167983
  35 H :    0.162940
  36 H :    0.190013
  37 H :    0.181162
  38 H :    0.167228
  39 H :    0.161126
  40 H :    0.163210

  Mayer bond orders larger than 0.100000
B(  0-C ,  1-C ) :   0.8996 B(  0-C , 19-H ) :   0.9660 B(  0-C , 20-H ) :   0.9649
B(  0-C , 21-H ) :   0.9525 B(  1-C ,  2-O ) :   0.8037 B(  1-C , 22-H ) :   0.9652
B(  1-C , 23-H ) :   0.9513 B(  2-O ,  3-P ) :   1.0584 B(  3-P ,  4-S ) :   1.7911
B(  3-P ,  5-O ) :   1.1456 B(  3-P ,  8-S ) :   1.0320 B(  5-O ,  6-C ) :   0.7987
B(  6-C ,  7-C ) :   0.9104 B(  6-C , 24-H ) :   0.9469 B(  6-C , 25-H ) :   0.9529
B(  7-C , 26-H ) :   0.9514 B(  7-C , 27-H ) :   0.9598 B(  7-C , 28-H ) :   0.9697
B(  8-S ,  9-C ) :   0.9035 B(  9-C , 10-S ) :   0.8817 B(  9-C , 29-H ) :   0.8961
B(  9-C , 30-H ) :   0.9100 B( 10-S , 11-P ) :   1.1478 B( 11-P , 12-S ) :   1.7047
B( 11-P , 13-O ) :   1.1658 B( 11-P , 16-O ) :   1.0618 B( 13-O , 14-C ) :   0.7920
B( 14-C , 15-C ) :   0.9059 B( 14-C , 31-H ) :   0.9516 B( 14-C , 32-H ) :   0.9604
B( 15-C , 33-H ) :   0.9714 B( 15-C , 34-H ) :   0.9545 B( 15-C , 35-H ) :   0.9621
B( 16-O , 17-C ) :   0.8096 B( 17-C , 18-C ) :   0.9096 B( 17-C , 36-H ) :   0.9492
B( 17-C , 37-H ) :   0.9654 B( 18-C , 38-H ) :   0.9543 B( 18-C , 39-H ) :   0.9659
B( 18-C , 40-H ) :   0.9651

Dispersion correction           -0.022491650
FINAL SINGLE POINT ENERGY     -2932.466122919010

DIPOLE MOMENT
-------------

Method             : SCF
Type of density    : Electron Density
Multiplicity       :   1
Irrep              :   0
Energy             : -2932.4902731999918615 Eh
Relativity type    :
Basis              : AO
                                X                 Y                 Z
Electronic contribution:     -0.186960391      -0.355146367      -5.622356362
Nuclear contribution   :      0.736169797      -1.003109297       6.810367385
                        -----------------------------------------
Total Dipole Moment    :      0.549209406      -1.358255664       1.188011023
                        -----------------------------------------
Magnitude (a.u.)       :      1.886228939
Magnitude (Debye)      :      4.794412946

Rotational constants in cm-1:             0.013103             0.005259             0.005054
Rotational constants in MHz :           392.825754           157.657259           151.505368

                             ****ORCA TERMINATED NORMALLY****
TOTAL RUN TIME: 0 days 0 hours 1 minutes 50 seconds 148 msec
