                         Program Version 6.0.0  -   RELEASE  -
|  1> ! r2scan-3c def2/J RI DEFGRID2 scfconv6 printgap
|  2> %output
|  3>     printlevel normal
|  4> end
|  5> * xyz 0 1
|  6> C -1.4340571028 -0.9939443822 -5.96389e-05
|  7> S -3.08694e-05 0.0907761948 -6.8595e-06
|  8> O -0.0012065766 0.8787189469 1.2258874493
|  9> O -0.0005195837 0.8780305217 -1.2263433401
| 10> C 1.435896838 -0.9915758062 0.0005477514
| 11> H -1.3889707598 -1.5977155229 -0.8956264069
| 12> H -1.3918682246 -1.5935237935 0.8983080041
| 13> H -2.3181092387 -0.3695907443 -0.002814243
| 14> H 1.3916246498 -1.5958986355 -0.8948191242
| 15> H 2.3190018043 -0.3658841364 -0.0027243455
| 16> H 1.3947812592 -1.5910065664 0.8993144443
| 17> *
| 18>
| 19>                          ****END OF INPUT****

CARTESIAN COORDINATES (ANGSTROEM)
---------------------------------
  C     -1.434057   -0.993944   -0.000060
  S     -0.000031    0.090776   -0.000007
  O     -0.001207    0.878719    1.225887
  O     -0.000520    0.878031   -1.226343
  C      1.435897   -0.991576    0.000548
  H     -1.388971   -1.597716   -0.895626
  H     -1.391868   -1.593524    0.898308
  H     -2.318109   -0.369591   -0.002814
  H      1.391625   -1.595899   -0.894819
  H      2.319002   -0.365884   -0.002724
  H      1.394781   -1.591007    0.899314

 Total Charge           Charge          ....    0
 Multiplicity           Mult            ....    1
 Number of Electrons    NEL             ....   50
 Basis Dimension        Dim             ....  143

ORBITAL ENERGIES
----------------

  NO   OCC          E(Eh)            E(eV)
   0   2.0000     -88.758722     -2415.2476
   1   2.0000     -18.933068      -515.1950
   2   2.0000     -18.933063      -515.1948
   3   2.0000     -10.077578      -274.2248
   4   2.0000     -10.077526      -274.2234
   5   2.0000      -8.029273      -218.4876
   6   2.0000      -5.974106      -162.5637
   7   2.0000      -5.973954      -162.5596
   8   2.0000      -5.973938      -162.5591
   9   2.0000      -1.064929       -28.9782
  10   2.0000      -0.955078       -25.9890
  11   2.0000      -0.770383       -20.9632
  12   2.0000      -0.722976       -19.6732
  13   2.0000      -0.570748       -15.5308
  14   2.0000      -0.475129       -12.9289
  15   2.0000      -0.459394       -12.5008
  16   2.0000      -0.455471       -12.3940
  17   2.0000      -0.423505       -11.5242
  18   2.0000      -0.411425       -11.1954
  19   2.0000      -0.400820       -10.9069
  20   2.0000      -0.390217       -10.6184
  21   2.0000      -0.298982        -8.1357
  22   2.0000      -0.279111        -7.5950
  23   2.0000      -0.264071        -7.1857
  24   2.0000      -0.257352        -7.0029
  25   0.0000       0.018600         0.5061
  26   0.0000       0.057190         1.5562
  27   0.0000       0.060781         1.6539
  28   0.0000       0.068226         1.8565
  29   0.0000       0.070378         1.9151

MULLIKEN ATOMIC CHARGES
-----------------------
   0 C :   -0.454363
   1 S :    0.818273
   2 O :   -0.500439
   3 O :   -0.500386
   4 C :   -0.454398
   5 H :    0.174121
   6 H :    0.174299
   7 H :    0.197227
   8 H :    0.174109
   9 H :    0.197228
  10 H :    0.174332
Sum of atomic charges:   -0.0000000

LOEWDIN ATOMIC CHARGES
----------------------
   0 C :   -0.373302
   1 S :    0.699480
   2 O :   -0.520748
   3 O :   -0.520752
   4 C :   -0.373345
   5 H :    0.176179
   6 H :    0.176214
   7 H :    0.191920
   8 H :    0.176202
   9 H :    0.191902
  10 H :    0.176249

  Mayer bond orders larger than 0.100000
B(  0-C ,  1-S ) :   0.8877 B(  0-C ,  5-H ) :   0.9360 B(  0-C ,  6-H ) :   0.9360
B(  0-C ,  7-H ) :   0.9275 B(  1-S ,  2-O ) :   1.6828 B(  1-S ,  3-O ) :   1.6829
B(  1-S ,  4-C ) :   0.8876 B(  4-C ,  8-H ) :   0.9360 B(  4-C ,  9-H ) :   0.9275
B(  4-C , 10-H ) :   0.9360

Dispersion correction           -0.002661977
FINAL SINGLE POINT ENERGY      -628.346544967534

DIPOLE MOMENT
-------------

Method             : SCF
Type of density    : Electron Density
Multiplicity       :   1
Irrep              :   0
Energy             :  -628.3594318555843756 Eh
Relativity type    :
Basis              : AO
                                X                 Y                 Z
Electronic contribution:     -0.004101532       4.730808705      -0.000989042
Nuclear contribution   :      0.006035404      -6.650351661       0.001530471
                        -----------------------------------------
Total Dipole Moment    :      0.001933872      -1.919542956       0.000541429
                        -----------------------------------------
Magnitude (a.u.)       :      1.919544007
Magnitude (Debye)      :      4.879093117

Rotational constants in cm-1:             0.152557             0.141113             0.132461
Rotational constants in MHz :          4573.550254          4230.463841          3971.086470

                             ****ORCA TERMINATED NORMALLY****
TOTAL RUN TIME: 0 days 0 hours 1 minutes 3 seconds 829 msec
