                         Program Version 6.0.0  -   RELEASE  -
|  1> ! r2scan-3c def2/J RI DEFGRID2 scfconv6 printgap
|  2> %output
|  3>     printlevel normal
|  4> end
|  5> %cpcm
|  6>     smd true
|  7>     smdsolvent "water"
|  8> end
|  9> * xyz 0 1
| 10> C -1.4340571028 -0.9939443822 -5.96389e-05
| 11> S -3.08694e-05 0.0907761948 -6.8595e-06
| 12> O -0.0012065766 0.8787189469 1.2258874493
| 13> O -0.0005195837 0.8780305217 -1.2263433401
| 14> C 1.435896838 -0.9915758062 0.0005477514
| 15> H -1.3889707598 -1.5977155229 -0.8956264069
| 16> H -1.3918682246 -1.5935237935 0.8983080041
| 17> H -2.3181092387 -0.3695907443 -0.002814243
| 18> H 1.3916246498 -1.5958986355 -0.8948191242
| 19> H 2.3190018043 -0.3658841364 -0.0027243455
| 20> H 1.3947812592 -1.5910065664 0.8993144443
| 21> *
| 22>
| 23>                          ****END OF INPUT****

CARTESIAN COORDINATES (ANGSTROEM)
---------------------------------
  C     -1.434057   -0.993944   -0.000060
  S     -0.000031    0.090776   -0.000007
  O     -0.001207    0.878719    1.225887
  O     -0.000520    0.878031   -1.226343
  C      1.435897   -0.991576    0.000548
  H     -1.388971   -1.597716   -0.895626
  H     -1.391868   -1.593524    0.898308
  H     -2.318109   -0.369591   -0.002814
  H      1.391625   -1.595899   -0.894819
  H      2.319002   -0.365884   -0.002724
  H      1.394781   -1.591007    0.899314

 Total Charge           Charge          ....    0
 Multiplicity           Mult            ....    1
 Number of Electrons    NEL             ....   50
 Basis Dimension        Dim             ....  143

ORBITAL ENERGIES
----------------

  NO   OCC          E(Eh)            E(eV)
   0   2.0000     -88.763777     -2415.3852
   1   2.0000     -18.946123      -515.5502
   2   2.0000     -18.946120      -515.5501
   3   2.0000     -10.058536      -273.7067
   4   2.0000     -10.058490      -273.7054
   5   2.0000      -8.034774      -218.6373
   6   2.0000      -5.980419      -162.7355
   7   2.0000      -5.979283      -162.7046
   8   2.0000      -5.978673      -162.6880
   9   2.0000      -1.077906       -29.3313
  10   2.0000      -0.970869       -26.4187
  11   2.0000      -0.759913       -20.6783
  12   2.0000      -0.705168       -19.1886
  13   2.0000      -0.565149       -15.3785
  14   2.0000      -0.468873       -12.7587
  15   2.0000      -0.460069       -12.5191
  16   2.0000      -0.451841       -12.2952
  17   2.0000      -0.401619       -10.9286
  18   2.0000      -0.401305       -10.9201
  19   2.0000      -0.393478       -10.7071
  20   2.0000      -0.379470       -10.3259
  21   2.0000      -0.314831        -8.5670
  22   2.0000      -0.295492        -8.0408
  23   2.0000      -0.275236        -7.4895
  24   2.0000      -0.270442        -7.3591
  25   0.0000       0.030807         0.8383
  26   0.0000       0.059328         1.6144
  27   0.0000       0.062021         1.6877
  28   0.0000       0.074504         2.0274
  29   0.0000       0.094281         2.5655

MULLIKEN ATOMIC CHARGES
-----------------------
   0 C :   -0.464367
   1 S :    0.817304
   2 O :   -0.580609
   3 O :   -0.580576
   4 C :   -0.464411
   5 H :    0.209719
   6 H :    0.209736
   7 H :    0.216848
   8 H :    0.209727
   9 H :    0.216868
  10 H :    0.209761
Sum of atomic charges:   -0.0000000

LOEWDIN ATOMIC CHARGES
----------------------
   0 C :   -0.355664
   1 S :    0.711775
   2 O :   -0.584389
   3 O :   -0.584395
   4 C :   -0.355708
   5 H :    0.192867
   6 H :    0.192840
   7 H :    0.198451
   8 H :    0.192899
   9 H :    0.198443
  10 H :    0.192881

  Mayer bond orders larger than 0.100000
B(  0-C ,  1-S ) :   0.9284 B(  0-C ,  5-H ) :   0.9196 B(  0-C ,  6-H ) :   0.9196
B(  0-C ,  7-H ) :   0.9103 B(  1-S ,  2-O ) :   1.6031 B(  1-S ,  3-O ) :   1.6031
B(  1-S ,  4-C ) :   0.9283 B(  4-C ,  8-H ) :   0.9196 B(  4-C ,  9-H ) :   0.9103
B(  4-C , 10-H ) :   0.9196

Dispersion correction           -0.002661977
FINAL SINGLE POINT ENERGY      -628.367702014741

DIPOLE MOMENT
-------------

Method             : SCF
Type of density    : Electron Density
Multiplicity       :   1
Irrep              :   0
Energy             :  -628.3805889027914873 Eh
Relativity type    :
Basis              : AO
                                X                 Y                 Z
Electronic contribution:     -0.003281194       3.953880358      -0.000863149
Nuclear contribution   :      0.006035404      -6.650351661       0.001530471
                        -----------------------------------------
Total Dipole Moment    :      0.002754210      -2.696471303       0.000667322
                        -----------------------------------------
Magnitude (a.u.)       :      2.696472792
Magnitude (Debye)      :      6.853889150

Rotational constants in cm-1:             0.152557             0.141113             0.132461
Rotational constants in MHz :          4573.550254          4230.463841          3971.086470

                             ****ORCA TERMINATED NORMALLY****
TOTAL RUN TIME: 0 days 0 hours 0 minutes 40 seconds 862 msec
