                         Program Version 6.0.0  -   RELEASE  -
|  1> ! pbe def2-sv(p) def2/J RI DEFGRID1 loosescf d4 GCP(DFT/SV(P)) printgap
|  2> %output
|  3>     printlevel normal
|  4> end
|  5> * xyz 0 1
|  6> C 0.6337751476 -2.7297568707 1.7387595219
|  7> C 1.7559374899 -2.2915969987 0.8209200781
|  8> O 1.8849934305 -0.8547766842 0.9061451501
|  9> P 2.4557157697 0.0677402719 -0.2671667015
| 10> S 3.1652960995 -0.8800134863 -1.8201751247
| 11> O 3.5571630926 0.944080965 0.4498717233
| 12> C 3.4153162173 1.5440009954 1.7631946794
| 13> C 2.8781809152 2.957742523 1.6698595655
| 14> S 0.8983324068 1.4556218055 -0.6817724151
| 15> C 0.0747619498 0.4877625886 -1.9695877886
| 16> S -0.6644130551 -1.0353840231 -1.336358439
| 17> P -2.043331519 -0.0833416131 -0.0272963892
| 18> S -2.8734646308 1.5619823201 -0.7093328
| 19> O -1.2142749362 0.0974095773 1.3097323686
| 20> C -1.299091056 1.2708367438 2.1362542328
| 21> C -2.5315398216 1.2177402311 3.0145826693
| 22> O -2.9904012812 -1.2740746634 0.41981566
| 23> C -3.6617135479 -2.1919015924 -0.462340568
| 24> C -4.4934592764 -1.4930271752 -1.5179422019
| 25> H -0.3057378785 -2.276422075 1.4323363619
| 26> H 0.5417587655 -3.8097128466 1.6889466886
| 27> H 0.8478962118 -2.4321408421 2.7609990063
| 28> H 1.5606022851 -2.5733103833 -0.2180189858
| 29> H 2.7115695674 -2.7240234596 1.1277530083
| 30> H 2.7698498361 0.9087719329 2.3726518967
| 31> H 4.4304739616 1.5339160473 2.1636820589
| 32> H 2.8802666375 3.4029934577 2.6599003027
| 33> H 3.5040805363 3.5508993455 1.008862753
| 34> H 1.8621907146 2.9608960657 1.2799609317
| 35> H 0.8024548483 0.193707453 -2.7259176715
| 36> H -0.7030512026 1.1276393001 -2.3863262662
| 37> H -0.3789503636 1.2562575254 2.7221883195
| 38> H -1.3146148167 2.1587017241 1.4952587015
| 39> H -2.5527504518 2.0878661003 3.6628402095
| 40> H -3.4235577542 1.2173106162 2.3892428167
| 41> H -2.5261601554 0.3136455639 3.6169501993
| 42> H -2.9069512997 -2.8329074637 -0.926875196
| 43> H -4.2857707392 -2.7826382161 0.2106824257
| 44> H -3.8498847694 -0.9330609096 -2.1951833281
| 45> H -5.0469513424 -2.2320272056 -2.0883442955
| 46> H -5.1913380227 -0.7996503406 -1.0544589766
| 47> *
| 48>
| 49>                          ****END OF INPUT****

CARTESIAN COORDINATES (ANGSTROEM)
---------------------------------
  C      0.633775   -2.729757    1.738760
  C      1.755937   -2.291597    0.820920
  O      1.884993   -0.854777    0.906145
  P      2.455716    0.067740   -0.267167
  S      3.165296   -0.880013   -1.820175
  O      3.557163    0.944081    0.449872
  C      3.415316    1.544001    1.763195
  C      2.878181    2.957743    1.669860
  S      0.898332    1.455622   -0.681772
  C      0.074762    0.487763   -1.969588
  S     -0.664413   -1.035384   -1.336358
  P     -2.043332   -0.083342   -0.027296
  S     -2.873465    1.561982   -0.709333
  O     -1.214275    0.097410    1.309732
  C     -1.299091    1.270837    2.136254
  C     -2.531540    1.217740    3.014583
  O     -2.990401   -1.274075    0.419816
  C     -3.661714   -2.191902   -0.462341
  C     -4.493459   -1.493027   -1.517942
  H     -0.305738   -2.276422    1.432336
  H      0.541759   -3.809713    1.688947
  H      0.847896   -2.432141    2.760999
  H      1.560602   -2.573310   -0.218019
  H      2.711570   -2.724023    1.127753
  H      2.769850    0.908772    2.372652
  H      4.430474    1.533916    2.163682
  H      2.880267    3.402993    2.659900
  H      3.504081    3.550899    1.008863
  H      1.862191    2.960896    1.279961
  H      0.802455    0.193707   -2.725918
  H     -0.703051    1.127639   -2.386326
  H     -0.378950    1.256258    2.722188
  H     -1.314615    2.158702    1.495259
  H     -2.552750    2.087866    3.662840
  H     -3.423558    1.217311    2.389243
  H     -2.526160    0.313646    3.616950
  H     -2.906951   -2.832907   -0.926875
  H     -4.285771   -2.782638    0.210682
  H     -3.849885   -0.933061   -2.195183
  H     -5.046951   -2.232027   -2.088344
  H     -5.191338   -0.799650   -1.054459

 Total Charge           Charge          ....    0
 Multiplicity           Mult            ....    1
 Number of Electrons    NEL             ....  202
 Basis Dimension        Dim             ....  334

ORBITAL ENERGIES
----------------

  NO   OCC          E(Eh)            E(eV)
   0   2.0000     -88.047803     -2395.9025
   1   2.0000     -88.041242     -2395.7240
   2   2.0000     -87.992280     -2394.3917
   3   2.0000     -87.984100     -2394.1691
   4   2.0000     -76.432572     -2079.8360
   5   2.0000     -76.425435     -2079.6418
   6   2.0000     -18.799685      -511.5654
   7   2.0000     -18.794185      -511.4158
   8   2.0000     -18.791137      -511.3328
   9   2.0000     -18.787254      -511.2272
  10   2.0000      -9.962885      -271.1039
  11   2.0000      -9.960339      -271.0346
  12   2.0000      -9.954737      -270.8822
  13   2.0000      -9.951670      -270.7987
  14   2.0000      -9.946854      -270.6677
  15   2.0000      -9.892454      -269.1874
  16   2.0000      -9.887131      -269.0425
  17   2.0000      -9.883952      -268.9560
  18   2.0000      -9.880009      -268.8487
  19   2.0000      -7.692397      -209.3208
  20   2.0000      -7.685956      -209.1455
  21   2.0000      -7.637098      -207.8160
  22   2.0000      -7.629428      -207.6073
  23   2.0000      -6.429358      -174.9517
  24   2.0000      -6.422913      -174.7764
  25   2.0000      -5.720123      -155.6525
  26   2.0000      -5.716977      -155.5669
  27   2.0000      -5.713789      -155.4801
  28   2.0000      -5.710565      -155.3924
  29   2.0000      -5.709518      -155.3639
  30   2.0000      -5.702908      -155.1840
  31   2.0000      -5.665986      -154.1793
  32   2.0000      -5.658440      -153.9740
  33   2.0000      -5.657717      -153.9543
  34   2.0000      -5.657318      -153.9435
  35   2.0000      -5.650001      -153.7444
  36   2.0000      -5.649485      -153.7303
  37   2.0000      -4.651804      -126.5820
  38   2.0000      -4.651344      -126.5695
  39   2.0000      -4.649821      -126.5281
  40   2.0000      -4.645825      -126.4193
  41   2.0000      -4.644289      -126.3775
  42   2.0000      -4.643471      -126.3553
  43   2.0000      -0.991859       -26.9899
  44   2.0000      -0.984138       -26.7798
  45   2.0000      -0.949574       -25.8392
  46   2.0000      -0.940210       -25.5844
  47   2.0000      -0.767369       -20.8812
  48   2.0000      -0.724201       -19.7065
  49   2.0000      -0.713428       -19.4134
  50   2.0000      -0.691961       -18.8292
  51   2.0000      -0.688583       -18.7373
  52   2.0000      -0.675663       -18.3857
  53   2.0000      -0.653427       -17.7807
  54   2.0000      -0.639545       -17.4029
  55   2.0000      -0.601987       -16.3809
  56   2.0000      -0.591576       -16.0976
  57   2.0000      -0.576600       -15.6901
  58   2.0000      -0.573734       -15.6121
  59   2.0000      -0.561359       -15.2754
  60   2.0000      -0.506357       -13.7787
  61   2.0000      -0.498209       -13.5570
  62   2.0000      -0.479055       -13.0357
  63   2.0000      -0.474540       -12.9129
  64   2.0000      -0.461509       -12.5583
  65   2.0000      -0.446616       -12.1530
  66   2.0000      -0.442219       -12.0334
  67   2.0000      -0.440532       -11.9875
  68   2.0000      -0.426414       -11.6033
  69   2.0000      -0.422391       -11.4938
  70   2.0000      -0.412082       -11.2133
  71   2.0000      -0.393269       -10.7014
  72   2.0000      -0.390964       -10.6387
  73   2.0000      -0.388852       -10.5812
  74   2.0000      -0.382805       -10.4167
  75   2.0000      -0.378133       -10.2895
  76   2.0000      -0.369524       -10.0553
  77   2.0000      -0.362352        -9.8601
  78   2.0000      -0.354120        -9.6361
  79   2.0000      -0.351247        -9.5579
  80   2.0000      -0.350715        -9.5434
  81   2.0000      -0.348191        -9.4748
  82   2.0000      -0.344469        -9.3735
  83   2.0000      -0.342700        -9.3253
  84   2.0000      -0.331088        -9.0094
  85   2.0000      -0.323795        -8.8109
  86   2.0000      -0.314069        -8.5462
  87   2.0000      -0.303832        -8.2677
  88   2.0000      -0.299836        -8.1590
  89   2.0000      -0.288919        -7.8619
  90   2.0000      -0.284286        -7.7358
  91   2.0000      -0.280805        -7.6411
  92   2.0000      -0.271980        -7.4009
  93   2.0000      -0.268437        -7.3045
  94   2.0000      -0.254996        -6.9388
  95   2.0000      -0.234476        -6.3804
  96   2.0000      -0.218507        -5.9459
  97   2.0000      -0.213667        -5.8142
  98   2.0000      -0.208027        -5.6607
  99   2.0000      -0.202462        -5.5093
 100   2.0000      -0.197429        -5.3723
 101   0.0000      -0.049763        -1.3541
 102   0.0000      -0.025065        -0.6821
 103   0.0000      -0.007696        -0.2094
 104   0.0000      -0.000831        -0.0226
 105   0.0000       0.001515         0.0412

MULLIKEN ATOMIC CHARGES
-----------------------
   0 C :   -0.296178
   1 C :    0.001807
   2 O :   -0.394696
   3 P :    0.634039
   4 S :   -0.318154
   5 O :   -0.364414
   6 C :   -0.023494
   7 C :   -0.313808
   8 S :   -0.113882
   9 C :   -0.343035
  10 S :   -0.100158
  11 P :    0.615935
  12 S :   -0.320244
  13 O :   -0.357140
  14 C :   -0.016459
  15 C :   -0.292139
  16 O :   -0.373945
  17 C :   -0.012365
  18 C :   -0.310611
  19 H :    0.129811
  20 H :    0.103842
  21 H :    0.105315
  22 H :    0.111356
  23 H :    0.101111
  24 H :    0.115162
  25 H :    0.112588
  26 H :    0.112534
  27 H :    0.127047
  28 H :    0.138662
  29 H :    0.193724
  30 H :    0.192033
  31 H :    0.101423
  32 H :    0.117230
  33 H :    0.109480
  34 H :    0.121326
  35 H :    0.113321
  36 H :    0.114831
  37 H :    0.111181
  38 H :    0.126960
  39 H :    0.113469
  40 H :    0.126537
Sum of atomic charges:   -0.0000000

LOEWDIN ATOMIC CHARGES
----------------------
   0 C :   -0.357479
   1 C :   -0.117309
   2 O :   -0.256731
   3 P :    0.573048
   4 S :   -0.309845
   5 O :   -0.242065
   6 C :   -0.113322
   7 C :   -0.364076
   8 S :    0.083553
   9 C :   -0.481931
  10 S :    0.088183
  11 P :    0.573909
  12 S :   -0.312431
  13 O :   -0.227466
  14 C :   -0.124083
  15 C :   -0.361643
  16 O :   -0.240707
  17 C :   -0.114173
  18 C :   -0.369163
  19 H :    0.118455
  20 H :    0.127410
  21 H :    0.122475
  22 H :    0.102052
  23 H :    0.111108
  24 H :    0.111868
  25 H :    0.123034
  26 H :    0.131420
  27 H :    0.132430
  28 H :    0.117886
  29 H :    0.131313
  30 H :    0.130722
  31 H :    0.114099
  32 H :    0.106456
  33 H :    0.129338
  34 H :    0.123611
  35 H :    0.125011
  36 H :    0.109536
  37 H :    0.122468
  38 H :    0.121947
  39 H :    0.131048
  40 H :    0.130046

  Mayer bond orders larger than 0.100000
B(  0-C ,  1-C ) :   1.1625 B(  0-C , 19-H ) :   0.9343 B(  0-C , 20-H ) :   0.9399
B(  0-C , 21-H ) :   0.9491 B(  1-C ,  2-O ) :   0.8891 B(  1-C , 22-H ) :   0.9050
B(  1-C , 23-H ) :   0.9354 B(  2-O ,  3-P ) :   1.0794 B(  3-P ,  4-S ) :   1.6456
B(  3-P ,  5-O ) :   1.1397 B(  3-P ,  8-S ) :   0.9398 B(  4-S ,  8-S ) :   0.1038
B(  5-O ,  6-C ) :   0.9016 B(  6-C ,  7-C ) :   1.1677 B(  6-C , 24-H ) :   0.9166
B(  6-C , 25-H ) :   0.9338 B(  7-C , 26-H ) :   0.9380 B(  7-C , 27-H ) :   0.9456
B(  7-C , 28-H ) :   0.9295 B(  8-S ,  9-C ) :   1.0134 B(  9-C , 10-S ) :   1.0009
B(  9-C , 29-H ) :   0.8764 B(  9-C , 30-H ) :   0.8805 B( 10-S , 11-P ) :   0.9446
B( 10-S , 12-S ) :   0.1051 B( 11-P , 12-S ) :   1.5918 B( 11-P , 13-O ) :   1.1085
B( 11-P , 16-O ) :   1.1063 B( 13-O , 14-C ) :   0.9001 B( 14-C , 15-C ) :   1.1634
B( 14-C , 31-H ) :   0.9303 B( 14-C , 32-H ) :   0.9060 B( 15-C , 33-H ) :   0.9408
B( 15-C , 34-H ) :   0.9374 B( 15-C , 35-H ) :   0.9471 B( 16-O , 17-C ) :   0.9117
B( 17-C , 18-C ) :   1.1665 B( 17-C , 36-H ) :   0.9264 B( 17-C , 37-H ) :   0.9334
B( 18-C , 38-H ) :   0.9336 B( 18-C , 39-H ) :   0.9352 B( 18-C , 40-H ) :   0.9431

Dispersion correction           -0.067667585
FINAL SINGLE POINT ENERGY     -2929.520005101162

DIPOLE MOMENT
-------------

Method             : SCF
Type of density    : Electron Density
Multiplicity       :   1
Irrep              :   0
Energy             : -2929.6385037585068858 Eh
Relativity type    :
Basis              : AO
                                X                 Y                 Z
Electronic contribution:      9.676775778       2.135801146     -16.792883021
Nuclear contribution   :    -10.286127651      -2.551455726      18.263016261
                        -----------------------------------------
Total Dipole Moment    :     -0.609351873      -0.415654579       1.470133239
                        -----------------------------------------
Magnitude (a.u.)       :      1.644800953
Magnitude (Debye)      :      4.180751773

Rotational constants in cm-1:             0.011585             0.005748             0.005193
Rotational constants in MHz :           347.295150           172.318612           155.687653

                             ****ORCA TERMINATED NORMALLY****
TOTAL RUN TIME: 0 days 0 hours 0 minutes 22 seconds 114 msec
