                         Program Version 6.0.0  -   RELEASE  -
|  1> ! pbe def2-sv(p) def2/J RI DEFGRID1 loosescf d4 GCP(DFT/SV(P)) printgap
|  2> %output
|  3>     printlevel normal
|  4> end
|  5> * xyz 0 1
|  6> C 1.422297814 -0.9093323734 2.9037733834
|  7> C 2.0971654196 0.3636587991 2.4368839687
|  8> O 3.0510564505 0.1397993895 1.3836228813
|  9> P 2.735634663 -0.5752257283 -0.0025143287
| 10> S 2.5984763823 -2.5247786449 -0.0338079562
| 11> O 3.958919706 -0.1242105166 -0.8851595974
| 12> C 4.3417803602 1.2586302945 -1.0857475776
| 13> C 5.4706688059 1.643469087 -0.151364751
| 14> S 1.0504373017 0.5210854339 -0.7702730232
| 15> C -0.0425043354 -0.8685830631 -1.1517509422
| 16> S -1.306035061 -1.1374075625 0.1119301326
| 17> P -2.5436780644 0.5072666866 -0.4609408208
| 18> S -2.6793713001 0.8479313058 -2.3815410688
| 19> O -1.9528198489 1.7526512107 0.3027207313
| 20> C -1.6858461829 1.8046098561 1.7255134376
| 21> C -2.8928184446 2.2940979383 2.4989626252
| 22> O -3.916031772 0.2345443194 0.2931938373
| 23> C -4.9742012337 -0.550154928 -0.2855636311
| 24> C -4.5912693218 -2.0070281259 -0.4461205415
| 25> H 0.7971596192 -1.3252703458 2.1138719869
| 26> H 2.166977846 -1.6540683607 3.1740261038
| 27> H 0.8021187111 -0.6928020386 3.7677796793
| 28> H 2.6943877901 0.8110270177 3.2333646581
| 29> H 1.3584320614 1.0861204573 2.0776601418
| 30> H 4.6567034411 1.306253879 -2.1297910803
| 31> H 3.4647230319 1.8954361245 -0.9388465041
| 32> H 5.7766155238 2.6628209118 -0.3650860004
| 33> H 5.1462936657 1.5733604919 0.8831445777
| 34> H 6.3156706346 0.9765016188 -0.2981166937
| 35> H 0.5510734778 -1.7836202517 -1.2088022716
| 36> H -0.5352328749 -0.6455418151 -2.0986623854
| 37> H -1.3792260034 0.8103564118 2.0633676138
| 38> H -0.8520368789 2.5044994258 1.808647876
| 39> H -3.7083878399 1.5808821171 2.4201668494
| 40> H -2.6188530894 2.4113875058 3.5428395855
| 41> H -3.2242949438 3.2511375577 2.1054876115
| 42> H -5.8018390924 -0.4270406496 0.4143795042
| 43> H -5.2374100195 -0.11264751 -1.2534620661
| 44> H -5.4635585409 -2.5743194549 -0.7545793127
| 45> H -3.8198816642 -2.1095093996 -1.2079896512
| 46> H -4.2135968323 -2.4064791754 0.4918541379
| 47> *
| 48>
| 49>                          ****END OF INPUT****

CARTESIAN COORDINATES (ANGSTROEM)
---------------------------------
  C      1.422298   -0.909332    2.903773
  C      2.097165    0.363659    2.436884
  O      3.051056    0.139799    1.383623
  P      2.735635   -0.575226   -0.002514
  S      2.598476   -2.524779   -0.033808
  O      3.958920   -0.124211   -0.885160
  C      4.341780    1.258630   -1.085748
  C      5.470669    1.643469   -0.151365
  S      1.050437    0.521085   -0.770273
  C     -0.042504   -0.868583   -1.151751
  S     -1.306035   -1.137408    0.111930
  P     -2.543678    0.507267   -0.460941
  S     -2.679371    0.847931   -2.381541
  O     -1.952820    1.752651    0.302721
  C     -1.685846    1.804610    1.725513
  C     -2.892818    2.294098    2.498963
  O     -3.916032    0.234544    0.293194
  C     -4.974201   -0.550155   -0.285564
  C     -4.591269   -2.007028   -0.446121
  H      0.797160   -1.325270    2.113872
  H      2.166978   -1.654068    3.174026
  H      0.802119   -0.692802    3.767780
  H      2.694388    0.811027    3.233365
  H      1.358432    1.086120    2.077660
  H      4.656703    1.306254   -2.129791
  H      3.464723    1.895436   -0.938847
  H      5.776616    2.662821   -0.365086
  H      5.146294    1.573360    0.883145
  H      6.315671    0.976502   -0.298117
  H      0.551073   -1.783620   -1.208802
  H     -0.535233   -0.645542   -2.098662
  H     -1.379226    0.810356    2.063368
  H     -0.852037    2.504499    1.808648
  H     -3.708388    1.580882    2.420167
  H     -2.618853    2.411388    3.542840
  H     -3.224295    3.251138    2.105488
  H     -5.801839   -0.427041    0.414380
  H     -5.237410   -0.112648   -1.253462
  H     -5.463559   -2.574319   -0.754579
  H     -3.819882   -2.109509   -1.207990
  H     -4.213597   -2.406479    0.491854

 Total Charge           Charge          ....    0
 Multiplicity           Mult            ....    1
 Number of Electrons    NEL             ....  202
 Basis Dimension        Dim             ....  334

ORBITAL ENERGIES
----------------

  NO   OCC          E(Eh)            E(eV)
   0   2.0000     -88.045979     -2395.8529
   1   2.0000     -88.043489     -2395.7851
   2   2.0000     -87.989169     -2394.3070
   3   2.0000     -87.987995     -2394.2751
   4   2.0000     -76.429713     -2079.7582
   5   2.0000     -76.428296     -2079.7197
   6   2.0000     -18.799639      -511.5642
   7   2.0000     -18.797579      -511.5081
   8   2.0000     -18.795641      -511.4554
   9   2.0000     -18.791892      -511.3534
  10   2.0000      -9.960999      -271.0526
  11   2.0000      -9.960958      -271.0514
  12   2.0000      -9.959371      -271.0083
  13   2.0000      -9.957587      -270.9597
  14   2.0000      -9.950069      -270.7551
  15   2.0000      -9.890793      -269.1421
  16   2.0000      -9.888487      -269.0794
  17   2.0000      -9.887035      -269.0399
  18   2.0000      -9.885320      -268.9932
  19   2.0000      -7.690383      -209.2660
  20   2.0000      -7.688047      -209.2024
  21   2.0000      -7.634414      -207.7430
  22   2.0000      -7.633245      -207.7111
  23   2.0000      -6.427363      -174.8974
  24   2.0000      -6.425700      -174.8522
  25   2.0000      -5.717983      -155.5942
  26   2.0000      -5.715794      -155.5347
  27   2.0000      -5.714968      -155.5122
  28   2.0000      -5.712568      -155.4469
  29   2.0000      -5.707655      -155.3132
  30   2.0000      -5.705253      -155.2478
  31   2.0000      -5.663405      -154.1091
  32   2.0000      -5.662301      -154.0790
  33   2.0000      -5.654905      -153.8778
  34   2.0000      -5.654598      -153.8694
  35   2.0000      -5.653877      -153.8498
  36   2.0000      -5.653198      -153.8313
  37   2.0000      -4.650274      -126.5404
  38   2.0000      -4.649034      -126.5066
  39   2.0000      -4.648418      -126.4899
  40   2.0000      -4.647605      -126.4678
  41   2.0000      -4.647581      -126.4671
  42   2.0000      -4.645908      -126.4216
  43   2.0000      -0.992811       -27.0158
  44   2.0000      -0.991106       -26.9694
  45   2.0000      -0.951007       -25.8782
  46   2.0000      -0.947706       -25.7884
  47   2.0000      -0.763395       -20.7730
  48   2.0000      -0.724761       -19.7217
  49   2.0000      -0.715572       -19.4717
  50   2.0000      -0.694801       -18.9065
  51   2.0000      -0.693654       -18.8753
  52   2.0000      -0.678916       -18.4742
  53   2.0000      -0.653198       -17.7744
  54   2.0000      -0.641457       -17.4549
  55   2.0000      -0.599840       -16.3225
  56   2.0000      -0.593231       -16.1426
  57   2.0000      -0.581057       -15.8114
  58   2.0000      -0.578188       -15.7333
  59   2.0000      -0.564138       -15.3510
  60   2.0000      -0.508340       -13.8326
  61   2.0000      -0.500397       -13.6165
  62   2.0000      -0.479845       -13.0572
  63   2.0000      -0.476910       -12.9774
  64   2.0000      -0.459970       -12.5164
  65   2.0000      -0.452751       -12.3200
  66   2.0000      -0.446837       -12.1591
  67   2.0000      -0.438251       -11.9254
  68   2.0000      -0.434548       -11.8247
  69   2.0000      -0.426154       -11.5962
  70   2.0000      -0.413083       -11.2406
  71   2.0000      -0.406005       -11.0480
  72   2.0000      -0.397758       -10.8235
  73   2.0000      -0.388464       -10.5707
  74   2.0000      -0.380627       -10.3574
  75   2.0000      -0.371662       -10.1134
  76   2.0000      -0.366268        -9.9667
  77   2.0000      -0.361191        -9.8285
  78   2.0000      -0.358100        -9.7444
  79   2.0000      -0.354831        -9.6555
  80   2.0000      -0.353949        -9.6314
  81   2.0000      -0.350512        -9.5379
  82   2.0000      -0.346442        -9.4272
  83   2.0000      -0.342993        -9.3333
  84   2.0000      -0.338619        -9.2143
  85   2.0000      -0.323096        -8.7919
  86   2.0000      -0.318068        -8.6551
  87   2.0000      -0.301899        -8.2151
  88   2.0000      -0.299971        -8.1626
  89   2.0000      -0.295553        -8.0424
  90   2.0000      -0.290103        -7.8941
  91   2.0000      -0.280820        -7.6415
  92   2.0000      -0.277367        -7.5475
  93   2.0000      -0.267332        -7.2745
  94   2.0000      -0.259316        -7.0564
  95   2.0000      -0.237903        -6.4737
  96   2.0000      -0.220747        -6.0068
  97   2.0000      -0.212822        -5.7912
  98   2.0000      -0.205034        -5.5793
  99   2.0000      -0.204609        -5.5677
 100   2.0000      -0.201642        -5.4870
 101   0.0000      -0.045190        -1.2297
 102   0.0000      -0.032699        -0.8898
 103   0.0000      -0.013029        -0.3545
 104   0.0000       0.001334         0.0363
 105   0.0000       0.011405         0.3104

MULLIKEN ATOMIC CHARGES
-----------------------
   0 C :   -0.321790
   1 C :   -0.016935
   2 O :   -0.379398
   3 P :    0.592572
   4 S :   -0.298796
   5 O :   -0.350588
   6 C :   -0.015592
   7 C :   -0.287914
   8 S :   -0.111266
   9 C :   -0.359916
  10 S :   -0.097279
  11 P :    0.604490
  12 S :   -0.309885
  13 O :   -0.349199
  14 C :   -0.043143
  15 C :   -0.282793
  16 O :   -0.381499
  17 C :   -0.002190
  18 C :   -0.318306
  19 H :    0.136710
  20 H :    0.127243
  21 H :    0.107861
  22 H :    0.106255
  23 H :    0.114201
  24 H :    0.115140
  25 H :    0.104557
  26 H :    0.110118
  27 H :    0.120968
  28 H :    0.122226
  29 H :    0.195729
  30 H :    0.196856
  31 H :    0.113013
  32 H :    0.120977
  33 H :    0.123652
  34 H :    0.108048
  35 H :    0.120188
  36 H :    0.105845
  37 H :    0.115401
  38 H :    0.115805
  39 H :    0.130808
  40 H :    0.117828
Sum of atomic charges:   -0.0000000

LOEWDIN ATOMIC CHARGES
----------------------
   0 C :   -0.372601
   1 C :   -0.118233
   2 O :   -0.244806
   3 P :    0.567834
   4 S :   -0.291487
   5 O :   -0.234883
   6 C :   -0.112511
   7 C :   -0.358806
   8 S :    0.063561
   9 C :   -0.491033
  10 S :    0.088104
  11 P :    0.570541
  12 S :   -0.305273
  13 O :   -0.232859
  14 C :   -0.119628
  15 C :   -0.360424
  16 O :   -0.246122
  17 C :   -0.116532
  18 C :   -0.370761
  19 H :    0.114234
  20 H :    0.131036
  21 H :    0.127858
  22 H :    0.119675
  23 H :    0.105113
  24 H :    0.123888
  25 H :    0.104122
  26 H :    0.129446
  27 H :    0.126127
  28 H :    0.130283
  29 H :    0.126534
  30 H :    0.128001
  31 H :    0.103007
  32 H :    0.119680
  33 H :    0.126363
  34 H :    0.128995
  35 H :    0.129521
  36 H :    0.118775
  37 H :    0.114161
  38 H :    0.132555
  39 H :    0.122825
  40 H :    0.123721

  Mayer bond orders larger than 0.100000
B(  0-C ,  1-C ) :   1.1689 B(  0-C , 19-H ) :   0.9214 B(  0-C , 20-H ) :   0.9407
B(  0-C , 21-H ) :   0.9336 B(  1-C ,  2-O ) :   0.9124 B(  1-C , 22-H ) :   0.9320
B(  1-C , 23-H ) :   0.9163 B(  2-O ,  3-P ) :   1.0764 B(  3-P ,  4-S ) :   1.6460
B(  3-P ,  5-O ) :   1.1443 B(  3-P ,  8-S ) :   0.9395 B(  4-S ,  8-S ) :   0.1169
B(  4-S , 29-H ) :   0.1137 B(  5-O ,  6-C ) :   0.8934 B(  6-C ,  7-C ) :   1.1641
B(  6-C , 24-H ) :   0.9356 B(  6-C , 25-H ) :   0.9164 B(  7-C , 26-H ) :   0.9398
B(  7-C , 27-H ) :   0.9424 B(  7-C , 28-H ) :   0.9466 B(  8-S ,  9-C ) :   1.0072
B(  9-C , 10-S ) :   1.0056 B(  9-C , 29-H ) :   0.8511 B(  9-C , 30-H ) :   0.8652
B( 10-S , 11-P ) :   0.9460 B( 10-S , 12-S ) :   0.1078 B( 11-P , 12-S ) :   1.6367
B( 11-P , 13-O ) :   1.1429 B( 11-P , 16-O ) :   1.0888 B( 13-O , 14-C ) :   0.8988
B( 14-C , 15-C ) :   1.1569 B( 14-C , 31-H ) :   0.9060 B( 14-C , 32-H ) :   0.9285
B( 15-C , 33-H ) :   0.9388 B( 15-C , 34-H ) :   0.9395 B( 15-C , 35-H ) :   0.9461
B( 16-O , 17-C ) :   0.9028 B( 17-C , 18-C ) :   1.1659 B( 17-C , 36-H ) :   0.9339
B( 17-C , 37-H ) :   0.9183 B( 18-C , 38-H ) :   0.9370 B( 18-C , 39-H ) :   0.9348
B( 18-C , 40-H ) :   0.9438

Dispersion correction           -0.063887432
FINAL SINGLE POINT ENERGY     -2929.518132103412

DIPOLE MOMENT
-------------

Method             : SCF
Type of density    : Electron Density
Multiplicity       :   1
Irrep              :   0
Energy             : -2929.6394632464152892 Eh
Relativity type    :
Basis              : AO
                                X                 Y                 Z
Electronic contribution:      2.712769540      -5.875612212     -15.707542675
Nuclear contribution   :     -3.075874146       6.853889216      17.257444220
                        -----------------------------------------
Total Dipole Moment    :     -0.363104606       0.978277005       1.549901545
                        -----------------------------------------
Magnitude (a.u.)       :      1.868439362
Magnitude (Debye)      :      4.749195434

Rotational constants in cm-1:             0.013069             0.004276             0.004173
Rotational constants in MHz :           391.791120           128.203804           125.102419

                             ****ORCA TERMINATED NORMALLY****
TOTAL RUN TIME: 0 days 0 hours 0 minutes 21 seconds 163 msec
