                         Program Version 6.0.0  -   RELEASE  -
|  1> ! pbe def2-sv(p) def2/J RI DEFGRID1 loosescf d4 GCP(DFT/SV(P)) printgap
|  2> %output
|  3>     printlevel normal
|  4> end
|  5> * xyz 0 1
|  6> C -1.274887955 -0.2653583124 5.977e-06
|  7> C 0.0113393918 0.5659131794 -2.89556e-05
|  8> N 1.241517402 -0.2127554166 -3.798e-06
|  9> H -2.1436686209 0.3870097263 8.95852e-05
| 10> H -1.3179747114 -0.8997440507 -0.8837342054
| 11> H -1.3178296257 -0.8994894465 0.8839313871
| 12> H 0.0314855088 1.208985576 0.8840812082
| 13> H 0.0313984224 1.2086735185 -0.884277193
| 14> H 1.2603754824 -0.8150104042 0.8167721528
| 15> H 1.2602335827 -0.8153457348 -0.8165363414
| 16> *
| 17>
| 18>                          ****END OF INPUT****

CARTESIAN COORDINATES (ANGSTROEM)
---------------------------------
  C     -1.274888   -0.265358    0.000006
  C      0.011339    0.565913   -0.000029
  N      1.241517   -0.212755   -0.000004
  H     -2.143669    0.387010    0.000090
  H     -1.317975   -0.899744   -0.883734
  H     -1.317830   -0.899489    0.883931
  H      0.031486    1.208986    0.884081
  H      0.031398    1.208674   -0.884277
  H      1.260375   -0.815010    0.816772
  H      1.260234   -0.815346   -0.816536

 Total Charge           Charge          ....    0
 Multiplicity           Mult            ....    1
 Number of Electrons    NEL             ....   26
 Basis Dimension        Dim             ....   56

ORBITAL ENERGIES
----------------

  NO   OCC          E(Eh)            E(eV)
   0   2.0000     -13.954785      -379.7290
   1   2.0000      -9.905012      -269.5291
   2   2.0000      -9.872774      -268.6518
   3   2.0000      -0.791050       -21.5256
   4   2.0000      -0.649011       -17.6605
   5   2.0000      -0.540110       -14.6971
   6   2.0000      -0.446808       -12.1583
   7   2.0000      -0.389620       -10.6021
   8   2.0000      -0.365052        -9.9336
   9   2.0000      -0.355682        -9.6786
  10   2.0000      -0.315832        -8.5942
  11   2.0000      -0.296310        -8.0630
  12   2.0000      -0.179502        -4.8845
  13   0.0000       0.033090         0.9004
  14   0.0000       0.078409         2.1336
  15   0.0000       0.078895         2.1468
  16   0.0000       0.094620         2.5748
  17   0.0000       0.120890         3.2896

MULLIKEN ATOMIC CHARGES
-----------------------
   0 C :   -0.294310
   1 C :   -0.111874
   2 N :   -0.449662
   3 H :    0.095895
   4 H :    0.093140
   5 H :    0.093114
   6 H :    0.090722
   7 H :    0.090704
   8 H :    0.196134
   9 H :    0.196136
Sum of atomic charges:   -0.0000000

LOEWDIN ATOMIC CHARGES
----------------------
   0 C :   -0.367694
   1 C :   -0.189083
   2 N :   -0.409707
   3 H :    0.119236
   4 H :    0.112650
   5 H :    0.112643
   6 H :    0.111709
   7 H :    0.111707
   8 H :    0.199268
   9 H :    0.199270

  Mayer bond orders larger than 0.100000
B(  0-C ,  1-C ) :   1.1236 B(  0-C ,  3-H ) :   0.9391 B(  0-C ,  4-H ) :   0.9546
B(  0-C ,  5-H ) :   0.9546 B(  1-C ,  2-N ) :   1.1364 B(  1-C ,  6-H ) :   0.9394
B(  1-C ,  7-H ) :   0.9394 B(  2-N ,  8-H ) :   0.9126 B(  2-N ,  9-H ) :   0.9126

Dispersion correction           -0.004486219
FINAL SINGLE POINT ENERGY      -134.819811714217

DIPOLE MOMENT
-------------

Method             : SCF
Type of density    : Electron Density
Multiplicity       :   1
Irrep              :   0
Energy             :  -134.8593813911469397 Eh
Relativity type    :
Basis              : AO
                                X                 Y                 Z
Electronic contribution:      1.699985039       0.214908911      -0.000191854
Nuclear contribution   :     -2.053366105      -0.587454510       0.000306380
                        -----------------------------------------
Total Dipole Moment    :     -0.353381066      -0.372545599       0.000114525
                        -----------------------------------------
Magnitude (a.u.)       :      0.513486528
Magnitude (Debye)      :      1.305179029

Rotational constants in cm-1:             1.060902             0.296026             0.264037
Rotational constants in MHz :         31805.049169          8874.630895          7915.643036

                             ****ORCA TERMINATED NORMALLY****
TOTAL RUN TIME: 0 days 0 hours 0 minutes 4 seconds 34 msec
