                         Program Version 6.0.1  -  RELEASE   -
|  1> ! pbe def2-sv(p) def2/J RI DEFGRID1 loosescf d4 GCP(DFT/SV(P)) printgap
|  2> %output
|  3>     printlevel normal
|  4> end
|  5> * xyz 0 1
|  6> C 2.2425147743 -2.6980214104 0.6387392068
|  7> C 3.2899163311 -1.8249110787 -0.0343334333
|  8> O 2.6743083349 -0.6646238231 -0.6262609084
|  9> C 2.1159265282 -0.7958833496 -1.8209758584
| 10> O 2.1920266092 -1.7895377304 -2.5038714205
| 11> C 1.3620562543 0.460453692 -2.2157384642
| 12> C 0.2597206476 0.7419950805 -1.1951790783
| 13> H -0.3063185382 1.632276415 -1.4834873457
| 14> C 0.826761032 0.9619485715 0.1984171999
| 15> O 0.5045987614 0.2827547895 1.1529342787
| 16> O 1.6513462683 1.9693336728 0.2191278981
| 17> C 2.3168598368 2.3143982235 1.4527276325
| 18> C 3.8141532512 2.3591434624 1.2058016879
| 19> S -0.8987405194 -0.6697480026 -1.1152739943
| 20> P -2.0931313143 0.0095868741 0.5077690987
| 21> S -2.1235339752 1.9392768297 0.8336562083
| 22> O -3.5292076233 -0.5662406488 0.0727407838
| 23> C -4.24380193 -0.0188795748 -1.0388011914
| 24> O -1.854856599 -0.8728707763 1.7944520721
| 25> C -1.8792416231 -2.3127933104 1.7585848809
| 26> H 1.6521351926 -2.0988836955 1.329680363
| 27> H 1.5799031162 -3.127316576 -0.110256125
| 28> H 2.7310019792 -3.4990370984 1.1829667796
| 29> H 3.8157102732 -2.3776394202 -0.8177701174
| 30> H 3.9975484735 -1.4224950938 0.690735247
| 31> H 0.9303786062 0.3076995903 -3.2040091075
| 32> H 2.0477944358 1.3086074844 -2.2276568575
| 33> H 1.9292600681 3.293313922 1.7442849128
| 34> H 2.0490521978 1.5747798641 2.2116538732
| 35> H 4.1645459482 1.3905541124 0.8593664684
| 36> H 4.0454196743 3.1066172438 0.4531127399
| 37> H 4.3205669785 2.6137525397 2.1308116424
| 38> H -4.2751804328 1.0693605988 -0.9636413096
| 39> H -5.2466018881 -0.4331981784 -0.9753206638
| 40> H -3.7629404791 -0.3153733923 -1.9709645636
| 41> H -1.5681010151 -2.6252522137 2.75194962
| 42> H -1.1819075852 -2.6796418455 1.0050301824
| 43> H -2.8868831009 -2.6596202518 1.5366808187
| 44> *
| 45>
| 46>                          ****END OF INPUT****

CARTESIAN COORDINATES (ANGSTROEM)
---------------------------------
  C      2.242515   -2.698021    0.638739
  C      3.289916   -1.824911   -0.034333
  O      2.674308   -0.664624   -0.626261
  C      2.115927   -0.795883   -1.820976
  O      2.192027   -1.789538   -2.503871
  C      1.362056    0.460454   -2.215738
  C      0.259721    0.741995   -1.195179
  H     -0.306319    1.632276   -1.483487
  C      0.826761    0.961949    0.198417
  O      0.504599    0.282755    1.152934
  O      1.651346    1.969334    0.219128
  C      2.316860    2.314398    1.452728
  C      3.814153    2.359143    1.205802
  S     -0.898741   -0.669748   -1.115274
  P     -2.093131    0.009587    0.507769
  S     -2.123534    1.939277    0.833656
  O     -3.529208   -0.566241    0.072741
  C     -4.243802   -0.018880   -1.038801
  O     -1.854857   -0.872871    1.794452
  C     -1.879242   -2.312793    1.758585
  H      1.652135   -2.098884    1.329680
  H      1.579903   -3.127317   -0.110256
  H      2.731002   -3.499037    1.182967
  H      3.815710   -2.377639   -0.817770
  H      3.997548   -1.422495    0.690735
  H      0.930379    0.307700   -3.204009
  H      2.047794    1.308607   -2.227657
  H      1.929260    3.293314    1.744285
  H      2.049052    1.574780    2.211654
  H      4.164546    1.390554    0.859366
  H      4.045420    3.106617    0.453113
  H      4.320567    2.613753    2.130812
  H     -4.275180    1.069361   -0.963641
  H     -5.246602   -0.433198   -0.975321
  H     -3.762940   -0.315373   -1.970965
  H     -1.568101   -2.625252    2.751950
  H     -1.181908   -2.679642    1.005030
  H     -2.886883   -2.659620    1.536681

 Total Charge           Charge          ....    0
 Multiplicity           Mult            ....    1
 Number of Electrons    NEL             ....  174
 Basis Dimension        Dim             ....  316

ORBITAL ENERGIES
----------------

  NO   OCC          E(Eh)            E(eV)
   0   2.0000     -88.039393     -2395.6737
   1   2.0000     -87.976000     -2393.9487
   2   2.0000     -76.421501     -2079.5348
   3   2.0000     -18.813129      -511.9313
   4   2.0000     -18.809477      -511.8319
   5   2.0000     -18.785264      -511.1730
   6   2.0000     -18.784022      -511.1392
   7   2.0000     -18.744156      -510.0544
   8   2.0000     -18.740950      -509.9672
   9   2.0000     -10.020005      -272.6582
  10   2.0000     -10.016347      -272.5587
  11   2.0000      -9.951798      -270.8022
  12   2.0000      -9.951493      -270.7939
  13   2.0000      -9.950659      -270.7712
  14   2.0000      -9.944793      -270.6116
  15   2.0000      -9.938080      -270.4289
  16   2.0000      -9.920035      -269.9379
  17   2.0000      -9.893742      -269.2224
  18   2.0000      -9.883278      -268.9377
  19   2.0000      -7.683886      -209.0892
  20   2.0000      -7.621353      -207.3876
  21   2.0000      -6.417877      -174.6393
  22   2.0000      -5.711650      -155.4219
  23   2.0000      -5.708487      -155.3358
  24   2.0000      -5.700973      -155.1314
  25   2.0000      -5.650544      -153.7591
  26   2.0000      -5.641938      -153.5249
  27   2.0000      -5.641202      -153.5049
  28   2.0000      -4.640633      -126.2780
  29   2.0000      -4.639879      -126.2575
  30   2.0000      -4.638199      -126.2118
  31   2.0000      -1.022996       -27.8371
  32   2.0000      -1.014723       -27.6120
  33   2.0000      -0.979768       -26.6608
  34   2.0000      -0.934573       -25.4310
  35   2.0000      -0.923730       -25.1360
  36   2.0000      -0.921372       -25.0718
  37   2.0000      -0.770477       -20.9658
  38   2.0000      -0.713187       -19.4068
  39   2.0000      -0.711574       -19.3629
  40   2.0000      -0.690527       -18.7902
  41   2.0000      -0.658133       -17.9087
  42   2.0000      -0.630463       -17.1558
  43   2.0000      -0.622692       -16.9443
  44   2.0000      -0.615175       -16.7398
  45   2.0000      -0.597165       -16.2497
  46   2.0000      -0.566802       -15.4235
  47   2.0000      -0.513965       -13.9857
  48   2.0000      -0.506098       -13.7716
  49   2.0000      -0.502529       -13.6745
  50   2.0000      -0.480882       -13.0855
  51   2.0000      -0.469510       -12.7760
  52   2.0000      -0.468693       -12.7538
  53   2.0000      -0.448788       -12.2121
  54   2.0000      -0.442724       -12.0471
  55   2.0000      -0.429694       -11.6926
  56   2.0000      -0.426061       -11.5937
  57   2.0000      -0.423668       -11.5286
  58   2.0000      -0.409791       -11.1510
  59   2.0000      -0.408828       -11.1248
  60   2.0000      -0.402136       -10.9427
  61   2.0000      -0.396417       -10.7871
  62   2.0000      -0.390300       -10.6206
  63   2.0000      -0.383486       -10.4352
  64   2.0000      -0.376565       -10.2469
  65   2.0000      -0.375134       -10.2079
  66   2.0000      -0.364364        -9.9148
  67   2.0000      -0.357903        -9.7390
  68   2.0000      -0.348616        -9.4863
  69   2.0000      -0.342281        -9.3139
  70   2.0000      -0.337600        -9.1866
  71   2.0000      -0.334625        -9.1056
  72   2.0000      -0.324397        -8.8273
  73   2.0000      -0.315555        -8.5867
  74   2.0000      -0.303841        -8.2679
  75   2.0000      -0.296960        -8.0807
  76   2.0000      -0.294257        -8.0072
  77   2.0000      -0.291033        -7.9194
  78   2.0000      -0.271901        -7.3988
  79   2.0000      -0.264678        -7.2023
  80   2.0000      -0.260066        -7.0768
  81   2.0000      -0.254637        -6.9290
  82   2.0000      -0.235195        -6.4000
  83   2.0000      -0.227064        -6.1787
  84   2.0000      -0.219541        -5.9740
  85   2.0000      -0.197322        -5.3694
  86   2.0000      -0.191680        -5.2159
  87   0.0000      -0.040176        -1.0932
  88   0.0000      -0.036022        -0.9802
  89   0.0000      -0.019860        -0.5404
  90   0.0000       0.004233         0.1152
  91   0.0000       0.024985         0.6799

MULLIKEN ATOMIC CHARGES
-----------------------
   0 C :   -0.332268
   1 C :   -0.012666
   2 O :   -0.241192
   3 C :    0.096914
   4 O :   -0.185180
   5 C :   -0.048610
   6 C :   -0.329440
   7 H :    0.153555
   8 C :    0.225492
   9 O :   -0.190423
  10 O :   -0.227100
  11 C :   -0.019334
  12 C :   -0.298108
  13 S :   -0.094533
  14 P :    0.623410
  15 S :   -0.328797
  16 O :   -0.394502
  17 C :   -0.099732
  18 O :   -0.351824
  19 C :   -0.109423
  20 H :    0.141994
  21 H :    0.130393
  22 H :    0.108748
  23 H :    0.109339
  24 H :    0.103643
  25 H :    0.120955
  26 H :    0.133827
  27 H :    0.115129
  28 H :    0.121597
  29 H :    0.120351
  30 H :    0.115402
  31 H :    0.114922
  32 H :    0.115006
  33 H :    0.122224
  34 H :    0.111626
  35 H :    0.130115
  36 H :    0.125111
  37 H :    0.123381
Sum of atomic charges:    0.0000000

LOEWDIN ATOMIC CHARGES
----------------------
   0 C :   -0.363810
   1 C :   -0.108751
   2 O :   -0.056289
   3 C :    0.025530
   4 O :   -0.152085
   5 C :   -0.241552
   6 C :   -0.263535
   7 H :    0.142916
   8 C :    0.002325
   9 O :   -0.166202
  10 O :   -0.039483
  11 C :   -0.104378
  12 C :   -0.353037
  13 S :    0.096421
  14 P :    0.588026
  15 S :   -0.319414
  16 O :   -0.265691
  17 C :   -0.219545
  18 O :   -0.229162
  19 C :   -0.207989
  20 H :    0.131713
  21 H :    0.128680
  22 H :    0.128136
  23 H :    0.120320
  24 H :    0.115250
  25 H :    0.141990
  26 H :    0.149541
  27 H :    0.123161
  28 H :    0.124248
  29 H :    0.125968
  30 H :    0.126086
  31 H :    0.131478
  32 H :    0.109490
  33 H :    0.120850
  34 H :    0.106259
  35 H :    0.125920
  36 H :    0.111126
  37 H :    0.115488

  Mayer bond orders larger than 0.100000
B(  0-C ,  1-C ) :   1.1757 B(  0-C , 20-H ) :   0.9347 B(  0-C , 21-H ) :   0.9406
B(  0-C , 22-H ) :   0.9410 B(  1-C ,  2-O ) :   0.9095 B(  1-C , 23-H ) :   0.9163
B(  1-C , 24-H ) :   0.9327 B(  2-O ,  3-C ) :   1.1890 B(  3-C ,  4-O ) :   2.0742
B(  3-C ,  5-C ) :   0.9999 B(  5-C ,  6-C ) :   1.0550 B(  5-C , 25-H ) :   0.9048
B(  5-C , 26-H ) :   0.8831 B(  6-C ,  7-H ) :   0.8618 B(  6-C ,  8-C ) :   0.8621
B(  6-C , 13-S ) :   1.0355 B(  8-C ,  9-O ) :   1.9881 B(  8-C , 10-O ) :   1.2526
B( 10-O , 11-C ) :   0.8968 B( 11-C , 12-C ) :   1.1680 B( 11-C , 27-H ) :   0.9349
B( 11-C , 28-H ) :   0.9085 B( 12-C , 29-H ) :   0.9444 B( 12-C , 30-H ) :   0.9485
B( 12-C , 31-H ) :   0.9438 B( 13-S , 14-P ) :   0.9420 B( 13-S , 15-S ) :   0.1101
B( 14-P , 15-S ) :   1.6189 B( 14-P , 16-O ) :   1.0554 B( 14-P , 18-O ) :   1.1372
B( 16-O , 17-C ) :   0.9378 B( 17-C , 32-H ) :   0.9339 B( 17-C , 33-H ) :   0.9587
B( 17-C , 34-H ) :   0.9457 B( 18-O , 19-C ) :   0.9211 B( 19-C , 35-H ) :   0.9599
B( 19-C , 36-H ) :   0.9357 B( 19-C , 37-H ) :   0.9470

Dispersion correction           -0.054112617
FINAL SINGLE POINT ENERGY     -1979.016420567250

DIPOLE MOMENT
-------------

Method             : SCF
Type of density    : Electron Density
Multiplicity       :   1
Irrep              :   0
Energy             : -1979.1459629509522529 Eh
Relativity type    :
Basis              : AO
                                X                 Y                 Z
Electronic contribution:    -14.274909043       4.475477229      -3.384934156
Nuclear contribution   :     15.149574200      -4.705593162       3.443073768
                        -----------------------------------------
Total Dipole Moment    :      0.874665157      -0.230115933       0.058139612
                        -----------------------------------------
Magnitude (a.u.)       :      0.906296140
Magnitude (Debye)      :      2.303621717

Rotational constants in cm-1:             0.013840             0.007636             0.006597
Rotational constants in MHz :           414.909258           228.930949           197.786720

                             ****ORCA TERMINATED NORMALLY****
TOTAL RUN TIME: 0 days 0 hours 0 minutes 49 seconds 853 msec
