                         Program Version 6.0.1  -  RELEASE   -
|  1> ! pbe def2-sv(p) def2/J RI DEFGRID1 loosescf d4 GCP(DFT/SV(P)) printgap
|  2> %output
|  3>     printlevel normal
|  4> end
|  5> * xyz 0 1
|  6> C 5.3784803625 -0.3629831915 -0.3924472891
|  7> C 4.8392607437 -1.2170530339 -1.5284196895
|  8> O 3.5254186943 -1.7179129701 -1.2120354988
|  9> C 2.480519735 -0.9759599277 -1.5164135457
| 10> O 2.5323471692 0.0986218926 -2.0716467688
| 11> C 1.1861496113 -1.6614745949 -1.1142152956
| 12> C 0.2126622382 -0.6248903652 -0.573027039
| 13> H 0.1616596736 0.2266056041 -1.2662270648
| 14> C 0.6161808019 -0.0607679733 0.7738683616
| 15> O -0.2052251862 0.2431822451 1.6161455498
| 16> O 1.9097474826 0.0610176949 0.9042537709
| 17> C 2.4167682997 0.7041536081 2.0953300664
| 18> C 2.4321019456 2.2131084239 1.9200981955
| 19> S -1.4693739349 -1.3034210919 -0.4035476278
| 20> P -2.4572027487 0.4652880061 0.2486246138
| 21> S -1.6653088759 2.1832344504 -0.2580649187
| 22> O -3.8990397573 0.2401785741 -0.4315882087
| 23> C -4.079349446 0.3313047853 -1.8465577975
| 24> O -2.8884244583 0.3423820361 1.7619233724
| 25> C -3.5821050487 -0.8124775374 2.273791315
| 26> H 6.3825504364 -0.0318465456 -0.6360355304
| 27> H 4.742419581 0.5078088007 -0.2519054508
| 28> H 5.4037095452 -0.9391585748 0.5282134569
| 29> H 5.4448351528 -2.1109422661 -1.6783894287
| 30> H 4.7778023651 -0.6366029284 -2.4532370554
| 31> H 1.3968297889 -2.4393310991 -0.3822188254
| 32> H 0.7532433906 -2.1210422124 -2.0050457278
| 33> H 1.7855937338 0.4166440398 2.9403303377
| 34> H 3.4232617691 0.3026116784 2.2112533605
| 35> H 1.4178519745 2.5866189102 1.7881392846
| 36> H 2.8664605409 2.6742933159 2.8006324686
| 37> H 3.0159221298 2.4854891972 1.0446292641
| 38> H -5.1541214582 0.3695534699 -2.0039889097
| 39> H -3.6498687523 -0.5449490428 -2.3322451892
| 40> H -3.6064336563 1.2384953146 -2.2269585391
| 41> H -3.6437779117 -0.6499199924 3.3466532915
| 42> H -3.0143352182 -1.7166706115 2.0533293285
| 43> H -4.5740439755 -0.8745984911 1.8298120933
| 44> *
| 45>
| 46>                          ****END OF INPUT****

CARTESIAN COORDINATES (ANGSTROEM)
---------------------------------
  C      5.378480   -0.362983   -0.392447
  C      4.839261   -1.217053   -1.528420
  O      3.525419   -1.717913   -1.212035
  C      2.480520   -0.975960   -1.516414
  O      2.532347    0.098622   -2.071647
  C      1.186150   -1.661475   -1.114215
  C      0.212662   -0.624890   -0.573027
  H      0.161660    0.226606   -1.266227
  C      0.616181   -0.060768    0.773868
  O     -0.205225    0.243182    1.616146
  O      1.909747    0.061018    0.904254
  C      2.416768    0.704154    2.095330
  C      2.432102    2.213108    1.920098
  S     -1.469374   -1.303421   -0.403548
  P     -2.457203    0.465288    0.248625
  S     -1.665309    2.183234   -0.258065
  O     -3.899040    0.240179   -0.431588
  C     -4.079349    0.331305   -1.846558
  O     -2.888424    0.342382    1.761923
  C     -3.582105   -0.812478    2.273791
  H      6.382550   -0.031847   -0.636036
  H      4.742420    0.507809   -0.251905
  H      5.403710   -0.939159    0.528213
  H      5.444835   -2.110942   -1.678389
  H      4.777802   -0.636603   -2.453237
  H      1.396830   -2.439331   -0.382219
  H      0.753243   -2.121042   -2.005046
  H      1.785594    0.416644    2.940330
  H      3.423262    0.302612    2.211253
  H      1.417852    2.586619    1.788139
  H      2.866461    2.674293    2.800632
  H      3.015922    2.485489    1.044629
  H     -5.154121    0.369553   -2.003989
  H     -3.649869   -0.544949   -2.332245
  H     -3.606434    1.238495   -2.226959
  H     -3.643778   -0.649920    3.346653
  H     -3.014335   -1.716671    2.053329
  H     -4.574044   -0.874598    1.829812

 Total Charge           Charge          ....    0
 Multiplicity           Mult            ....    1
 Number of Electrons    NEL             ....  174
 Basis Dimension        Dim             ....  316

ORBITAL ENERGIES
----------------

  NO   OCC          E(Eh)            E(eV)
   0   2.0000     -88.036415     -2395.5926
   1   2.0000     -87.971462     -2393.8252
   2   2.0000     -76.417346     -2079.4217
   3   2.0000     -18.819918      -512.1160
   4   2.0000     -18.806865      -511.7608
   5   2.0000     -18.780783      -511.0511
   6   2.0000     -18.778787      -510.9968
   7   2.0000     -18.746583      -510.1204
   8   2.0000     -18.743007      -510.0232
   9   2.0000     -10.020404      -272.6691
  10   2.0000     -10.015930      -272.5473
  11   2.0000      -9.955909      -270.9141
  12   2.0000      -9.953385      -270.8454
  13   2.0000      -9.944906      -270.6147
  14   2.0000      -9.941915      -270.5333
  15   2.0000      -9.934142      -270.3218
  16   2.0000      -9.917622      -269.8722
  17   2.0000      -9.894138      -269.2332
  18   2.0000      -9.887073      -269.0409
  19   2.0000      -7.681237      -209.0171
  20   2.0000      -7.616676      -207.2603
  21   2.0000      -6.413532      -174.5211
  22   2.0000      -5.708946      -155.3483
  23   2.0000      -5.705875      -155.2648
  24   2.0000      -5.698314      -155.0590
  25   2.0000      -5.645920      -153.6333
  26   2.0000      -5.637306      -153.3989
  27   2.0000      -5.636457      -153.3758
  28   2.0000      -4.636306      -126.1603
  29   2.0000      -4.635590      -126.1408
  30   2.0000      -4.633820      -126.0926
  31   2.0000      -1.027648       -27.9637
  32   2.0000      -1.014754       -27.6129
  33   2.0000      -0.975380       -26.5414
  34   2.0000      -0.930780       -25.3278
  35   2.0000      -0.927072       -25.2269
  36   2.0000      -0.920405       -25.0455
  37   2.0000      -0.766039       -20.8450
  38   2.0000      -0.715596       -19.4724
  39   2.0000      -0.710423       -19.3316
  40   2.0000      -0.688940       -18.7470
  41   2.0000      -0.659075       -17.9344
  42   2.0000      -0.626926       -17.0595
  43   2.0000      -0.623022       -16.9533
  44   2.0000      -0.611257       -16.6331
  45   2.0000      -0.599805       -16.3215
  46   2.0000      -0.566818       -15.4239
  47   2.0000      -0.511467       -13.9177
  48   2.0000      -0.504411       -13.7257
  49   2.0000      -0.502761       -13.6808
  50   2.0000      -0.475603       -12.9418
  51   2.0000      -0.474289       -12.9061
  52   2.0000      -0.464192       -12.6313
  53   2.0000      -0.446463       -12.1489
  54   2.0000      -0.437338       -11.9006
  55   2.0000      -0.429810       -11.6957
  56   2.0000      -0.425413       -11.5761
  57   2.0000      -0.419282       -11.4092
  58   2.0000      -0.417896       -11.3715
  59   2.0000      -0.405772       -11.0416
  60   2.0000      -0.401500       -10.9254
  61   2.0000      -0.400436       -10.8964
  62   2.0000      -0.392686       -10.6855
  63   2.0000      -0.389836       -10.6080
  64   2.0000      -0.377901       -10.2832
  65   2.0000      -0.366630        -9.9765
  66   2.0000      -0.362665        -9.8686
  67   2.0000      -0.354594        -9.6490
  68   2.0000      -0.349907        -9.5215
  69   2.0000      -0.342694        -9.3252
  70   2.0000      -0.335001        -9.1159
  71   2.0000      -0.330719        -8.9993
  72   2.0000      -0.326522        -8.8851
  73   2.0000      -0.314231        -8.5507
  74   2.0000      -0.302865        -8.2414
  75   2.0000      -0.299107        -8.1391
  76   2.0000      -0.291426        -7.9301
  77   2.0000      -0.287405        -7.8207
  78   2.0000      -0.273839        -7.4515
  79   2.0000      -0.264226        -7.1900
  80   2.0000      -0.261404        -7.1132
  81   2.0000      -0.250554        -6.8179
  82   2.0000      -0.235775        -6.4158
  83   2.0000      -0.229064        -6.2332
  84   2.0000      -0.218989        -5.9590
  85   2.0000      -0.192783        -5.2459
  86   2.0000      -0.185279        -5.0417
  87   0.0000      -0.043539        -1.1847
  88   0.0000      -0.029453        -0.8014
  89   0.0000      -0.020305        -0.5525
  90   0.0000       0.012529         0.3409
  91   0.0000       0.028687         0.7806

MULLIKEN ATOMIC CHARGES
-----------------------
   0 C :   -0.320904
   1 C :   -0.014691
   2 O :   -0.229667
   3 C :    0.117848
   4 O :   -0.202071
   5 C :   -0.063876
   6 C :   -0.337390
   7 H :    0.175622
   8 C :    0.227726
   9 O :   -0.182389
  10 O :   -0.223114
  11 C :   -0.012821
  12 C :   -0.316775
  13 S :   -0.107563
  14 P :    0.626136
  15 S :   -0.324694
  16 O :   -0.397217
  17 C :   -0.098171
  18 O :   -0.353441
  19 C :   -0.102189
  20 H :    0.115405
  21 H :    0.139476
  22 H :    0.117200
  23 H :    0.105012
  24 H :    0.111408
  25 H :    0.108377
  26 H :    0.127563
  27 H :    0.114770
  28 H :    0.105880
  29 H :    0.142758
  30 H :    0.114144
  31 H :    0.126359
  32 H :    0.120026
  33 H :    0.108360
  34 H :    0.115706
  35 H :    0.129774
  36 H :    0.115133
  37 H :    0.122289
Sum of atomic charges:    0.0000000

LOEWDIN ATOMIC CHARGES
----------------------
   0 C :   -0.356675
   1 C :   -0.109705
   2 O :   -0.056961
   3 C :    0.030616
   4 O :   -0.166437
   5 C :   -0.247721
   6 C :   -0.274972
   7 H :    0.151463
   8 C :    0.022823
   9 O :   -0.154277
  10 O :   -0.035073
  11 C :   -0.106835
  12 C :   -0.356088
  13 S :    0.087897
  14 P :    0.588221
  15 S :   -0.321309
  16 O :   -0.268299
  17 C :   -0.220075
  18 O :   -0.231468
  19 C :   -0.208137
  20 H :    0.131995
  21 H :    0.130738
  22 H :    0.123696
  23 H :    0.118659
  24 H :    0.121484
  25 H :    0.135465
  26 H :    0.149859
  27 H :    0.123559
  28 H :    0.117051
  29 H :    0.137827
  30 H :    0.131819
  31 H :    0.128034
  32 H :    0.119684
  33 H :    0.104663
  34 H :    0.109602
  35 H :    0.125580
  36 H :    0.108542
  37 H :    0.114755

  Mayer bond orders larger than 0.100000
B(  0-C ,  1-C ) :   1.1754 B(  0-C , 20-H ) :   0.9416 B(  0-C , 21-H ) :   0.9388
B(  0-C , 22-H ) :   0.9452 B(  1-C ,  2-O ) :   0.9157 B(  1-C , 23-H ) :   0.9373
B(  1-C , 24-H ) :   0.9124 B(  2-O ,  3-C ) :   1.2407 B(  3-C ,  4-O ) :   2.0392
B(  3-C ,  5-C ) :   1.0038 B(  5-C ,  6-C ) :   1.0491 B(  5-C , 25-H ) :   0.9074
B(  5-C , 26-H ) :   0.8777 B(  6-C ,  7-H ) :   0.8287 B(  6-C ,  8-C ) :   0.8979
B(  6-C , 13-S ) :   1.0323 B(  8-C ,  9-O ) :   2.0017 B(  8-C , 10-O ) :   1.2642
B( 10-O , 11-C ) :   0.8957 B( 11-C , 12-C ) :   1.1802 B( 11-C , 27-H ) :   0.9132
B( 11-C , 28-H ) :   0.9308 B( 12-C , 29-H ) :   0.9364 B( 12-C , 30-H ) :   0.9418
B( 12-C , 31-H ) :   0.9473 B( 13-S , 14-P ) :   0.9334 B( 13-S , 15-S ) :   0.1125
B( 14-P , 15-S ) :   1.6218 B( 14-P , 16-O ) :   1.0467 B( 14-P , 18-O ) :   1.1318
B( 16-O , 17-C ) :   0.9403 B( 17-C , 32-H ) :   0.9589 B( 17-C , 33-H ) :   0.9461
B( 17-C , 34-H ) :   0.9332 B( 18-O , 19-C ) :   0.9233 B( 19-C , 35-H ) :   0.9600
B( 19-C , 36-H ) :   0.9393 B( 19-C , 37-H ) :   0.9472

Dispersion correction           -0.051224618
FINAL SINGLE POINT ENERGY     -1979.016716345114

DIPOLE MOMENT
-------------

Method             : SCF
Type of density    : Electron Density
Multiplicity       :   1
Irrep              :   0
Energy             : -1979.1482918197834806 Eh
Relativity type    :
Basis              : AO
                                X                 Y                 Z
Electronic contribution:    -18.052823704       0.161416700      -2.565916486
Nuclear contribution   :     19.121707034      -1.631282671       2.907693114
                        -----------------------------------------
Total Dipole Moment    :      1.068883330      -1.469865972       0.341776628
                        -----------------------------------------
Magnitude (a.u.)       :      1.849277916
Magnitude (Debye)      :      4.700490908

Rotational constants in cm-1:             0.017581             0.005680             0.005148
Rotational constants in MHz :           527.074598           170.290169           154.318625

                             ****ORCA TERMINATED NORMALLY****
TOTAL RUN TIME: 0 days 0 hours 0 minutes 38 seconds 355 msec
