                         Program Version 6.0.0  -   RELEASE  -
|  1> ! r2scan-3c def2/J RI DEFGRID2 scfconv6 printgap
|  2> %output
|  3>     printlevel normal
|  4> end
|  5> * xyz 0 1
|  6> C 1.8643392944 -1.4294593035 -0.000262093
|  7> C 0.5602114999 -0.7010196098 0.0002544111
|  8> C -0.6475911294 -1.3882140785 0.0002070689
|  9> C -1.8350996588 -0.6770154234 -5.13747e-05
| 10> N -1.8880992278 0.6460879909 -0.0002235969
| 11> C -0.7370201903 1.301288564 -2.04864e-05
| 12> C 0.5142957059 0.6986277912 0.0002218446
| 13> C 1.7633326299 1.5195929942 3.69597e-05
| 14> H 2.4499226872 -1.1553859748 0.8757331317
| 15> H 1.7049664125 -2.5039925832 0.0044559248
| 16> H 2.444593225 -1.1626176878 -0.8820752805
| 17> H -0.6631278941 -2.4674767537 0.0004829767
| 18> H -2.7917583094 -1.1823230548 0.0001873553
| 19> H -0.8246834647 2.3808010303 -0.0003623696
| 20> H 1.5232318748 2.5791199692 0.0013001427
| 21> H 2.3652496125 1.2948160194 0.8790695869
| 22> H 2.3639984402 1.2965970011 -0.8802880017
| 23> *
| 24>
| 25>                          ****END OF INPUT****

CARTESIAN COORDINATES (ANGSTROEM)
---------------------------------
  C      1.864339   -1.429459   -0.000262
  C      0.560211   -0.701020    0.000254
  C     -0.647591   -1.388214    0.000207
  C     -1.835100   -0.677015   -0.000051
  N     -1.888099    0.646088   -0.000224
  C     -0.737020    1.301289   -0.000020
  C      0.514296    0.698628    0.000222
  C      1.763333    1.519593    0.000037
  H      2.449923   -1.155386    0.875733
  H      1.704966   -2.503993    0.004456
  H      2.444593   -1.162618   -0.882075
  H     -0.663128   -2.467477    0.000483
  H     -2.791758   -1.182323    0.000187
  H     -0.824683    2.380801   -0.000362
  H      1.523232    2.579120    0.001300
  H      2.365250    1.294816    0.879070
  H      2.363998    1.296597   -0.880288

 Total Charge           Charge          ....    0
 Multiplicity           Mult            ....    1
 Number of Electrons    NEL             ....   58
 Basis Dimension        Dim             ....  202

ORBITAL ENERGIES
----------------

  NO   OCC          E(Eh)            E(eV)
   0   2.0000     -14.145305      -384.9133
   1   2.0000     -10.058195      -273.6974
   2   2.0000     -10.058061      -273.6938
   3   2.0000     -10.057937      -273.6904
   4   2.0000     -10.047753      -273.4133
   5   2.0000     -10.038865      -273.1714
   6   2.0000     -10.036884      -273.1175
   7   2.0000     -10.036094      -273.0960
   8   2.0000      -0.907880       -24.7047
   9   2.0000      -0.799101       -21.7446
  10   2.0000      -0.746126       -20.3031
  11   2.0000      -0.690241       -18.7824
  12   2.0000      -0.663612       -18.0578
  13   2.0000      -0.586297       -15.9540
  14   2.0000      -0.561122       -15.2689
  15   2.0000      -0.470097       -12.7920
  16   2.0000      -0.468834       -12.7576
  17   2.0000      -0.423899       -11.5349
  18   2.0000      -0.420709       -11.4481
  19   2.0000      -0.384457       -10.4616
  20   2.0000      -0.383589       -10.4380
  21   2.0000      -0.373211       -10.1556
  22   2.0000      -0.369400       -10.0519
  23   2.0000      -0.356976        -9.7138
  24   2.0000      -0.351685        -9.5698
  25   2.0000      -0.318931        -8.6786
  26   2.0000      -0.253024        -6.8851
  27   2.0000      -0.234651        -6.3852
  28   2.0000      -0.217223        -5.9109
  29   0.0000      -0.045643        -1.2420
  30   0.0000      -0.032660        -0.8887
  31   0.0000       0.078423         2.1340
  32   0.0000       0.093413         2.5419
  33   0.0000       0.104214         2.8358

MULLIKEN ATOMIC CHARGES
-----------------------
   0 C :   -0.550991
   1 C :    0.127704
   2 C :   -0.130358
   3 C :   -0.124234
   4 N :   -0.169665
   5 C :   -0.185617
   6 C :    0.223678
   7 C :   -0.565712
   8 H :    0.165503
   9 H :    0.154148
  10 H :    0.166176
  11 H :    0.147342
  12 H :    0.131180
  13 H :    0.132054
  14 H :    0.154248
  15 H :    0.162285
  16 H :    0.162258
Sum of atomic charges:   -0.0000000

LOEWDIN ATOMIC CHARGES
----------------------
   0 C :   -0.383743
   1 C :   -0.062289
   2 C :   -0.147371
   3 C :    0.074422
   4 N :   -0.619278
   5 C :    0.077950
   6 C :   -0.080758
   7 C :   -0.384745
   8 H :    0.167512
   9 H :    0.161891
  10 H :    0.167641
  11 H :    0.169528
  12 H :    0.183168
  13 H :    0.184256
  14 H :    0.163112
  15 H :    0.164327
  16 H :    0.164377

  Mayer bond orders larger than 0.100000
B(  0-C ,  1-C ) :   0.8101 B(  0-C ,  8-H ) :   0.9771 B(  0-C ,  9-H ) :   0.9857
B(  0-C , 10-H ) :   0.9773 B(  1-C ,  2-C ) :   1.3841 B(  1-C ,  6-C ) :   1.3706
B(  2-C ,  3-C ) :   1.3761 B(  2-C , 11-H ) :   0.9287 B(  3-C ,  4-N ) :   1.4706
B(  3-C , 12-H ) :   0.9865 B(  4-N ,  5-C ) :   1.5051 B(  5-C ,  6-C ) :   1.3070
B(  5-C , 13-H ) :   0.9935 B(  6-C ,  7-C ) :   0.8051 B(  7-C , 14-H ) :   0.9787
B(  7-C , 15-H ) :   0.9800 B(  7-C , 16-H ) :   0.9796

Dispersion correction           -0.005415123
FINAL SINGLE POINT ENERGY      -326.821847258364

DIPOLE MOMENT
-------------

Method             : SCF
Type of density    : Electron Density
Multiplicity       :   1
Irrep              :   0
Energy             :  -326.8247503514094205 Eh
Relativity type    :
Basis              : AO
                                X                 Y                 Z
Electronic contribution:     -6.940065428       0.450809308       0.001025857
Nuclear contribution   :      8.031996516      -0.860006015      -0.001405227
                        -----------------------------------------
Total Dipole Moment    :      1.091931088      -0.409196707      -0.000379370
                        -----------------------------------------
Magnitude (a.u.)       :      1.166085584
Magnitude (Debye)      :      2.963954005

Rotational constants in cm-1:             0.109199             0.073710             0.044734
Rotational constants in MHz :          3273.693935          2209.780021          1341.089866

                             ****ORCA TERMINATED NORMALLY****
TOTAL RUN TIME: 0 days 0 hours 0 minutes 20 seconds 120 msec
