                         Program Version 6.0.0  -   RELEASE  -
|  1> ! r2scan-3c def2/J RI DEFGRID2 scfconv6 printgap
|  2> %output
|  3>     printlevel normal
|  4> end
|  5> %cpcm
|  6>     smd true
|  7>     smdsolvent "water"
|  8> end
|  9> * xyz 0 1
| 10> C 1.8643392944 -1.4294593035 -0.000262093
| 11> C 0.5602114999 -0.7010196098 0.0002544111
| 12> C -0.6475911294 -1.3882140785 0.0002070689
| 13> C -1.8350996588 -0.6770154234 -5.13747e-05
| 14> N -1.8880992278 0.6460879909 -0.0002235969
| 15> C -0.7370201903 1.301288564 -2.04864e-05
| 16> C 0.5142957059 0.6986277912 0.0002218446
| 17> C 1.7633326299 1.5195929942 3.69597e-05
| 18> H 2.4499226872 -1.1553859748 0.8757331317
| 19> H 1.7049664125 -2.5039925832 0.0044559248
| 20> H 2.444593225 -1.1626176878 -0.8820752805
| 21> H -0.6631278941 -2.4674767537 0.0004829767
| 22> H -2.7917583094 -1.1823230548 0.0001873553
| 23> H -0.8246834647 2.3808010303 -0.0003623696
| 24> H 1.5232318748 2.5791199692 0.0013001427
| 25> H 2.3652496125 1.2948160194 0.8790695869
| 26> H 2.3639984402 1.2965970011 -0.8802880017
| 27> *
| 28>
| 29>                          ****END OF INPUT****

CARTESIAN COORDINATES (ANGSTROEM)
---------------------------------
  C      1.864339   -1.429459   -0.000262
  C      0.560211   -0.701020    0.000254
  C     -0.647591   -1.388214    0.000207
  C     -1.835100   -0.677015   -0.000051
  N     -1.888099    0.646088   -0.000224
  C     -0.737020    1.301289   -0.000020
  C      0.514296    0.698628    0.000222
  C      1.763333    1.519593    0.000037
  H      2.449923   -1.155386    0.875733
  H      1.704966   -2.503993    0.004456
  H      2.444593   -1.162618   -0.882075
  H     -0.663128   -2.467477    0.000483
  H     -2.791758   -1.182323    0.000187
  H     -0.824683    2.380801   -0.000362
  H      1.523232    2.579120    0.001300
  H      2.365250    1.294816    0.879070
  H      2.363998    1.296597   -0.880288

 Total Charge           Charge          ....    0
 Multiplicity           Mult            ....    1
 Number of Electrons    NEL             ....   58
 Basis Dimension        Dim             ....  202

ORBITAL ENERGIES
----------------

  NO   OCC          E(Eh)            E(eV)
   0   2.0000     -14.152230      -385.1018
   1   2.0000     -10.057952      -273.6908
   2   2.0000     -10.056901      -273.6622
   3   2.0000     -10.053238      -273.5625
   4   2.0000     -10.044005      -273.3113
   5   2.0000     -10.032648      -273.0022
   6   2.0000     -10.021497      -272.6988
   7   2.0000     -10.020718      -272.6776
   8   2.0000      -0.912059       -24.8184
   9   2.0000      -0.793614       -21.5953
  10   2.0000      -0.741292       -20.1716
  11   2.0000      -0.680298       -18.5119
  12   2.0000      -0.656053       -17.8521
  13   2.0000      -0.581987       -15.8367
  14   2.0000      -0.555829       -15.1249
  15   2.0000      -0.465944       -12.6790
  16   2.0000      -0.464600       -12.6424
  17   2.0000      -0.416064       -11.3217
  18   2.0000      -0.409410       -11.1406
  19   2.0000      -0.378566       -10.3013
  20   2.0000      -0.367757       -10.0072
  21   2.0000      -0.360579        -9.8119
  22   2.0000      -0.357775        -9.7356
  23   2.0000      -0.355500        -9.6737
  24   2.0000      -0.342831        -9.3289
  25   2.0000      -0.311620        -8.4796
  26   2.0000      -0.252488        -6.8706
  27   2.0000      -0.233619        -6.3571
  28   2.0000      -0.226687        -6.1685
  29   0.0000      -0.046088        -1.2541
  30   0.0000      -0.032364        -0.8807
  31   0.0000       0.087653         2.3852
  32   0.0000       0.106442         2.8964
  33   0.0000       0.110361         3.0031

MULLIKEN ATOMIC CHARGES
-----------------------
   0 C :   -0.584807
   1 C :    0.134560
   2 C :   -0.166060
   3 C :   -0.143593
   4 N :   -0.233805
   5 C :   -0.196534
   6 C :    0.204861
   7 C :   -0.602547
   8 H :    0.187574
   9 H :    0.173692
  10 H :    0.188149
  11 H :    0.183062
  12 H :    0.156807
  13 H :    0.158785
  14 H :    0.171622
  15 H :    0.184167
  16 H :    0.184066
Sum of atomic charges:   -0.0000000

LOEWDIN ATOMIC CHARGES
----------------------
   0 C :   -0.386988
   1 C :   -0.055343
   2 C :   -0.148249
   3 C :    0.060855
   4 N :   -0.676375
   5 C :    0.067369
   6 C :   -0.076334
   7 C :   -0.388242
   8 H :    0.176552
   9 H :    0.168073
  10 H :    0.176673
  11 H :    0.183040
  12 H :    0.191282
  13 H :    0.193370
  14 H :    0.168089
  15 H :    0.173104
  16 H :    0.173124

  Mayer bond orders larger than 0.100000
B(  0-C ,  1-C ) :   0.8225 B(  0-C ,  8-H ) :   0.9679 B(  0-C ,  9-H ) :   0.9796
B(  0-C , 10-H ) :   0.9680 B(  1-C ,  2-C ) :   1.3713 B(  1-C ,  6-C ) :   1.3327
B(  2-C ,  3-C ) :   1.3820 B(  2-C , 11-H ) :   0.9351 B(  3-C ,  4-N ) :   1.4613
B(  3-C , 12-H ) :   0.9751 B(  4-N ,  5-C ) :   1.4936 B(  5-C ,  6-C ) :   1.3334
B(  5-C , 13-H ) :   0.9781 B(  6-C ,  7-C ) :   0.8175 B(  7-C , 14-H ) :   0.9746
B(  7-C , 15-H ) :   0.9712 B(  7-C , 16-H ) :   0.9708

Dispersion correction           -0.005415123
FINAL SINGLE POINT ENERGY      -326.829365606789

DIPOLE MOMENT
-------------

Method             : SCF
Type of density    : Electron Density
Multiplicity       :   1
Irrep              :   0
Energy             :  -326.8322686998346853 Eh
Relativity type    :
Basis              : AO
                                X                 Y                 Z
Electronic contribution:     -6.430895581       0.263503329       0.000974941
Nuclear contribution   :      8.031996516      -0.860006015      -0.001405227
                        -----------------------------------------
Total Dipole Moment    :      1.601100935      -0.596502686      -0.000430286
                        -----------------------------------------
Magnitude (a.u.)       :      1.708607574
Magnitude (Debye)      :      4.342935315

Rotational constants in cm-1:             0.109199             0.073710             0.044734
Rotational constants in MHz :          3273.693935          2209.780021          1341.089866

                             ****ORCA TERMINATED NORMALLY****
TOTAL RUN TIME: 0 days 0 hours 0 minutes 26 seconds 639 msec
