                         Program Version 6.0.0  -   RELEASE  -
|  1> ! pbe def2-sv(p) def2/J RI DEFGRID1 loosescf d4 GCP(DFT/SV(P)) printgap
|  2> %output
|  3>     printlevel normal
|  4> end
|  5> * xyz 0 1
|  6> C 3.2516503483 -1.8461946821 -2.7127141043
|  7> C 1.9360709265 -1.3048026357 -2.1931986799
|  8> O 2.1417653381 -0.0838045006 -1.4376676497
|  9> P 2.2554693433 -0.0391771284 0.1272139306
| 10> S 2.5632331985 1.7509539939 0.8473720182
| 11> O 3.4399149993 -1.0699690811 0.3952228779
| 12> C 3.9332151762 -1.3047855369 1.7291338986
| 13> C 5.261078877 -2.0256346847 1.6145652998
| 14> S 0.5810439996 -1.095516298 0.9300331684
| 15> C -0.2010203556 0.2320723855 1.906262078
| 16> S -1.9952765002 0.2354165677 1.7604892665
| 17> P -2.2123101269 0.8743825827 -0.2641647394
| 18> S -0.6036747396 1.5989605312 -1.1250163247
| 19> O -3.3823131038 1.9190744772 -0.2553502108
| 20> C -4.5560261425 1.8973505007 0.5985898914
| 21> C -5.3070459631 0.5861630554 0.5344277074
| 22> O -2.8564757355 -0.362721142 -1.029154033
| 23> C -2.0790031581 -1.4985194847 -1.4473880223
| 24> C -2.8893060438 -2.2646659335 -2.4730145597
| 25> H 3.7542924529 -1.0895969546 -3.3088937436
| 26> H 3.8969424905 -2.12578365 -1.8846302189
| 27> H 3.0555326518 -2.7181728106 -3.3287118496
| 28> H 1.4296716254 -2.0351868763 -1.5549489847
| 29> H 1.2770569858 -1.0051000687 -3.0109242888
| 30> H 4.0417982288 -0.3390274316 2.2339100842
| 31> H 3.1950727812 -1.9096594783 2.2634684603
| 32> H 5.1288980534 -2.9705388517 1.0956736713
| 33> H 5.9699809006 -1.4148455333 1.0626324449
| 34> H 5.6499118564 -2.2136578673 2.6098243003
| 35> H 0.2117526771 1.187216448 1.5719161693
| 36> H 0.0097714641 0.0595093043 2.9588424218
| 37> H -4.2340182726 2.1133060983 1.6201656382
| 38> H -5.1526753243 2.7258247631 0.2139862678
| 39> H -4.7020183026 -0.2138364973 0.9566170285
| 40> H -6.2230627402 0.6762352448 1.1101286782
| 41> H -5.5506264965 0.3420710483 -0.4960259579
| 42> H -1.1350247819 -1.1368628869 -1.8697988846
| 43> H -1.8613810274 -2.1122631372 -0.5678876169
| 44> H -3.1019474667 -1.6303384113 -3.328872085
| 45> H -2.3234567353 -3.1309998211 -2.7989744734
| 46> H -3.8274139681 -2.5911101109 -2.0345380755
| 47> *
| 48>
| 49>                          ****END OF INPUT****

CARTESIAN COORDINATES (ANGSTROEM)
---------------------------------
  C      3.251650   -1.846195   -2.712714
  C      1.936071   -1.304803   -2.193199
  O      2.141765   -0.083805   -1.437668
  P      2.255469   -0.039177    0.127214
  S      2.563233    1.750954    0.847372
  O      3.439915   -1.069969    0.395223
  C      3.933215   -1.304786    1.729134
  C      5.261079   -2.025635    1.614565
  S      0.581044   -1.095516    0.930033
  C     -0.201020    0.232072    1.906262
  S     -1.995277    0.235417    1.760489
  P     -2.212310    0.874383   -0.264165
  S     -0.603675    1.598961   -1.125016
  O     -3.382313    1.919074   -0.255350
  C     -4.556026    1.897351    0.598590
  C     -5.307046    0.586163    0.534428
  O     -2.856476   -0.362721   -1.029154
  C     -2.079003   -1.498519   -1.447388
  C     -2.889306   -2.264666   -2.473015
  H      3.754292   -1.089597   -3.308894
  H      3.896942   -2.125784   -1.884630
  H      3.055533   -2.718173   -3.328712
  H      1.429672   -2.035187   -1.554949
  H      1.277057   -1.005100   -3.010924
  H      4.041798   -0.339027    2.233910
  H      3.195073   -1.909659    2.263468
  H      5.128898   -2.970539    1.095674
  H      5.969981   -1.414846    1.062632
  H      5.649912   -2.213658    2.609824
  H      0.211753    1.187216    1.571916
  H      0.009771    0.059509    2.958842
  H     -4.234018    2.113306    1.620166
  H     -5.152675    2.725825    0.213986
  H     -4.702018   -0.213836    0.956617
  H     -6.223063    0.676235    1.110129
  H     -5.550626    0.342071   -0.496026
  H     -1.135025   -1.136863   -1.869799
  H     -1.861381   -2.112263   -0.567888
  H     -3.101947   -1.630338   -3.328872
  H     -2.323457   -3.131000   -2.798974
  H     -3.827414   -2.591110   -2.034538

 Total Charge           Charge          ....    0
 Multiplicity           Mult            ....    1
 Number of Electrons    NEL             ....  202
 Basis Dimension        Dim             ....  334

ORBITAL ENERGIES
----------------

  NO   OCC          E(Eh)            E(eV)
   0   2.0000     -88.045036     -2395.8272
   1   2.0000     -88.039517     -2395.6771
   2   2.0000     -87.980622     -2394.0744
   3   2.0000     -87.976565     -2393.9640
   4   2.0000     -76.422724     -2079.5681
   5   2.0000     -76.422027     -2079.5491
   6   2.0000     -18.791563      -511.3444
   7   2.0000     -18.789989      -511.3016
   8   2.0000     -18.789162      -511.2791
   9   2.0000     -18.786806      -511.2150
  10   2.0000      -9.959857      -271.0215
  11   2.0000      -9.958512      -270.9849
  12   2.0000      -9.952916      -270.8326
  13   2.0000      -9.950690      -270.7720
  14   2.0000      -9.949761      -270.7468
  15   2.0000      -9.891601      -269.1642
  16   2.0000      -9.888579      -269.0819
  17   2.0000      -9.888199      -269.0716
  18   2.0000      -9.886767      -269.0326
  19   2.0000      -7.690024      -209.2562
  20   2.0000      -7.684101      -209.0950
  21   2.0000      -7.625898      -207.5112
  22   2.0000      -7.621338      -207.3872
  23   2.0000      -6.420053      -174.6985
  24   2.0000      -6.419548      -174.6848
  25   2.0000      -5.717922      -155.5926
  26   2.0000      -5.714224      -155.4919
  27   2.0000      -5.711927      -155.4294
  28   2.0000      -5.708670      -155.3408
  29   2.0000      -5.707330      -155.3043
  30   2.0000      -5.701156      -155.1364
  31   2.0000      -5.654939      -153.8787
  32   2.0000      -5.650521      -153.7585
  33   2.0000      -5.646381      -153.6458
  34   2.0000      -5.646013      -153.6358
  35   2.0000      -5.641845      -153.5224
  36   2.0000      -5.641383      -153.5098
  37   2.0000      -4.642814      -126.3374
  38   2.0000      -4.642250      -126.3221
  39   2.0000      -4.641809      -126.3101
  40   2.0000      -4.641418      -126.2994
  41   2.0000      -4.640355      -126.2705
  42   2.0000      -4.639743      -126.2538
  43   2.0000      -0.986722       -26.8501
  44   2.0000      -0.985371       -26.8133
  45   2.0000      -0.943624       -25.6773
  46   2.0000      -0.942795       -25.6547
  47   2.0000      -0.760065       -20.6824
  48   2.0000      -0.721202       -19.6249
  49   2.0000      -0.713876       -19.4256
  50   2.0000      -0.693931       -18.8828
  51   2.0000      -0.692014       -18.8307
  52   2.0000      -0.674567       -18.3559
  53   2.0000      -0.645703       -17.5705
  54   2.0000      -0.632515       -17.2116
  55   2.0000      -0.594196       -16.1689
  56   2.0000      -0.588271       -16.0077
  57   2.0000      -0.572246       -15.5716
  58   2.0000      -0.567763       -15.4496
  59   2.0000      -0.564482       -15.3603
  60   2.0000      -0.509689       -13.8693
  61   2.0000      -0.499164       -13.5829
  62   2.0000      -0.482239       -13.1224
  63   2.0000      -0.477975       -13.0064
  64   2.0000      -0.452969       -12.3259
  65   2.0000      -0.446375       -12.1465
  66   2.0000      -0.440864       -11.9965
  67   2.0000      -0.435944       -11.8626
  68   2.0000      -0.432950       -11.7812
  69   2.0000      -0.424635       -11.5549
  70   2.0000      -0.409517       -11.1435
  71   2.0000      -0.398990       -10.8571
  72   2.0000      -0.390666       -10.6306
  73   2.0000      -0.385076       -10.4784
  74   2.0000      -0.381764       -10.3883
  75   2.0000      -0.363984        -9.9045
  76   2.0000      -0.363064        -9.8795
  77   2.0000      -0.358131        -9.7452
  78   2.0000      -0.355852        -9.6832
  79   2.0000      -0.354386        -9.6433
  80   2.0000      -0.351631        -9.5684
  81   2.0000      -0.348711        -9.4889
  82   2.0000      -0.344503        -9.3744
  83   2.0000      -0.340649        -9.2695
  84   2.0000      -0.337254        -9.1772
  85   2.0000      -0.316246        -8.6055
  86   2.0000      -0.312564        -8.5053
  87   2.0000      -0.298575        -8.1246
  88   2.0000      -0.296610        -8.0712
  89   2.0000      -0.290607        -7.9078
  90   2.0000      -0.288186        -7.8419
  91   2.0000      -0.276627        -7.5274
  92   2.0000      -0.274224        -7.4620
  93   2.0000      -0.260586        -7.0909
  94   2.0000      -0.253602        -6.9009
  95   2.0000      -0.236610        -6.4385
  96   2.0000      -0.220394        -5.9972
  97   2.0000      -0.208082        -5.6622
  98   2.0000      -0.197524        -5.3749
  99   2.0000      -0.189984        -5.1697
 100   2.0000      -0.184837        -5.0297
 101   0.0000      -0.042926        -1.1681
 102   0.0000      -0.032397        -0.8816
 103   0.0000      -0.009713        -0.2643
 104   0.0000       0.006228         0.1695
 105   0.0000       0.014655         0.3988

MULLIKEN ATOMIC CHARGES
-----------------------
   0 C :   -0.274004
   1 C :   -0.039934
   2 O :   -0.345024
   3 P :    0.611428
   4 S :   -0.292605
   5 O :   -0.384718
   6 C :   -0.007354
   7 C :   -0.282536
   8 S :   -0.141369
   9 C :   -0.318739
  10 S :   -0.140544
  11 P :    0.591251
  12 S :   -0.293088
  13 O :   -0.354087
  14 C :   -0.008324
  15 C :   -0.316695
  16 O :   -0.376549
  17 C :   -0.036603
  18 C :   -0.271903
  19 H :    0.122280
  20 H :    0.123736
  21 H :    0.106779
  22 H :    0.104583
  23 H :    0.125350
  24 H :    0.102759
  25 H :    0.096933
  26 H :    0.114578
  27 H :    0.122321
  28 H :    0.111835
  29 H :    0.210150
  30 H :    0.176469
  31 H :    0.116527
  32 H :    0.115319
  33 H :    0.126219
  34 H :    0.116323
  35 H :    0.127118
  36 H :    0.120239
  37 H :    0.102491
  38 H :    0.119070
  39 H :    0.106633
  40 H :    0.113689
Sum of atomic charges:   -0.0000000

LOEWDIN ATOMIC CHARGES
----------------------
   0 C :   -0.358977
   1 C :   -0.112541
   2 O :   -0.223993
   3 P :    0.570874
   4 S :   -0.290401
   5 O :   -0.253040
   6 C :   -0.123958
   7 C :   -0.350678
   8 S :    0.048088
   9 C :   -0.477452
  10 S :    0.059840
  11 P :    0.561327
  12 S :   -0.293207
  13 O :   -0.231780
  14 C :   -0.112419
  15 C :   -0.368035
  16 O :   -0.247534
  17 C :   -0.126092
  18 C :   -0.350455
  19 H :    0.130879
  20 H :    0.126567
  21 H :    0.128507
  22 H :    0.102910
  23 H :    0.122775
  24 H :    0.107830
  25 H :    0.104820
  26 H :    0.124631
  27 H :    0.129377
  28 H :    0.130731
  29 H :    0.126070
  30 H :    0.134406
  31 H :    0.112321
  32 H :    0.125180
  33 H :    0.118359
  34 H :    0.132789
  35 H :    0.130934
  36 H :    0.105820
  37 H :    0.103286
  38 H :    0.128457
  39 H :    0.128383
  40 H :    0.125401

  Mayer bond orders larger than 0.100000
B(  0-C ,  1-C ) :   1.1593 B(  0-C , 19-H ) :   0.9455 B(  0-C , 20-H ) :   0.9385
B(  0-C , 21-H ) :   0.9394 B(  1-C ,  2-O ) :   0.8947 B(  1-C , 22-H ) :   0.9135
B(  1-C , 23-H ) :   0.9272 B(  2-O ,  3-P ) :   1.1469 B(  3-P ,  4-S ) :   1.6532
B(  3-P ,  5-O ) :   1.0658 B(  3-P ,  8-S ) :   0.9362 B(  4-S ,  8-S ) :   0.1173
B(  5-O ,  6-C ) :   0.9099 B(  6-C ,  7-C ) :   1.1592 B(  6-C , 24-H ) :   0.9094
B(  6-C , 25-H ) :   0.9230 B(  7-C , 26-H ) :   0.9510 B(  7-C , 27-H ) :   0.9511
B(  7-C , 28-H ) :   0.9422 B(  8-S ,  9-C ) :   0.9856 B(  9-C , 10-S ) :   1.0107
B(  9-C , 29-H ) :   0.8471 B(  9-C , 30-H ) :   0.9094 B( 10-S , 11-P ) :   0.9219
B( 10-S , 12-S ) :   0.1103 B( 11-P , 12-S ) :   1.6633 B( 11-P , 13-O ) :   1.1563
B( 11-P , 16-O ) :   1.0779 B( 13-O , 14-C ) :   0.8993 B( 14-C , 15-C ) :   1.1682
B( 14-C , 31-H ) :   0.9235 B( 14-C , 32-H ) :   0.9342 B( 15-C , 33-H ) :   0.9372
B( 15-C , 34-H ) :   0.9343 B( 15-C , 35-H ) :   0.9418 B( 16-O , 17-C ) :   0.9091
B( 17-C , 18-C ) :   1.1555 B( 17-C , 36-H ) :   0.9045 B( 17-C , 37-H ) :   0.9223
B( 18-C , 38-H ) :   0.9500 B( 18-C , 39-H ) :   0.9425 B( 18-C , 40-H ) :   0.9509

Dispersion correction           -0.064402470
FINAL SINGLE POINT ENERGY     -2929.513285462067

DIPOLE MOMENT
-------------

Method             : SCF
Type of density    : Electron Density
Multiplicity       :   1
Irrep              :   0
Energy             : -2929.6333024816021862 Eh
Relativity type    :
Basis              : AO
                                X                 Y                 Z
Electronic contribution:     -0.201015649      19.032444485       6.387306143
Nuclear contribution   :     -0.524669505     -21.013853567      -6.067901356
                        -----------------------------------------
Total Dipole Moment    :     -0.725685154      -1.981409081       0.319404787
                        -----------------------------------------
Magnitude (a.u.)       :      2.134155643
Magnitude (Debye)      :      5.424592545

Rotational constants in cm-1:             0.013354             0.004710             0.004276
Rotational constants in MHz :           400.342837           141.193507           128.199641

                             ****ORCA TERMINATED NORMALLY****
TOTAL RUN TIME: 0 days 0 hours 0 minutes 20 seconds 859 msec
