                         Program Version 6.0.0  -   RELEASE  -
|  1> ! pbe def2-sv(p) def2/J RI DEFGRID1 loosescf d4 GCP(DFT/SV(P)) printgap
|  2> %output
|  3>     printlevel normal
|  4> end
|  5> * xyz 0 1
|  6> C 1.3779582317 -2.3291571872 1.2477498441
|  7> C 2.8572416438 -2.0174562219 1.3351118404
|  8> O 3.143802389 -0.6315430728 1.0844102633
|  9> P 2.8716531119 0.0797949135 -0.3143920432
| 10> S 3.1691331915 -1.0132686058 -1.9102628728
| 11> O 3.8715121921 1.2988481345 -0.256025243
| 12> C 4.2715961 2.0080017093 0.941645263
| 13> C 3.1008334289 2.6448288863 1.6590815501
| 14> S 0.927337441 0.9741974959 -0.16551912
| 15> C 0.1378407791 0.3127789579 -1.6483385178
| 16> S -0.9656976972 -1.0936655612 -1.3199617497
| 17> P -2.3184155124 -0.0400973146 -0.0874153583
| 18> S -2.7181900737 1.8074804685 -0.6245692998
| 19> O -1.6716426605 -0.2434527327 1.3397879245
| 20> C -1.9117855842 0.6784972908 2.4238815086
| 21> C -3.3399472743 0.5915704818 2.9181887552
| 22> O -3.574576633 -1.0071306057 -0.010965202
| 23> C -4.5268938805 -1.0982260181 -1.0893613788
| 24> C -5.7890601885 -1.7344741998 -0.5429501279
| 25> H 1.0392903838 -2.2436742834 0.2158486595
| 26> H 1.2030979669 -3.3461655015 1.5835570654
| 27> H 0.8008567238 -1.6441036623 1.8647591358
| 28> H 3.4165132609 -2.6224245641 0.6151540439
| 29> H 3.2451877861 -2.1821847693 2.3416477668
| 30> H 4.7939608329 1.3058095207 1.5942260082
| 31> H 4.9696194642 2.7570124875 0.564805815
| 32> H 3.469821071 3.2115385305 2.5082816132
| 33> H 2.5592734347 3.3103442311 0.9916197939
| 34> H 2.4163498699 1.8764627191 2.0149348101
| 35> H 0.9044625175 -0.0470494163 -2.3372367448
| 36> H -0.4475159623 1.1206537835 -2.0850248096
| 37> H -1.1974085444 0.3764001649 3.1904860418
| 38> H -1.6785167462 1.6901134729 2.0767299639
| 39> H -3.5826246859 -0.4332269052 3.1861824155
| 40> H -3.4636383733 1.2341162242 3.7842200436
| 41> H -4.0196720337 0.9203228526 2.1328202683
| 42> H -4.717925133 -0.0900451595 -1.4730053344
| 43> H -4.0856454412 -1.7051547922 -1.8847655672
| 44> H -6.2161200127 -1.1111579666 0.2374324145
| 45> H -6.5089913256 -1.8447499059 -1.3471888413
| 46> H -5.559441438 -2.711378557 -0.1278085448
| 47> *
| 48>
| 49>                          ****END OF INPUT****

CARTESIAN COORDINATES (ANGSTROEM)
---------------------------------
  C      1.377958   -2.329157    1.247750
  C      2.857242   -2.017456    1.335112
  O      3.143802   -0.631543    1.084410
  P      2.871653    0.079795   -0.314392
  S      3.169133   -1.013269   -1.910263
  O      3.871512    1.298848   -0.256025
  C      4.271596    2.008002    0.941645
  C      3.100833    2.644829    1.659082
  S      0.927337    0.974197   -0.165519
  C      0.137841    0.312779   -1.648339
  S     -0.965698   -1.093666   -1.319962
  P     -2.318416   -0.040097   -0.087415
  S     -2.718190    1.807480   -0.624569
  O     -1.671643   -0.243453    1.339788
  C     -1.911786    0.678497    2.423882
  C     -3.339947    0.591570    2.918189
  O     -3.574577   -1.007131   -0.010965
  C     -4.526894   -1.098226   -1.089361
  C     -5.789060   -1.734474   -0.542950
  H      1.039290   -2.243674    0.215849
  H      1.203098   -3.346166    1.583557
  H      0.800857   -1.644104    1.864759
  H      3.416513   -2.622425    0.615154
  H      3.245188   -2.182185    2.341648
  H      4.793961    1.305810    1.594226
  H      4.969619    2.757012    0.564806
  H      3.469821    3.211539    2.508282
  H      2.559273    3.310344    0.991620
  H      2.416350    1.876463    2.014935
  H      0.904463   -0.047049   -2.337237
  H     -0.447516    1.120654   -2.085025
  H     -1.197409    0.376400    3.190486
  H     -1.678517    1.690113    2.076730
  H     -3.582625   -0.433227    3.186182
  H     -3.463638    1.234116    3.784220
  H     -4.019672    0.920323    2.132820
  H     -4.717925   -0.090045   -1.473005
  H     -4.085645   -1.705155   -1.884766
  H     -6.216120   -1.111158    0.237432
  H     -6.508991   -1.844750   -1.347189
  H     -5.559441   -2.711379   -0.127809

 Total Charge           Charge          ....    0
 Multiplicity           Mult            ....    1
 Number of Electrons    NEL             ....  202
 Basis Dimension        Dim             ....  334

ORBITAL ENERGIES
----------------

  NO   OCC          E(Eh)            E(eV)
   0   2.0000     -88.041144     -2395.7213
   1   2.0000     -88.039264     -2395.6702
   2   2.0000     -87.990825     -2394.3521
   3   2.0000     -87.987293     -2394.2560
   4   2.0000     -76.427866     -2079.7080
   5   2.0000     -76.426835     -2079.6799
   6   2.0000     -18.795761      -511.4587
   7   2.0000     -18.794284      -511.4185
   8   2.0000     -18.793428      -511.3952
   9   2.0000     -18.790395      -511.3127
  10   2.0000      -9.958287      -270.9788
  11   2.0000      -9.955281      -270.8970
  12   2.0000      -9.953819      -270.8572
  13   2.0000      -9.952206      -270.8133
  14   2.0000      -9.948319      -270.7075
  15   2.0000      -9.891322      -269.1565
  16   2.0000      -9.890632      -269.1378
  17   2.0000      -9.885879      -269.0085
  18   2.0000      -9.876405      -268.7507
  19   2.0000      -7.686147      -209.1507
  20   2.0000      -7.683724      -209.0848
  21   2.0000      -7.635713      -207.7783
  22   2.0000      -7.632429      -207.6890
  23   2.0000      -6.425624      -174.8501
  24   2.0000      -6.424250      -174.8127
  25   2.0000      -5.713915      -155.4835
  26   2.0000      -5.711688      -155.4229
  27   2.0000      -5.710730      -155.3969
  28   2.0000      -5.708247      -155.3293
  29   2.0000      -5.703148      -155.1905
  30   2.0000      -5.700718      -155.1244
  31   2.0000      -5.664465      -154.1379
  32   2.0000      -5.661405      -154.0547
  33   2.0000      -5.656312      -153.9161
  34   2.0000      -5.656100      -153.9103
  35   2.0000      -5.652952      -153.8246
  36   2.0000      -5.652594      -153.8149
  37   2.0000      -4.648001      -126.4785
  38   2.0000      -4.647440      -126.4633
  39   2.0000      -4.647186      -126.4564
  40   2.0000      -4.646152      -126.4282
  41   2.0000      -4.645594      -126.4130
  42   2.0000      -4.644802      -126.3915
  43   2.0000      -0.990345       -26.9487
  44   2.0000      -0.988343       -26.8942
  45   2.0000      -0.949437       -25.8355
  46   2.0000      -0.944035       -25.6885
  47   2.0000      -0.760822       -20.7030
  48   2.0000      -0.723028       -19.6746
  49   2.0000      -0.711594       -19.3635
  50   2.0000      -0.691238       -18.8095
  51   2.0000      -0.689836       -18.7714
  52   2.0000      -0.675395       -18.3784
  53   2.0000      -0.651428       -17.7263
  54   2.0000      -0.637617       -17.3504
  55   2.0000      -0.602136       -16.3850
  56   2.0000      -0.595582       -16.2066
  57   2.0000      -0.580194       -15.7879
  58   2.0000      -0.567922       -15.4539
  59   2.0000      -0.557257       -15.1637
  60   2.0000      -0.505194       -13.7470
  61   2.0000      -0.495612       -13.4863
  62   2.0000      -0.480535       -13.0760
  63   2.0000      -0.469599       -12.7784
  64   2.0000      -0.457989       -12.4625
  65   2.0000      -0.450109       -12.2481
  66   2.0000      -0.444427       -12.0935
  67   2.0000      -0.436892       -11.8884
  68   2.0000      -0.428185       -11.6515
  69   2.0000      -0.421490       -11.4693
  70   2.0000      -0.408590       -11.1183
  71   2.0000      -0.401437       -10.9236
  72   2.0000      -0.397634       -10.8202
  73   2.0000      -0.384296       -10.4572
  74   2.0000      -0.377280       -10.2663
  75   2.0000      -0.374099       -10.1797
  76   2.0000      -0.369471       -10.0538
  77   2.0000      -0.360023        -9.7967
  78   2.0000      -0.357798        -9.7362
  79   2.0000      -0.350242        -9.5306
  80   2.0000      -0.349857        -9.5201
  81   2.0000      -0.346833        -9.4378
  82   2.0000      -0.342696        -9.3252
  83   2.0000      -0.339264        -9.2318
  84   2.0000      -0.336312        -9.1515
  85   2.0000      -0.321039        -8.7359
  86   2.0000      -0.308170        -8.3857
  87   2.0000      -0.301931        -8.2160
  88   2.0000      -0.297729        -8.1016
  89   2.0000      -0.295354        -8.0370
  90   2.0000      -0.288068        -7.8387
  91   2.0000      -0.277279        -7.5451
  92   2.0000      -0.273691        -7.4475
  93   2.0000      -0.264986        -7.2106
  94   2.0000      -0.256207        -6.9717
  95   2.0000      -0.229124        -6.2348
  96   2.0000      -0.218469        -5.9448
  97   2.0000      -0.214150        -5.8273
  98   2.0000      -0.205068        -5.5802
  99   2.0000      -0.204300        -5.5593
 100   2.0000      -0.200452        -5.4546
 101   0.0000      -0.044086        -1.1996
 102   0.0000      -0.027016        -0.7351
 103   0.0000      -0.009535        -0.2595
 104   0.0000       0.006267         0.1705
 105   0.0000       0.010749         0.2925

MULLIKEN ATOMIC CHARGES
-----------------------
   0 C :   -0.335694
   1 C :    0.005307
   2 O :   -0.389011
   3 P :    0.615970
   4 S :   -0.310917
   5 O :   -0.363257
   6 C :    0.009902
   7 C :   -0.335730
   8 S :   -0.102959
   9 C :   -0.353550
  10 S :   -0.083185
  11 P :    0.605606
  12 S :   -0.334617
  13 O :   -0.353619
  14 C :   -0.005110
  15 C :   -0.307023
  16 O :   -0.373704
  17 C :   -0.013147
  18 C :   -0.281226
  19 H :    0.138362
  20 H :    0.108479
  21 H :    0.124317
  22 H :    0.111365
  23 H :    0.100188
  24 H :    0.108881
  25 H :    0.112388
  26 H :    0.116889
  27 H :    0.133788
  28 H :    0.127619
  29 H :    0.192143
  30 H :    0.195877
  31 H :    0.104616
  32 H :    0.114220
  33 H :    0.117126
  34 H :    0.112421
  35 H :    0.123907
  36 H :    0.107214
  37 H :    0.105339
  38 H :    0.119039
  39 H :    0.113661
  40 H :    0.118124
Sum of atomic charges:    0.0000000

LOEWDIN ATOMIC CHARGES
----------------------
   0 C :   -0.375254
   1 C :   -0.115367
   2 O :   -0.250092
   3 P :    0.574549
   4 S :   -0.302821
   5 O :   -0.240876
   6 C :   -0.107574
   7 C :   -0.372431
   8 S :    0.081644
   9 C :   -0.486049
  10 S :    0.094139
  11 P :    0.567047
  12 S :   -0.322696
  13 O :   -0.233345
  14 C :   -0.117211
  15 C :   -0.365380
  16 O :   -0.246290
  17 C :   -0.119965
  18 C :   -0.350273
  19 H :    0.113707
  20 H :    0.130101
  21 H :    0.124198
  22 H :    0.112683
  23 H :    0.116322
  24 H :    0.114492
  25 H :    0.123709
  26 H :    0.133181
  27 H :    0.129969
  28 H :    0.117243
  29 H :    0.127030
  30 H :    0.130582
  31 H :    0.117206
  32 H :    0.110866
  33 H :    0.126563
  34 H :    0.130680
  35 H :    0.122176
  36 H :    0.108958
  37 H :    0.111287
  38 H :    0.127878
  39 H :    0.131696
  40 H :    0.127717

  Mayer bond orders larger than 0.100000
B(  0-C ,  1-C ) :   1.1607 B(  0-C , 19-H ) :   0.9226 B(  0-C , 20-H ) :   0.9362
B(  0-C , 21-H ) :   0.9400 B(  1-C ,  2-O ) :   0.9051 B(  1-C , 22-H ) :   0.9205
B(  1-C , 23-H ) :   0.9339 B(  2-O ,  3-P ) :   1.0706 B(  3-P ,  4-S ) :   1.6290
B(  3-P ,  5-O ) :   1.1378 B(  3-P ,  8-S ) :   0.9412 B(  4-S ,  8-S ) :   0.1143
B(  4-S , 29-H ) :   0.1082 B(  5-O ,  6-C ) :   0.9026 B(  6-C ,  7-C ) :   1.1702
B(  6-C , 24-H ) :   0.9278 B(  6-C , 25-H ) :   0.9336 B(  7-C , 26-H ) :   0.9354
B(  7-C , 27-H ) :   0.9404 B(  7-C , 28-H ) :   0.9329 B(  8-S ,  9-C ) :   1.0192
B(  9-C , 10-S ) :   0.9967 B(  9-C , 29-H ) :   0.8555 B(  9-C , 30-H ) :   0.8816
B( 10-S , 11-P ) :   0.9717 B( 10-S , 12-S ) :   0.1089 B( 11-P , 12-S ) :   1.5961
B( 11-P , 13-O ) :   1.1322 B( 11-P , 16-O ) :   1.1130 B( 13-O , 14-C ) :   0.9024
B( 14-C , 15-C ) :   1.1651 B( 14-C , 31-H ) :   0.9327 B( 14-C , 32-H ) :   0.9163
B( 15-C , 33-H ) :   0.9458 B( 15-C , 34-H ) :   0.9390 B( 15-C , 35-H ) :   0.9344
B( 16-O , 17-C ) :   0.9026 B( 17-C , 18-C ) :   1.1610 B( 17-C , 36-H ) :   0.9105
B( 17-C , 37-H ) :   0.9289 B( 18-C , 38-H ) :   0.9515 B( 18-C , 39-H ) :   0.9417
B( 18-C , 40-H ) :   0.9503

Dispersion correction           -0.064005653
FINAL SINGLE POINT ENERGY     -2929.521587546693

DIPOLE MOMENT
-------------

Method             : SCF
Type of density    : Electron Density
Multiplicity       :   1
Irrep              :   0
Energy             : -2929.6424871174244799 Eh
Relativity type    :
Basis              : AO
                                X                 Y                 Z
Electronic contribution:     11.868103614       1.941290250     -17.314209254
Nuclear contribution   :    -12.356442229      -2.107486649      18.940238254
                        -----------------------------------------
Total Dipole Moment    :     -0.488338614      -0.166196399       1.626029000
                        -----------------------------------------
Magnitude (a.u.)       :      1.705891601
Magnitude (Debye)      :      4.336031861

Rotational constants in cm-1:             0.013294             0.004453             0.004167
Rotational constants in MHz :           398.535489           133.490413           124.918643

                             ****ORCA TERMINATED NORMALLY****
TOTAL RUN TIME: 0 days 0 hours 0 minutes 21 seconds 49 msec
