                         Program Version 6.0.0  -   RELEASE  -
|  1> ! pbe def2-sv(p) def2/J RI DEFGRID1 loosescf d4 GCP(DFT/SV(P)) printgap
|  2> %output
|  3>     printlevel normal
|  4> end
|  5> * xyz 0 1
|  6> C 5.4294918081 -0.1897588037 -1.165014068
|  7> C 4.0322754168 0.2956967677 -1.4916848647
|  8> O 3.3223063051 0.6526174571 -0.2780614721
|  9> P 2.3166096818 -0.3090166139 0.4617888778
| 10> S 1.7886761856 0.4783393161 2.1743056682
| 11> O 3.0973330345 -1.691272282 0.4909644293
| 12> C 2.4865615592 -2.9712901794 0.7400454117
| 13> C 2.0242511265 -3.1202354796 2.1751234625
| 14> S 0.7709679018 -0.7189143261 -0.9649004413
| 15> C 0.2138013176 0.9845695843 -1.2232286495
| 16> S -0.7865622663 1.6615479887 0.133490346
| 17> P -2.5780721987 0.5501150864 -0.1992404624
| 18> S -2.7311560024 -0.3181678619 -1.9545714223
| 19> O -3.7551026672 1.5480161482 0.1448005954
| 20> C -4.3925728254 2.3444475771 -0.8684720775
| 21> C -3.4942338019 3.4626597164 -1.3591142955
| 22> O -2.7634588403 -0.3338848374 1.1019038604
| 23> C -1.8062988989 -1.2711786236 1.6187048283
| 24> C -1.8044088582 -2.5703671976 0.8362548969
| 25> H 5.3832373639 -1.0965504542 -0.5681996774
| 26> H 5.9604085754 -0.3936550878 -2.0896538565
| 27> H 5.965174904 0.5704798644 -0.6031547261
| 28> H 3.4627765601 -0.4674370031 -2.0287131452
| 29> H 4.0612182435 1.2176737183 -2.0755652393
| 30> H 1.6537682982 -3.1007516843 0.0428264177
| 31> H 3.2779055571 -3.6849928989 0.5033818718
| 32> H 1.2385174189 -2.4011156121 2.3978630149
| 33> H 1.6433183666 -4.1250139563 2.3274027932
| 34> H 2.8520186733 -2.9430031308 2.8569373046
| 35> H -0.3845172592 0.9559880172 -2.1339778942
| 36> H 1.0715709888 1.64483066 -1.3250161493
| 37> H -4.6820313771 1.6901091894 -1.6975943713
| 38> H -5.2844899551 2.7322366824 -0.3746025089
| 39> H -4.056822581 4.1108244048 -2.0232938641
| 40> H -3.121078974 4.0421642515 -0.5183227863
| 41> H -2.6473078338 3.0476545221 -1.9037932132
| 42> H -0.8136283346 -0.8052169474 1.628802509
| 43> H -2.1277934117 -1.4301216193 2.6500030022
| 44> H -1.4618047309 -2.4036268626 -0.1833679056
| 45> H -1.1427919715 -3.280205945 1.3224748366
| 46> H -2.8100940272 -2.9806839105 0.8013268472
| 47> *
| 48>
| 49>                          ****END OF INPUT****

CARTESIAN COORDINATES (ANGSTROEM)
---------------------------------
  C      5.429492   -0.189759   -1.165014
  C      4.032275    0.295697   -1.491685
  O      3.322306    0.652617   -0.278061
  P      2.316610   -0.309017    0.461789
  S      1.788676    0.478339    2.174306
  O      3.097333   -1.691272    0.490964
  C      2.486562   -2.971290    0.740045
  C      2.024251   -3.120235    2.175123
  S      0.770968   -0.718914   -0.964900
  C      0.213801    0.984570   -1.223229
  S     -0.786562    1.661548    0.133490
  P     -2.578072    0.550115   -0.199240
  S     -2.731156   -0.318168   -1.954571
  O     -3.755103    1.548016    0.144801
  C     -4.392573    2.344448   -0.868472
  C     -3.494234    3.462660   -1.359114
  O     -2.763459   -0.333885    1.101904
  C     -1.806299   -1.271179    1.618705
  C     -1.804409   -2.570367    0.836255
  H      5.383237   -1.096550   -0.568200
  H      5.960409   -0.393655   -2.089654
  H      5.965175    0.570480   -0.603155
  H      3.462777   -0.467437   -2.028713
  H      4.061218    1.217674   -2.075565
  H      1.653768   -3.100752    0.042826
  H      3.277906   -3.684993    0.503382
  H      1.238517   -2.401116    2.397863
  H      1.643318   -4.125014    2.327403
  H      2.852019   -2.943003    2.856937
  H     -0.384517    0.955988   -2.133978
  H      1.071571    1.644831   -1.325016
  H     -4.682031    1.690109   -1.697594
  H     -5.284490    2.732237   -0.374603
  H     -4.056823    4.110824   -2.023294
  H     -3.121079    4.042164   -0.518323
  H     -2.647308    3.047655   -1.903793
  H     -0.813628   -0.805217    1.628803
  H     -2.127793   -1.430122    2.650003
  H     -1.461805   -2.403627   -0.183368
  H     -1.142792   -3.280206    1.322475
  H     -2.810094   -2.980684    0.801327

 Total Charge           Charge          ....    0
 Multiplicity           Mult            ....    1
 Number of Electrons    NEL             ....  202
 Basis Dimension        Dim             ....  334

ORBITAL ENERGIES
----------------

  NO   OCC          E(Eh)            E(eV)
   0   2.0000     -88.047947     -2395.9065
   1   2.0000     -88.041068     -2395.7193
   2   2.0000     -87.988891     -2394.2995
   3   2.0000     -87.985851     -2394.2167
   4   2.0000     -76.431153     -2079.7974
   5   2.0000     -76.424501     -2079.6164
   6   2.0000     -18.802307      -511.6368
   7   2.0000     -18.799887      -511.5709
   8   2.0000     -18.786546      -511.2079
   9   2.0000     -18.784498      -511.1522
  10   2.0000      -9.967230      -271.2221
  11   2.0000      -9.962182      -271.0848
  12   2.0000      -9.960823      -271.0478
  13   2.0000      -9.948690      -270.7176
  14   2.0000      -9.943695      -270.5817
  15   2.0000      -9.891327      -269.1567
  16   2.0000      -9.890056      -269.1221
  17   2.0000      -9.881810      -268.8977
  18   2.0000      -9.875535      -268.7270
  19   2.0000      -7.692228      -209.3162
  20   2.0000      -7.685751      -209.1399
  21   2.0000      -7.633813      -207.7266
  22   2.0000      -7.630825      -207.6453
  23   2.0000      -6.428385      -174.9252
  24   2.0000      -6.421759      -174.7449
  25   2.0000      -5.719854      -155.6451
  26   2.0000      -5.716768      -155.5612
  27   2.0000      -5.713662      -155.4767
  28   2.0000      -5.710243      -155.3836
  29   2.0000      -5.709540      -155.3645
  30   2.0000      -5.702737      -155.1794
  31   2.0000      -5.662551      -154.0859
  32   2.0000      -5.659967      -154.0155
  33   2.0000      -5.654387      -153.8637
  34   2.0000      -5.654214      -153.8590
  35   2.0000      -5.651262      -153.7787
  36   2.0000      -5.650965      -153.7706
  37   2.0000      -4.651504      -126.5738
  38   2.0000      -4.650421      -126.5444
  39   2.0000      -4.648092      -126.4810
  40   2.0000      -4.644004      -126.3698
  41   2.0000      -4.643816      -126.3647
  42   2.0000      -4.642247      -126.3220
  43   2.0000      -0.996835       -27.1253
  44   2.0000      -0.984844       -26.7990
  45   2.0000      -0.954223       -25.9657
  46   2.0000      -0.939852       -25.5747
  47   2.0000      -0.764482       -20.8026
  48   2.0000      -0.724237       -19.7075
  49   2.0000      -0.711528       -19.3617
  50   2.0000      -0.698873       -19.0173
  51   2.0000      -0.679766       -18.4974
  52   2.0000      -0.674343       -18.3498
  53   2.0000      -0.653768       -17.7899
  54   2.0000      -0.641977       -17.4691
  55   2.0000      -0.597248       -16.2519
  56   2.0000      -0.593425       -16.1479
  57   2.0000      -0.582077       -15.8391
  58   2.0000      -0.570878       -15.5344
  59   2.0000      -0.562773       -15.3138
  60   2.0000      -0.513092       -13.9620
  61   2.0000      -0.491835       -13.3835
  62   2.0000      -0.485047       -13.1988
  63   2.0000      -0.467621       -12.7246
  64   2.0000      -0.461681       -12.5630
  65   2.0000      -0.451198       -12.2777
  66   2.0000      -0.440520       -11.9872
  67   2.0000      -0.436641       -11.8816
  68   2.0000      -0.421665       -11.4741
  69   2.0000      -0.416426       -11.3315
  70   2.0000      -0.414083       -11.2678
  71   2.0000      -0.403749       -10.9866
  72   2.0000      -0.400457       -10.8970
  73   2.0000      -0.394332       -10.7303
  74   2.0000      -0.380408       -10.3514
  75   2.0000      -0.374180       -10.1820
  76   2.0000      -0.364935        -9.9304
  77   2.0000      -0.362932        -9.8759
  78   2.0000      -0.358905        -9.7663
  79   2.0000      -0.352672        -9.5967
  80   2.0000      -0.347355        -9.4520
  81   2.0000      -0.345915        -9.4128
  82   2.0000      -0.342303        -9.3145
  83   2.0000      -0.337092        -9.1727
  84   2.0000      -0.332110        -9.0372
  85   2.0000      -0.326741        -8.8911
  86   2.0000      -0.311838        -8.4855
  87   2.0000      -0.304488        -8.2855
  88   2.0000      -0.298150        -8.1131
  89   2.0000      -0.293910        -7.9977
  90   2.0000      -0.285136        -7.7589
  91   2.0000      -0.284035        -7.7290
  92   2.0000      -0.267123        -7.2688
  93   2.0000      -0.265895        -7.2354
  94   2.0000      -0.257094        -6.9959
  95   2.0000      -0.247243        -6.7278
  96   2.0000      -0.215880        -5.8744
  97   2.0000      -0.209976        -5.7137
  98   2.0000      -0.205696        -5.5973
  99   2.0000      -0.201633        -5.4867
 100   2.0000      -0.191336        -5.2065
 101   0.0000      -0.045447        -1.2367
 102   0.0000      -0.030403        -0.8273
 103   0.0000      -0.017911        -0.4874
 104   0.0000       0.000251         0.0068
 105   0.0000       0.011820         0.3216

MULLIKEN ATOMIC CHARGES
-----------------------
   0 C :   -0.287925
   1 C :   -0.015583
   2 O :   -0.360192
   3 P :    0.587795
   4 S :   -0.284291
   5 O :   -0.378339
   6 C :   -0.027158
   7 C :   -0.313534
   8 S :   -0.113617
   9 C :   -0.338970
  10 S :   -0.071395
  11 P :    0.602728
  12 S :   -0.340885
  13 O :   -0.356354
  14 C :   -0.004443
  15 C :   -0.309783
  16 O :   -0.350556
  17 C :   -0.033318
  18 C :   -0.319627
  19 H :    0.123034
  20 H :    0.111118
  21 H :    0.122338
  22 H :    0.101170
  23 H :    0.109142
  24 H :    0.122662
  25 H :    0.111475
  26 H :    0.140431
  27 H :    0.114010
  28 H :    0.124539
  29 H :    0.194560
  30 H :    0.183112
  31 H :    0.113303
  32 H :    0.106981
  33 H :    0.110904
  34 H :    0.119547
  35 H :    0.117591
  36 H :    0.128025
  37 H :    0.104778
  38 H :    0.138841
  39 H :    0.103561
  40 H :    0.114323
Sum of atomic charges:   -0.0000000

LOEWDIN ATOMIC CHARGES
----------------------
   0 C :   -0.357849
   1 C :   -0.117095
   2 O :   -0.236709
   3 P :    0.558615
   4 S :   -0.295024
   5 O :   -0.244795
   6 C :   -0.114280
   7 C :   -0.367453
   8 S :    0.077529
   9 C :   -0.479889
  10 S :    0.095962
  11 P :    0.568932
  12 S :   -0.319116
  13 O :   -0.233764
  14 C :   -0.119595
  15 C :   -0.367404
  16 O :   -0.229082
  17 C :   -0.124049
  18 C :   -0.370609
  19 H :    0.127125
  20 H :    0.130281
  21 H :    0.129952
  22 H :    0.104861
  23 H :    0.119724
  24 H :    0.108008
  25 H :    0.121878
  26 H :    0.123449
  27 H :    0.130336
  28 H :    0.132013
  29 H :    0.129617
  30 H :    0.132902
  31 H :    0.109587
  32 H :    0.119730
  33 H :    0.129638
  34 H :    0.126007
  35 H :    0.117889
  36 H :    0.096804
  37 H :    0.119584
  38 H :    0.116309
  39 H :    0.123487
  40 H :    0.126493

  Mayer bond orders larger than 0.100000
B(  0-C ,  1-C ) :   1.1694 B(  0-C , 19-H ) :   0.9427 B(  0-C , 20-H ) :   0.9398
B(  0-C , 21-H ) :   0.9469 B(  1-C ,  2-O ) :   0.8891 B(  1-C , 22-H ) :   0.9107
B(  1-C , 23-H ) :   0.9339 B(  2-O ,  3-P ) :   1.1181 B(  3-P ,  4-S ) :   1.6873
B(  3-P ,  5-O ) :   1.0700 B(  3-P ,  8-S ) :   0.9423 B(  4-S ,  8-S ) :   0.1115
B(  5-O ,  6-C ) :   0.9139 B(  6-C ,  7-C ) :   1.1651 B(  6-C , 24-H ) :   0.9202
B(  6-C , 25-H ) :   0.9337 B(  7-C , 26-H ) :   0.9272 B(  7-C , 27-H ) :   0.9340
B(  7-C , 28-H ) :   0.9424 B(  8-S ,  9-C ) :   0.9942 B(  9-C , 10-S ) :   1.0162
B(  9-C , 29-H ) :   0.8761 B(  9-C , 30-H ) :   0.8957 B( 10-S , 11-P ) :   0.9438
B( 10-S , 12-S ) :   0.1204 B( 11-P , 12-S ) :   1.5880 B( 11-P , 13-O ) :   1.1299
B( 11-P , 16-O ) :   1.1407 B( 13-O , 14-C ) :   0.9146 B( 14-C , 15-C ) :   1.1623
B( 14-C , 31-H ) :   0.9139 B( 14-C , 32-H ) :   0.9340 B( 15-C , 33-H ) :   0.9388
B( 15-C , 34-H ) :   0.9450 B( 15-C , 35-H ) :   0.9388 B( 16-O , 17-C ) :   0.9147
B( 17-C , 18-C ) :   1.1605 B( 17-C , 36-H ) :   0.8911 B( 17-C , 37-H ) :   0.9356
B( 18-C , 38-H ) :   0.9304 B( 18-C , 39-H ) :   0.9354 B( 18-C , 40-H ) :   0.9428

Dispersion correction           -0.066308646
FINAL SINGLE POINT ENERGY     -2929.519546563686

DIPOLE MOMENT
-------------

Method             : SCF
Type of density    : Electron Density
Multiplicity       :   1
Irrep              :   0
Energy             : -2929.6380161389638488 Eh
Relativity type    :
Basis              : AO
                                X                 Y                 Z
Electronic contribution:     -6.863357051       8.275492639       2.242058341
Nuclear contribution   :      7.800493614      -8.782498740      -3.004373454
                        -----------------------------------------
Total Dipole Moment    :      0.937136563      -0.507006101      -0.762315113
                        -----------------------------------------
Magnitude (a.u.)       :      1.310116199
Magnitude (Debye)      :      3.330050735

Rotational constants in cm-1:             0.013137             0.004843             0.004342
Rotational constants in MHz :           393.831324           145.201551           130.179308

                             ****ORCA TERMINATED NORMALLY****
TOTAL RUN TIME: 0 days 0 hours 0 minutes 21 seconds 207 msec
