                         Program Version 6.0.0  -   RELEASE  -
|  1> ! r2scan-3c def2/J RI DEFGRID2 scfconv6 printgap
|  2> %output
|  3>     printlevel normal
|  4> end
|  5> * xyz 0 1
|  6> C 2.7087145569 -0.9665586777 3.0725297081
|  7> C 1.843008525 0.2091560149 2.6725830934
|  8> O 1.3052360689 0.068409264 1.3385700132
|  9> P 2.1691587564 -0.1352200026 0.0307620461
| 10> S 2.8240134989 -1.9401427651 -0.3858558765
| 11> O 3.2761303702 0.9921312753 0.1964748322
| 12> C 4.4004383715 1.1015612354 -0.7026862052
| 13> C 5.6271679915 0.4440196765 -0.1012882195
| 14> S 0.8648184503 0.660760759 -1.4384640829
| 15> C 0.0065672772 -0.8860312755 -1.8293651619
| 16> S -0.889585824 -1.5674470471 -0.4085934562
| 17> P -2.213860372 0.0651443631 -0.1530403184
| 18> S -2.8298503288 0.9193129142 -1.8103834941
| 19> O -1.4354947782 0.9946773161 0.8606899215
| 20> C -1.5632097643 2.4299552525 0.8413515968
| 21> C -2.8902651498 2.8638573368 1.4267926352
| 22> O -3.3191351685 -0.5400077437 0.8132276865
| 23> C -4.2604427275 -1.5475668232 0.3904875182
| 24> C -5.5314513579 -0.9177922238 -0.1463231921
| 25> H 2.154506476 -1.8969595634 2.9693759287
| 26> H 3.5888333545 -1.0177528462 2.4325956334
| 27> H 3.0253082316 -0.8481299959 4.1041143703
| 28> H 2.406720713 1.1437692434 2.7148719856
| 29> H 0.9497350375 0.2811560568 3.2958517601
| 30> H 4.1433166585 0.6436185228 -1.6612066243
| 31> H 4.5455036352 2.1747155137 -0.8375463712
| 32> H 5.4601494035 -0.6250831506 0.012238887
| 33> H 6.4744554299 0.5996071944 -0.7611305158
| 34> H 5.8457198857 0.8749756285 0.8717535059
| 35> H 0.7308259054 -1.6427918519 -2.1300132331
| 36> H -0.6930873923 -0.6571259536 -2.6327610673
| 37> H -0.717306536 2.7805480523 1.4341652461
| 38> H -1.4591705586 2.7786538159 -0.1917527372
| 39> H -3.0090326787 2.4600213774 2.428581161
| 40> H -2.9341817361 3.9477355724 1.4621844157
| 41> H -3.7016929521 2.4946211897 0.8005041266
| 42> H -3.7894301004 -2.1882577709 -0.3608885361
| 43> H -4.4560755929 -2.1307760177 1.2923467884
| 44> H -5.3157404729 -0.3292948687 -1.0352956986
| 45> H -6.2366761957 -1.7014472229 -0.4036130718
| 46> H -5.9731115428 -0.2691191261 0.6049868126
| 47> *
| 48>
| 49>                          ****END OF INPUT****

CARTESIAN COORDINATES (ANGSTROEM)
---------------------------------
  C      2.708715   -0.966559    3.072530
  C      1.843009    0.209156    2.672583
  O      1.305236    0.068409    1.338570
  P      2.169159   -0.135220    0.030762
  S      2.824013   -1.940143   -0.385856
  O      3.276130    0.992131    0.196475
  C      4.400438    1.101561   -0.702686
  C      5.627168    0.444020   -0.101288
  S      0.864818    0.660761   -1.438464
  C      0.006567   -0.886031   -1.829365
  S     -0.889586   -1.567447   -0.408593
  P     -2.213860    0.065144   -0.153040
  S     -2.829850    0.919313   -1.810383
  O     -1.435495    0.994677    0.860690
  C     -1.563210    2.429955    0.841352
  C     -2.890265    2.863857    1.426793
  O     -3.319135   -0.540008    0.813228
  C     -4.260443   -1.547567    0.390488
  C     -5.531451   -0.917792   -0.146323
  H      2.154506   -1.896960    2.969376
  H      3.588833   -1.017753    2.432596
  H      3.025308   -0.848130    4.104114
  H      2.406721    1.143769    2.714872
  H      0.949735    0.281156    3.295852
  H      4.143317    0.643619   -1.661207
  H      4.545504    2.174716   -0.837546
  H      5.460149   -0.625083    0.012239
  H      6.474455    0.599607   -0.761131
  H      5.845720    0.874976    0.871754
  H      0.730826   -1.642792   -2.130013
  H     -0.693087   -0.657126   -2.632761
  H     -0.717307    2.780548    1.434165
  H     -1.459171    2.778654   -0.191753
  H     -3.009033    2.460021    2.428581
  H     -2.934182    3.947736    1.462184
  H     -3.701693    2.494621    0.800504
  H     -3.789430   -2.188258   -0.360889
  H     -4.456076   -2.130776    1.292347
  H     -5.315740   -0.329295   -1.035296
  H     -6.236676   -1.701447   -0.403613
  H     -5.973112   -0.269119    0.604987

 Total Charge           Charge          ....    0
 Multiplicity           Mult            ....    1
 Number of Electrons    NEL             ....  202
 Basis Dimension        Dim             ....  539

ORBITAL ENERGIES
----------------

  NO   OCC          E(Eh)            E(eV)
   0   2.0000     -88.571049     -2410.1408
   1   2.0000     -88.570333     -2410.1213
   2   2.0000     -88.517758     -2408.6906
   3   2.0000     -88.517099     -2408.6727
   4   2.0000     -76.913814     -2092.9313
   5   2.0000     -76.910651     -2092.8452
   6   2.0000     -18.995925      -516.9054
   7   2.0000     -18.990193      -516.7494
   8   2.0000     -18.985339      -516.6173
   9   2.0000     -18.984086      -516.5832
  10   2.0000     -10.102992      -274.9164
  11   2.0000     -10.101000      -274.8622
  12   2.0000     -10.100559      -274.8502
  13   2.0000     -10.099251      -274.8146
  14   2.0000     -10.092966      -274.6436
  15   2.0000     -10.029676      -272.9214
  16   2.0000     -10.027910      -272.8733
  17   2.0000     -10.025297      -272.8022
  18   2.0000     -10.024421      -272.7784
  19   2.0000      -7.865332      -214.0266
  20   2.0000      -7.864584      -214.0062
  21   2.0000      -7.812702      -212.5944
  22   2.0000      -7.811995      -212.5752
  23   2.0000      -6.591922      -179.3753
  24   2.0000      -6.589093      -179.2983
  25   2.0000      -5.812277      -158.1601
  26   2.0000      -5.811476      -158.1383
  27   2.0000      -5.809168      -158.0755
  28   2.0000      -5.808441      -158.0557
  29   2.0000      -5.802420      -157.8919
  30   2.0000      -5.801694      -157.8721
  31   2.0000      -5.760279      -156.7452
  32   2.0000      -5.759632      -156.7276
  33   2.0000      -5.752935      -156.5453
  34   2.0000      -5.752797      -156.5416
  35   2.0000      -5.752239      -156.5264
  36   2.0000      -5.752044      -156.5211
  37   2.0000      -4.737981      -128.9270
  38   2.0000      -4.736635      -128.8904
  39   2.0000      -4.735406      -128.8569
  40   2.0000      -4.734478      -128.8317
  41   2.0000      -4.734052      -128.8201
  42   2.0000      -4.732919      -128.7893
  43   2.0000      -1.050846       -28.5950
  44   2.0000      -1.046806       -28.4850
  45   2.0000      -1.009078       -27.4584
  46   2.0000      -1.006965       -27.4009
  47   2.0000      -0.799239       -21.7484
  48   2.0000      -0.756899       -20.5963
  49   2.0000      -0.746682       -20.3183
  50   2.0000      -0.733648       -19.9636
  51   2.0000      -0.727537       -19.7973
  52   2.0000      -0.707204       -19.2440
  53   2.0000      -0.684797       -18.6343
  54   2.0000      -0.666576       -18.1384
  55   2.0000      -0.626651       -17.0521
  56   2.0000      -0.622526       -16.9398
  57   2.0000      -0.610039       -16.6000
  58   2.0000      -0.600266       -16.3341
  59   2.0000      -0.590909       -16.0795
  60   2.0000      -0.529375       -14.4050
  61   2.0000      -0.519167       -14.1272
  62   2.0000      -0.492496       -13.4015
  63   2.0000      -0.492035       -13.3890
  64   2.0000      -0.471099       -12.8193
  65   2.0000      -0.459898       -12.5145
  66   2.0000      -0.455461       -12.3937
  67   2.0000      -0.453537       -12.3414
  68   2.0000      -0.441882       -12.0242
  69   2.0000      -0.431460       -11.7406
  70   2.0000      -0.419584       -11.4175
  71   2.0000      -0.415640       -11.3101
  72   2.0000      -0.408546       -11.1171
  73   2.0000      -0.402417       -10.9503
  74   2.0000      -0.402014       -10.9394
  75   2.0000      -0.386981       -10.5303
  76   2.0000      -0.381004       -10.3676
  77   2.0000      -0.368560       -10.0290
  78   2.0000      -0.365547        -9.9470
  79   2.0000      -0.364091        -9.9074
  80   2.0000      -0.359074        -9.7709
  81   2.0000      -0.357305        -9.7228
  82   2.0000      -0.353424        -9.6172
  83   2.0000      -0.350331        -9.5330
  84   2.0000      -0.347879        -9.4663
  85   2.0000      -0.339864        -9.2482
  86   2.0000      -0.320242        -8.7142
  87   2.0000      -0.314591        -8.5604
  88   2.0000      -0.309800        -8.4301
  89   2.0000      -0.305792        -8.3210
  90   2.0000      -0.296486        -8.0678
  91   2.0000      -0.291658        -7.9364
  92   2.0000      -0.284490        -7.7414
  93   2.0000      -0.276336        -7.5195
  94   2.0000      -0.271166        -7.3788
  95   2.0000      -0.244885        -6.6637
  96   2.0000      -0.227611        -6.1936
  97   2.0000      -0.223067        -6.0700
  98   2.0000      -0.215442        -5.8625
  99   2.0000      -0.209344        -5.6966
 100   2.0000      -0.206680        -5.6241
 101   0.0000      -0.045529        -1.2389
 102   0.0000      -0.022914        -0.6235
 103   0.0000       0.000751         0.0204
 104   0.0000       0.004105         0.1117
 105   0.0000       0.017770         0.4836

MULLIKEN ATOMIC CHARGES
-----------------------
   0 C :   -0.437475
   1 C :   -0.154553
   2 O :   -0.244325
   3 P :    0.670646
   4 S :   -0.460311
   5 O :   -0.315995
   6 C :   -0.118657
   7 C :   -0.466138
   8 S :   -0.139720
   9 C :   -0.222971
  10 S :   -0.140757
  11 P :    0.695850
  12 S :   -0.489479
  13 O :   -0.262253
  14 C :   -0.148072
  15 C :   -0.444768
  16 O :   -0.302869
  17 C :   -0.135574
  18 C :   -0.454484
  19 H :    0.167165
  20 H :    0.164785
  21 H :    0.145364
  22 H :    0.156318
  23 H :    0.154604
  24 H :    0.158652
  25 H :    0.150323
  26 H :    0.182828
  27 H :    0.146776
  28 H :    0.150368
  29 H :    0.209869
  30 H :    0.207546
  31 H :    0.151092
  32 H :    0.175893
  33 H :    0.153201
  34 H :    0.145947
  35 H :    0.167982
  36 H :    0.154534
  37 H :    0.150306
  38 H :    0.182051
  39 H :    0.144797
  40 H :    0.151503
Sum of atomic charges:   -0.0000000

LOEWDIN ATOMIC CHARGES
----------------------
   0 C :   -0.401944
   1 C :    0.032043
   2 O :   -0.663020
   3 P :    0.382404
   4 S :   -0.129075
   5 O :   -0.670442
   6 C :    0.022920
   7 C :   -0.401601
   8 S :    0.170882
   9 C :   -0.422011
  10 S :    0.170226
  11 P :    0.380033
  12 S :   -0.135360
  13 O :   -0.662416
  14 C :    0.015875
  15 C :   -0.399257
  16 O :   -0.657776
  17 C :    0.021932
  18 C :   -0.402454
  19 H :    0.166461
  20 H :    0.163821
  21 H :    0.157496
  22 H :    0.173418
  23 H :    0.182775
  24 H :    0.179011
  25 H :    0.177862
  26 H :    0.168251
  27 H :    0.159566
  28 H :    0.156932
  29 H :    0.189918
  30 H :    0.189522
  31 H :    0.178884
  32 H :    0.182241
  33 H :    0.159011
  34 H :    0.158869
  35 H :    0.165244
  36 H :    0.175816
  37 H :    0.178964
  38 H :    0.169180
  39 H :    0.157748
  40 H :    0.158050

  Mayer bond orders larger than 0.100000
B(  0-C ,  1-C ) :   0.9334 B(  0-C , 19-H ) :   0.9674 B(  0-C , 20-H ) :   0.9545
B(  0-C , 21-H ) :   0.9632 B(  1-C ,  2-O ) :   0.7795 B(  1-C , 22-H ) :   0.9699
B(  1-C , 23-H ) :   0.9606 B(  2-O ,  3-P ) :   1.1463 B(  3-P ,  4-S ) :   1.7657
B(  3-P ,  5-O ) :   1.0440 B(  3-P ,  8-S ) :   1.0783 B(  5-O ,  6-C ) :   0.7710
B(  6-C ,  7-C ) :   0.9477 B(  6-C , 24-H ) :   0.9627 B(  6-C , 25-H ) :   0.9634
B(  7-C , 26-H ) :   0.9601 B(  7-C , 27-H ) :   0.9634 B(  7-C , 28-H ) :   0.9750
B(  8-S ,  9-C ) :   0.9003 B(  9-C , 10-S ) :   0.9077 B(  9-C , 29-H ) :   0.9074
B(  9-C , 30-H ) :   0.9073 B( 10-S , 11-P ) :   1.0878 B( 11-P , 12-S ) :   1.7289
B( 11-P , 13-O ) :   1.1640 B( 11-P , 16-O ) :   1.0758 B( 13-O , 14-C ) :   0.7790
B( 14-C , 15-C ) :   0.9270 B( 14-C , 31-H ) :   0.9630 B( 14-C , 32-H ) :   0.9619
B( 15-C , 33-H ) :   0.9731 B( 15-C , 34-H ) :   0.9648 B( 15-C , 35-H ) :   0.9601
B( 16-O , 17-C ) :   0.7823 B( 17-C , 18-C ) :   0.9537 B( 17-C , 36-H ) :   0.9633
B( 17-C , 37-H ) :   0.9635 B( 18-C , 38-H ) :   0.9563 B( 18-C , 39-H ) :   0.9649
B( 18-C , 40-H ) :   0.9745

Dispersion correction           -0.021518075
FINAL SINGLE POINT ENERGY     -2932.459395187151

DIPOLE MOMENT
-------------

Method             : SCF
Type of density    : Electron Density
Multiplicity       :   1
Irrep              :   0
Energy             : -2932.4841485275351260 Eh
Relativity type    :
Basis              : AO
                                X                 Y                 Z
Electronic contribution:     -0.708875148      -5.905705406     -12.672504310
Nuclear contribution   :      1.013555289       6.588607931      13.792281719
                        -----------------------------------------
Total Dipole Moment    :      0.304680141       0.682902525       1.119777409
                        -----------------------------------------
Magnitude (a.u.)       :      1.346509299
Magnitude (Debye)      :      3.422554643

Rotational constants in cm-1:             0.014269             0.004629             0.004539
Rotational constants in MHz :           427.764660           138.779082           136.061038

                             ****ORCA TERMINATED NORMALLY****
TOTAL RUN TIME: 0 days 0 hours 1 minutes 19 seconds 693 msec
