                         Program Version 6.0.0  -   RELEASE  -
|  1> ! r2scan-3c def2/J RI DEFGRID2 scfconv6 printgap
|  2> %output
|  3>     printlevel normal
|  4> end
|  5> %cpcm
|  6>     smd true
|  7>     smdsolvent "water"
|  8> end
|  9> * xyz 0 1
| 10> C 2.7087145569 -0.9665586777 3.0725297081
| 11> C 1.843008525 0.2091560149 2.6725830934
| 12> O 1.3052360689 0.068409264 1.3385700132
| 13> P 2.1691587564 -0.1352200026 0.0307620461
| 14> S 2.8240134989 -1.9401427651 -0.3858558765
| 15> O 3.2761303702 0.9921312753 0.1964748322
| 16> C 4.4004383715 1.1015612354 -0.7026862052
| 17> C 5.6271679915 0.4440196765 -0.1012882195
| 18> S 0.8648184503 0.660760759 -1.4384640829
| 19> C 0.0065672772 -0.8860312755 -1.8293651619
| 20> S -0.889585824 -1.5674470471 -0.4085934562
| 21> P -2.213860372 0.0651443631 -0.1530403184
| 22> S -2.8298503288 0.9193129142 -1.8103834941
| 23> O -1.4354947782 0.9946773161 0.8606899215
| 24> C -1.5632097643 2.4299552525 0.8413515968
| 25> C -2.8902651498 2.8638573368 1.4267926352
| 26> O -3.3191351685 -0.5400077437 0.8132276865
| 27> C -4.2604427275 -1.5475668232 0.3904875182
| 28> C -5.5314513579 -0.9177922238 -0.1463231921
| 29> H 2.154506476 -1.8969595634 2.9693759287
| 30> H 3.5888333545 -1.0177528462 2.4325956334
| 31> H 3.0253082316 -0.8481299959 4.1041143703
| 32> H 2.406720713 1.1437692434 2.7148719856
| 33> H 0.9497350375 0.2811560568 3.2958517601
| 34> H 4.1433166585 0.6436185228 -1.6612066243
| 35> H 4.5455036352 2.1747155137 -0.8375463712
| 36> H 5.4601494035 -0.6250831506 0.012238887
| 37> H 6.4744554299 0.5996071944 -0.7611305158
| 38> H 5.8457198857 0.8749756285 0.8717535059
| 39> H 0.7308259054 -1.6427918519 -2.1300132331
| 40> H -0.6930873923 -0.6571259536 -2.6327610673
| 41> H -0.717306536 2.7805480523 1.4341652461
| 42> H -1.4591705586 2.7786538159 -0.1917527372
| 43> H -3.0090326787 2.4600213774 2.428581161
| 44> H -2.9341817361 3.9477355724 1.4621844157
| 45> H -3.7016929521 2.4946211897 0.8005041266
| 46> H -3.7894301004 -2.1882577709 -0.3608885361
| 47> H -4.4560755929 -2.1307760177 1.2923467884
| 48> H -5.3157404729 -0.3292948687 -1.0352956986
| 49> H -6.2366761957 -1.7014472229 -0.4036130718
| 50> H -5.9731115428 -0.2691191261 0.6049868126
| 51> *
| 52>
| 53>                          ****END OF INPUT****

CARTESIAN COORDINATES (ANGSTROEM)
---------------------------------
  C      2.708715   -0.966559    3.072530
  C      1.843009    0.209156    2.672583
  O      1.305236    0.068409    1.338570
  P      2.169159   -0.135220    0.030762
  S      2.824013   -1.940143   -0.385856
  O      3.276130    0.992131    0.196475
  C      4.400438    1.101561   -0.702686
  C      5.627168    0.444020   -0.101288
  S      0.864818    0.660761   -1.438464
  C      0.006567   -0.886031   -1.829365
  S     -0.889586   -1.567447   -0.408593
  P     -2.213860    0.065144   -0.153040
  S     -2.829850    0.919313   -1.810383
  O     -1.435495    0.994677    0.860690
  C     -1.563210    2.429955    0.841352
  C     -2.890265    2.863857    1.426793
  O     -3.319135   -0.540008    0.813228
  C     -4.260443   -1.547567    0.390488
  C     -5.531451   -0.917792   -0.146323
  H      2.154506   -1.896960    2.969376
  H      3.588833   -1.017753    2.432596
  H      3.025308   -0.848130    4.104114
  H      2.406721    1.143769    2.714872
  H      0.949735    0.281156    3.295852
  H      4.143317    0.643619   -1.661207
  H      4.545504    2.174716   -0.837546
  H      5.460149   -0.625083    0.012239
  H      6.474455    0.599607   -0.761131
  H      5.845720    0.874976    0.871754
  H      0.730826   -1.642792   -2.130013
  H     -0.693087   -0.657126   -2.632761
  H     -0.717307    2.780548    1.434165
  H     -1.459171    2.778654   -0.191753
  H     -3.009033    2.460021    2.428581
  H     -2.934182    3.947736    1.462184
  H     -3.701693    2.494621    0.800504
  H     -3.789430   -2.188258   -0.360889
  H     -4.456076   -2.130776    1.292347
  H     -5.315740   -0.329295   -1.035296
  H     -6.236676   -1.701447   -0.403613
  H     -5.973112   -0.269119    0.604987

 Total Charge           Charge          ....    0
 Multiplicity           Mult            ....    1
 Number of Electrons    NEL             ....  202
 Basis Dimension        Dim             ....  539

ORBITAL ENERGIES
----------------

  NO   OCC          E(Eh)            E(eV)
   0   2.0000     -88.577992     -2410.3297
   1   2.0000     -88.576917     -2410.3004
   2   2.0000     -88.527151     -2408.9462
   3   2.0000     -88.525040     -2408.8888
   4   2.0000     -76.919454     -2093.0848
   5   2.0000     -76.918799     -2093.0669
   6   2.0000     -18.996146      -516.9114
   7   2.0000     -18.995541      -516.8950
   8   2.0000     -18.991437      -516.7833
   9   2.0000     -18.989059      -516.7186
  10   2.0000     -10.103294      -274.9246
  11   2.0000     -10.091585      -274.6060
  12   2.0000     -10.091566      -274.6055
  13   2.0000     -10.090826      -274.5853
  14   2.0000     -10.088573      -274.5240
  15   2.0000     -10.018262      -272.6108
  16   2.0000     -10.018012      -272.6040
  17   2.0000     -10.017232      -272.5827
  18   2.0000     -10.016598      -272.5655
  19   2.0000      -7.872303      -214.2162
  20   2.0000      -7.871263      -214.1879
  21   2.0000      -7.822338      -212.8566
  22   2.0000      -7.820234      -212.7994
  23   2.0000      -6.597561      -179.5288
  24   2.0000      -6.597293      -179.5215
  25   2.0000      -5.819158      -158.3473
  26   2.0000      -5.818178      -158.3207
  27   2.0000      -5.816141      -158.2652
  28   2.0000      -5.815086      -158.2365
  29   2.0000      -5.809474      -158.0838
  30   2.0000      -5.808392      -158.0544
  31   2.0000      -5.769881      -157.0064
  32   2.0000      -5.767810      -156.9501
  33   2.0000      -5.762571      -156.8075
  34   2.0000      -5.762422      -156.8035
  35   2.0000      -5.760429      -156.7492
  36   2.0000      -5.760336      -156.7467
  37   2.0000      -4.743532      -129.0781
  38   2.0000      -4.742638      -129.0537
  39   2.0000      -4.742299      -129.0445
  40   2.0000      -4.742261      -129.0435
  41   2.0000      -4.741169      -129.0138
  42   2.0000      -4.741144      -129.0131
  43   2.0000      -1.053209       -28.6593
  44   2.0000      -1.051798       -28.6209
  45   2.0000      -1.012740       -27.5581
  46   2.0000      -1.009866       -27.4799
  47   2.0000      -0.804263       -21.8851
  48   2.0000      -0.755136       -20.5483
  49   2.0000      -0.742292       -20.1988
  50   2.0000      -0.724321       -19.7098
  51   2.0000      -0.722154       -19.6508
  52   2.0000      -0.708576       -19.2813
  53   2.0000      -0.689529       -18.7630
  54   2.0000      -0.674116       -18.3436
  55   2.0000      -0.627565       -17.0769
  56   2.0000      -0.620223       -16.8771
  57   2.0000      -0.602681       -16.3998
  58   2.0000      -0.597111       -16.2482
  59   2.0000      -0.591271       -16.0893
  60   2.0000      -0.526171       -14.3178
  61   2.0000      -0.517169       -14.0729
  62   2.0000      -0.492540       -13.4027
  63   2.0000      -0.487557       -13.2671
  64   2.0000      -0.471535       -12.8311
  65   2.0000      -0.458321       -12.4715
  66   2.0000      -0.453636       -12.3441
  67   2.0000      -0.449280       -12.2255
  68   2.0000      -0.439590       -11.9618
  69   2.0000      -0.428272       -11.6539
  70   2.0000      -0.419042       -11.4027
  71   2.0000      -0.415293       -11.3007
  72   2.0000      -0.407493       -11.0884
  73   2.0000      -0.401332       -10.9208
  74   2.0000      -0.398286       -10.8379
  75   2.0000      -0.387613       -10.5475
  76   2.0000      -0.380194       -10.3456
  77   2.0000      -0.365819        -9.9544
  78   2.0000      -0.359540        -9.7836
  79   2.0000      -0.357161        -9.7189
  80   2.0000      -0.354128        -9.6363
  81   2.0000      -0.352920        -9.6034
  82   2.0000      -0.348304        -9.4778
  83   2.0000      -0.345275        -9.3954
  84   2.0000      -0.343702        -9.3526
  85   2.0000      -0.339907        -9.2493
  86   2.0000      -0.321722        -8.7545
  87   2.0000      -0.308071        -8.3830
  88   2.0000      -0.306511        -8.3406
  89   2.0000      -0.303637        -8.2624
  90   2.0000      -0.297323        -8.0906
  91   2.0000      -0.289872        -7.8878
  92   2.0000      -0.286789        -7.8039
  93   2.0000      -0.280048        -7.6205
  94   2.0000      -0.274694        -7.4748
  95   2.0000      -0.251557        -6.8452
  96   2.0000      -0.236127        -6.4253
  97   2.0000      -0.231470        -6.2986
  98   2.0000      -0.223951        -6.0940
  99   2.0000      -0.218638        -5.9495
 100   2.0000      -0.215205        -5.8560
 101   0.0000      -0.052518        -1.4291
 102   0.0000      -0.031191        -0.8487
 103   0.0000      -0.005813        -0.1582
 104   0.0000      -0.002046        -0.0557
 105   0.0000       0.014430         0.3926

MULLIKEN ATOMIC CHARGES
-----------------------
   0 C :   -0.482923
   1 C :   -0.144987
   2 O :   -0.281343
   3 P :    0.703028
   4 S :   -0.508934
   5 O :   -0.334479
   6 C :   -0.118182
   7 C :   -0.495855
   8 S :   -0.153996
   9 C :   -0.232633
  10 S :   -0.161391
  11 P :    0.722946
  12 S :   -0.525497
  13 O :   -0.294745
  14 C :   -0.139326
  15 C :   -0.486866
  16 O :   -0.332510
  17 C :   -0.127072
  18 C :   -0.492830
  19 H :    0.170322
  20 H :    0.169520
  21 H :    0.172145
  22 H :    0.176357
  23 H :    0.175859
  24 H :    0.165905
  25 H :    0.176938
  26 H :    0.171859
  27 H :    0.170144
  28 H :    0.167203
  29 H :    0.229937
  30 H :    0.229310
  31 H :    0.178587
  32 H :    0.176369
  33 H :    0.169091
  34 H :    0.171967
  35 H :    0.165934
  36 H :    0.164145
  37 H :    0.176907
  38 H :    0.171588
  39 H :    0.169826
  40 H :    0.167682
Sum of atomic charges:   -0.0000000

LOEWDIN ATOMIC CHARGES
----------------------
   0 C :   -0.405587
   1 C :    0.038325
   2 O :   -0.682421
   3 P :    0.387477
   4 S :   -0.159729
   5 O :   -0.674904
   6 C :    0.028345
   7 C :   -0.404517
   8 S :    0.163606
   9 C :   -0.416164
  10 S :    0.158382
  11 P :    0.383194
  12 S :   -0.157430
  13 O :   -0.680927
  14 C :    0.020123
  15 C :   -0.402146
  16 O :   -0.671687
  17 C :    0.027896
  18 C :   -0.406175
  19 H :    0.163752
  20 H :    0.162749
  21 H :    0.168039
  22 H :    0.182440
  23 H :    0.191426
  24 H :    0.181001
  25 H :    0.189281
  26 H :    0.162575
  27 H :    0.167951
  28 H :    0.162594
  29 H :    0.196119
  30 H :    0.196105
  31 H :    0.190007
  32 H :    0.182602
  33 H :    0.163546
  34 H :    0.168713
  35 H :    0.162165
  36 H :    0.180046
  37 H :    0.190453
  38 H :    0.163033
  39 H :    0.167328
  40 H :    0.162410

  Mayer bond orders larger than 0.100000
B(  0-C ,  1-C ) :   0.9136 B(  0-C , 19-H ) :   0.9695 B(  0-C , 20-H ) :   0.9554
B(  0-C , 21-H ) :   0.9564 B(  1-C ,  2-O ) :   0.7716 B(  1-C , 22-H ) :   0.9616
B(  1-C , 23-H ) :   0.9526 B(  2-O ,  3-P ) :   1.1578 B(  3-P ,  4-S ) :   1.7225
B(  3-P ,  5-O ) :   1.0588 B(  3-P ,  8-S ) :   1.0840 B(  5-O ,  6-C ) :   0.7558
B(  6-C ,  7-C ) :   0.9418 B(  6-C , 24-H ) :   0.9584 B(  6-C , 25-H ) :   0.9528
B(  7-C , 26-H ) :   0.9633 B(  7-C , 27-H ) :   0.9591 B(  7-C , 28-H ) :   0.9707
B(  8-S ,  9-C ) :   0.8937 B(  9-C , 10-S ) :   0.8982 B(  9-C , 29-H ) :   0.9023
B(  9-C , 30-H ) :   0.9028 B( 10-S , 11-P ) :   1.0968 B( 11-P , 12-S ) :   1.7034
B( 11-P , 13-O ) :   1.1649 B( 11-P , 16-O ) :   1.0812 B( 13-O , 14-C ) :   0.7658
B( 14-C , 15-C ) :   0.9197 B( 14-C , 31-H ) :   0.9518 B( 14-C , 32-H ) :   0.9570
B( 15-C , 33-H ) :   0.9713 B( 15-C , 34-H ) :   0.9584 B( 15-C , 35-H ) :   0.9602
B( 16-O , 17-C ) :   0.7707 B( 17-C , 18-C ) :   0.9433 B( 17-C , 36-H ) :   0.9559
B( 17-C , 37-H ) :   0.9533 B( 18-C , 38-H ) :   0.9607 B( 18-C , 39-H ) :   0.9594
B( 18-C , 40-H ) :   0.9719

Dispersion correction           -0.021518075
FINAL SINGLE POINT ENERGY     -2932.468001005517

DIPOLE MOMENT
-------------

Method             : SCF
Type of density    : Electron Density
Multiplicity       :   1
Irrep              :   0
Energy             : -2932.4927543459016306 Eh
Relativity type    :
Basis              : AO
                                X                 Y                 Z
Electronic contribution:     -0.591253798      -5.610314674     -12.439893498
Nuclear contribution   :      1.013555289       6.588607931      13.792281719
                        -----------------------------------------
Total Dipole Moment    :      0.422301491       0.978293257       1.352388221
                        -----------------------------------------
Magnitude (a.u.)       :      1.721728825
Magnitude (Debye)      :      4.376286884

Rotational constants in cm-1:             0.014269             0.004629             0.004539
Rotational constants in MHz :           427.764660           138.779082           136.061038

                             ****ORCA TERMINATED NORMALLY****
TOTAL RUN TIME: 0 days 0 hours 1 minutes 49 seconds 659 msec
