                         Program Version 6.0.0  -   RELEASE  -
|  1> ! r2scan-3c def2/J RI DEFGRID2 scfconv6 printgap
|  2> %output
|  3>     printlevel normal
|  4> end
|  5> * xyz 0 1
|  6> C 5.6892071868 0.473616676 -1.2439251197
|  7> C 4.2211127984 0.1557580421 -1.4421493379
|  8> O 3.6004345444 0.1094440981 -0.1406658851
|  9> P 2.020757345 0.1192894904 0.0170817031
| 10> S 1.0945409646 1.6088561011 -0.8512430587
| 11> O 1.8238741282 0.1231476792 1.5776523816
| 12> C 2.4323694498 -0.8527092719 2.4629214322
| 13> C 3.7076541484 -0.3025693004 3.0662866684
| 14> S 1.4930223536 -1.8302599976 -0.6650170459
| 15> C -0.2663221858 -1.5455983415 -0.9214728115
| 16> S -1.1136226262 -1.0885496093 0.6347764842
| 17> P -2.5852244034 0.2541676286 -0.1154760684
| 18> S -2.3839231705 0.8156289463 -1.9870836213
| 19> O -2.7074520328 1.3920348329 0.9756187574
| 20> C -1.8147750935 2.5119428123 1.1079145884
| 21> C -0.8778470505 2.3157325765 2.2835230113
| 22> O -3.9706644812 -0.4202130524 0.2482059481
| 23> C -4.7006939385 -1.2444647694 -0.6759474274
| 24> C -3.9777370158 -2.5412453686 -0.9820705937
| 25> H 5.7998881708 1.4341013102 -0.748418059
| 26> H 6.1574033222 -0.2948258408 -0.6358135535
| 27> H 6.178058977 0.5124916748 -2.2117601082
| 28> H 4.0826571606 -0.8171202683 -1.9213581871
| 29> H 3.7200921459 0.9242489847 -2.039979452
| 30> H 1.6731266987 -1.0375815573 3.2249516491
| 31> H 2.6212818888 -1.7711515898 1.9006089435
| 32> H 4.4416242391 -0.1147922551 2.2874366183
| 33> H 3.5028268252 0.6288186195 3.5867838338
| 34> H 4.1070356178 -1.026450664 3.7696915446
| 35> H -0.6661310333 -2.4873450541 -1.2897696218
| 36> H -0.4145894274 -0.7370510424 -1.6433595068
| 37> H -1.258097693 2.653534768 0.1753956194
| 38> H -2.4691912915 3.3716234763 1.2671459932
| 39> H -0.3115401391 3.2284753871 2.438898641
| 40> H -1.4498345717 2.0838315569 3.1773125527
| 41> H -0.1809706859 1.5037942375 2.0864938766
| 42> H -5.6502631309 -1.4216319905 -0.1690665262
| 43> H -4.8693848808 -0.6730754614 -1.5941853822
| 44> H -3.0824776142 -2.3313535785 -1.5664254825
| 45> H -3.6957360521 -3.0431860634 -0.0597361551
| 46> H -4.6295513311 -3.1882436517 -1.5604393874
| 47> *
| 48>
| 49>                          ****END OF INPUT****

CARTESIAN COORDINATES (ANGSTROEM)
---------------------------------
  C      5.689207    0.473617   -1.243925
  C      4.221113    0.155758   -1.442149
  O      3.600435    0.109444   -0.140666
  P      2.020757    0.119289    0.017082
  S      1.094541    1.608856   -0.851243
  O      1.823874    0.123148    1.577652
  C      2.432369   -0.852709    2.462921
  C      3.707654   -0.302569    3.066287
  S      1.493022   -1.830260   -0.665017
  C     -0.266322   -1.545598   -0.921473
  S     -1.113623   -1.088550    0.634776
  P     -2.585224    0.254168   -0.115476
  S     -2.383923    0.815629   -1.987084
  O     -2.707452    1.392035    0.975619
  C     -1.814775    2.511943    1.107915
  C     -0.877847    2.315733    2.283523
  O     -3.970664   -0.420213    0.248206
  C     -4.700694   -1.244465   -0.675947
  C     -3.977737   -2.541245   -0.982071
  H      5.799888    1.434101   -0.748418
  H      6.157403   -0.294826   -0.635814
  H      6.178059    0.512492   -2.211760
  H      4.082657   -0.817120   -1.921358
  H      3.720092    0.924249   -2.039979
  H      1.673127   -1.037582    3.224952
  H      2.621282   -1.771152    1.900609
  H      4.441624   -0.114792    2.287437
  H      3.502827    0.628819    3.586784
  H      4.107036   -1.026451    3.769692
  H     -0.666131   -2.487345   -1.289770
  H     -0.414589   -0.737051   -1.643360
  H     -1.258098    2.653535    0.175396
  H     -2.469191    3.371623    1.267146
  H     -0.311540    3.228475    2.438899
  H     -1.449835    2.083832    3.177313
  H     -0.180971    1.503794    2.086494
  H     -5.650263   -1.421632   -0.169067
  H     -4.869385   -0.673075   -1.594185
  H     -3.082478   -2.331354   -1.566425
  H     -3.695736   -3.043186   -0.059736
  H     -4.629551   -3.188244   -1.560439

 Total Charge           Charge          ....    0
 Multiplicity           Mult            ....    1
 Number of Electrons    NEL             ....  202
 Basis Dimension        Dim             ....  539

ORBITAL ENERGIES
----------------

  NO   OCC          E(Eh)            E(eV)
   0   2.0000     -88.580475     -2410.3973
   1   2.0000     -88.571337     -2410.1486
   2   2.0000     -88.517847     -2408.6931
   3   2.0000     -88.515913     -2408.6405
   4   2.0000     -76.916035     -2092.9917
   5   2.0000     -76.907964     -2092.7721
   6   2.0000     -18.998132      -516.9654
   7   2.0000     -18.996224      -516.9135
   8   2.0000     -18.981492      -516.5126
   9   2.0000     -18.980857      -516.4954
  10   2.0000     -10.106038      -274.9993
  11   2.0000     -10.104580      -274.9596
  12   2.0000     -10.103569      -274.9321
  13   2.0000     -10.094283      -274.6794
  14   2.0000     -10.084537      -274.4142
  15   2.0000     -10.037887      -273.1448
  16   2.0000     -10.034740      -273.0592
  17   2.0000     -10.028186      -272.8808
  18   2.0000     -10.012747      -272.4607
  19   2.0000      -7.874810      -214.2845
  20   2.0000      -7.865464      -214.0302
  21   2.0000      -7.812546      -212.5902
  22   2.0000      -7.810568      -212.5363
  23   2.0000      -6.594534      -179.4464
  24   2.0000      -6.586271      -179.2215
  25   2.0000      -5.821674      -158.4158
  26   2.0000      -5.818447      -158.3280
  27   2.0000      -5.812290      -158.1605
  28   2.0000      -5.812158      -158.1569
  29   2.0000      -5.809428      -158.0826
  30   2.0000      -5.802561      -157.8957
  31   2.0000      -5.760369      -156.7476
  32   2.0000      -5.758157      -156.6874
  33   2.0000      -5.752640      -156.5373
  34   2.0000      -5.752569      -156.5354
  35   2.0000      -5.750895      -156.4898
  36   2.0000      -5.750605      -156.4819
  37   2.0000      -4.740313      -128.9905
  38   2.0000      -4.739645      -128.9723
  39   2.0000      -4.737818      -128.9226
  40   2.0000      -4.731505      -128.7508
  41   2.0000      -4.731299      -128.7452
  42   2.0000      -4.730170      -128.7145
  43   2.0000      -1.056606       -28.7517
  44   2.0000      -1.043874       -28.4052
  45   2.0000      -1.016117       -27.6500
  46   2.0000      -1.000489       -27.2247
  47   2.0000      -0.799310       -21.7503
  48   2.0000      -0.760576       -20.6963
  49   2.0000      -0.748621       -20.3710
  50   2.0000      -0.741178       -20.1685
  51   2.0000      -0.720902       -19.6167
  52   2.0000      -0.709339       -19.3021
  53   2.0000      -0.684189       -18.6177
  54   2.0000      -0.662851       -18.0371
  55   2.0000      -0.627641       -17.0790
  56   2.0000      -0.622901       -16.9500
  57   2.0000      -0.608006       -16.5447
  58   2.0000      -0.597304       -16.2535
  59   2.0000      -0.590816       -16.0769
  60   2.0000      -0.536607       -14.6018
  61   2.0000      -0.515305       -14.0222
  62   2.0000      -0.505555       -13.7569
  63   2.0000      -0.481665       -13.1068
  64   2.0000      -0.468841       -12.7578
  65   2.0000      -0.464233       -12.6324
  66   2.0000      -0.463459       -12.6114
  67   2.0000      -0.452313       -12.3081
  68   2.0000      -0.447715       -12.1829
  69   2.0000      -0.430256       -11.7079
  70   2.0000      -0.425840       -11.5877
  71   2.0000      -0.410881       -11.1806
  72   2.0000      -0.406515       -11.0618
  73   2.0000      -0.402803       -10.9608
  74   2.0000      -0.401866       -10.9353
  75   2.0000      -0.388150       -10.5621
  76   2.0000      -0.380119       -10.3436
  77   2.0000      -0.374128       -10.1806
  78   2.0000      -0.372531       -10.1371
  79   2.0000      -0.366066        -9.9612
  80   2.0000      -0.362863        -9.8740
  81   2.0000      -0.357146        -9.7184
  82   2.0000      -0.356431        -9.6990
  83   2.0000      -0.348879        -9.4935
  84   2.0000      -0.339152        -9.2288
  85   2.0000      -0.334269        -9.0959
  86   2.0000      -0.321303        -8.7431
  87   2.0000      -0.319653        -8.6982
  88   2.0000      -0.312628        -8.5070
  89   2.0000      -0.305413        -8.3107
  90   2.0000      -0.294521        -8.0143
  91   2.0000      -0.293337        -7.9821
  92   2.0000      -0.280086        -7.6215
  93   2.0000      -0.277166        -7.5421
  94   2.0000      -0.268632        -7.3099
  95   2.0000      -0.247999        -6.7484
  96   2.0000      -0.234493        -6.3809
  97   2.0000      -0.222489        -6.0542
  98   2.0000      -0.213778        -5.8172
  99   2.0000      -0.211632        -5.7588
 100   2.0000      -0.202401        -5.5076
 101   0.0000      -0.046155        -1.2559
 102   0.0000      -0.034165        -0.9297
 103   0.0000      -0.008639        -0.2351
 104   0.0000       0.009205         0.2505
 105   0.0000       0.014825         0.4034

MULLIKEN ATOMIC CHARGES
-----------------------
   0 C :   -0.441450
   1 C :   -0.154962
   2 O :   -0.284118
   3 P :    0.667052
   4 S :   -0.420149
   5 O :   -0.270766
   6 C :   -0.109673
   7 C :   -0.457448
   8 S :   -0.183599
   9 C :   -0.226724
  10 S :   -0.146686
  11 P :    0.680212
  12 S :   -0.449889
  13 O :   -0.301487
  14 C :   -0.137884
  15 C :   -0.444432
  16 O :   -0.290308
  17 C :   -0.144252
  18 C :   -0.455099
  19 H :    0.160181
  20 H :    0.150568
  21 H :    0.148892
  22 H :    0.151124
  23 H :    0.172688
  24 H :    0.160432
  25 H :    0.159713
  26 H :    0.166285
  27 H :    0.157233
  28 H :    0.147215
  29 H :    0.183897
  30 H :    0.230219
  31 H :    0.172054
  32 H :    0.145633
  33 H :    0.144277
  34 H :    0.145592
  35 H :    0.178676
  36 H :    0.149233
  37 H :    0.174103
  38 H :    0.159879
  39 H :    0.165965
  40 H :    0.147801
Sum of atomic charges:    0.0000000

LOEWDIN ATOMIC CHARGES
----------------------
   0 C :   -0.385794
   1 C :    0.020014
   2 O :   -0.676246
   3 P :    0.374336
   4 S :   -0.083629
   5 O :   -0.668220
   6 C :    0.021979
   7 C :   -0.392288
   8 S :    0.124388
   9 C :   -0.423922
  10 S :    0.143046
  11 P :    0.384119
  12 S :   -0.120224
  13 O :   -0.646280
  14 C :    0.023789
  15 C :   -0.404964
  16 O :   -0.656553
  17 C :    0.022690
  18 C :   -0.406396
  19 H :    0.162341
  20 H :    0.158174
  21 H :    0.161238
  22 H :    0.172254
  23 H :    0.182131
  24 H :    0.182024
  25 H :    0.176584
  26 H :    0.166528
  27 H :    0.161660
  28 H :    0.159102
  29 H :    0.175124
  30 H :    0.200780
  31 H :    0.183877
  32 H :    0.175902
  33 H :    0.160765
  34 H :    0.155870
  35 H :    0.175374
  36 H :    0.180479
  37 H :    0.179106
  38 H :    0.159299
  39 H :    0.162837
  40 H :    0.158708

  Mayer bond orders larger than 0.100000
B(  0-C ,  1-C ) :   0.9557 B(  0-C , 19-H ) :   0.9711 B(  0-C , 20-H ) :   0.9720
B(  0-C , 21-H ) :   0.9630 B(  1-C ,  2-O ) :   0.7878 B(  1-C , 22-H ) :   0.9417
B(  1-C , 23-H ) :   0.9492 B(  2-O ,  3-P ) :   1.0619 B(  3-P ,  4-S ) :   1.8403
B(  3-P ,  5-O ) :   1.1288 B(  3-P ,  8-S ) :   0.9839 B(  5-O ,  6-C ) :   0.7380
B(  6-C ,  7-C ) :   0.9396 B(  6-C , 24-H ) :   0.9607 B(  6-C , 25-H ) :   0.9638
B(  7-C , 26-H ) :   0.9664 B(  7-C , 27-H ) :   0.9712 B(  7-C , 28-H ) :   0.9658
B(  8-S ,  9-C ) :   0.9321 B(  9-C , 10-S ) :   0.8896 B(  9-C , 29-H ) :   0.9132
B(  9-C , 30-H ) :   0.9007 B( 10-S , 11-P ) :   1.0483 B( 11-P , 12-S ) :   1.7640
B( 11-P , 13-O ) :   1.1509 B( 11-P , 16-O ) :   1.1252 B( 13-O , 14-C ) :   0.7692
B( 14-C , 15-C ) :   0.9500 B( 14-C , 31-H ) :   0.9565 B( 14-C , 32-H ) :   0.9651
B( 15-C , 33-H ) :   0.9651 B( 15-C , 34-H ) :   0.9750 B( 15-C , 35-H ) :   0.9508
B( 16-O , 17-C ) :   0.8214 B( 17-C , 18-C ) :   0.9061 B( 17-C , 36-H ) :   0.9596
B( 17-C , 37-H ) :   0.9722 B( 18-C , 38-H ) :   0.9670 B( 18-C , 39-H ) :   0.9674
B( 18-C , 40-H ) :   0.9609

Dispersion correction           -0.021654717
FINAL SINGLE POINT ENERGY     -2932.460427657704

DIPOLE MOMENT
-------------

Method             : SCF
Type of density    : Electron Density
Multiplicity       :   1
Irrep              :   0
Energy             : -2932.4853109816435790 Eh
Relativity type    :
Basis              : AO
                                X                 Y                 Z
Electronic contribution:    -12.100957298       1.553416378      -7.466897411
Nuclear contribution   :     13.277105287      -2.743496058       8.160810546
                        -----------------------------------------
Total Dipole Moment    :      1.176147988      -1.190079680       0.693913135
                        -----------------------------------------
Magnitude (a.u.)       :      1.811388742
Magnitude (Debye)      :      4.604184281

Rotational constants in cm-1:             0.013052             0.004763             0.004575
Rotational constants in MHz :           391.300651           142.784331           137.155417

                             ****ORCA TERMINATED NORMALLY****
TOTAL RUN TIME: 0 days 0 hours 1 minutes 19 seconds 334 msec
