                         Program Version 6.0.0  -   RELEASE  -
|  1> ! r2scan-3c def2/J RI DEFGRID2 scfconv6 printgap
|  2> %output
|  3>     printlevel normal
|  4> end
|  5> %cpcm
|  6>     smd true
|  7>     smdsolvent "water"
|  8> end
|  9> * xyz 0 1
| 10> C 5.6892071868 0.473616676 -1.2439251197
| 11> C 4.2211127984 0.1557580421 -1.4421493379
| 12> O 3.6004345444 0.1094440981 -0.1406658851
| 13> P 2.020757345 0.1192894904 0.0170817031
| 14> S 1.0945409646 1.6088561011 -0.8512430587
| 15> O 1.8238741282 0.1231476792 1.5776523816
| 16> C 2.4323694498 -0.8527092719 2.4629214322
| 17> C 3.7076541484 -0.3025693004 3.0662866684
| 18> S 1.4930223536 -1.8302599976 -0.6650170459
| 19> C -0.2663221858 -1.5455983415 -0.9214728115
| 20> S -1.1136226262 -1.0885496093 0.6347764842
| 21> P -2.5852244034 0.2541676286 -0.1154760684
| 22> S -2.3839231705 0.8156289463 -1.9870836213
| 23> O -2.7074520328 1.3920348329 0.9756187574
| 24> C -1.8147750935 2.5119428123 1.1079145884
| 25> C -0.8778470505 2.3157325765 2.2835230113
| 26> O -3.9706644812 -0.4202130524 0.2482059481
| 27> C -4.7006939385 -1.2444647694 -0.6759474274
| 28> C -3.9777370158 -2.5412453686 -0.9820705937
| 29> H 5.7998881708 1.4341013102 -0.748418059
| 30> H 6.1574033222 -0.2948258408 -0.6358135535
| 31> H 6.178058977 0.5124916748 -2.2117601082
| 32> H 4.0826571606 -0.8171202683 -1.9213581871
| 33> H 3.7200921459 0.9242489847 -2.039979452
| 34> H 1.6731266987 -1.0375815573 3.2249516491
| 35> H 2.6212818888 -1.7711515898 1.9006089435
| 36> H 4.4416242391 -0.1147922551 2.2874366183
| 37> H 3.5028268252 0.6288186195 3.5867838338
| 38> H 4.1070356178 -1.026450664 3.7696915446
| 39> H -0.6661310333 -2.4873450541 -1.2897696218
| 40> H -0.4145894274 -0.7370510424 -1.6433595068
| 41> H -1.258097693 2.653534768 0.1753956194
| 42> H -2.4691912915 3.3716234763 1.2671459932
| 43> H -0.3115401391 3.2284753871 2.438898641
| 44> H -1.4498345717 2.0838315569 3.1773125527
| 45> H -0.1809706859 1.5037942375 2.0864938766
| 46> H -5.6502631309 -1.4216319905 -0.1690665262
| 47> H -4.8693848808 -0.6730754614 -1.5941853822
| 48> H -3.0824776142 -2.3313535785 -1.5664254825
| 49> H -3.6957360521 -3.0431860634 -0.0597361551
| 50> H -4.6295513311 -3.1882436517 -1.5604393874
| 51> *
| 52>
| 53>                          ****END OF INPUT****

CARTESIAN COORDINATES (ANGSTROEM)
---------------------------------
  C      5.689207    0.473617   -1.243925
  C      4.221113    0.155758   -1.442149
  O      3.600435    0.109444   -0.140666
  P      2.020757    0.119289    0.017082
  S      1.094541    1.608856   -0.851243
  O      1.823874    0.123148    1.577652
  C      2.432369   -0.852709    2.462921
  C      3.707654   -0.302569    3.066287
  S      1.493022   -1.830260   -0.665017
  C     -0.266322   -1.545598   -0.921473
  S     -1.113623   -1.088550    0.634776
  P     -2.585224    0.254168   -0.115476
  S     -2.383923    0.815629   -1.987084
  O     -2.707452    1.392035    0.975619
  C     -1.814775    2.511943    1.107915
  C     -0.877847    2.315733    2.283523
  O     -3.970664   -0.420213    0.248206
  C     -4.700694   -1.244465   -0.675947
  C     -3.977737   -2.541245   -0.982071
  H      5.799888    1.434101   -0.748418
  H      6.157403   -0.294826   -0.635814
  H      6.178059    0.512492   -2.211760
  H      4.082657   -0.817120   -1.921358
  H      3.720092    0.924249   -2.039979
  H      1.673127   -1.037582    3.224952
  H      2.621282   -1.771152    1.900609
  H      4.441624   -0.114792    2.287437
  H      3.502827    0.628819    3.586784
  H      4.107036   -1.026451    3.769692
  H     -0.666131   -2.487345   -1.289770
  H     -0.414589   -0.737051   -1.643360
  H     -1.258098    2.653535    0.175396
  H     -2.469191    3.371623    1.267146
  H     -0.311540    3.228475    2.438899
  H     -1.449835    2.083832    3.177313
  H     -0.180971    1.503794    2.086494
  H     -5.650263   -1.421632   -0.169067
  H     -4.869385   -0.673075   -1.594185
  H     -3.082478   -2.331354   -1.566425
  H     -3.695736   -3.043186   -0.059736
  H     -4.629551   -3.188244   -1.560439

 Total Charge           Charge          ....    0
 Multiplicity           Mult            ....    1
 Number of Electrons    NEL             ....  202
 Basis Dimension        Dim             ....  539

ORBITAL ENERGIES
----------------

  NO   OCC          E(Eh)            E(eV)
   0   2.0000     -88.581463     -2410.4242
   1   2.0000     -88.577079     -2410.3049
   2   2.0000     -88.528517     -2408.9834
   3   2.0000     -88.525617     -2408.9045
   4   2.0000     -76.919066     -2093.0742
   5   2.0000     -76.918764     -2093.0660
   6   2.0000     -18.996046      -516.9087
   7   2.0000     -18.995793      -516.9018
   8   2.0000     -18.993649      -516.8435
   9   2.0000     -18.990118      -516.7474
  10   2.0000     -10.103214      -274.9224
  11   2.0000     -10.092654      -274.6351
  12   2.0000     -10.091205      -274.5956
  13   2.0000     -10.089278      -274.5432
  14   2.0000     -10.087842      -274.5041
  15   2.0000     -10.020058      -272.6596
  16   2.0000     -10.018700      -272.6227
  17   2.0000     -10.018457      -272.6161
  18   2.0000     -10.014249      -272.5016
  19   2.0000      -7.875720      -214.3092
  20   2.0000      -7.871162      -214.1852
  21   2.0000      -7.823473      -212.8875
  22   2.0000      -7.820682      -212.8116
  23   2.0000      -6.597605      -179.5300
  24   2.0000      -6.597178      -179.5183
  25   2.0000      -5.822598      -158.4409
  26   2.0000      -5.819387      -158.3536
  27   2.0000      -5.818003      -158.3159
  28   2.0000      -5.815137      -158.2379
  29   2.0000      -5.813037      -158.1808
  30   2.0000      -5.808253      -158.0506
  31   2.0000      -5.770991      -157.0366
  32   2.0000      -5.768379      -156.9656
  33   2.0000      -5.763798      -156.8409
  34   2.0000      -5.763527      -156.8335
  35   2.0000      -5.760818      -156.7598
  36   2.0000      -5.760720      -156.7572
  37   2.0000      -4.743317      -129.0722
  38   2.0000      -4.742689      -129.0551
  39   2.0000      -4.742469      -129.0491
  40   2.0000      -4.742174      -129.0411
  41   2.0000      -4.741067      -129.0110
  42   2.0000      -4.741031      -129.0100
  43   2.0000      -1.055149       -28.7121
  44   2.0000      -1.054549       -28.6957
  45   2.0000      -1.013958       -27.5912
  46   2.0000      -1.010291       -27.4914
  47   2.0000      -0.800428       -21.7808
  48   2.0000      -0.756229       -20.5780
  49   2.0000      -0.746954       -20.3257
  50   2.0000      -0.727771       -19.8037
  51   2.0000      -0.718772       -19.5588
  52   2.0000      -0.711752       -19.3678
  53   2.0000      -0.687659       -18.7122
  54   2.0000      -0.670713       -18.2510
  55   2.0000      -0.630332       -17.1522
  56   2.0000      -0.616169       -16.7668
  57   2.0000      -0.599010       -16.2999
  58   2.0000      -0.593770       -16.1573
  59   2.0000      -0.591953       -16.1078
  60   2.0000      -0.531027       -14.4500
  61   2.0000      -0.518471       -14.1083
  62   2.0000      -0.498447       -13.5634
  63   2.0000      -0.485929       -13.2228
  64   2.0000      -0.470455       -12.8017
  65   2.0000      -0.461772       -12.5654
  66   2.0000      -0.458642       -12.4803
  67   2.0000      -0.450635       -12.2624
  68   2.0000      -0.442506       -12.0412
  69   2.0000      -0.432270       -11.7627
  70   2.0000      -0.420627       -11.4458
  71   2.0000      -0.411192       -11.1891
  72   2.0000      -0.405114       -11.0237
  73   2.0000      -0.402022       -10.9396
  74   2.0000      -0.392463       -10.6794
  75   2.0000      -0.390329       -10.6214
  76   2.0000      -0.376674       -10.2498
  77   2.0000      -0.368196       -10.0191
  78   2.0000      -0.361357        -9.8330
  79   2.0000      -0.359310        -9.7773
  80   2.0000      -0.356465        -9.6999
  81   2.0000      -0.352036        -9.5794
  82   2.0000      -0.350170        -9.5286
  83   2.0000      -0.345259        -9.3950
  84   2.0000      -0.341453        -9.2914
  85   2.0000      -0.327438        -8.9100
  86   2.0000      -0.324147        -8.8205
  87   2.0000      -0.314453        -8.5567
  88   2.0000      -0.307060        -8.3555
  89   2.0000      -0.304628        -8.2893
  90   2.0000      -0.298210        -8.1147
  91   2.0000      -0.290577        -7.9070
  92   2.0000      -0.282620        -7.6905
  93   2.0000      -0.279170        -7.5966
  94   2.0000      -0.274669        -7.4741
  95   2.0000      -0.251165        -6.8345
  96   2.0000      -0.243082        -6.6146
  97   2.0000      -0.233906        -6.3649
  98   2.0000      -0.222005        -6.0411
  99   2.0000      -0.220976        -6.0131
 100   2.0000      -0.213025        -5.7967
 101   0.0000      -0.049498        -1.3469
 102   0.0000      -0.041831        -1.1383
 103   0.0000      -0.012437        -0.3384
 104   0.0000       0.003517         0.0957
 105   0.0000       0.013389         0.3643

MULLIKEN ATOMIC CHARGES
-----------------------
   0 C :   -0.481455
   1 C :   -0.145069
   2 O :   -0.301859
   3 P :    0.683708
   4 S :   -0.478923
   5 O :   -0.296967
   6 C :   -0.095141
   7 C :   -0.499194
   8 S :   -0.179381
   9 C :   -0.222762
  10 S :   -0.152325
  11 P :    0.705772
  12 S :   -0.498080
  13 O :   -0.331540
  14 C :   -0.126685
  15 C :   -0.491669
  16 O :   -0.327365
  17 C :   -0.144956
  18 C :   -0.482312
  19 H :    0.166994
  20 H :    0.166290
  21 H :    0.169758
  22 H :    0.169020
  23 H :    0.173076
  24 H :    0.180960
  25 H :    0.171776
  26 H :    0.169596
  27 H :    0.167410
  28 H :    0.171239
  29 H :    0.230479
  30 H :    0.220912
  31 H :    0.167050
  32 H :    0.171502
  33 H :    0.169175
  34 H :    0.162998
  35 H :    0.172144
  36 H :    0.174303
  37 H :    0.177222
  38 H :    0.169993
  39 H :    0.171849
  40 H :    0.172457
Sum of atomic charges:    0.0000000

LOEWDIN ATOMIC CHARGES
----------------------
   0 C :   -0.388965
   1 C :    0.024212
   2 O :   -0.682412
   3 P :    0.377054
   4 S :   -0.127065
   5 O :   -0.682967
   6 C :    0.029276
   7 C :   -0.395115
   8 S :    0.135367
   9 C :   -0.416149
  10 S :    0.145712
  11 P :    0.386415
  12 S :   -0.153282
  13 O :   -0.665960
  14 C :    0.025275
  15 C :   -0.409383
  16 O :   -0.676728
  17 C :    0.026528
  18 C :   -0.406532
  19 H :    0.163499
  20 H :    0.163220
  21 H :    0.169199
  22 H :    0.179634
  23 H :    0.181671
  24 H :    0.190510
  25 H :    0.182302
  26 H :    0.165753
  27 H :    0.163529
  28 H :    0.168909
  29 H :    0.192765
  30 H :    0.197874
  31 H :    0.182439
  32 H :    0.186151
  33 H :    0.168435
  34 H :    0.161983
  35 H :    0.170874
  36 H :    0.190922
  37 H :    0.180461
  38 H :    0.161612
  39 H :    0.164852
  40 H :    0.168128

  Mayer bond orders larger than 0.100000
B(  0-C ,  1-C ) :   0.9549 B(  0-C , 19-H ) :   0.9691 B(  0-C , 20-H ) :   0.9684
B(  0-C , 21-H ) :   0.9576 B(  1-C ,  2-O ) :   0.7797 B(  1-C , 22-H ) :   0.9330
B(  1-C , 23-H ) :   0.9468 B(  2-O ,  3-P ) :   1.0726 B(  3-P ,  4-S ) :   1.8049
B(  3-P ,  5-O ) :   1.1376 B(  3-P ,  8-S ) :   1.0000 B(  5-O ,  6-C ) :   0.7286
B(  6-C ,  7-C ) :   0.9308 B(  6-C , 24-H ) :   0.9514 B(  6-C , 25-H ) :   0.9551
B(  7-C , 26-H ) :   0.9662 B(  7-C , 27-H ) :   0.9701 B(  7-C , 28-H ) :   0.9592
B(  8-S ,  9-C ) :   0.9252 B(  9-C , 10-S ) :   0.8828 B(  9-C , 29-H ) :   0.8982
B(  9-C , 30-H ) :   0.9052 B( 10-S , 11-P ) :   1.0708 B( 11-P , 12-S ) :   1.7337
B( 11-P , 13-O ) :   1.1442 B( 11-P , 16-O ) :   1.1271 B( 13-O , 14-C ) :   0.7612
B( 14-C , 15-C ) :   0.9373 B( 14-C , 31-H ) :   0.9533 B( 14-C , 32-H ) :   0.9555
B( 15-C , 33-H ) :   0.9624 B( 15-C , 34-H ) :   0.9708 B( 15-C , 35-H ) :   0.9554
B( 16-O , 17-C ) :   0.8086 B( 17-C , 18-C ) :   0.8993 B( 17-C , 36-H ) :   0.9492
B( 17-C , 37-H ) :   0.9675 B( 18-C , 38-H ) :   0.9628 B( 18-C , 39-H ) :   0.9656
B( 18-C , 40-H ) :   0.9554

Dispersion correction           -0.021654717
FINAL SINGLE POINT ENERGY     -2932.469607585654

DIPOLE MOMENT
-------------

Method             : SCF
Type of density    : Electron Density
Multiplicity       :   1
Irrep              :   0
Energy             : -2932.4944909095938783 Eh
Relativity type    :
Basis              : AO
                                X                 Y                 Z
Electronic contribution:    -11.784384800       0.780707416      -7.303787455
Nuclear contribution   :     13.277105287      -2.743496058       8.160810546
                        -----------------------------------------
Total Dipole Moment    :      1.492720487      -1.962788642       0.857023091
                        -----------------------------------------
Magnitude (a.u.)       :      2.610601900
Magnitude (Debye)      :      6.635622689

Rotational constants in cm-1:             0.013052             0.004763             0.004575
Rotational constants in MHz :           391.300651           142.784331           137.155417

                             ****ORCA TERMINATED NORMALLY****
TOTAL RUN TIME: 0 days 0 hours 1 minutes 46 seconds 819 msec
