                         Program Version 6.0.1  -  RELEASE   -
|  1> ! r2scan-3c def2/J RI DEFGRID2 scfconv6 printgap
|  2> %output
|  3>     printlevel normal
|  4> end
|  5> * xyz 0 1
|  6> C 2.6933621762 -3.5219192226 -0.237563998
|  7> C 3.2617933755 -2.112059962 -0.2264150911
|  8> O 2.3072008126 -1.1735029031 -0.7590486092
|  9> C 2.2518897861 -1.0113579407 -2.0710862694
| 10> O 2.9927049446 -1.5595692936 -2.8556064444
| 11> C 1.1620512305 -0.0475073294 -2.4914977836
| 12> C 0.3183387792 0.4511443032 -1.327471319
| 13> H -0.3972913211 1.2039355506 -1.6816034393
| 14> C 1.1871777455 1.1236937694 -0.2791907991
| 15> O 2.1152582833 1.8426316227 -0.5702614758
| 16> O 0.7965429218 0.8520398508 0.9481088456
| 17> C 1.4959312854 1.4704414571 2.0463362014
| 18> C 0.8314855555 2.7783900069 2.4396299241
| 19> S -0.661893159 -0.9039227393 -0.6002326779
| 20> P -1.961263142 0.2878549971 0.5916520575
| 21> S -2.163894508 2.1615033177 0.0588778499
| 22> O -3.3215245283 -0.5598465694 0.5408659938
| 23> C -4.0855595433 -0.662919022 -0.6646424679
| 24> O -1.5928820183 0.114221375 2.1169412684
| 25> C -1.4205879815 -1.1827762983 2.7197475284
| 26> H 3.3905903975 -4.1930792359 0.252621936
| 27> H 1.740151186 -3.545130927 0.2836486559
| 28> H 2.5422534989 -3.8533550691 -1.2620188518
| 29> H 4.1760361751 -2.0545352451 -0.8238132632
| 30> H 3.4508744616 -1.7638235384 0.7894226906
| 31> H 0.5402206752 -0.5437957867 -3.2378702443
| 32> H 1.6505737474 0.805195421 -2.9698625386
| 33> H 1.4419825609 0.7401590981 2.854053498
| 34> H 2.5327526948 1.6336856819 1.7395502581
| 35> H 1.3317477532 3.1899368216 3.3096965122
| 36> H 0.8924649107 3.4931146949 1.6215118846
| 37> H -0.2175600785 2.6088631427 2.6720750163
| 38> H -4.2517991278 0.3280974038 -1.090007172
| 39> H -5.0312001526 -1.1139764047 -0.3750929864
| 40> H -3.5620767958 -1.2940345979 -1.382618268
| 41> H -2.3508347133 -1.7450325747 2.6679128687
| 42> H -1.1479733588 -0.9829852962 3.7527353564
| 43> H -0.6267607367 -1.7251790512 2.2066437835
| 44> *
| 45>
| 46>                          ****END OF INPUT****

CARTESIAN COORDINATES (ANGSTROEM)
---------------------------------
  C      2.693362   -3.521919   -0.237564
  C      3.261793   -2.112060   -0.226415
  O      2.307201   -1.173503   -0.759049
  C      2.251890   -1.011358   -2.071086
  O      2.992705   -1.559569   -2.855606
  C      1.162051   -0.047507   -2.491498
  C      0.318339    0.451144   -1.327471
  H     -0.397291    1.203936   -1.681603
  C      1.187178    1.123694   -0.279191
  O      2.115258    1.842632   -0.570261
  O      0.796543    0.852040    0.948109
  C      1.495931    1.470441    2.046336
  C      0.831486    2.778390    2.439630
  S     -0.661893   -0.903923   -0.600233
  P     -1.961263    0.287855    0.591652
  S     -2.163895    2.161503    0.058878
  O     -3.321525   -0.559847    0.540866
  C     -4.085560   -0.662919   -0.664642
  O     -1.592882    0.114221    2.116941
  C     -1.420588   -1.182776    2.719748
  H      3.390590   -4.193079    0.252622
  H      1.740151   -3.545131    0.283649
  H      2.542253   -3.853355   -1.262019
  H      4.176036   -2.054535   -0.823813
  H      3.450874   -1.763824    0.789423
  H      0.540221   -0.543796   -3.237870
  H      1.650574    0.805195   -2.969863
  H      1.441983    0.740159    2.854053
  H      2.532753    1.633686    1.739550
  H      1.331748    3.189937    3.309697
  H      0.892465    3.493115    1.621512
  H     -0.217560    2.608863    2.672075
  H     -4.251799    0.328097   -1.090007
  H     -5.031200   -1.113976   -0.375093
  H     -3.562077   -1.294035   -1.382618
  H     -2.350835   -1.745033    2.667913
  H     -1.147973   -0.982985    3.752735
  H     -0.626761   -1.725179    2.206644

 Total Charge           Charge          ....    0
 Multiplicity           Mult            ....    1
 Number of Electrons    NEL             ....  174
 Basis Dimension        Dim             ....  510

ORBITAL ENERGIES
----------------

  NO   OCC          E(Eh)            E(eV)
   0   2.0000     -88.577703     -2410.3218
   1   2.0000     -88.522189     -2408.8112
   2   2.0000     -76.917732     -2093.0379
   3   2.0000     -19.008382      -517.2444
   4   2.0000     -19.003179      -517.1028
   5   2.0000     -18.999783      -517.0104
   6   2.0000     -18.994560      -516.8683
   7   2.0000     -18.936522      -515.2889
   8   2.0000     -18.935643      -515.2650
   9   2.0000     -10.164057      -276.5781
  10   2.0000     -10.164030      -276.5773
  11   2.0000     -10.104307      -274.9522
  12   2.0000     -10.099922      -274.8329
  13   2.0000     -10.096037      -274.7271
  14   2.0000     -10.094752      -274.6922
  15   2.0000     -10.094379      -274.6820
  16   2.0000     -10.065450      -273.8948
  17   2.0000     -10.035207      -273.0719
  18   2.0000     -10.023225      -272.7458
  19   2.0000      -7.871964      -214.2070
  20   2.0000      -7.816906      -212.7088
  21   2.0000      -6.595980      -179.4858
  22   2.0000      -5.818743      -158.3360
  23   2.0000      -5.815945      -158.2599
  24   2.0000      -5.809064      -158.0727
  25   2.0000      -5.764791      -156.8679
  26   2.0000      -5.757070      -156.6578
  27   2.0000      -5.756797      -156.6504
  28   2.0000      -4.741666      -129.0273
  29   2.0000      -4.741025      -129.0099
  30   2.0000      -4.739488      -128.9680
  31   2.0000      -1.086182       -29.5565
  32   2.0000      -1.080382       -29.3987
  33   2.0000      -1.055638       -28.7254
  34   2.0000      -1.013268       -27.5724
  35   2.0000      -0.987502       -26.8713
  36   2.0000      -0.985856       -26.8265
  37   2.0000      -0.815884       -22.2013
  38   2.0000      -0.757758       -20.6196
  39   2.0000      -0.742172       -20.1955
  40   2.0000      -0.736345       -20.0370
  41   2.0000      -0.701734       -19.0952
  42   2.0000      -0.680441       -18.5157
  43   2.0000      -0.661624       -18.0037
  44   2.0000      -0.651490       -17.7279
  45   2.0000      -0.635610       -17.2958
  46   2.0000      -0.603403       -16.4194
  47   2.0000      -0.545826       -14.8527
  48   2.0000      -0.535850       -14.5812
  49   2.0000      -0.528341       -14.3769
  50   2.0000      -0.505136       -13.7454
  51   2.0000      -0.497740       -13.5442
  52   2.0000      -0.487578       -13.2677
  53   2.0000      -0.464620       -12.6429
  54   2.0000      -0.461201       -12.5499
  55   2.0000      -0.456468       -12.4211
  56   2.0000      -0.449874       -12.2417
  57   2.0000      -0.446685       -12.1549
  58   2.0000      -0.437303       -11.8996
  59   2.0000      -0.430161       -11.7053
  60   2.0000      -0.423825       -11.5329
  61   2.0000      -0.422274       -11.4907
  62   2.0000      -0.418270       -11.3817
  63   2.0000      -0.408464       -11.1149
  64   2.0000      -0.394013       -10.7216
  65   2.0000      -0.389608       -10.6018
  66   2.0000      -0.376088       -10.2339
  67   2.0000      -0.370298       -10.0763
  68   2.0000      -0.364215        -9.9108
  69   2.0000      -0.354908        -9.6575
  70   2.0000      -0.353118        -9.6088
  71   2.0000      -0.344600        -9.3770
  72   2.0000      -0.337836        -9.1930
  73   2.0000      -0.336346        -9.1524
  74   2.0000      -0.329154        -8.9567
  75   2.0000      -0.320012        -8.7080
  76   2.0000      -0.316554        -8.6139
  77   2.0000      -0.309987        -8.4352
  78   2.0000      -0.291030        -7.9193
  79   2.0000      -0.284056        -7.7296
  80   2.0000      -0.280516        -7.6332
  81   2.0000      -0.274912        -7.4807
  82   2.0000      -0.261739        -7.1223
  83   2.0000      -0.245646        -6.6844
  84   2.0000      -0.229107        -6.2343
  85   2.0000      -0.220375        -5.9967
  86   2.0000      -0.217099        -5.9076
  87   0.0000      -0.046650        -1.2694
  88   0.0000      -0.021957        -0.5975
  89   0.0000      -0.020049        -0.5456
  90   0.0000       0.002578         0.0701
  91   0.0000       0.011472         0.3122

MULLIKEN ATOMIC CHARGES
-----------------------
   0 C :   -0.457361
   1 C :   -0.160221
   2 O :   -0.103346
   3 C :    0.288634
   4 O :   -0.397064
   5 C :   -0.401212
   6 C :    0.077135
   7 H :    0.254780
   8 C :    0.188803
   9 O :   -0.385786
  10 O :   -0.125822
  11 C :   -0.135846
  12 C :   -0.474018
  13 S :   -0.237639
  14 P :    0.779672
  15 S :   -0.443448
  16 O :   -0.345093
  17 C :   -0.296230
  18 O :   -0.312592
  19 C :   -0.298660
  20 H :    0.149393
  21 H :    0.152403
  22 H :    0.175184
  23 H :    0.172866
  24 H :    0.151462
  25 H :    0.195379
  26 H :    0.202882
  27 H :    0.141528
  28 H :    0.171671
  29 H :    0.144897
  30 H :    0.169728
  31 H :    0.175121
  32 H :    0.174500
  33 H :    0.152084
  34 H :    0.158907
  35 H :    0.170906
  36 H :    0.157142
  37 H :    0.169264
Sum of atomic charges:    0.0000000

LOEWDIN ATOMIC CHARGES
----------------------
   0 C :   -0.388164
   1 C :    0.037337
   2 O :   -0.612592
   3 C :    0.365585
   4 O :   -0.416641
   5 C :   -0.201358
   6 C :   -0.198782
   7 H :    0.211309
   8 C :    0.350086
   9 O :   -0.415526
  10 O :   -0.620903
  11 C :    0.034641
  12 C :   -0.389394
  13 S :    0.217840
  14 P :    0.398567
  15 S :   -0.090007
  16 O :   -0.685889
  17 C :   -0.060397
  18 O :   -0.651029
  19 C :   -0.052882
  20 H :    0.159942
  21 H :    0.158184
  22 H :    0.166724
  23 H :    0.191439
  24 H :    0.179032
  25 H :    0.192497
  26 H :    0.208643
  27 H :    0.177222
  28 H :    0.192332
  29 H :    0.156733
  30 H :    0.166648
  31 H :    0.167630
  32 H :    0.176538
  33 H :    0.177193
  34 H :    0.169019
  35 H :    0.175507
  36 H :    0.179863
  37 H :    0.173054

  Mayer bond orders larger than 0.100000
B(  0-C ,  1-C ) :   0.9270 B(  0-C , 20-H ) :   0.9645 B(  0-C , 21-H ) :   0.9735
B(  0-C , 22-H ) :   0.9706 B(  1-C ,  2-O ) :   0.7975 B(  1-C , 23-H ) :   0.9633
B(  1-C , 24-H ) :   0.9640 B(  2-O ,  3-C ) :   1.0926 B(  2-O ,  8-C ) :   0.1151
B(  3-C ,  4-O ) :   1.9072 B(  3-C ,  5-C ) :   0.9528 B(  5-C ,  6-C ) :   0.9567
B(  5-C , 25-H ) :   0.9580 B(  5-C , 26-H ) :   0.9124 B(  6-C ,  7-H ) :   0.8951
B(  6-C ,  8-C ) :   0.8489 B(  6-C , 13-S ) :   0.7844 B(  8-C ,  9-O ) :   1.8907
B(  8-C , 10-O ) :   1.1399 B( 10-O , 11-C ) :   0.7656 B( 11-C , 12-C ) :   0.9331
B( 11-C , 27-H ) :   0.9632 B( 11-C , 28-H ) :   0.9610 B( 12-C , 29-H ) :   0.9682
B( 12-C , 30-H ) :   0.9677 B( 12-C , 31-H ) :   0.9652 B( 13-S , 14-P ) :   0.9829
B( 14-P , 15-S ) :   1.7952 B( 14-P , 16-O ) :   1.0313 B( 14-P , 18-O ) :   1.1460
B( 16-O , 17-C ) :   0.8330 B( 17-C , 32-H ) :   0.9594 B( 17-C , 33-H ) :   0.9668
B( 17-C , 34-H ) :   0.9567 B( 18-O , 19-C ) :   0.7930 B( 19-C , 35-H ) :   0.9603
B( 19-C , 36-H ) :   0.9654 B( 19-C , 37-H ) :   0.9579

Dispersion correction           -0.018298930
FINAL SINGLE POINT ENERGY     -1981.453939659209

DIPOLE MOMENT
-------------

Method             : SCF
Type of density    : Electron Density
Multiplicity       :   1
Irrep              :   0
Energy             : -1981.4732173486404463 Eh
Relativity type    :
Basis              : AO
                                X                 Y                 Z
Electronic contribution:     -8.041044558       7.086863585      -6.933500530
Nuclear contribution   :      7.609777588      -8.567883557       8.228762276
                        -----------------------------------------
Total Dipole Moment    :     -0.431266970      -1.481019972       1.295261747
                        -----------------------------------------
Magnitude (a.u.)       :      2.014227978
Magnitude (Debye)      :      5.119760647

Rotational constants in cm-1:             0.013629             0.007466             0.006718
Rotational constants in MHz :           408.579708           223.822730           201.398155

                             ****ORCA TERMINATED NORMALLY****
TOTAL RUN TIME: 0 days 0 hours 1 minutes 29 seconds 125 msec
