                         Program Version 6.0.1  -  RELEASE   -
|  1> ! r2scan-3c def2/J RI DEFGRID2 scfconv6 printgap
|  2> %output
|  3>     printlevel normal
|  4> end
|  5> %cpcm
|  6>     smd true
|  7>     smdsolvent "water"
|  8> end
|  9> * xyz 0 1
| 10> C 2.6933621762 -3.5219192226 -0.237563998
| 11> C 3.2617933755 -2.112059962 -0.2264150911
| 12> O 2.3072008126 -1.1735029031 -0.7590486092
| 13> C 2.2518897861 -1.0113579407 -2.0710862694
| 14> O 2.9927049446 -1.5595692936 -2.8556064444
| 15> C 1.1620512305 -0.0475073294 -2.4914977836
| 16> C 0.3183387792 0.4511443032 -1.327471319
| 17> H -0.3972913211 1.2039355506 -1.6816034393
| 18> C 1.1871777455 1.1236937694 -0.2791907991
| 19> O 2.1152582833 1.8426316227 -0.5702614758
| 20> O 0.7965429218 0.8520398508 0.9481088456
| 21> C 1.4959312854 1.4704414571 2.0463362014
| 22> C 0.8314855555 2.7783900069 2.4396299241
| 23> S -0.661893159 -0.9039227393 -0.6002326779
| 24> P -1.961263142 0.2878549971 0.5916520575
| 25> S -2.163894508 2.1615033177 0.0588778499
| 26> O -3.3215245283 -0.5598465694 0.5408659938
| 27> C -4.0855595433 -0.662919022 -0.6646424679
| 28> O -1.5928820183 0.114221375 2.1169412684
| 29> C -1.4205879815 -1.1827762983 2.7197475284
| 30> H 3.3905903975 -4.1930792359 0.252621936
| 31> H 1.740151186 -3.545130927 0.2836486559
| 32> H 2.5422534989 -3.8533550691 -1.2620188518
| 33> H 4.1760361751 -2.0545352451 -0.8238132632
| 34> H 3.4508744616 -1.7638235384 0.7894226906
| 35> H 0.5402206752 -0.5437957867 -3.2378702443
| 36> H 1.6505737474 0.805195421 -2.9698625386
| 37> H 1.4419825609 0.7401590981 2.854053498
| 38> H 2.5327526948 1.6336856819 1.7395502581
| 39> H 1.3317477532 3.1899368216 3.3096965122
| 40> H 0.8924649107 3.4931146949 1.6215118846
| 41> H -0.2175600785 2.6088631427 2.6720750163
| 42> H -4.2517991278 0.3280974038 -1.090007172
| 43> H -5.0312001526 -1.1139764047 -0.3750929864
| 44> H -3.5620767958 -1.2940345979 -1.382618268
| 45> H -2.3508347133 -1.7450325747 2.6679128687
| 46> H -1.1479733588 -0.9829852962 3.7527353564
| 47> H -0.6267607367 -1.7251790512 2.2066437835
| 48> *
| 49>
| 50>                          ****END OF INPUT****

CARTESIAN COORDINATES (ANGSTROEM)
---------------------------------
  C      2.693362   -3.521919   -0.237564
  C      3.261793   -2.112060   -0.226415
  O      2.307201   -1.173503   -0.759049
  C      2.251890   -1.011358   -2.071086
  O      2.992705   -1.559569   -2.855606
  C      1.162051   -0.047507   -2.491498
  C      0.318339    0.451144   -1.327471
  H     -0.397291    1.203936   -1.681603
  C      1.187178    1.123694   -0.279191
  O      2.115258    1.842632   -0.570261
  O      0.796543    0.852040    0.948109
  C      1.495931    1.470441    2.046336
  C      0.831486    2.778390    2.439630
  S     -0.661893   -0.903923   -0.600233
  P     -1.961263    0.287855    0.591652
  S     -2.163895    2.161503    0.058878
  O     -3.321525   -0.559847    0.540866
  C     -4.085560   -0.662919   -0.664642
  O     -1.592882    0.114221    2.116941
  C     -1.420588   -1.182776    2.719748
  H      3.390590   -4.193079    0.252622
  H      1.740151   -3.545131    0.283649
  H      2.542253   -3.853355   -1.262019
  H      4.176036   -2.054535   -0.823813
  H      3.450874   -1.763824    0.789423
  H      0.540221   -0.543796   -3.237870
  H      1.650574    0.805195   -2.969863
  H      1.441983    0.740159    2.854053
  H      2.532753    1.633686    1.739550
  H      1.331748    3.189937    3.309697
  H      0.892465    3.493115    1.621512
  H     -0.217560    2.608863    2.672075
  H     -4.251799    0.328097   -1.090007
  H     -5.031200   -1.113976   -0.375093
  H     -3.562077   -1.294035   -1.382618
  H     -2.350835   -1.745033    2.667913
  H     -1.147973   -0.982985    3.752735
  H     -0.626761   -1.725179    2.206644

 Total Charge           Charge          ....    0
 Multiplicity           Mult            ....    1
 Number of Electrons    NEL             ....  174
 Basis Dimension        Dim             ....  510

ORBITAL ENERGIES
----------------

  NO   OCC          E(Eh)            E(eV)
   0   2.0000     -88.577287     -2410.3105
   1   2.0000     -88.528597     -2408.9856
   2   2.0000     -76.919714     -2093.0918
   3   2.0000     -19.010827      -517.3109
   4   2.0000     -19.007993      -517.2338
   5   2.0000     -18.997324      -516.9435
   6   2.0000     -18.993304      -516.8341
   7   2.0000     -18.950368      -515.6657
   8   2.0000     -18.948575      -515.6169
   9   2.0000     -10.174278      -276.8562
  10   2.0000     -10.172580      -276.8100
  11   2.0000     -10.095648      -274.7165
  12   2.0000     -10.087491      -274.4946
  13   2.0000     -10.086540      -274.4687
  14   2.0000     -10.084781      -274.4208
  15   2.0000     -10.081030      -274.3188
  16   2.0000     -10.060803      -273.7684
  17   2.0000     -10.019876      -272.6547
  18   2.0000     -10.018148      -272.6077
  19   2.0000      -7.871488      -214.1941
  20   2.0000      -7.823676      -212.8931
  21   2.0000      -6.598025      -179.5414
  22   2.0000      -5.818330      -158.3248
  23   2.0000      -5.815517      -158.2483
  24   2.0000      -5.808481      -158.0568
  25   2.0000      -5.771431      -157.0486
  26   2.0000      -5.763890      -156.8434
  27   2.0000      -5.763577      -156.8349
  28   2.0000      -4.743654      -129.0814
  29   2.0000      -4.743031      -129.0644
  30   2.0000      -4.741667      -129.0273
  31   2.0000      -1.091461       -29.7002
  32   2.0000      -1.085771       -29.5453
  33   2.0000      -1.053473       -28.6665
  34   2.0000      -1.010584       -27.4994
  35   2.0000      -0.999285       -27.1919
  36   2.0000      -0.996674       -27.1209
  37   2.0000      -0.815076       -22.1793
  38   2.0000      -0.752325       -20.4718
  39   2.0000      -0.738557       -20.0971
  40   2.0000      -0.729409       -19.8482
  41   2.0000      -0.696175       -18.9439
  42   2.0000      -0.669881       -18.2284
  43   2.0000      -0.659434       -17.9441
  44   2.0000      -0.651175       -17.7194
  45   2.0000      -0.628586       -17.1047
  46   2.0000      -0.600153       -16.3310
  47   2.0000      -0.540554       -14.7092
  48   2.0000      -0.529727       -14.4146
  49   2.0000      -0.525555       -14.3011
  50   2.0000      -0.504711       -13.7339
  51   2.0000      -0.491133       -13.3644
  52   2.0000      -0.485482       -13.2106
  53   2.0000      -0.469084       -12.7644
  54   2.0000      -0.462478       -12.5847
  55   2.0000      -0.453808       -12.3487
  56   2.0000      -0.450091       -12.2476
  57   2.0000      -0.446129       -12.1398
  58   2.0000      -0.435748       -11.8573
  59   2.0000      -0.427213       -11.6251
  60   2.0000      -0.421524       -11.4703
  61   2.0000      -0.413152       -11.2424
  62   2.0000      -0.410404       -11.1677
  63   2.0000      -0.404017       -10.9939
  64   2.0000      -0.390695       -10.6314
  65   2.0000      -0.386420       -10.5150
  66   2.0000      -0.371792       -10.1170
  67   2.0000      -0.365835        -9.9549
  68   2.0000      -0.360542        -9.8109
  69   2.0000      -0.354260        -9.6399
  70   2.0000      -0.347086        -9.4447
  71   2.0000      -0.341888        -9.3033
  72   2.0000      -0.336694        -9.1619
  73   2.0000      -0.331645        -9.0245
  74   2.0000      -0.323381        -8.7997
  75   2.0000      -0.315544        -8.5864
  76   2.0000      -0.309919        -8.4333
  77   2.0000      -0.306714        -8.3461
  78   2.0000      -0.288125        -7.8403
  79   2.0000      -0.286663        -7.8005
  80   2.0000      -0.281537        -7.6610
  81   2.0000      -0.278897        -7.5892
  82   2.0000      -0.270184        -7.3521
  83   2.0000      -0.258984        -7.0473
  84   2.0000      -0.235627        -6.4117
  85   2.0000      -0.228196        -6.2095
  86   2.0000      -0.222218        -6.0469
  87   0.0000      -0.048628        -1.3232
  88   0.0000      -0.029003        -0.7892
  89   0.0000      -0.026668        -0.7257
  90   0.0000       0.004548         0.1237
  91   0.0000       0.010711         0.2915

MULLIKEN ATOMIC CHARGES
-----------------------
   0 C :   -0.482670
   1 C :   -0.166238
   2 O :   -0.117422
   3 C :    0.333214
   4 O :   -0.472053
   5 C :   -0.454901
   6 C :    0.095302
   7 H :    0.276625
   8 C :    0.192394
   9 O :   -0.450546
  10 O :   -0.134891
  11 C :   -0.139218
  12 C :   -0.505352
  13 S :   -0.223578
  14 P :    0.801750
  15 S :   -0.500801
  16 O :   -0.372519
  17 C :   -0.307960
  18 O :   -0.349972
  19 C :   -0.300687
  20 H :    0.173159
  21 H :    0.166906
  22 H :    0.171492
  23 H :    0.175587
  24 H :    0.180982
  25 H :    0.230366
  26 H :    0.230335
  27 H :    0.180063
  28 H :    0.178235
  29 H :    0.172426
  30 H :    0.169725
  31 H :    0.169733
  32 H :    0.176403
  33 H :    0.179002
  34 H :    0.175100
  35 H :    0.184899
  36 H :    0.184053
  37 H :    0.181053
Sum of atomic charges:    0.0000000

LOEWDIN ATOMIC CHARGES
----------------------
   0 C :   -0.389752
   1 C :    0.042697
   2 O :   -0.610131
   3 C :    0.372599
   4 O :   -0.472564
   5 C :   -0.196663
   6 C :   -0.194006
   7 H :    0.218781
   8 C :    0.352884
   9 O :   -0.465219
  10 O :   -0.619405
  11 C :    0.041402
  12 C :   -0.393542
  13 S :    0.232081
  14 P :    0.400468
  15 S :   -0.132472
  16 O :   -0.696512
  17 C :   -0.056373
  18 O :   -0.669491
  19 C :   -0.043457
  20 H :    0.169044
  21 H :    0.163228
  22 H :    0.163669
  23 H :    0.192308
  24 H :    0.191590
  25 H :    0.206516
  26 H :    0.216115
  27 H :    0.192372
  28 H :    0.195214
  29 H :    0.167137
  30 H :    0.162751
  31 H :    0.163806
  32 H :    0.177139
  33 H :    0.188448
  34 H :    0.175881
  35 H :    0.181931
  36 H :    0.191801
  37 H :    0.179725

  Mayer bond orders larger than 0.100000
B(  0-C ,  1-C ) :   0.9248 B(  0-C , 20-H ) :   0.9588 B(  0-C , 21-H ) :   0.9698
B(  0-C , 22-H ) :   0.9691 B(  1-C ,  2-O ) :   0.7830 B(  1-C , 23-H ) :   0.9572
B(  1-C , 24-H ) :   0.9532 B(  2-O ,  3-C ) :   1.1230 B(  2-O ,  8-C ) :   0.1126
B(  3-C ,  4-O ) :   1.8439 B(  3-C ,  5-C ) :   0.9324 B(  5-C ,  6-C ) :   0.9380
B(  5-C , 25-H ) :   0.9431 B(  5-C , 26-H ) :   0.9200 B(  6-C ,  7-H ) :   0.8842
B(  6-C ,  8-C ) :   0.8490 B(  6-C , 13-S ) :   0.7844 B(  8-C ,  9-O ) :   1.8324
B(  8-C , 10-O ) :   1.1582 B( 10-O , 11-C ) :   0.7537 B( 11-C , 12-C ) :   0.9153
B( 11-C , 27-H ) :   0.9534 B( 11-C , 28-H ) :   0.9564 B( 12-C , 29-H ) :   0.9620
B( 12-C , 30-H ) :   0.9700 B( 12-C , 31-H ) :   0.9673 B( 13-S , 14-P ) :   0.9982
B( 14-P , 15-S ) :   1.7638 B( 14-P , 16-O ) :   1.0378 B( 14-P , 18-O ) :   1.1529
B( 16-O , 17-C ) :   0.8254 B( 17-C , 32-H ) :   0.9557 B( 17-C , 33-H ) :   0.9571
B( 17-C , 34-H ) :   0.9506 B( 18-O , 19-C ) :   0.7859 B( 19-C , 35-H ) :   0.9521
B( 19-C , 36-H ) :   0.9544 B( 19-C , 37-H ) :   0.9490

Dispersion correction           -0.018298930
FINAL SINGLE POINT ENERGY     -1981.468781534063

DIPOLE MOMENT
-------------

Method             : SCF
Type of density    : Electron Density
Multiplicity       :   1
Irrep              :   0
Energy             : -1981.4880592234947017 Eh
Relativity type    :
Basis              : AO
                                X                 Y                 Z
Electronic contribution:     -8.214363122       6.417247208      -6.487248863
Nuclear contribution   :      7.609777588      -8.567883557       8.228762276
                        -----------------------------------------
Total Dipole Moment    :     -0.604585534      -2.150636349       1.741513413
                        -----------------------------------------
Magnitude (a.u.)       :      2.832601162
Magnitude (Debye)      :      7.199899967

Rotational constants in cm-1:             0.013629             0.007466             0.006718
Rotational constants in MHz :           408.579708           223.822730           201.398155

                             ****ORCA TERMINATED NORMALLY****
TOTAL RUN TIME: 0 days 0 hours 1 minutes 55 seconds 1 msec
