                         Program Version 6.0.0  -   RELEASE  -
|  1> ! pbe def2-sv(p) def2/J RI DEFGRID1 loosescf d4 GCP(DFT/SV(P)) printgap
|  2> %output
|  3>     printlevel normal
|  4> end
|  5> * xyz 0 1
|  6> C 1.9658202683 -1.432890692 -2.8720814833
|  7> C 2.6371131199 -0.1636913151 -2.386765731
|  8> O 3.1944763784 -0.3534302114 -1.0721925814
|  9> P 2.5259295685 0.1203003423 0.2878962966
| 10> S 2.1512859946 2.0306570511 0.4870914818
| 11> O 3.6273596309 -0.3151817447 1.3274026301
| 12> C 4.1071698126 -1.6801811856 1.4594798388
| 13> C 3.6280578501 -2.2741333031 2.7690378386
| 14> S 0.8968817649 -1.2104859909 0.5968068198
| 15> C -0.1306298646 -0.1181419454 1.6366036704
| 16> S -1.8900659188 -0.4182526305 1.3997199055
| 17> P -2.2045962637 0.6187566674 -0.4430377301
| 18> S -0.6667257611 0.9438849795 -1.61062774
| 19> O -2.8307487475 2.0170598803 -0.0714399846
| 20> C -3.7654631149 2.3025046716 0.997889773
| 21> C -4.9869462443 1.4086873274 0.9882785226
| 22> O -3.4284334395 -0.1482402189 -1.0983581386
| 23> C -3.5205606666 -1.574293437 -1.2824063481
| 24> C -2.2701824249 -2.1774766016 -1.8869550159
| 25> H 1.6415431089 -1.2862671644 -3.896911359
| 26> H 2.6613976834 -2.2658294938 -2.8263514008
| 27> H 1.0957714954 -1.6571721223 -2.2602915973
| 28> H 1.9318223428 0.6723206331 -2.3678191733
| 29> H 3.4926829548 0.0985189332 -3.0120602563
| 30> H 3.762452078 -2.2664319851 0.6053046252
| 31> H 5.1945489568 -1.5975470071 1.4328016679
| 32> H 2.54814248 -2.3988037578 2.7589050247
| 33> H 4.0945075866 -3.2441144976 2.9084738387
| 34> H 3.902506163 -1.6222189942 3.5936986385
| 35> H 0.1164632788 0.9164093228 1.3816768673
| 36> H 0.0714410826 -0.3254800707 2.6845867117
| 37> H -3.2283882147 2.2150477549 1.946102945
| 38> H -4.0293673438 3.3464495209 0.8207258967
| 39> H -5.4568490723 1.4233671219 0.0084453573
| 40> H -4.7110211486 0.3857507841 1.2366745782
| 41> H -5.6915717066 1.7726661905 1.7298542406
| 42> H -3.734220213 -2.0255761547 -0.309615483
| 43> H -4.3802787646 -1.6923425133 -1.9441299237
| 44> H -2.0137768923 -1.6689516741 -2.8136271717
| 45> H -1.4324708031 -2.0809388218 -1.1961979316
| 46> H -2.4385638763 -3.2304874646 -2.0880713606
| 47> *
| 48>
| 49>                          ****END OF INPUT****

CARTESIAN COORDINATES (ANGSTROEM)
---------------------------------
  C      1.965820   -1.432891   -2.872081
  C      2.637113   -0.163691   -2.386766
  O      3.194476   -0.353430   -1.072193
  P      2.525930    0.120300    0.287896
  S      2.151286    2.030657    0.487091
  O      3.627360   -0.315182    1.327403
  C      4.107170   -1.680181    1.459480
  C      3.628058   -2.274133    2.769038
  S      0.896882   -1.210486    0.596807
  C     -0.130630   -0.118142    1.636604
  S     -1.890066   -0.418253    1.399720
  P     -2.204596    0.618757   -0.443038
  S     -0.666726    0.943885   -1.610628
  O     -2.830749    2.017060   -0.071440
  C     -3.765463    2.302505    0.997890
  C     -4.986946    1.408687    0.988279
  O     -3.428433   -0.148240   -1.098358
  C     -3.520561   -1.574293   -1.282406
  C     -2.270182   -2.177477   -1.886955
  H      1.641543   -1.286267   -3.896911
  H      2.661398   -2.265829   -2.826351
  H      1.095771   -1.657172   -2.260292
  H      1.931822    0.672321   -2.367819
  H      3.492683    0.098519   -3.012060
  H      3.762452   -2.266432    0.605305
  H      5.194549   -1.597547    1.432802
  H      2.548142   -2.398804    2.758905
  H      4.094508   -3.244114    2.908474
  H      3.902506   -1.622219    3.593699
  H      0.116463    0.916409    1.381677
  H      0.071441   -0.325480    2.684587
  H     -3.228388    2.215048    1.946103
  H     -4.029367    3.346450    0.820726
  H     -5.456849    1.423367    0.008445
  H     -4.711021    0.385751    1.236675
  H     -5.691572    1.772666    1.729854
  H     -3.734220   -2.025576   -0.309615
  H     -4.380279   -1.692343   -1.944130
  H     -2.013777   -1.668952   -2.813627
  H     -1.432471   -2.080939   -1.196198
  H     -2.438564   -3.230487   -2.088071

 Total Charge           Charge          ....    0
 Multiplicity           Mult            ....    1
 Number of Electrons    NEL             ....  202
 Basis Dimension        Dim             ....  334

ORBITAL ENERGIES
----------------

  NO   OCC          E(Eh)            E(eV)
   0   2.0000     -88.051924     -2396.0147
   1   2.0000     -88.040133     -2395.6938
   2   2.0000     -87.977316     -2393.9845
   3   2.0000     -87.976767     -2393.9695
   4   2.0000     -76.425745     -2079.6502
   5   2.0000     -76.419887     -2079.4908
   6   2.0000     -18.792189      -511.3615
   7   2.0000     -18.788246      -511.2542
   8   2.0000     -18.787528      -511.2346
   9   2.0000     -18.782787      -511.1056
  10   2.0000      -9.959370      -271.0082
  11   2.0000      -9.956578      -270.9323
  12   2.0000      -9.955273      -270.8968
  13   2.0000      -9.953497      -270.8484
  14   2.0000      -9.946867      -270.6680
  15   2.0000      -9.891092      -269.1503
  16   2.0000      -9.885066      -268.9863
  17   2.0000      -9.883597      -268.9463
  18   2.0000      -9.878959      -268.8201
  19   2.0000      -7.696368      -209.4288
  20   2.0000      -7.684487      -209.1055
  21   2.0000      -7.622304      -207.4134
  22   2.0000      -7.621994      -207.4050
  23   2.0000      -6.422551      -174.7665
  24   2.0000      -6.417405      -174.6265
  25   2.0000      -5.724049      -155.7593
  26   2.0000      -5.720676      -155.6675
  27   2.0000      -5.713844      -155.4816
  28   2.0000      -5.712283      -155.4391
  29   2.0000      -5.709171      -155.3544
  30   2.0000      -5.701453      -155.1444
  31   2.0000      -5.651482      -153.7847
  32   2.0000      -5.651074      -153.7735
  33   2.0000      -5.642855      -153.5499
  34   2.0000      -5.642587      -153.5426
  35   2.0000      -5.642249      -153.5334
  36   2.0000      -5.641971      -153.5258
  37   2.0000      -4.645243      -126.4035
  38   2.0000      -4.644822      -126.3920
  39   2.0000      -4.642544      -126.3301
  40   2.0000      -4.640150      -126.2649
  41   2.0000      -4.639237      -126.2401
  42   2.0000      -4.637640      -126.1966
  43   2.0000      -0.985657       -26.8211
  44   2.0000      -0.982178       -26.7264
  45   2.0000      -0.943905       -25.6850
  46   2.0000      -0.937764       -25.5178
  47   2.0000      -0.762944       -20.7608
  48   2.0000      -0.719884       -19.5891
  49   2.0000      -0.712087       -19.3769
  50   2.0000      -0.692420       -18.8417
  51   2.0000      -0.685589       -18.6558
  52   2.0000      -0.678352       -18.4589
  53   2.0000      -0.649500       -17.6738
  54   2.0000      -0.631292       -17.1783
  55   2.0000      -0.591762       -16.1027
  56   2.0000      -0.586188       -15.9510
  57   2.0000      -0.579877       -15.7793
  58   2.0000      -0.570765       -15.5313
  59   2.0000      -0.564096       -15.3498
  60   2.0000      -0.501561       -13.6482
  61   2.0000      -0.494093       -13.4449
  62   2.0000      -0.473735       -12.8910
  63   2.0000      -0.470965       -12.8156
  64   2.0000      -0.455072       -12.3831
  65   2.0000      -0.449797       -12.2396
  66   2.0000      -0.439855       -11.9691
  67   2.0000      -0.436135       -11.8678
  68   2.0000      -0.432972       -11.7818
  69   2.0000      -0.415706       -11.3119
  70   2.0000      -0.414626       -11.2825
  71   2.0000      -0.402222       -10.9450
  72   2.0000      -0.395740       -10.7686
  73   2.0000      -0.392468       -10.6796
  74   2.0000      -0.376881       -10.2554
  75   2.0000      -0.365385        -9.9426
  76   2.0000      -0.359259        -9.7759
  77   2.0000      -0.355065        -9.6618
  78   2.0000      -0.354449        -9.6450
  79   2.0000      -0.349089        -9.4992
  80   2.0000      -0.348547        -9.4844
  81   2.0000      -0.345696        -9.4069
  82   2.0000      -0.344110        -9.3637
  83   2.0000      -0.339966        -9.2510
  84   2.0000      -0.330273        -8.9872
  85   2.0000      -0.318534        -8.6678
  86   2.0000      -0.309688        -8.4270
  87   2.0000      -0.297716        -8.1013
  88   2.0000      -0.293703        -7.9921
  89   2.0000      -0.287596        -7.8259
  90   2.0000      -0.286170        -7.7871
  91   2.0000      -0.275108        -7.4861
  92   2.0000      -0.270286        -7.3549
  93   2.0000      -0.263778        -7.1778
  94   2.0000      -0.257491        -7.0067
  95   2.0000      -0.240124        -6.5341
  96   2.0000      -0.222732        -6.0609
  97   2.0000      -0.204648        -5.5688
  98   2.0000      -0.196161        -5.3378
  99   2.0000      -0.187528        -5.1029
 100   2.0000      -0.179616        -4.8876
 101   0.0000      -0.046136        -1.2554
 102   0.0000      -0.031618        -0.8604
 103   0.0000      -0.016834        -0.4581
 104   0.0000       0.003571         0.0972
 105   0.0000       0.017741         0.4828

MULLIKEN ATOMIC CHARGES
-----------------------
   0 C :   -0.314320
   1 C :   -0.011243
   2 O :   -0.379384
   3 P :    0.605323
   4 S :   -0.290551
   5 O :   -0.359155
   6 C :   -0.008504
   7 C :   -0.287314
   8 S :   -0.123989
   9 C :   -0.326269
  10 S :   -0.138020
  11 P :    0.593253
  12 S :   -0.303721
  13 O :   -0.354618
  14 C :    0.002337
  15 C :   -0.314161
  16 O :   -0.372523
  17 C :    0.002766
  18 C :   -0.343127
  19 H :    0.110964
  20 H :    0.106911
  21 H :    0.145285
  22 H :    0.130859
  23 H :    0.105649
  24 H :    0.101546
  25 H :    0.111172
  26 H :    0.114918
  27 H :    0.107377
  28 H :    0.119293
  29 H :    0.203149
  30 H :    0.179157
  31 H :    0.108573
  32 H :    0.113565
  33 H :    0.127179
  34 H :    0.116671
  35 H :    0.115317
  36 H :    0.106743
  37 H :    0.109099
  38 H :    0.130143
  39 H :    0.149524
  40 H :    0.110127
Sum of atomic charges:   -0.0000000

LOEWDIN ATOMIC CHARGES
----------------------
   0 C :   -0.364881
   1 C :   -0.113232
   2 O :   -0.243976
   3 P :    0.564886
   4 S :   -0.290989
   5 O :   -0.242353
   6 C :   -0.113301
   7 C :   -0.360497
   8 S :    0.064503
   9 C :   -0.478842
  10 S :    0.067039
  11 P :    0.564877
  12 S :   -0.292118
  13 O :   -0.234805
  14 C :   -0.112446
  15 C :   -0.367018
  16 O :   -0.241971
  17 C :   -0.113044
  18 C :   -0.375646
  19 H :    0.131481
  20 H :    0.121236
  21 H :    0.122839
  22 H :    0.110431
  23 H :    0.119121
  24 H :    0.105936
  25 H :    0.121779
  26 H :    0.118286
  27 H :    0.128542
  28 H :    0.128679
  29 H :    0.123580
  30 H :    0.133706
  31 H :    0.110186
  32 H :    0.124408
  33 H :    0.130475
  34 H :    0.115731
  35 H :    0.132031
  36 H :    0.107263
  37 H :    0.121453
  38 H :    0.129887
  39 H :    0.117173
  40 H :    0.129592

  Mayer bond orders larger than 0.100000
B(  0-C ,  1-C ) :   1.1698 B(  0-C , 19-H ) :   0.9400 B(  0-C , 20-H ) :   0.9461
B(  0-C , 21-H ) :   0.9313 B(  1-C ,  2-O ) :   0.8969 B(  1-C , 22-H ) :   0.9052
B(  1-C , 23-H ) :   0.9343 B(  2-O ,  3-P ) :   1.1070 B(  3-P ,  4-S ) :   1.6616
B(  3-P ,  5-O ) :   1.1307 B(  3-P ,  8-S ) :   0.9296 B(  4-S ,  8-S ) :   0.1164
B(  4-S , 29-H ) :   0.1194 B(  5-O ,  6-C ) :   0.8927 B(  6-C ,  7-C ) :   1.1627
B(  6-C , 24-H ) :   0.9176 B(  6-C , 25-H ) :   0.9346 B(  7-C , 26-H ) :   0.9384
B(  7-C , 27-H ) :   0.9403 B(  7-C , 28-H ) :   0.9464 B(  8-S ,  9-C ) :   0.9893
B(  9-C , 10-S ) :   1.0029 B(  9-C , 29-H ) :   0.8465 B(  9-C , 30-H ) :   0.9087
B( 10-S , 11-P ) :   0.9172 B( 10-S , 12-S ) :   0.1157 B( 11-P , 12-S ) :   1.6708
B( 11-P , 13-O ) :   1.1409 B( 11-P , 16-O ) :   1.0953 B( 13-O , 14-C ) :   0.9065
B( 14-C , 15-C ) :   1.1666 B( 14-C , 31-H ) :   0.9244 B( 14-C , 32-H ) :   0.9345
B( 15-C , 33-H ) :   0.9424 B( 15-C , 34-H ) :   0.9405 B( 15-C , 35-H ) :   0.9355
B( 16-O , 17-C ) :   0.9112 B( 17-C , 18-C ) :   1.1672 B( 17-C , 36-H ) :   0.9267
B( 17-C , 37-H ) :   0.9333 B( 18-C , 38-H ) :   0.9393 B( 18-C , 39-H ) :   0.9221
B( 18-C , 40-H ) :   0.9329

Dispersion correction           -0.066125718
FINAL SINGLE POINT ENERGY     -2929.508277858245

DIPOLE MOMENT
-------------

Method             : SCF
Type of density    : Electron Density
Multiplicity       :   1
Irrep              :   0
Energy             : -2929.6267759738811947 Eh
Relativity type    :
Basis              : AO
                                X                 Y                 Z
Electronic contribution:      5.522157089      14.501303944       1.831232410
Nuclear contribution   :     -6.487967093     -16.191043824      -1.408612579
                        -----------------------------------------
Total Dipole Moment    :     -0.965810004      -1.689739879       0.422619831
                        -----------------------------------------
Magnitude (a.u.)       :      1.991636851
Magnitude (Debye)      :      5.062338564

Rotational constants in cm-1:             0.012561             0.004883             0.004662
Rotational constants in MHz :           376.578716           146.400740           139.764563

                             ****ORCA TERMINATED NORMALLY****
TOTAL RUN TIME: 0 days 0 hours 0 minutes 20 seconds 892 msec
