                         Program Version 6.0.1  -  RELEASE   -
|  1> ! pbe def2-sv(p) def2/J RI DEFGRID1 loosescf d4 GCP(DFT/SV(P)) printgap
|  2> %output
|  3>     printlevel normal
|  4> end
|  5> * xyz 0 1
|  6> C 3.9092514203 -1.400136501 1.6019131182
|  7> C 2.785956343 -1.9264258761 0.7309806391
|  8> O 2.5664000953 -0.981863781 -0.3352064027
|  9> C 1.4723958707 -1.0816843201 -1.0556697214
| 10> O 0.6066575805 -1.91814106 -0.8868479558
| 11> C 1.3986799444 -0.0081106446 -2.1225971249
| 12> C 0.2304249527 0.9382968538 -1.8314530496
| 13> H 0.1569211159 1.6842531256 -2.6277839503
| 14> C 0.3854159613 1.6517134664 -0.5039412145
| 15> O -0.5399537182 1.7770274163 0.2799082428
| 16> O 1.5919723674 2.0868311979 -0.3011740573
| 17> C 1.8933518355 2.7031701184 0.9712600427
| 18> C 3.3961173038 2.8795723336 1.0469331951
| 19> S -1.3905593205 0.092338099 -1.8328721978
| 20> P -1.796102122 -0.3573547361 0.2075323415
| 21> S -0.5516885364 -0.7199523358 1.6935308168
| 22> O -3.0173707092 0.5916504395 0.5779511327
| 23> C -3.0201710474 1.5766414206 1.6104499893
| 24> O -2.7439025336 -1.6258128499 -0.0556117438
| 25> C -2.2498910541 -2.9125805684 -0.424110776
| 26> H 3.6063186346 -0.4730806524 2.0797608175
| 27> H 4.1362316298 -2.1326264262 2.3690411065
| 28> H 4.7947281234 -1.2221409296 0.9991409463
| 29> H 1.8547568819 -2.0391467694 1.2951006896
| 30> H 3.0410195076 -2.889259485 0.2781011531
| 31> H 1.2223351216 -0.4881959206 -3.0850256502
| 32> H 2.3315826282 0.5536971238 -2.1330604046
| 33> H 1.3647829791 3.6591617067 1.0222940087
| 34> H 1.5114517075 2.0513853008 1.7636727624
| 35> H 3.8881409525 1.9165288148 0.947832262
| 36> H 3.7354230591 3.5323935694 0.2488856687
| 37> H 3.6559802255 3.3175967014 2.0046044096
| 38> H -4.0200092394 1.5598326026 2.0383074906
| 39> H -2.796451337 2.5506839885 1.1786511826
| 40> H -2.2753564564 1.3332724469 2.370622445
| 41> H -1.8871697611 -2.8992260172 -1.4518245858
| 42> H -3.0944022212 -3.5890930625 -0.3197623822
| 43> H -1.4345025089 -3.2087250094 0.2376788612
| 44> *
| 45>
| 46>                          ****END OF INPUT****

CARTESIAN COORDINATES (ANGSTROEM)
---------------------------------
  C      3.909251   -1.400137    1.601913
  C      2.785956   -1.926426    0.730981
  O      2.566400   -0.981864   -0.335206
  C      1.472396   -1.081684   -1.055670
  O      0.606658   -1.918141   -0.886848
  C      1.398680   -0.008111   -2.122597
  C      0.230425    0.938297   -1.831453
  H      0.156921    1.684253   -2.627784
  C      0.385416    1.651713   -0.503941
  O     -0.539954    1.777027    0.279908
  O      1.591972    2.086831   -0.301174
  C      1.893352    2.703170    0.971260
  C      3.396117    2.879572    1.046933
  S     -1.390559    0.092338   -1.832872
  P     -1.796102   -0.357355    0.207532
  S     -0.551689   -0.719952    1.693531
  O     -3.017371    0.591650    0.577951
  C     -3.020171    1.576641    1.610450
  O     -2.743903   -1.625813   -0.055612
  C     -2.249891   -2.912581   -0.424111
  H      3.606319   -0.473081    2.079761
  H      4.136232   -2.132626    2.369041
  H      4.794728   -1.222141    0.999141
  H      1.854757   -2.039147    1.295101
  H      3.041020   -2.889259    0.278101
  H      1.222335   -0.488196   -3.085026
  H      2.331583    0.553697   -2.133060
  H      1.364783    3.659162    1.022294
  H      1.511452    2.051385    1.763673
  H      3.888141    1.916529    0.947832
  H      3.735423    3.532394    0.248886
  H      3.655980    3.317597    2.004604
  H     -4.020009    1.559833    2.038307
  H     -2.796451    2.550684    1.178651
  H     -2.275356    1.333272    2.370622
  H     -1.887170   -2.899226   -1.451825
  H     -3.094402   -3.589093   -0.319762
  H     -1.434503   -3.208725    0.237679

 Total Charge           Charge          ....    0
 Multiplicity           Mult            ....    1
 Number of Electrons    NEL             ....  174
 Basis Dimension        Dim             ....  316

ORBITAL ENERGIES
----------------

  NO   OCC          E(Eh)            E(eV)
   0   2.0000     -88.027430     -2395.3481
   1   2.0000     -87.965978     -2393.6759
   2   2.0000     -76.413306     -2079.3118
   3   2.0000     -18.827444      -512.3208
   4   2.0000     -18.804938      -511.7084
   5   2.0000     -18.766606      -510.6653
   6   2.0000     -18.763596      -510.5834
   7   2.0000     -18.763278      -510.5748
   8   2.0000     -18.735085      -509.8076
   9   2.0000     -10.031848      -272.9805
  10   2.0000     -10.009287      -272.3665
  11   2.0000      -9.961545      -271.0674
  12   2.0000      -9.956773      -270.9376
  13   2.0000      -9.942587      -270.5515
  14   2.0000      -9.923323      -270.0273
  15   2.0000      -9.917042      -269.8564
  16   2.0000      -9.914814      -269.7958
  17   2.0000      -9.898741      -269.3584
  18   2.0000      -9.889212      -269.0991
  19   2.0000      -7.672653      -208.7835
  20   2.0000      -7.610991      -207.1056
  21   2.0000      -6.408239      -174.3770
  22   2.0000      -5.701059      -155.1337
  23   2.0000      -5.697328      -155.0322
  24   2.0000      -5.688845      -154.8014
  25   2.0000      -5.640126      -153.4756
  26   2.0000      -5.631665      -153.2454
  27   2.0000      -5.630786      -153.2215
  28   2.0000      -4.630854      -126.0120
  29   2.0000      -4.630432      -126.0005
  30   2.0000      -4.628796      -125.9559
  31   2.0000      -1.038295       -28.2534
  32   2.0000      -1.010384       -27.4939
  33   2.0000      -0.961430       -26.1618
  34   2.0000      -0.940500       -25.5923
  35   2.0000      -0.915409       -24.9096
  36   2.0000      -0.912906       -24.8414
  37   2.0000      -0.768516       -20.9124
  38   2.0000      -0.720476       -19.6052
  39   2.0000      -0.711026       -19.3480
  40   2.0000      -0.683250       -18.5922
  41   2.0000      -0.651518       -17.7287
  42   2.0000      -0.623687       -16.9714
  43   2.0000      -0.614211       -16.7135
  44   2.0000      -0.599544       -16.3144
  45   2.0000      -0.590691       -16.0735
  46   2.0000      -0.564414       -15.3585
  47   2.0000      -0.525247       -14.2927
  48   2.0000      -0.509303       -13.8588
  49   2.0000      -0.496458       -13.5093
  50   2.0000      -0.487393       -13.2626
  51   2.0000      -0.465035       -12.6542
  52   2.0000      -0.457349       -12.4451
  53   2.0000      -0.450493       -12.2585
  54   2.0000      -0.446873       -12.1600
  55   2.0000      -0.427871       -11.6430
  56   2.0000      -0.418810       -11.3964
  57   2.0000      -0.412519       -11.2252
  58   2.0000      -0.406440       -11.0598
  59   2.0000      -0.403893       -10.9905
  60   2.0000      -0.390327       -10.6213
  61   2.0000      -0.386982       -10.5303
  62   2.0000      -0.380876       -10.3642
  63   2.0000      -0.376145       -10.2354
  64   2.0000      -0.373883       -10.1739
  65   2.0000      -0.369811       -10.0631
  66   2.0000      -0.368008       -10.0140
  67   2.0000      -0.358045        -9.7429
  68   2.0000      -0.355299        -9.6682
  69   2.0000      -0.343856        -9.3568
  70   2.0000      -0.338864        -9.2210
  71   2.0000      -0.330911        -9.0045
  72   2.0000      -0.321864        -8.7584
  73   2.0000      -0.315697        -8.5906
  74   2.0000      -0.299414        -8.1475
  75   2.0000      -0.297487        -8.0950
  76   2.0000      -0.287823        -7.8321
  77   2.0000      -0.279875        -7.6158
  78   2.0000      -0.267268        -7.2727
  79   2.0000      -0.262971        -7.1558
  80   2.0000      -0.254190        -6.9169
  81   2.0000      -0.241687        -6.5766
  82   2.0000      -0.237221        -6.4551
  83   2.0000      -0.228106        -6.2071
  84   2.0000      -0.198063        -5.3896
  85   2.0000      -0.181444        -4.9373
  86   2.0000      -0.177201        -4.8219
  87   0.0000      -0.051911        -1.4126
  88   0.0000      -0.038821        -1.0564
  89   0.0000      -0.027791        -0.7562
  90   0.0000       0.007136         0.1942
  91   0.0000       0.022236         0.6051

MULLIKEN ATOMIC CHARGES
-----------------------
   0 C :   -0.287803
   1 C :   -0.044680
   2 O :   -0.228203
   3 C :    0.082585
   4 O :   -0.191415
   5 C :   -0.015396
   6 C :   -0.322211
   7 H :    0.158083
   8 C :    0.213778
   9 O :   -0.196514
  10 O :   -0.213929
  11 C :   -0.035835
  12 C :   -0.287498
  13 S :   -0.082131
  14 P :    0.641817
  15 S :   -0.357382
  16 O :   -0.371776
  17 C :   -0.083948
  18 O :   -0.378214
  19 C :   -0.092091
  20 H :    0.122500
  21 H :    0.113110
  22 H :    0.111921
  23 H :    0.139574
  24 H :    0.099346
  25 H :    0.121347
  26 H :    0.111502
  27 H :    0.109307
  28 H :    0.129200
  29 H :    0.130591
  30 H :    0.115340
  31 H :    0.116490
  32 H :    0.114509
  33 H :    0.107388
  34 H :    0.111434
  35 H :    0.111758
  36 H :    0.111892
  37 H :    0.115555
Sum of atomic charges:   -0.0000000

LOEWDIN ATOMIC CHARGES
----------------------
   0 C :   -0.351798
   1 C :   -0.113390
   2 O :   -0.053836
   3 C :    0.019089
   4 O :   -0.162838
   5 C :   -0.248848
   6 C :   -0.261259
   7 H :    0.152903
   8 C :    0.018671
   9 O :   -0.149477
  10 O :   -0.032758
  11 C :   -0.103266
  12 C :   -0.352071
  13 S :    0.110827
  14 P :    0.595489
  15 S :   -0.330697
  16 O :   -0.245138
  17 C :   -0.210754
  18 O :   -0.256270
  19 C :   -0.215942
  20 H :    0.124817
  21 H :    0.132190
  22 H :    0.123724
  23 H :    0.118946
  24 H :    0.114752
  25 H :    0.144998
  26 H :    0.136931
  27 H :    0.119423
  28 H :    0.125237
  29 H :    0.129984
  30 H :    0.127335
  31 H :    0.133928
  32 H :    0.115326
  33 H :    0.108587
  34 H :    0.105081
  35 H :    0.106839
  36 H :    0.114576
  37 H :    0.108689

  Mayer bond orders larger than 0.100000
B(  0-C ,  1-C ) :   1.1589 B(  0-C , 20-H ) :   0.9441 B(  0-C , 21-H ) :   0.9424
B(  0-C , 22-H ) :   0.9484 B(  1-C ,  2-O ) :   0.8993 B(  1-C , 23-H ) :   0.9070
B(  1-C , 24-H ) :   0.9330 B(  2-O ,  3-C ) :   1.2397 B(  3-C ,  4-O ) :   2.0064
B(  3-C ,  5-C ) :   1.0090 B(  5-C ,  6-C ) :   1.0243 B(  5-C , 25-H ) :   0.8912
B(  5-C , 26-H ) :   0.8828 B(  6-C ,  7-H ) :   0.8722 B(  6-C ,  8-C ) :   0.9126
B(  6-C , 13-S ) :   1.0464 B(  8-C ,  9-O ) :   1.9209 B(  8-C , 10-O ) :   1.2878
B(  9-O , 14-P ) :   0.1204 B( 10-O , 11-C ) :   0.8820 B( 11-C , 12-C ) :   1.1571
B( 11-C , 27-H ) :   0.9328 B( 11-C , 28-H ) :   0.9210 B( 12-C , 29-H ) :   0.9422
B( 12-C , 30-H ) :   0.9477 B( 12-C , 31-H ) :   0.9422 B( 13-S , 14-P ) :   0.9227
B( 13-S , 15-S ) :   0.1230 B( 14-P , 15-S ) :   1.5154 B( 14-P , 16-O ) :   1.1247
B( 14-P , 18-O ) :   1.0948 B( 16-O , 17-C ) :   0.9378 B( 17-C , 32-H ) :   0.9560
B( 17-C , 33-H ) :   0.9533 B( 17-C , 34-H ) :   0.9301 B( 18-O , 19-C ) :   0.9424
B( 19-C , 35-H ) :   0.9471 B( 19-C , 36-H ) :   0.9576 B( 19-C , 37-H ) :   0.9375

Dispersion correction           -0.055588122
FINAL SINGLE POINT ENERGY     -1979.002074804927

DIPOLE MOMENT
-------------

Method             : SCF
Type of density    : Electron Density
Multiplicity       :   1
Irrep              :   0
Energy             : -1979.1308772765551112 Eh
Relativity type    :
Basis              : AO
                                X                 Y                 Z
Electronic contribution:    -18.450178453      -2.350128583      -8.712588099
Nuclear contribution   :     20.206384752       3.354815261       8.454333512
                        -----------------------------------------
Total Dipole Moment    :      1.756206299       1.004686678      -0.258254588
                        -----------------------------------------
Magnitude (a.u.)       :      2.039693927
Magnitude (Debye)      :      5.184489945

Rotational constants in cm-1:             0.013236             0.008668             0.007429
Rotational constants in MHz :           396.817757           259.848358           222.701521

                             ****ORCA TERMINATED NORMALLY****
TOTAL RUN TIME: 0 days 0 hours 0 minutes 41 seconds 66 msec
