                         Program Version 6.0.0  -   RELEASE  -
|  1> ! pbe def2-sv(p) def2/J RI DEFGRID1 loosescf d4 GCP(DFT/SV(P)) printgap
|  2> %output
|  3>     printlevel normal
|  4> end
|  5> * xyz 0 1
|  6> C 1.3197983936 1.942247226 -1.8177033956
|  7> C 2.2807546782 0.783088233 -1.9832291213
|  8> O 2.1429362406 -0.1915507106 -0.9387574692
|  9> P 2.4445093912 0.1636931943 0.5912867609
| 10> S 3.8858746134 1.4692225275 0.8253240624
| 11> O 2.6562531173 -1.2884310833 1.1985510065
| 12> C 3.8727613418 -2.0335899848 0.9540892895
| 13> C 4.8358317741 -1.8732227004 2.113247651
| 14> S 0.5994189595 0.5814832882 1.4965206907
| 15> C -0.2022252168 -1.0537773627 1.2583260942
| 16> S -1.9902722339 -0.8931589339 1.2717010147
| 17> P -2.1931564233 -0.1966470844 -0.7379313342
| 18> S -1.0325819482 -1.0834095267 -2.0386308308
| 19> O -1.992832589 1.36277404 -0.7156481633
| 20> C -2.7829252591 2.2439917306 0.1272555063
| 21> C -1.8851428129 3.3550045662 0.6295738815
| 22> O -3.7547372563 -0.3288417058 -0.9899210548
| 23> C -4.3885310515 -1.6182599861 -1.1266355604
| 24> C -5.7953697492 -1.3870405473 -1.6390218558
| 25> H 1.4412658629 2.630916528 -2.6473919923
| 26> H 0.2920721065 1.5859621562 -1.7969979104
| 27> H 1.5312902455 2.4671693845 -0.8855314128
| 28> H 3.3143451356 1.1435200317 -1.9812855496
| 29> H 2.0771809863 0.2196852029 -2.8951835806
| 30> H 3.5442937034 -3.0688204708 0.8460841136
| 31> H 4.3214968 -1.693955274 0.0167285612
| 32> H 5.1473163313 -0.8345394816 2.2021348758
| 33> H 4.3574756733 -2.1759372104 3.0404876871
| 34> H 5.7103669593 -2.4920392342 1.9395286711
| 35> H 0.0724524406 -1.7026162074 2.0850175593
| 36> H 0.1145601222 -1.4622170561 0.2964794962
| 37> H -3.5944646601 2.6282052842 -0.4924548452
| 38> H -3.1989290003 1.6628002146 0.9547543957
| 39> H -2.4745999271 4.0457345934 1.2236035542
| 40> H -1.0861682851 2.9462157028 1.2440294822
| 41> H -1.4441948549 3.8870213804 -0.2085532625
| 42> H -3.7996918179 -2.2232458957 -1.8234925991
| 43> H -4.3928801824 -2.102069852 -0.1463255006
| 44> H -5.76416811 -0.8908419136 -2.6049092308
| 45> H -6.2980112117 -2.34287555 -1.7433871365
| 46> H -6.3467144923 -0.764485608 -0.940629187
| 47> *
| 48>
| 49>                          ****END OF INPUT****

CARTESIAN COORDINATES (ANGSTROEM)
---------------------------------
  C      1.319798    1.942247   -1.817703
  C      2.280755    0.783088   -1.983229
  O      2.142936   -0.191551   -0.938757
  P      2.444509    0.163693    0.591287
  S      3.885875    1.469223    0.825324
  O      2.656253   -1.288431    1.198551
  C      3.872761   -2.033590    0.954089
  C      4.835832   -1.873223    2.113248
  S      0.599419    0.581483    1.496521
  C     -0.202225   -1.053777    1.258326
  S     -1.990272   -0.893159    1.271701
  P     -2.193156   -0.196647   -0.737931
  S     -1.032582   -1.083410   -2.038631
  O     -1.992833    1.362774   -0.715648
  C     -2.782925    2.243992    0.127256
  C     -1.885143    3.355005    0.629574
  O     -3.754737   -0.328842   -0.989921
  C     -4.388531   -1.618260   -1.126636
  C     -5.795370   -1.387041   -1.639022
  H      1.441266    2.630917   -2.647392
  H      0.292072    1.585962   -1.796998
  H      1.531290    2.467169   -0.885531
  H      3.314345    1.143520   -1.981286
  H      2.077181    0.219685   -2.895184
  H      3.544294   -3.068820    0.846084
  H      4.321497   -1.693955    0.016729
  H      5.147316   -0.834539    2.202135
  H      4.357476   -2.175937    3.040488
  H      5.710367   -2.492039    1.939529
  H      0.072452   -1.702616    2.085018
  H      0.114560   -1.462217    0.296479
  H     -3.594465    2.628205   -0.492455
  H     -3.198929    1.662800    0.954754
  H     -2.474600    4.045735    1.223604
  H     -1.086168    2.946216    1.244029
  H     -1.444195    3.887021   -0.208553
  H     -3.799692   -2.223246   -1.823493
  H     -4.392880   -2.102070   -0.146326
  H     -5.764168   -0.890842   -2.604909
  H     -6.298011   -2.342876   -1.743387
  H     -6.346714   -0.764486   -0.940629

 Total Charge           Charge          ....    0
 Multiplicity           Mult            ....    1
 Number of Electrons    NEL             ....  202
 Basis Dimension        Dim             ....  334

ORBITAL ENERGIES
----------------

  NO   OCC          E(Eh)            E(eV)
   0   2.0000     -88.052731     -2396.0366
   1   2.0000     -88.039139     -2395.6668
   2   2.0000     -87.991570     -2394.3723
   3   2.0000     -87.982547     -2394.1268
   4   2.0000     -76.431954     -2079.8192
   5   2.0000     -76.421115     -2079.5243
   6   2.0000     -18.802356      -511.6381
   7   2.0000     -18.798566      -511.5350
   8   2.0000     -18.788219      -511.2534
   9   2.0000     -18.780464      -511.0424
  10   2.0000      -9.961429      -271.0643
  11   2.0000      -9.959816      -271.0204
  12   2.0000      -9.956053      -270.9180
  13   2.0000      -9.952698      -270.8267
  14   2.0000      -9.937334      -270.4086
  15   2.0000      -9.895317      -269.2653
  16   2.0000      -9.886651      -269.0294
  17   2.0000      -9.879312      -268.8298
  18   2.0000      -9.864843      -268.4360
  19   2.0000      -7.697712      -209.4654
  20   2.0000      -7.684461      -209.1048
  21   2.0000      -7.636508      -207.8000
  22   2.0000      -7.627715      -207.5607
  23   2.0000      -6.429657      -174.9599
  24   2.0000      -6.418820      -174.6650
  25   2.0000      -5.725410      -155.7963
  26   2.0000      -5.722118      -155.7068
  27   2.0000      -5.715016      -155.5135
  28   2.0000      -5.712792      -155.4530
  29   2.0000      -5.708841      -155.3455
  30   2.0000      -5.701071      -155.1340
  31   2.0000      -5.665456      -154.1649
  32   2.0000      -5.656969      -153.9339
  33   2.0000      -5.656766      -153.9284
  34   2.0000      -5.656671      -153.9258
  35   2.0000      -5.648602      -153.7063
  36   2.0000      -5.647563      -153.6780
  37   2.0000      -4.652472      -126.6002
  38   2.0000      -4.651488      -126.5734
  39   2.0000      -4.649778      -126.5269
  40   2.0000      -4.641373      -126.2982
  41   2.0000      -4.640673      -126.2791
  42   2.0000      -4.639258      -126.2406
  43   2.0000      -0.996812       -27.1246
  44   2.0000      -0.980154       -26.6713
  45   2.0000      -0.952953       -25.9312
  46   2.0000      -0.936579       -25.4856
  47   2.0000      -0.766030       -20.8447
  48   2.0000      -0.726186       -19.7605
  49   2.0000      -0.710270       -19.3274
  50   2.0000      -0.697275       -18.9738
  51   2.0000      -0.676161       -18.3993
  52   2.0000      -0.672293       -18.2940
  53   2.0000      -0.652771       -17.7628
  54   2.0000      -0.638735       -17.3809
  55   2.0000      -0.591190       -16.0871
  56   2.0000      -0.583588       -15.8802
  57   2.0000      -0.575129       -15.6501
  58   2.0000      -0.567030       -15.4297
  59   2.0000      -0.565159       -15.3788
  60   2.0000      -0.516923       -14.0662
  61   2.0000      -0.495586       -13.4856
  62   2.0000      -0.489081       -13.3086
  63   2.0000      -0.459606       -12.5065
  64   2.0000      -0.457303       -12.4438
  65   2.0000      -0.449666       -12.2360
  66   2.0000      -0.444544       -12.0967
  67   2.0000      -0.437075       -11.8934
  68   2.0000      -0.428448       -11.6587
  69   2.0000      -0.418722       -11.3940
  70   2.0000      -0.411502       -11.1975
  71   2.0000      -0.397157       -10.8072
  72   2.0000      -0.388271       -10.5654
  73   2.0000      -0.382242       -10.4013
  74   2.0000      -0.382012       -10.3951
  75   2.0000      -0.373137       -10.1536
  76   2.0000      -0.369237       -10.0474
  77   2.0000      -0.358242        -9.7482
  78   2.0000      -0.354838        -9.6556
  79   2.0000      -0.349853        -9.5200
  80   2.0000      -0.347395        -9.4531
  81   2.0000      -0.342775        -9.3274
  82   2.0000      -0.336263        -9.1502
  83   2.0000      -0.331212        -9.0127
  84   2.0000      -0.322102        -8.7648
  85   2.0000      -0.320995        -8.7347
  86   2.0000      -0.309373        -8.4185
  87   2.0000      -0.307228        -8.3601
  88   2.0000      -0.303676        -8.2634
  89   2.0000      -0.289773        -7.8851
  90   2.0000      -0.284035        -7.7290
  91   2.0000      -0.279798        -7.6137
  92   2.0000      -0.271032        -7.3752
  93   2.0000      -0.268127        -7.2961
  94   2.0000      -0.255645        -6.9564
  95   2.0000      -0.239310        -6.5120
  96   2.0000      -0.218533        -5.9466
  97   2.0000      -0.210701        -5.7335
  98   2.0000      -0.207283        -5.6405
  99   2.0000      -0.203351        -5.5335
 100   2.0000      -0.195149        -5.3103
 101   0.0000      -0.044743        -1.2175
 102   0.0000      -0.023405        -0.6369
 103   0.0000      -0.021838        -0.5943
 104   0.0000       0.008313         0.2262
 105   0.0000       0.010871         0.2958

MULLIKEN ATOMIC CHARGES
-----------------------
   0 C :   -0.345575
   1 C :    0.011196
   2 O :   -0.374377
   3 P :    0.608312
   4 S :   -0.321210
   5 O :   -0.386401
   6 C :   -0.005139
   7 C :   -0.289095
   8 S :   -0.082390
   9 C :   -0.357954
  10 S :   -0.105796
  11 P :    0.600965
  12 S :   -0.300387
  13 O :   -0.347369
  14 C :   -0.012083
  15 C :   -0.292311
  16 O :   -0.382895
  17 C :   -0.013602
  18 C :   -0.281057
  19 H :    0.102491
  20 H :    0.147402
  21 H :    0.112983
  22 H :    0.103356
  23 H :    0.102289
  24 H :    0.105851
  25 H :    0.105416
  26 H :    0.129731
  27 H :    0.111787
  28 H :    0.107205
  29 H :    0.186872
  30 H :    0.206994
  31 H :    0.111103
  32 H :    0.101880
  33 H :    0.109706
  34 H :    0.136958
  35 H :    0.124775
  36 H :    0.108887
  37 H :    0.106534
  38 H :    0.123494
  39 H :    0.115378
  40 H :    0.116073
Sum of atomic charges:   -0.0000000

LOEWDIN ATOMIC CHARGES
----------------------
   0 C :   -0.378937
   1 C :   -0.120730
   2 O :   -0.244719
   3 P :    0.567463
   4 S :   -0.320356
   5 O :   -0.249988
   6 C :   -0.111401
   7 C :   -0.361526
   8 S :    0.083174
   9 C :   -0.477087
  10 S :    0.072574
  11 P :    0.571198
  12 S :   -0.292798
  13 O :   -0.227353
  14 C :   -0.112719
  15 C :   -0.354446
  16 O :   -0.250155
  17 C :   -0.118673
  18 C :   -0.350196
  19 H :    0.127357
  20 H :    0.121388
  21 H :    0.114153
  22 H :    0.105725
  23 H :    0.117958
  24 H :    0.118327
  25 H :    0.111650
  26 H :    0.126648
  27 H :    0.125371
  28 H :    0.128439
  29 H :    0.135703
  30 H :    0.124823
  31 H :    0.118306
  32 H :    0.103814
  33 H :    0.130082
  34 H :    0.124943
  35 H :    0.130938
  36 H :    0.111986
  37 H :    0.109139
  38 H :    0.130451
  39 H :    0.132637
  40 H :    0.126837

  Mayer bond orders larger than 0.100000
B(  0-C ,  1-C ) :   1.1670 B(  0-C , 19-H ) :   0.9375 B(  0-C , 20-H ) :   0.9230
B(  0-C , 21-H ) :   0.9317 B(  1-C ,  2-O ) :   0.9047 B(  1-C , 22-H ) :   0.9181
B(  1-C , 23-H ) :   0.9285 B(  2-O ,  3-P ) :   1.0879 B(  3-P ,  4-S ) :   1.6299
B(  3-P ,  5-O ) :   1.0880 B(  3-P ,  8-S ) :   0.9824 B(  5-O ,  6-C ) :   0.8931
B(  6-C ,  7-C ) :   1.1692 B(  6-C , 24-H ) :   0.9359 B(  6-C , 25-H ) :   0.9156
B(  7-C , 26-H ) :   0.9342 B(  7-C , 27-H ) :   0.9471 B(  7-C , 28-H ) :   0.9402
B(  8-S ,  9-C ) :   0.9551 B(  9-C , 10-S ) :   1.0167 B(  9-C , 29-H ) :   0.9060
B(  9-C , 30-H ) :   0.8542 B( 10-S , 11-P ) :   0.9345 B( 10-S , 12-S ) :   0.1089
B( 11-P , 12-S ) :   1.6551 B( 11-P , 13-O ) :   1.1408 B( 11-P , 16-O ) :   1.0914
B( 13-O , 14-C ) :   0.8819 B( 14-C , 15-C ) :   1.1664 B( 14-C , 31-H ) :   0.9329
B( 14-C , 32-H ) :   0.9114 B( 15-C , 33-H ) :   0.9390 B( 15-C , 34-H ) :   0.9392
B( 15-C , 35-H ) :   0.9474 B( 16-O , 17-C ) :   0.9011 B( 17-C , 18-C ) :   1.1606
B( 17-C , 36-H ) :   0.9137 B( 17-C , 37-H ) :   0.9277 B( 18-C , 38-H ) :   0.9506
B( 18-C , 39-H ) :   0.9414 B( 18-C , 40-H ) :   0.9508

Dispersion correction           -0.063871218
FINAL SINGLE POINT ENERGY     -2929.521926113416

DIPOLE MOMENT
-------------

Method             : SCF
Type of density    : Electron Density
Multiplicity       :   1
Irrep              :   0
Energy             : -2929.6441070983346435 Eh
Relativity type    :
Basis              : AO
                                X                 Y                 Z
Electronic contribution:      4.851729018      -2.060938809       4.037522834
Nuclear contribution   :     -6.356289407       1.393788175      -3.985758306
                        -----------------------------------------
Total Dipole Moment    :     -1.504560389      -0.667150634       0.051764527
                        -----------------------------------------
Magnitude (a.u.)       :      1.646654638
Magnitude (Debye)      :      4.185463466

Rotational constants in cm-1:             0.013641             0.004499             0.004254
Rotational constants in MHz :           408.958582           134.868998           127.523376

                             ****ORCA TERMINATED NORMALLY****
TOTAL RUN TIME: 0 days 0 hours 0 minutes 21 seconds 68 msec
