                         Program Version 6.0.0  -   RELEASE  -
|  1> ! pbe def2-sv(p) def2/J RI DEFGRID1 loosescf d4 GCP(DFT/SV(P)) printgap
|  2> %output
|  3>     printlevel normal
|  4> end
|  5> * xyz 0 1
|  6> C 1.4698614563 -0.354671813 -3.241447473
|  7> C 2.3433573585 -1.276477369 -2.4138115155
|  8> O 3.0657451946 -0.5541069562 -1.3986234895
|  9> P 2.4497074493 -0.1130427464 -0.0101599108
| 10> S 1.2076351614 1.418630606 0.0097000177
| 11> O 3.8420788329 0.17363148 0.6821624673
| 12> C 3.9558983357 0.9973490811 1.8534597697
| 13> C 3.3106919999 0.3555938374 3.0662693294
| 14> S 1.7485458656 -1.9369166964 0.8359624348
| 15> C 0.0136539055 -1.539197278 1.1514194233
| 16> S -0.9628232057 -1.3024819143 -0.3698972819
| 17> P -2.0961107551 0.4210041895 0.1962198201
| 18> S -1.8375734587 1.0618779896 2.024596632
| 19> O -3.586555825 -0.049163267 -0.1266831352
| 20> C -4.2525743978 -1.0355769211 0.685303063
| 21> C -5.7274972972 -1.0039481665 0.3395299162
| 22> O -1.8942147992 1.5189454508 -0.9061752217
| 23> C -2.1488824455 1.2695979498 -2.3151788919
| 24> C -1.4524148476 2.3573884025 -3.1046747869
| 25> H 2.0712324493 0.4311046062 -3.6905455371
| 26> H 0.979022007 -0.9273332384 -4.0214065624
| 27> H 0.714317719 0.1056968824 -2.6088153478
| 28> H 3.1285580795 -1.7321955622 -3.0194837656
| 29> H 1.7425593642 -2.0610628246 -1.9413210838
| 30> H 5.0320640052 1.1160380416 1.9860134759
| 31> H 3.4986118991 1.9703399534 1.6447937754
| 32> H 3.6759476376 -0.660208831 3.1950223812
| 33> H 3.54503689 0.9391331503 3.9508943987
| 34> H 2.227663665 0.3312337717 2.9440764526
| 35> H -0.0711766973 -0.6270928607 1.7483224854
| 36> H -0.3834243722 -2.3963884606 1.6892980814
| 37> H -3.8121430655 -2.0121853312 0.4645454319
| 38> H -4.0808919386 -0.7919536384 1.7390954156
| 39> H -6.1379754187 -0.0202131123 0.5493023548
| 40> H -5.8671658085 -1.2270899296 -0.714098498
| 41> H -6.2487309093 -1.7445247949 0.9369793464
| 42> H -1.7649887974 0.2762660913 -2.5670388801
| 43> H -3.2297315376 1.2872676487 -2.4658191811
| 44> H -0.3912829554 2.3682521799 -2.868515602
| 45> H -1.585163626 2.171383262 -4.1652993397
| 46> H -1.869033571 3.3274272374 -2.8496662965
| 47> *
| 48>
| 49>                          ****END OF INPUT****

CARTESIAN COORDINATES (ANGSTROEM)
---------------------------------
  C      1.469861   -0.354672   -3.241447
  C      2.343357   -1.276477   -2.413812
  O      3.065745   -0.554107   -1.398623
  P      2.449707   -0.113043   -0.010160
  S      1.207635    1.418631    0.009700
  O      3.842079    0.173631    0.682162
  C      3.955898    0.997349    1.853460
  C      3.310692    0.355594    3.066269
  S      1.748546   -1.936917    0.835962
  C      0.013654   -1.539197    1.151419
  S     -0.962823   -1.302482   -0.369897
  P     -2.096111    0.421004    0.196220
  S     -1.837573    1.061878    2.024597
  O     -3.586556   -0.049163   -0.126683
  C     -4.252574   -1.035577    0.685303
  C     -5.727497   -1.003948    0.339530
  O     -1.894215    1.518945   -0.906175
  C     -2.148882    1.269598   -2.315179
  C     -1.452415    2.357388   -3.104675
  H      2.071232    0.431105   -3.690546
  H      0.979022   -0.927333   -4.021407
  H      0.714318    0.105697   -2.608815
  H      3.128558   -1.732196   -3.019484
  H      1.742559   -2.061063   -1.941321
  H      5.032064    1.116038    1.986013
  H      3.498612    1.970340    1.644794
  H      3.675948   -0.660209    3.195022
  H      3.545037    0.939133    3.950894
  H      2.227664    0.331234    2.944076
  H     -0.071177   -0.627093    1.748322
  H     -0.383424   -2.396388    1.689298
  H     -3.812143   -2.012185    0.464545
  H     -4.080892   -0.791954    1.739095
  H     -6.137975   -0.020213    0.549302
  H     -5.867166   -1.227090   -0.714098
  H     -6.248731   -1.744525    0.936979
  H     -1.764989    0.276266   -2.567039
  H     -3.229732    1.287268   -2.465819
  H     -0.391283    2.368252   -2.868516
  H     -1.585164    2.171383   -4.165299
  H     -1.869034    3.327427   -2.849666

 Total Charge           Charge          ....    0
 Multiplicity           Mult            ....    1
 Number of Electrons    NEL             ....  202
 Basis Dimension        Dim             ....  334

ORBITAL ENERGIES
----------------

  NO   OCC          E(Eh)            E(eV)
   0   2.0000     -88.046911     -2395.8782
   1   2.0000     -88.042266     -2395.7518
   2   2.0000     -87.984305     -2394.1747
   3   2.0000     -87.984116     -2394.1695
   4   2.0000     -76.424515     -2079.6168
   5   2.0000     -76.424384     -2079.6132
   6   2.0000     -18.792856      -511.3796
   7   2.0000     -18.788334      -511.2566
   8   2.0000     -18.787323      -511.2290
   9   2.0000     -18.785169      -511.1704
  10   2.0000      -9.958180      -270.9758
  11   2.0000      -9.955160      -270.8937
  12   2.0000      -9.952903      -270.8323
  13   2.0000      -9.950732      -270.7732
  14   2.0000      -9.947688      -270.6903
  15   2.0000      -9.888207      -269.0718
  16   2.0000      -9.886504      -269.0255
  17   2.0000      -9.882089      -268.9053
  18   2.0000      -9.880411      -268.8597
  19   2.0000      -7.691723      -209.3024
  20   2.0000      -7.686725      -209.1664
  21   2.0000      -7.629335      -207.6048
  22   2.0000      -7.628641      -207.5859
  23   2.0000      -6.421807      -174.7462
  24   2.0000      -6.421519      -174.7384
  25   2.0000      -5.719617      -155.6387
  26   2.0000      -5.715975      -155.5396
  27   2.0000      -5.714558      -155.5010
  28   2.0000      -5.711340      -155.4135
  29   2.0000      -5.708970      -155.3490
  30   2.0000      -5.703761      -155.2072
  31   2.0000      -5.658346      -153.9714
  32   2.0000      -5.657614      -153.9515
  33   2.0000      -5.649863      -153.7406
  34   2.0000      -5.649432      -153.7289
  35   2.0000      -5.649096      -153.7197
  36   2.0000      -5.649031      -153.7180
  37   2.0000      -4.644561      -126.3849
  38   2.0000      -4.643785      -126.3638
  39   2.0000      -4.643682      -126.3610
  40   2.0000      -4.643524      -126.3567
  41   2.0000      -4.642167      -126.3198
  42   2.0000      -4.641872      -126.3118
  43   2.0000      -0.987765       -26.8785
  44   2.0000      -0.986237       -26.8369
  45   2.0000      -0.942228       -25.6393
  46   2.0000      -0.941789       -25.6274
  47   2.0000      -0.761004       -20.7080
  48   2.0000      -0.721088       -19.6218
  49   2.0000      -0.711665       -19.3654
  50   2.0000      -0.691105       -18.8059
  51   2.0000      -0.680445       -18.5158
  52   2.0000      -0.676454       -18.4073
  53   2.0000      -0.649911       -17.6850
  54   2.0000      -0.635009       -17.2795
  55   2.0000      -0.595585       -16.2067
  56   2.0000      -0.583381       -15.8746
  57   2.0000      -0.571576       -15.5534
  58   2.0000      -0.569194       -15.4886
  59   2.0000      -0.562744       -15.3131
  60   2.0000      -0.512191       -13.9374
  61   2.0000      -0.494991       -13.4694
  62   2.0000      -0.482864       -13.1394
  63   2.0000      -0.465409       -12.6644
  64   2.0000      -0.453099       -12.3295
  65   2.0000      -0.449124       -12.2213
  66   2.0000      -0.438330       -11.9276
  67   2.0000      -0.436067       -11.8660
  68   2.0000      -0.422500       -11.4968
  69   2.0000      -0.416743       -11.3402
  70   2.0000      -0.410858       -11.1800
  71   2.0000      -0.403857       -10.9895
  72   2.0000      -0.399982       -10.8841
  73   2.0000      -0.382747       -10.4151
  74   2.0000      -0.377327       -10.2676
  75   2.0000      -0.368504       -10.0275
  76   2.0000      -0.363860        -9.9011
  77   2.0000      -0.357004        -9.7146
  78   2.0000      -0.350996        -9.5511
  79   2.0000      -0.350508        -9.5378
  80   2.0000      -0.348518        -9.4836
  81   2.0000      -0.340953        -9.2778
  82   2.0000      -0.339822        -9.2470
  83   2.0000      -0.335710        -9.1351
  84   2.0000      -0.332834        -9.0569
  85   2.0000      -0.315906        -8.5962
  86   2.0000      -0.313006        -8.5173
  87   2.0000      -0.301830        -8.2132
  88   2.0000      -0.298455        -8.1214
  89   2.0000      -0.295747        -8.0477
  90   2.0000      -0.286304        -7.7907
  91   2.0000      -0.273322        -7.4375
  92   2.0000      -0.267676        -7.2838
  93   2.0000      -0.260437        -7.0868
  94   2.0000      -0.255266        -6.9461
  95   2.0000      -0.240583        -6.5466
  96   2.0000      -0.222654        -6.0587
  97   2.0000      -0.213180        -5.8009
  98   2.0000      -0.201496        -5.4830
  99   2.0000      -0.194243        -5.2856
 100   2.0000      -0.187510        -5.1024
 101   0.0000      -0.046465        -1.2644
 102   0.0000      -0.035563        -0.9677
 103   0.0000      -0.013500        -0.3674
 104   0.0000       0.008493         0.2311
 105   0.0000       0.014145         0.3849

MULLIKEN ATOMIC CHARGES
-----------------------
   0 C :   -0.338013
   1 C :   -0.006492
   2 O :   -0.351721
   3 P :    0.589621
   4 S :   -0.309955
   5 O :   -0.354756
   6 C :    0.000251
   7 C :   -0.327508
   8 S :   -0.116063
   9 C :   -0.338569
  10 S :   -0.138482
  11 P :    0.616473
  12 S :   -0.294067
  13 O :   -0.389152
  14 C :   -0.006701
  15 C :   -0.279687
  16 O :   -0.354727
  17 C :   -0.020849
  18 C :   -0.289226
  19 H :    0.117539
  20 H :    0.104970
  21 H :    0.160536
  22 H :    0.107543
  23 H :    0.104924
  24 H :    0.105571
  25 H :    0.115242
  26 H :    0.117554
  27 H :    0.113130
  28 H :    0.135611
  29 H :    0.218611
  30 H :    0.176898
  31 H :    0.095335
  32 H :    0.101096
  33 H :    0.121182
  34 H :    0.112915
  35 H :    0.111027
  36 H :    0.108461
  37 H :    0.111724
  38 H :    0.140033
  39 H :    0.108247
  40 H :    0.121472
Sum of atomic charges:   -0.0000000

LOEWDIN ATOMIC CHARGES
----------------------
   0 C :   -0.369809
   1 C :   -0.117358
   2 O :   -0.232347
   3 P :    0.562449
   4 S :   -0.298395
   5 O :   -0.234700
   6 C :   -0.118825
   7 C :   -0.369874
   8 S :    0.081323
   9 C :   -0.480325
  10 S :    0.048360
  11 P :    0.573196
  12 S :   -0.290240
  13 O :   -0.256465
  14 C :   -0.123856
  15 C :   -0.350395
  16 O :   -0.227937
  17 C :   -0.110958
  18 C :   -0.351914
  19 H :    0.127492
  20 H :    0.127079
  21 H :    0.120264
  22 H :    0.119721
  23 H :    0.099036
  24 H :    0.119220
  25 H :    0.111820
  26 H :    0.123943
  27 H :    0.131184
  28 H :    0.123116
  29 H :    0.121782
  30 H :    0.134752
  31 H :    0.104051
  32 H :    0.106847
  33 H :    0.129125
  34 H :    0.125070
  35 H :    0.130324
  36 H :    0.103800
  37 H :    0.116202
  38 H :    0.132784
  39 H :    0.129482
  40 H :    0.130977

  Mayer bond orders larger than 0.100000
B(  0-C ,  1-C ) :   1.1615 B(  0-C , 19-H ) :   0.9442 B(  0-C , 20-H ) :   0.9381
B(  0-C , 21-H ) :   0.9190 B(  1-C ,  2-O ) :   0.9213 B(  1-C , 22-H ) :   0.9353
B(  1-C , 23-H ) :   0.9074 B(  2-O ,  3-P ) :   1.1308 B(  3-P ,  4-S ) :   1.6235
B(  3-P ,  5-O ) :   1.1298 B(  3-P ,  8-S ) :   0.9296 B(  4-S ,  8-S ) :   0.1214
B(  5-O ,  6-C ) :   0.9129 B(  6-C ,  7-C ) :   1.1619 B(  6-C , 24-H ) :   0.9339
B(  6-C , 25-H ) :   0.9155 B(  7-C , 26-H ) :   0.9438 B(  7-C , 27-H ) :   0.9377
B(  7-C , 28-H ) :   0.9337 B(  8-S ,  9-C ) :   1.0030 B(  9-C , 10-S ) :   0.9915
B(  9-C , 29-H ) :   0.8420 B(  9-C , 30-H ) :   0.9081 B( 10-S , 11-P ) :   0.9314
B( 10-S , 12-S ) :   0.1185 B( 11-P , 12-S ) :   1.6459 B( 11-P , 13-O ) :   1.0663
B( 11-P , 16-O ) :   1.1475 B( 12-S , 29-H ) :   0.1055 B( 13-O , 14-C ) :   0.9126
B( 14-C , 15-C ) :   1.1604 B( 14-C , 31-H ) :   0.9225 B( 14-C , 32-H ) :   0.9106
B( 15-C , 33-H ) :   0.9512 B( 15-C , 34-H ) :   0.9514 B( 15-C , 35-H ) :   0.9423
B( 16-O , 17-C ) :   0.8876 B( 17-C , 18-C ) :   1.1659 B( 17-C , 36-H ) :   0.9114
B( 17-C , 37-H ) :   0.9290 B( 18-C , 38-H ) :   0.9409 B( 18-C , 39-H ) :   0.9402
B( 18-C , 40-H ) :   0.9474

Dispersion correction           -0.065834426
FINAL SINGLE POINT ENERGY     -2929.519337167751

DIPOLE MOMENT
-------------

Method             : SCF
Type of density    : Electron Density
Multiplicity       :   1
Irrep              :   0
Energy             : -2929.6372964110901194 Eh
Relativity type    :
Basis              : AO
                                X                 Y                 Z
Electronic contribution:      8.136495045      -0.902081136       8.898747170
Nuclear contribution   :     -8.580271353      -0.120830531      -9.705979984
                        -----------------------------------------
Total Dipole Moment    :     -0.443776307      -1.022911666      -0.807232813
                        -----------------------------------------
Magnitude (a.u.)       :      1.376557483
Magnitude (Debye)      :      3.498931056

Rotational constants in cm-1:             0.011586             0.005336             0.004768
Rotational constants in MHz :           347.353035           159.977808           142.936301

                             ****ORCA TERMINATED NORMALLY****
TOTAL RUN TIME: 0 days 0 hours 0 minutes 21 seconds 438 msec
