                         Program Version 6.0.1  -  RELEASE   -
|  1> ! pbe def2-sv(p) def2/J RI DEFGRID1 loosescf d4 GCP(DFT/SV(P)) printgap
|  2> %output
|  3>     printlevel normal
|  4> end
|  5> * xyz 0 1
|  6> C 4.010674317 -2.6493908022 0.7077954022
|  7> C 2.5242843634 -2.7291868854 0.4009210048
|  8> O 2.1919677704 -1.9348327605 -0.754203864
|  9> C 1.9883679898 -0.6475647195 -0.5999124262
| 10> O 2.0349112528 -0.0506962915 0.4577145194
| 11> C 1.6791672274 0.0494398993 -1.9110039467
| 12> C 0.426136971 0.9161242134 -1.7559153078
| 13> H 0.3706426987 1.6414458877 -2.5703706669
| 14> C 0.4299129979 1.6508064761 -0.4313486706
| 15> O -0.4258158931 1.4531613738 0.4204175435
| 16> O 1.3666152931 2.5396785251 -0.3456584553
| 17> C 1.5249025 3.2455516821 0.9063286696
| 18> C 2.6204548183 4.2751420265 0.7209974143
| 19> S -1.1136444265 -0.0635735172 -1.8644058499
| 20> P -1.7365661028 -0.4675208927 0.1181024673
| 21> S -0.7074905647 -1.2531339224 1.6039884485
| 22> O -2.9098503462 0.5287312525 0.5693456106
| 23> C -2.8607768573 1.4344454473 1.6693964555
| 24> O -2.6750243996 -1.6086248923 -0.5421372484
| 25> C -3.530566121 -2.4336829741 0.2465685644
| 26> H 4.5881985291 -2.9455762758 -0.1635807105
| 27> H 4.280281318 -1.6339970396 0.9889235626
| 28> H 4.2383752225 -3.314429017 1.5340466131
| 29> H 1.9256311916 -2.3802411069 1.2484306581
| 30> H 2.2249724961 -3.7403947747 0.125540141
| 31> H 1.536283918 -0.6852632684 -2.7010093564
| 32> H 2.5275891185 0.6942896727 -2.1493653174
| 33> H 0.5674442904 3.7054208422 1.1677701436
| 34> H 1.7783660385 2.5031997811 1.6693792641
| 35> H 3.5511390303 3.7836651338 0.4558271931
| 36> H 2.3501576294 4.9710297272 -0.0672656458
| 37> H 2.7565471298 4.8197131814 1.649215421
| 38> H -2.1127330158 1.1079521336 2.3937700689
| 39> H -3.8535876354 1.4215998207 2.1147275024
| 40> H -2.6128164737 2.4302956664 1.3073687972
| 41> H -4.4164556173 -1.8742611631 0.5463591009
| 42> H -2.9976022633 -2.7862455929 1.1329718906
| 43> H -3.8035113522 -3.271372884 -0.390527139
| 44> *
| 45>
| 46>                          ****END OF INPUT****

CARTESIAN COORDINATES (ANGSTROEM)
---------------------------------
  C      4.010674   -2.649391    0.707795
  C      2.524284   -2.729187    0.400921
  O      2.191968   -1.934833   -0.754204
  C      1.988368   -0.647565   -0.599912
  O      2.034911   -0.050696    0.457715
  C      1.679167    0.049440   -1.911004
  C      0.426137    0.916124   -1.755915
  H      0.370643    1.641446   -2.570371
  C      0.429913    1.650806   -0.431349
  O     -0.425816    1.453161    0.420418
  O      1.366615    2.539679   -0.345658
  C      1.524903    3.245552    0.906329
  C      2.620455    4.275142    0.720997
  S     -1.113644   -0.063574   -1.864406
  P     -1.736566   -0.467521    0.118102
  S     -0.707491   -1.253134    1.603988
  O     -2.909850    0.528731    0.569346
  C     -2.860777    1.434445    1.669396
  O     -2.675024   -1.608625   -0.542137
  C     -3.530566   -2.433683    0.246569
  H      4.588199   -2.945576   -0.163581
  H      4.280281   -1.633997    0.988924
  H      4.238375   -3.314429    1.534047
  H      1.925631   -2.380241    1.248431
  H      2.224972   -3.740395    0.125540
  H      1.536284   -0.685263   -2.701009
  H      2.527589    0.694290   -2.149365
  H      0.567444    3.705421    1.167770
  H      1.778366    2.503200    1.669379
  H      3.551139    3.783665    0.455827
  H      2.350158    4.971030   -0.067266
  H      2.756547    4.819713    1.649215
  H     -2.112733    1.107952    2.393770
  H     -3.853588    1.421600    2.114728
  H     -2.612816    2.430296    1.307369
  H     -4.416456   -1.874261    0.546359
  H     -2.997602   -2.786246    1.132972
  H     -3.803511   -3.271373   -0.390527

 Total Charge           Charge          ....    0
 Multiplicity           Mult            ....    1
 Number of Electrons    NEL             ....  174
 Basis Dimension        Dim             ....  316

ORBITAL ENERGIES
----------------

  NO   OCC          E(Eh)            E(eV)
   0   2.0000     -88.029004     -2395.3910
   1   2.0000     -87.957028     -2393.4324
   2   2.0000     -76.411010     -2079.2493
   3   2.0000     -18.821983      -512.1722
   4   2.0000     -18.806139      -511.7411
   5   2.0000     -18.769928      -510.7557
   6   2.0000     -18.766038      -510.6499
   7   2.0000     -18.758039      -510.4322
   8   2.0000     -18.740677      -509.9598
   9   2.0000     -10.034057      -273.0406
  10   2.0000     -10.014197      -272.5001
  11   2.0000      -9.957507      -270.9575
  12   2.0000      -9.953187      -270.8400
  13   2.0000      -9.940195      -270.4865
  14   2.0000      -9.925277      -270.0805
  15   2.0000      -9.920421      -269.9484
  16   2.0000      -9.917070      -269.8572
  17   2.0000      -9.896723      -269.3035
  18   2.0000      -9.884094      -268.9599
  19   2.0000      -7.674109      -208.8231
  20   2.0000      -7.602172      -206.8656
  21   2.0000      -6.405629      -174.3060
  22   2.0000      -5.702631      -155.1765
  23   2.0000      -5.698393      -155.0612
  24   2.0000      -5.690614      -154.8495
  25   2.0000      -5.631332      -153.2363
  26   2.0000      -5.622971      -153.0088
  27   2.0000      -5.621826      -152.9777
  28   2.0000      -4.628526      -125.9486
  29   2.0000      -4.627687      -125.9258
  30   2.0000      -4.626187      -125.8850
  31   2.0000      -1.035809       -28.1858
  32   2.0000      -1.012272       -27.5453
  33   2.0000      -0.958527       -26.0828
  34   2.0000      -0.939754       -25.5720
  35   2.0000      -0.919483       -25.0204
  36   2.0000      -0.912602       -24.8332
  37   2.0000      -0.767078       -20.8733
  38   2.0000      -0.719073       -19.5670
  39   2.0000      -0.706521       -19.2254
  40   2.0000      -0.684023       -18.6132
  41   2.0000      -0.648448       -17.6452
  42   2.0000      -0.622961       -16.9516
  43   2.0000      -0.609339       -16.5810
  44   2.0000      -0.605621       -16.4798
  45   2.0000      -0.594585       -16.1795
  46   2.0000      -0.560438       -15.2503
  47   2.0000      -0.521972       -14.2036
  48   2.0000      -0.499945       -13.6042
  49   2.0000      -0.498059       -13.5529
  50   2.0000      -0.487654       -13.2697
  51   2.0000      -0.462747       -12.5920
  52   2.0000      -0.461271       -12.5518
  53   2.0000      -0.452306       -12.3079
  54   2.0000      -0.438334       -11.9277
  55   2.0000      -0.434421       -11.8212
  56   2.0000      -0.423259       -11.5175
  57   2.0000      -0.408198       -11.1076
  58   2.0000      -0.402777       -10.9601
  59   2.0000      -0.400422       -10.8960
  60   2.0000      -0.397036       -10.8039
  61   2.0000      -0.389788       -10.6067
  62   2.0000      -0.385295       -10.4844
  63   2.0000      -0.380002       -10.3404
  64   2.0000      -0.374552       -10.1921
  65   2.0000      -0.367773       -10.0076
  66   2.0000      -0.360555        -9.8112
  67   2.0000      -0.356290        -9.6952
  68   2.0000      -0.352537        -9.5930
  69   2.0000      -0.338665        -9.2155
  70   2.0000      -0.331315        -9.0155
  71   2.0000      -0.329367        -8.9625
  72   2.0000      -0.321464        -8.7475
  73   2.0000      -0.316220        -8.6048
  74   2.0000      -0.295325        -8.0362
  75   2.0000      -0.291593        -7.9347
  76   2.0000      -0.285168        -7.7598
  77   2.0000      -0.281741        -7.6666
  78   2.0000      -0.266122        -7.2415
  79   2.0000      -0.259844        -7.0707
  80   2.0000      -0.254471        -6.9245
  81   2.0000      -0.248699        -6.7674
  82   2.0000      -0.238166        -6.4808
  83   2.0000      -0.228486        -6.2174
  84   2.0000      -0.208274        -5.6674
  85   2.0000      -0.177334        -4.8255
  86   2.0000      -0.169974        -4.6252
  87   0.0000      -0.044116        -1.2005
  88   0.0000      -0.033386        -0.9085
  89   0.0000      -0.027912        -0.7595
  90   0.0000       0.011332         0.3084
  91   0.0000       0.033824         0.9204

MULLIKEN ATOMIC CHARGES
-----------------------
   0 C :   -0.307422
   1 C :   -0.023061
   2 O :   -0.213685
   3 C :    0.105800
   4 O :   -0.201326
   5 C :   -0.028227
   6 C :   -0.301577
   7 H :    0.146026
   8 C :    0.236459
   9 O :   -0.221062
  10 O :   -0.213615
  11 C :   -0.033106
  12 C :   -0.277198
  13 S :   -0.078385
  14 P :    0.665863
  15 S :   -0.350577
  16 O :   -0.395359
  17 C :   -0.083690
  18 O :   -0.410245
  19 C :   -0.090309
  20 H :    0.109724
  21 H :    0.122541
  22 H :    0.114946
  23 H :    0.136317
  24 H :    0.104979
  25 H :    0.119365
  26 H :    0.122102
  27 H :    0.110933
  28 H :    0.130938
  29 H :    0.120875
  30 H :    0.115461
  31 H :    0.116388
  32 H :    0.115236
  33 H :    0.111366
  34 H :    0.101963
  35 H :    0.101972
  36 H :    0.106120
  37 H :    0.113472
Sum of atomic charges:   -0.0000000

LOEWDIN ATOMIC CHARGES
----------------------
   0 C :   -0.357333
   1 C :   -0.111986
   2 O :   -0.039659
   3 C :    0.032284
   4 O :   -0.155311
   5 C :   -0.246724
   6 C :   -0.263077
   7 H :    0.147507
   8 C :    0.033334
   9 O :   -0.147060
  10 O :   -0.031484
  11 C :   -0.101416
  12 C :   -0.350175
  13 S :    0.118402
  14 P :    0.584564
  15 S :   -0.340876
  16 O :   -0.258287
  17 C :   -0.214669
  18 O :   -0.282550
  19 C :   -0.217706
  20 H :    0.122360
  21 H :    0.127883
  22 H :    0.131907
  23 H :    0.122851
  24 H :    0.120370
  25 H :    0.138207
  26 H :    0.146337
  27 H :    0.118154
  28 H :    0.130048
  29 H :    0.129594
  30 H :    0.126713
  31 H :    0.133926
  32 H :    0.108395
  33 H :    0.113306
  34 H :    0.106163
  35 H :    0.106297
  36 H :    0.103352
  37 H :    0.116360

  Mayer bond orders larger than 0.100000
B(  0-C ,  1-C ) :   1.1651 B(  0-C , 20-H ) :   0.9477 B(  0-C , 21-H ) :   0.9464
B(  0-C , 22-H ) :   0.9448 B(  1-C ,  2-O ) :   0.9044 B(  1-C , 23-H ) :   0.9057
B(  1-C , 24-H ) :   0.9387 B(  2-O ,  3-C ) :   1.2754 B(  3-C ,  4-O ) :   1.9422
B(  3-C ,  5-C ) :   0.9993 B(  4-O ,  8-C ) :   0.1225 B(  5-C ,  6-C ) :   1.0160
B(  5-C , 25-H ) :   0.9038 B(  5-C , 26-H ) :   0.8763 B(  6-C ,  7-H ) :   0.8765
B(  6-C ,  8-C ) :   0.9198 B(  6-C , 13-S ) :   1.0430 B(  8-C ,  9-O ) :   1.8324
B(  8-C , 10-O ) :   1.2870 B(  9-O , 14-P ) :   0.1844 B( 10-O , 11-C ) :   0.8864
B( 11-C , 12-C ) :   1.1565 B( 11-C , 27-H ) :   0.9312 B( 11-C , 28-H ) :   0.9249
B( 12-C , 29-H ) :   0.9491 B( 12-C , 30-H ) :   0.9505 B( 12-C , 31-H ) :   0.9425
B( 13-S , 14-P ) :   0.9277 B( 13-S , 15-S ) :   0.1077 B( 14-P , 15-S ) :   1.5677
B( 14-P , 16-O ) :   1.0740 B( 14-P , 18-O ) :   1.0328 B( 16-O , 17-C ) :   0.9386
B( 17-C , 32-H ) :   0.9313 B( 17-C , 33-H ) :   0.9546 B( 17-C , 34-H ) :   0.9550
B( 18-O , 19-C ) :   0.9490 B( 19-C , 35-H ) :   0.9519 B( 19-C , 36-H ) :   0.9285
B( 19-C , 37-H ) :   0.9610

Dispersion correction           -0.053217922
FINAL SINGLE POINT ENERGY     -1979.005877776544

DIPOLE MOMENT
-------------

Method             : SCF
Type of density    : Electron Density
Multiplicity       :   1
Irrep              :   0
Energy             : -1979.1365958325150132 Eh
Relativity type    :
Basis              : AO
                                X                 Y                 Z
Electronic contribution:    -12.665259254      -3.577589976      -7.921446354
Nuclear contribution   :     13.699572874       4.641474295       7.678647479
                        -----------------------------------------
Total Dipole Moment    :      1.034313620       1.063884319      -0.242798875
                        -----------------------------------------
Magnitude (a.u.)       :      1.503531112
Magnitude (Debye)      :      3.821672372

Rotational constants in cm-1:             0.011302             0.008802             0.006505
Rotational constants in MHz :           338.810806           263.889231           195.014949

                             ****ORCA TERMINATED NORMALLY****
TOTAL RUN TIME: 0 days 0 hours 0 minutes 38 seconds 528 msec
