                         Program Version 6.0.1  -  RELEASE   -
|  1> ! r2scan-3c def2/J RI DEFGRID2 scfconv6 printgap
|  2> %output
|  3>     printlevel normal
|  4> end
|  5> * xyz 0 1
|  6> C 5.5729723466 -0.5184291908 -0.7328948117
|  7> C 4.8037790418 -1.5922278289 -1.4844010992
|  8> O 3.5685482819 -1.9099983775 -0.8129126733
|  9> C 2.4919829812 -1.2083591732 -1.1053290192
| 10> O 2.4547040582 -0.297642947 -1.9020717685
| 11> C 1.2862952755 -1.7305005325 -0.3453560844
| 12> C 0.2232370174 -0.6502079217 -0.2311502542
| 13> H 0.1250915758 -0.1279013101 -1.1940084862
| 14> C 0.5278120947 0.4116651154 0.8032058381
| 15> O -0.3553523023 0.9950202275 1.4032502664
| 16> O 1.8027453234 0.6335819484 0.9617205248
| 17> C 2.1871947459 1.6787201981 1.8850891575
| 18> C 3.6692587069 1.9396086419 1.7151550247
| 19> S -1.407050945 -1.3526266882 0.1816616192
| 20> P -2.5643239817 0.4275221174 0.055010515
| 21> S -1.9036979755 1.8490357948 -1.1189773104
| 22> O -3.956333026 -0.1898793481 -0.4680993984
| 23> C -4.0945565197 -0.6994867167 -1.7963642658
| 24> O -3.0374189144 0.8928450622 1.4872711688
| 25> C -3.6635248742 -0.0095321799 2.4204831469
| 26> H 6.5236659454 -0.3458092931 -1.2263131959
| 27> H 5.0047599151 0.4083253384 -0.7263837374
| 28> H 5.7527643022 -0.8338610825 0.2909288426
| 29> H 5.3518457672 -2.5343878185 -1.5049975899
| 30> H 4.5727695098 -1.2619003746 -2.5010536249
| 31> H 1.6026689345 -2.0958396693 0.6303733564
| 32> H 0.8790483376 -2.5723580109 -0.9100729997
| 33> H 1.5848755117 2.5658124673 1.6668258337
| 34> H 1.9470120629 1.336165298 2.895892249
| 35> H 3.9751981194 2.7155783532 2.4087115103
| 36> H 4.233506529 1.034290032 1.9165420231
| 37> H 3.875190304 2.2681410421 0.7004531942
| 38> H -3.5753410929 -1.6539570253 -1.8830186947
| 39> H -3.687398984 0.0137496096 -2.5152921537
| 40> H -5.1625897824 -0.8274625303 -1.9522236898
| 41> H -3.7391479225 0.5529429908 3.3473903886
| 42> H -3.043358312 -0.8957637183 2.5572263289
| 43> H -4.6480846684 -0.2940655194 2.0536545822
| 44> *
| 45>
| 46>                          ****END OF INPUT****

CARTESIAN COORDINATES (ANGSTROEM)
---------------------------------
  C      5.572972   -0.518429   -0.732895
  C      4.803779   -1.592228   -1.484401
  O      3.568548   -1.909998   -0.812913
  C      2.491983   -1.208359   -1.105329
  O      2.454704   -0.297643   -1.902072
  C      1.286295   -1.730501   -0.345356
  C      0.223237   -0.650208   -0.231150
  H      0.125092   -0.127901   -1.194008
  C      0.527812    0.411665    0.803206
  O     -0.355352    0.995020    1.403250
  O      1.802745    0.633582    0.961721
  C      2.187195    1.678720    1.885089
  C      3.669259    1.939609    1.715155
  S     -1.407051   -1.352627    0.181662
  P     -2.564324    0.427522    0.055011
  S     -1.903698    1.849036   -1.118977
  O     -3.956333   -0.189879   -0.468099
  C     -4.094557   -0.699487   -1.796364
  O     -3.037419    0.892845    1.487271
  C     -3.663525   -0.009532    2.420483
  H      6.523666   -0.345809   -1.226313
  H      5.004760    0.408325   -0.726384
  H      5.752764   -0.833861    0.290929
  H      5.351846   -2.534388   -1.504998
  H      4.572770   -1.261900   -2.501054
  H      1.602669   -2.095840    0.630373
  H      0.879048   -2.572358   -0.910073
  H      1.584876    2.565812    1.666826
  H      1.947012    1.336165    2.895892
  H      3.975198    2.715578    2.408712
  H      4.233507    1.034290    1.916542
  H      3.875190    2.268141    0.700453
  H     -3.575341   -1.653957   -1.883019
  H     -3.687399    0.013750   -2.515292
  H     -5.162590   -0.827463   -1.952224
  H     -3.739148    0.552943    3.347390
  H     -3.043358   -0.895764    2.557226
  H     -4.648085   -0.294066    2.053655

 Total Charge           Charge          ....    0
 Multiplicity           Mult            ....    1
 Number of Electrons    NEL             ....  174
 Basis Dimension        Dim             ....  510

ORBITAL ENERGIES
----------------

  NO   OCC          E(Eh)            E(eV)
   0   2.0000     -88.570641     -2410.1297
   1   2.0000     -88.503370     -2408.2991
   2   2.0000     -76.903677     -2092.6555
   3   2.0000     -19.014832      -517.4199
   4   2.0000     -19.008914      -517.2588
   5   2.0000     -18.979714      -516.4643
   6   2.0000     -18.976425      -516.3748
   7   2.0000     -18.939752      -515.3769
   8   2.0000     -18.938813      -515.3513
   9   2.0000     -10.166992      -276.6579
  10   2.0000     -10.164938      -276.6020
  11   2.0000     -10.101603      -274.8786
  12   2.0000     -10.100876      -274.8588
  13   2.0000     -10.092432      -274.6290
  14   2.0000     -10.087872      -274.5049
  15   2.0000     -10.079557      -274.2787
  16   2.0000     -10.066979      -273.9364
  17   2.0000     -10.038958      -273.1739
  18   2.0000     -10.037071      -273.1226
  19   2.0000      -7.864960      -214.0165
  20   2.0000      -7.798178      -212.1992
  21   2.0000      -6.581322      -179.0869
  22   2.0000      -5.811752      -158.1458
  23   2.0000      -5.808868      -158.0673
  24   2.0000      -5.802120      -157.8837
  25   2.0000      -5.746152      -156.3607
  26   2.0000      -5.738601      -156.1553
  27   2.0000      -5.737696      -156.1306
  28   2.0000      -4.727101      -128.6310
  29   2.0000      -4.726520      -128.6151
  30   2.0000      -4.724698      -128.5656
  31   2.0000      -1.092478       -29.7278
  32   2.0000      -1.084861       -29.5206
  33   2.0000      -1.037499       -28.2318
  34   2.0000      -0.994630       -27.0652
  35   2.0000      -0.990072       -26.9412
  36   2.0000      -0.989125       -26.9154
  37   2.0000      -0.811230       -22.0747
  38   2.0000      -0.759752       -20.6739
  39   2.0000      -0.755088       -20.5470
  40   2.0000      -0.726105       -19.7583
  41   2.0000      -0.696691       -18.9579
  42   2.0000      -0.664745       -18.0886
  43   2.0000      -0.657065       -17.8796
  44   2.0000      -0.643261       -17.5040
  45   2.0000      -0.633475       -17.2377
  46   2.0000      -0.595923       -16.2159
  47   2.0000      -0.546941       -14.8830
  48   2.0000      -0.533703       -14.5228
  49   2.0000      -0.527014       -14.3408
  50   2.0000      -0.498435       -13.5631
  51   2.0000      -0.491627       -13.3778
  52   2.0000      -0.481956       -13.1147
  53   2.0000      -0.468851       -12.7581
  54   2.0000      -0.467496       -12.7212
  55   2.0000      -0.452471       -12.3124
  56   2.0000      -0.449000       -12.2179
  57   2.0000      -0.439094       -11.9483
  58   2.0000      -0.435641       -11.8544
  59   2.0000      -0.426706       -11.6113
  60   2.0000      -0.420719       -11.4484
  61   2.0000      -0.413447       -11.2505
  62   2.0000      -0.407251       -11.0819
  63   2.0000      -0.399459       -10.8698
  64   2.0000      -0.396191       -10.7809
  65   2.0000      -0.385104       -10.4792
  66   2.0000      -0.382295       -10.4028
  67   2.0000      -0.374470       -10.1898
  68   2.0000      -0.366310        -9.9678
  69   2.0000      -0.358154        -9.7459
  70   2.0000      -0.351211        -9.5569
  71   2.0000      -0.344061        -9.3624
  72   2.0000      -0.339447        -9.2368
  73   2.0000      -0.327147        -8.9021
  74   2.0000      -0.324700        -8.8355
  75   2.0000      -0.317099        -8.6287
  76   2.0000      -0.308096        -8.3837
  77   2.0000      -0.303076        -8.2471
  78   2.0000      -0.287913        -7.8345
  79   2.0000      -0.281331        -7.6554
  80   2.0000      -0.277410        -7.5487
  81   2.0000      -0.265629        -7.2281
  82   2.0000      -0.251958        -6.8561
  83   2.0000      -0.247121        -6.7245
  84   2.0000      -0.232444        -6.3251
  85   2.0000      -0.205199        -5.5837
  86   2.0000      -0.196471        -5.3462
  87   0.0000      -0.043657        -1.1880
  88   0.0000      -0.025555        -0.6954
  89   0.0000      -0.017593        -0.4787
  90   0.0000       0.010993         0.2991
  91   0.0000       0.028964         0.7881

MULLIKEN ATOMIC CHARGES
-----------------------
   0 C :   -0.481415
   1 C :   -0.126542
   2 O :   -0.168270
   3 C :    0.333158
   4 O :   -0.416085
   5 C :   -0.361994
   6 C :    0.025278
   7 H :    0.264219
   8 C :    0.243650
   9 O :   -0.401368
  10 O :   -0.104350
  11 C :   -0.136654
  12 C :   -0.467515
  13 S :   -0.231579
  14 P :    0.815204
  15 S :   -0.459841
  16 O :   -0.363815
  17 C :   -0.301672
  18 O :   -0.302909
  19 C :   -0.289413
  20 H :    0.150087
  21 H :    0.172554
  22 H :    0.153566
  23 H :    0.150712
  24 H :    0.169256
  25 H :    0.190780
  26 H :    0.184844
  27 H :    0.176041
  28 H :    0.154036
  29 H :    0.150968
  30 H :    0.153678
  31 H :    0.164098
  32 H :    0.152934
  33 H :    0.176650
  34 H :    0.147989
  35 H :    0.155351
  36 H :    0.161529
  37 H :    0.166841
Sum of atomic charges:   -0.0000000

LOEWDIN ATOMIC CHARGES
----------------------
   0 C :   -0.390250
   1 C :    0.031561
   2 O :   -0.580732
   3 C :    0.360143
   4 O :   -0.427792
   5 C :   -0.204483
   6 C :   -0.205199
   7 H :    0.227482
   8 C :    0.357132
   9 O :   -0.443243
  10 O :   -0.567046
  11 C :    0.043782
  12 C :   -0.387208
  13 S :    0.185259
  14 P :    0.407164
  15 S :   -0.087631
  16 O :   -0.696105
  17 C :   -0.066232
  18 O :   -0.637896
  19 C :   -0.049709
  20 H :    0.160569
  21 H :    0.165450
  22 H :    0.157292
  23 H :    0.179223
  24 H :    0.189338
  25 H :    0.193158
  26 H :    0.192225
  27 H :    0.189820
  28 H :    0.179172
  29 H :    0.161960
  30 H :    0.159221
  31 H :    0.162696
  32 H :    0.166143
  33 H :    0.176910
  34 H :    0.174798
  35 H :    0.179672
  36 H :    0.170931
  37 H :    0.172424

  Mayer bond orders larger than 0.100000
B(  0-C ,  1-C ) :   0.9424 B(  0-C , 20-H ) :   0.9642 B(  0-C , 21-H ) :   0.9675
B(  0-C , 22-H ) :   0.9726 B(  1-C ,  2-O ) :   0.8025 B(  1-C , 23-H ) :   0.9614
B(  1-C , 24-H ) :   0.9666 B(  2-O ,  3-C ) :   1.0902 B(  3-C ,  4-O ) :   1.8572
B(  3-C ,  5-C ) :   0.9358 B(  4-O ,  6-C ) :   0.1038 B(  5-C ,  6-C ) :   0.8691
B(  5-C , 25-H ) :   0.9784 B(  5-C , 26-H ) :   0.9272 B(  6-C ,  7-H ) :   0.8730
B(  6-C ,  8-C ) :   0.9927 B(  6-C , 13-S ) :   0.8592 B(  8-C ,  9-O ) :   1.7764
B(  8-C , 10-O ) :   1.2131 B(  9-O , 14-P ) :   0.1041 B( 10-O , 11-C ) :   0.7859
B( 11-C , 12-C ) :   0.9443 B( 11-C , 27-H ) :   0.9562 B( 11-C , 28-H ) :   0.9469
B( 12-C , 29-H ) :   0.9642 B( 12-C , 30-H ) :   0.9678 B( 12-C , 31-H ) :   0.9711
B( 13-S , 14-P ) :   0.9625 B( 14-P , 15-S ) :   1.8007 B( 14-P , 16-O ) :   1.0020
B( 14-P , 18-O ) :   1.1849 B( 16-O , 17-C ) :   0.8382 B( 17-C , 32-H ) :   0.9572
B( 17-C , 33-H ) :   0.9578 B( 17-C , 34-H ) :   0.9695 B( 18-O , 19-C ) :   0.7966
B( 19-C , 35-H ) :   0.9661 B( 19-C , 36-H ) :   0.9596 B( 19-C , 37-H ) :   0.9627

Dispersion correction           -0.016834898
FINAL SINGLE POINT ENERGY     -1981.447835658273

DIPOLE MOMENT
-------------

Method             : SCF
Type of density    : Electron Density
Multiplicity       :   1
Irrep              :   0
Energy             : -1981.4686070082766491 Eh
Relativity type    :
Basis              : AO
                                X                 Y                 Z
Electronic contribution:    -21.201517139       1.329479728      -2.888652695
Nuclear contribution   :     22.632823289      -2.785272022       3.791833791
                        -----------------------------------------
Total Dipole Moment    :      1.431306149      -1.455792295       0.903181096
                        -----------------------------------------
Magnitude (a.u.)       :      2.232421240
Magnitude (Debye)      :      5.674363842

Rotational constants in cm-1:             0.017414             0.005415             0.004845
Rotational constants in MHz :           522.049297           162.331162           145.239509

                             ****ORCA TERMINATED NORMALLY****
TOTAL RUN TIME: 0 days 0 hours 1 minutes 12 seconds 43 msec
