                         Program Version 6.0.1  -  RELEASE   -
|  1> ! r2scan-3c def2/J RI DEFGRID2 scfconv6 printgap
|  2> %output
|  3>     printlevel normal
|  4> end
|  5> %cpcm
|  6>     smd true
|  7>     smdsolvent "water"
|  8> end
|  9> * xyz 0 1
| 10> C 5.5729723466 -0.5184291908 -0.7328948117
| 11> C 4.8037790418 -1.5922278289 -1.4844010992
| 12> O 3.5685482819 -1.9099983775 -0.8129126733
| 13> C 2.4919829812 -1.2083591732 -1.1053290192
| 14> O 2.4547040582 -0.297642947 -1.9020717685
| 15> C 1.2862952755 -1.7305005325 -0.3453560844
| 16> C 0.2232370174 -0.6502079217 -0.2311502542
| 17> H 0.1250915758 -0.1279013101 -1.1940084862
| 18> C 0.5278120947 0.4116651154 0.8032058381
| 19> O -0.3553523023 0.9950202275 1.4032502664
| 20> O 1.8027453234 0.6335819484 0.9617205248
| 21> C 2.1871947459 1.6787201981 1.8850891575
| 22> C 3.6692587069 1.9396086419 1.7151550247
| 23> S -1.407050945 -1.3526266882 0.1816616192
| 24> P -2.5643239817 0.4275221174 0.055010515
| 25> S -1.9036979755 1.8490357948 -1.1189773104
| 26> O -3.956333026 -0.1898793481 -0.4680993984
| 27> C -4.0945565197 -0.6994867167 -1.7963642658
| 28> O -3.0374189144 0.8928450622 1.4872711688
| 29> C -3.6635248742 -0.0095321799 2.4204831469
| 30> H 6.5236659454 -0.3458092931 -1.2263131959
| 31> H 5.0047599151 0.4083253384 -0.7263837374
| 32> H 5.7527643022 -0.8338610825 0.2909288426
| 33> H 5.3518457672 -2.5343878185 -1.5049975899
| 34> H 4.5727695098 -1.2619003746 -2.5010536249
| 35> H 1.6026689345 -2.0958396693 0.6303733564
| 36> H 0.8790483376 -2.5723580109 -0.9100729997
| 37> H 1.5848755117 2.5658124673 1.6668258337
| 38> H 1.9470120629 1.336165298 2.895892249
| 39> H 3.9751981194 2.7155783532 2.4087115103
| 40> H 4.233506529 1.034290032 1.9165420231
| 41> H 3.875190304 2.2681410421 0.7004531942
| 42> H -3.5753410929 -1.6539570253 -1.8830186947
| 43> H -3.687398984 0.0137496096 -2.5152921537
| 44> H -5.1625897824 -0.8274625303 -1.9522236898
| 45> H -3.7391479225 0.5529429908 3.3473903886
| 46> H -3.043358312 -0.8957637183 2.5572263289
| 47> H -4.6480846684 -0.2940655194 2.0536545822
| 48> *
| 49>
| 50>                          ****END OF INPUT****

CARTESIAN COORDINATES (ANGSTROEM)
---------------------------------
  C      5.572972   -0.518429   -0.732895
  C      4.803779   -1.592228   -1.484401
  O      3.568548   -1.909998   -0.812913
  C      2.491983   -1.208359   -1.105329
  O      2.454704   -0.297643   -1.902072
  C      1.286295   -1.730501   -0.345356
  C      0.223237   -0.650208   -0.231150
  H      0.125092   -0.127901   -1.194008
  C      0.527812    0.411665    0.803206
  O     -0.355352    0.995020    1.403250
  O      1.802745    0.633582    0.961721
  C      2.187195    1.678720    1.885089
  C      3.669259    1.939609    1.715155
  S     -1.407051   -1.352627    0.181662
  P     -2.564324    0.427522    0.055011
  S     -1.903698    1.849036   -1.118977
  O     -3.956333   -0.189879   -0.468099
  C     -4.094557   -0.699487   -1.796364
  O     -3.037419    0.892845    1.487271
  C     -3.663525   -0.009532    2.420483
  H      6.523666   -0.345809   -1.226313
  H      5.004760    0.408325   -0.726384
  H      5.752764   -0.833861    0.290929
  H      5.351846   -2.534388   -1.504998
  H      4.572770   -1.261900   -2.501054
  H      1.602669   -2.095840    0.630373
  H      0.879048   -2.572358   -0.910073
  H      1.584876    2.565812    1.666826
  H      1.947012    1.336165    2.895892
  H      3.975198    2.715578    2.408712
  H      4.233507    1.034290    1.916542
  H      3.875190    2.268141    0.700453
  H     -3.575341   -1.653957   -1.883019
  H     -3.687399    0.013750   -2.515292
  H     -5.162590   -0.827463   -1.952224
  H     -3.739148    0.552943    3.347390
  H     -3.043358   -0.895764    2.557226
  H     -4.648085   -0.294066    2.053655

 Total Charge           Charge          ....    0
 Multiplicity           Mult            ....    1
 Number of Electrons    NEL             ....  174
 Basis Dimension        Dim             ....  510

ORBITAL ENERGIES
----------------

  NO   OCC          E(Eh)            E(eV)
   0   2.0000     -88.579545     -2410.3719
   1   2.0000     -88.524351     -2408.8700
   2   2.0000     -76.919526     -2093.0867
   3   2.0000     -19.017728      -517.4987
   4   2.0000     -19.008793      -517.2556
   5   2.0000     -18.994604      -516.8694
   6   2.0000     -18.988226      -516.6959
   7   2.0000     -18.952219      -515.7161
   8   2.0000     -18.949817      -515.6507
   9   2.0000     -10.175145      -276.8798
  10   2.0000     -10.173286      -276.8292
  11   2.0000     -10.097273      -274.7608
  12   2.0000     -10.090152      -274.5670
  13   2.0000     -10.086271      -274.4614
  14   2.0000     -10.084542      -274.4143
  15   2.0000     -10.078403      -274.2473
  16   2.0000     -10.060208      -273.7522
  17   2.0000     -10.020716      -272.6776
  18   2.0000     -10.019147      -272.6348
  19   2.0000      -7.873739      -214.2553
  20   2.0000      -7.819559      -212.7810
  21   2.0000      -6.597299      -179.5216
  22   2.0000      -5.820570      -158.3858
  23   2.0000      -5.817711      -158.3080
  24   2.0000      -5.810810      -158.1202
  25   2.0000      -5.767368      -156.9381
  26   2.0000      -5.760029      -156.7384
  27   2.0000      -5.759117      -156.7135
  28   2.0000      -4.743060      -129.0652
  29   2.0000      -4.742391      -129.0470
  30   2.0000      -4.740823      -129.0043
  31   2.0000      -1.097116       -29.8541
  32   2.0000      -1.086614       -29.5683
  33   2.0000      -1.050910       -28.5967
  34   2.0000      -1.006710       -27.3940
  35   2.0000      -1.001205       -27.2442
  36   2.0000      -0.997394       -27.1405
  37   2.0000      -0.813441       -22.1349
  38   2.0000      -0.751616       -20.4525
  39   2.0000      -0.748088       -20.3565
  40   2.0000      -0.729042       -19.8382
  41   2.0000      -0.697199       -18.9718
  42   2.0000      -0.667038       -18.1510
  43   2.0000      -0.659041       -17.9334
  44   2.0000      -0.651619       -17.7314
  45   2.0000      -0.624368       -16.9899
  46   2.0000      -0.591622       -16.0989
  47   2.0000      -0.543581       -14.7916
  48   2.0000      -0.532972       -14.5029
  49   2.0000      -0.526616       -14.3300
  50   2.0000      -0.499573       -13.5941
  51   2.0000      -0.493109       -13.4182
  52   2.0000      -0.489008       -13.3066
  53   2.0000      -0.473151       -12.8751
  54   2.0000      -0.466458       -12.6930
  55   2.0000      -0.459121       -12.4933
  56   2.0000      -0.452190       -12.3047
  57   2.0000      -0.446412       -12.1475
  58   2.0000      -0.439374       -11.9560
  59   2.0000      -0.426940       -11.6176
  60   2.0000      -0.421730       -11.4759
  61   2.0000      -0.408492       -11.1156
  62   2.0000      -0.406860       -11.0712
  63   2.0000      -0.400601       -10.9009
  64   2.0000      -0.391185       -10.6447
  65   2.0000      -0.381003       -10.3676
  66   2.0000      -0.373362       -10.1597
  67   2.0000      -0.364246        -9.9116
  68   2.0000      -0.361386        -9.8338
  69   2.0000      -0.358600        -9.7580
  70   2.0000      -0.346802        -9.4370
  71   2.0000      -0.340843        -9.2748
  72   2.0000      -0.336314        -9.1516
  73   2.0000      -0.328576        -8.9410
  74   2.0000      -0.323528        -8.8036
  75   2.0000      -0.316856        -8.6221
  76   2.0000      -0.311959        -8.4888
  77   2.0000      -0.307730        -8.3738
  78   2.0000      -0.289667        -7.8822
  79   2.0000      -0.287513        -7.8236
  80   2.0000      -0.283070        -7.7027
  81   2.0000      -0.276059        -7.5120
  82   2.0000      -0.263819        -7.1789
  83   2.0000      -0.259100        -7.0505
  84   2.0000      -0.242771        -6.6061
  85   2.0000      -0.226647        -6.1674
  86   2.0000      -0.218330        -5.9411
  87   0.0000      -0.052582        -1.4308
  88   0.0000      -0.035599        -0.9687
  89   0.0000      -0.022877        -0.6225
  90   0.0000       0.002663         0.0725
  91   0.0000       0.016537         0.4500

MULLIKEN ATOMIC CHARGES
-----------------------
   0 C :   -0.509457
   1 C :   -0.130197
   2 O :   -0.182473
   3 C :    0.361655
   4 O :   -0.489961
   5 C :   -0.368819
   6 C :    0.019740
   7 H :    0.263902
   8 C :    0.266157
   9 O :   -0.455811
  10 O :   -0.107767
  11 C :   -0.136406
  12 C :   -0.512770
  13 S :   -0.215173
  14 P :    0.820711
  15 S :   -0.521677
  16 O :   -0.393360
  17 C :   -0.309348
  18 O :   -0.352117
  19 C :   -0.295456
  20 H :    0.171872
  21 H :    0.171760
  22 H :    0.170403
  23 H :    0.176555
  24 H :    0.173674
  25 H :    0.221236
  26 H :    0.221059
  27 H :    0.179129
  28 H :    0.179227
  29 H :    0.172139
  30 H :    0.170750
  31 H :    0.172712
  32 H :    0.172632
  33 H :    0.175575
  34 H :    0.176956
  35 H :    0.181946
  36 H :    0.177423
  37 H :    0.183577
Sum of atomic charges:   -0.0000000

LOEWDIN ATOMIC CHARGES
----------------------
   0 C :   -0.392898
   1 C :    0.036996
   2 O :   -0.579642
   3 C :    0.369989
   4 O :   -0.481749
   5 C :   -0.196577
   6 C :   -0.201043
   7 H :    0.225568
   8 C :    0.363009
   9 O :   -0.488695
  10 O :   -0.563137
  11 C :    0.047840
  12 C :   -0.388720
  13 S :    0.205038
  14 P :    0.404955
  15 S :   -0.137642
  16 O :   -0.707982
  17 C :   -0.060894
  18 O :   -0.670296
  19 C :   -0.041715
  20 H :    0.168672
  21 H :    0.163632
  22 H :    0.163088
  23 H :    0.190627
  24 H :    0.190689
  25 H :    0.206401
  26 H :    0.207283
  27 H :    0.190623
  28 H :    0.188527
  29 H :    0.170296
  30 H :    0.164620
  31 H :    0.164364
  32 H :    0.174581
  33 H :    0.176499
  34 H :    0.187113
  35 H :    0.191022
  36 H :    0.178625
  37 H :    0.180934

  Mayer bond orders larger than 0.100000
B(  0-C ,  1-C ) :   0.9371 B(  0-C , 20-H ) :   0.9593 B(  0-C , 21-H ) :   0.9647
B(  0-C , 22-H ) :   0.9679 B(  1-C ,  2-O ) :   0.7847 B(  1-C , 23-H ) :   0.9515
B(  1-C , 24-H ) :   0.9634 B(  2-O ,  3-C ) :   1.1129 B(  3-C ,  4-O ) :   1.8013
B(  3-C ,  5-C ) :   0.9449 B(  5-C ,  6-C ) :   0.8657 B(  5-C , 25-H ) :   0.9633
B(  5-C , 26-H ) :   0.9190 B(  6-C ,  7-H ) :   0.8791 B(  6-C ,  8-C ) :   0.9839
B(  6-C , 13-S ) :   0.8502 B(  8-C ,  9-O ) :   1.7400 B(  8-C , 10-O ) :   1.2359
B(  9-O , 14-P ) :   0.1057 B( 10-O , 11-C ) :   0.7721 B( 11-C , 12-C ) :   0.9420
B( 11-C , 27-H ) :   0.9509 B( 11-C , 28-H ) :   0.9371 B( 12-C , 29-H ) :   0.9580
B( 12-C , 30-H ) :   0.9640 B( 12-C , 31-H ) :   0.9695 B( 13-S , 14-P ) :   0.9930
B( 14-P , 15-S ) :   1.7809 B( 14-P , 16-O ) :   1.0068 B( 14-P , 18-O ) :   1.1775
B( 16-O , 17-C ) :   0.8297 B( 17-C , 32-H ) :   0.9503 B( 17-C , 33-H ) :   0.9550
B( 17-C , 34-H ) :   0.9590 B( 18-O , 19-C ) :   0.7885 B( 19-C , 35-H ) :   0.9549
B( 19-C , 36-H ) :   0.9490 B( 19-C , 37-H ) :   0.9534

Dispersion correction           -0.016834898
FINAL SINGLE POINT ENERGY     -1981.464891013957

DIPOLE MOMENT
-------------

Method             : SCF
Type of density    : Electron Density
Multiplicity       :   1
Irrep              :   0
Energy             : -1981.4856623639598183 Eh
Relativity type    :
Basis              : AO
                                X                 Y                 Z
Electronic contribution:    -20.773972580       0.319238328      -2.604550154
Nuclear contribution   :     22.632823289      -2.785272022       3.791833791
                        -----------------------------------------
Total Dipole Moment    :      1.858850708      -2.466033695       1.187283637
                        -----------------------------------------
Magnitude (a.u.)       :      3.308517882
Magnitude (Debye)      :      8.409584134

Rotational constants in cm-1:             0.017414             0.005415             0.004845
Rotational constants in MHz :           522.049297           162.331162           145.239509

                             ****ORCA TERMINATED NORMALLY****
TOTAL RUN TIME: 0 days 0 hours 1 minutes 55 seconds 91 msec
