                         Program Version 6.0.0  -   RELEASE  -
|  1> ! pbe def2-sv(p) def2/J RI DEFGRID1 loosescf d4 GCP(DFT/SV(P)) printgap
|  2> %output
|  3>     printlevel normal
|  4> end
|  5> * xyz 0 1
|  6> C 0.7232681081 -0.6336712042 0.004520975
|  7> C -0.6094838568 0.0298595144 0.4134501976
|  8> F -1.165701653 -0.6922099013 1.4100373261
|  9> Cl -1.7142073444 0.0369449574 -0.9645528977
| 10> Cl -0.2991059273 1.6649690393 1.0044134748
| 11> F 1.5478296787 -0.702074595 1.0596037455
| 12> F 0.5089789637 -1.8988028901 -0.3841716161
| 13> Cl 1.4972420042 0.2673339504 -1.2990152173
| 14> *
| 15>
| 16>                          ****END OF INPUT****

CARTESIAN COORDINATES (ANGSTROEM)
---------------------------------
  C      0.723268   -0.633671    0.004521
  C     -0.609484    0.029860    0.413450
  F     -1.165702   -0.692210    1.410037
  Cl    -1.714207    0.036945   -0.964553
  Cl    -0.299106    1.664969    1.004413
  F      1.547830   -0.702075    1.059604
  F      0.508979   -1.898803   -0.384172
  Cl     1.497242    0.267334   -1.299015

 Total Charge           Charge          ....    0
 Multiplicity           Mult            ....    1
 Number of Electrons    NEL             ....   90
 Basis Dimension        Dim             ....  124

ORBITAL ENERGIES
----------------

  NO   OCC          E(Eh)            E(eV)
   0   2.0000    -100.671265     -2739.4044
   1   2.0000    -100.671225     -2739.4033
   2   2.0000    -100.666281     -2739.2688
   3   2.0000     -24.318705      -661.7456
   4   2.0000     -24.317141      -661.7030
   5   2.0000     -24.317051      -661.7006
   6   2.0000     -10.134544      -275.7750
   7   2.0000     -10.110218      -275.1130
   8   2.0000      -9.208146      -250.5664
   9   2.0000      -9.208111      -250.5654
  10   2.0000      -9.203598      -250.4426
  11   2.0000      -7.040019      -191.5687
  12   2.0000      -7.040002      -191.5682
  13   2.0000      -7.035209      -191.4378
  14   2.0000      -7.027473      -191.2273
  15   2.0000      -7.027466      -191.2271
  16   2.0000      -7.027404      -191.2254
  17   2.0000      -7.027392      -191.2251
  18   2.0000      -7.023025      -191.1062
  19   2.0000      -7.022945      -191.1041
  20   2.0000      -1.196277       -32.5524
  21   2.0000      -1.156255       -31.4633
  22   2.0000      -1.124341       -30.5949
  23   2.0000      -0.861412       -23.4402
  24   2.0000      -0.806866       -21.9559
  25   2.0000      -0.785502       -21.3746
  26   2.0000      -0.678829       -18.4719
  27   2.0000      -0.593062       -16.1381
  28   2.0000      -0.549763       -14.9598
  29   2.0000      -0.542866       -14.7721
  30   2.0000      -0.518102       -14.0983
  31   2.0000      -0.483885       -13.1672
  32   2.0000      -0.482191       -13.1211
  33   2.0000      -0.421266       -11.4632
  34   2.0000      -0.401263       -10.9189
  35   2.0000      -0.385961       -10.5025
  36   2.0000      -0.383606       -10.4384
  37   2.0000      -0.368779       -10.0350
  38   2.0000      -0.351994        -9.5782
  39   2.0000      -0.330909        -9.0045
  40   2.0000      -0.313882        -8.5412
  41   2.0000      -0.305770        -8.3204
  42   2.0000      -0.291889        -7.9427
  43   2.0000      -0.287247        -7.8164
  44   2.0000      -0.285591        -7.7713
  45   0.0000      -0.050987        -1.3874
  46   0.0000      -0.027791        -0.7562
  47   0.0000      -0.016230        -0.4416
  48   0.0000       0.046015         1.2521
  49   0.0000       0.089353         2.4314

MULLIKEN ATOMIC CHARGES
-----------------------
   0 C :    0.319078
   1 C :    0.088362
   2 F :   -0.109853
   3 Cl:   -0.013988
   4 Cl:   -0.013995
   5 F :   -0.108994
   6 F :   -0.108877
   7 Cl:   -0.051733
Sum of atomic charges:    0.0000000

LOEWDIN ATOMIC CHARGES
----------------------
   0 C :   -0.071791
   1 C :   -0.205203
   2 F :   -0.041736
   3 Cl:    0.130256
   4 Cl:    0.130308
   5 F :   -0.031203
   6 F :   -0.031101
   7 Cl:    0.120470

  Mayer bond orders larger than 0.100000
B(  0-C ,  1-C ) :   0.8138 B(  0-C ,  5-F ) :   1.1648 B(  0-C ,  6-F ) :   1.1651
B(  0-C ,  7-Cl) :   1.0985 B(  1-C ,  2-F ) :   1.1187 B(  1-C ,  3-Cl) :   1.0907
B(  1-C ,  4-Cl) :   1.0907

Dispersion correction           -0.011383813
FINAL SINGLE POINT ENERGY     -1754.641387506082

DIPOLE MOMENT
-------------

Method             : SCF
Type of density    : Electron Density
Multiplicity       :   1
Irrep              :   0
Energy             : -1754.6730926816414922 Eh
Relativity type    :
Basis              : AO
                                X                 Y                 Z
Electronic contribution:      0.079844040      -0.230572282       0.133358769
Nuclear contribution   :     -0.132979155       0.408064334      -0.242240543
                        -----------------------------------------
Total Dipole Moment    :     -0.053135115       0.177492052      -0.108881775
                        -----------------------------------------
Magnitude (a.u.)       :      0.214899999
Magnitude (Debye)      :      0.546232389

Rotational constants in cm-1:             0.046816             0.036319             0.034139
Rotational constants in MHz :          1403.519636          1088.807690          1023.453905

                             ****ORCA TERMINATED NORMALLY****
TOTAL RUN TIME: 0 days 0 hours 0 minutes 5 seconds 233 msec
