                         Program Version 6.0.0  -   RELEASE  -
|  1> ! pbe def2-sv(p) def2/J RI DEFGRID1 loosescf d4 GCP(DFT/SV(P)) printgap
|  2> %output
|  3>     printlevel normal
|  4> end
|  5> * xyz 0 1
|  6> C 1.8302690246 -2.8772961414 0.899685591
|  7> C 1.9271773711 -1.5793716534 1.6749685136
|  8> O 2.9077252641 -0.6797704407 1.1305528669
|  9> P 2.7804962289 0.0812777113 -0.2622803667
| 10> S 3.0134706644 -0.9551184277 -1.9095810319
| 11> O 3.9350319985 1.1420904317 -0.1423606271
| 12> C 4.3401483849 1.8293672503 1.0672478221
| 13> C 3.2517096269 2.7263073411 1.6167374269
| 14> S 0.924401601 1.1548655924 -0.1499285143
| 15> C -0.0172917264 0.2304367468 -1.382481399
| 16> S -1.0247628255 -1.082170788 -0.6590855922
| 17> P -2.6775349311 0.1622878576 -0.1294153179
| 18> S -3.1235368682 1.5676301318 -1.4172639299
| 19> O -2.3427090282 0.8207317199 1.2600991873
| 20> C -1.9884721705 0.0567156695 2.442381508
| 21> C -0.9790701824 0.8610107403 3.2357838312
| 22> O -3.7960327484 -0.889468007 0.2798504093
| 23> C -4.2143848785 -2.0170306817 -0.512225839
| 24> C -4.6337908755 -1.6255944938 -1.9134682172
| 25> H 1.1653024585 -3.5575795224 1.4216062296
| 26> H 1.4342772338 -2.6979941376 -0.0985617646
| 27> H 2.811899134 -3.3341507263 0.8047113102
| 28> H 2.2755857291 -1.7509144191 2.6950006901
| 29> H 0.9593647959 -1.0700252883 1.6956247981
| 30> H 4.640798645 1.0797067935 1.8010788012
| 31> H 5.2092921597 2.4046351775 0.7447726794
| 32> H 2.4020671412 2.1331195924 1.9497798521
| 33> H 3.6437601477 3.2848214747 2.4609715349
| 34> H 2.9109055771 3.4226081385 0.8545123765
| 35> H 0.6816978172 -0.2378162437 -2.0799429303
| 36> H -0.6781488333 0.9353056191 -1.8904307134
| 37> H -2.9075908637 -0.1066021233 3.0074252423
| 38> H -1.5817110928 -0.9098503873 2.1292600433
| 39> H -0.696463888 0.3056057431 4.1240902448
| 40> H -0.0970726987 1.0568756725 2.630806848
| 41> H -1.4106690808 1.8140631598 3.5265674639
| 42> H -3.3914942713 -2.7365183142 -0.5417774954
| 43> H -5.0507792641 -2.4306530096 0.0538387268
| 44> H -5.4046221601 -0.8591465808 -1.8795017241
| 45> H -3.7820940551 -1.2295849223 -2.4652777886
| 46> H -5.0162717656 -2.4979005171 -2.4335795364
| 47> *
| 48>
| 49>                          ****END OF INPUT****

CARTESIAN COORDINATES (ANGSTROEM)
---------------------------------
  C      1.830269   -2.877296    0.899686
  C      1.927177   -1.579372    1.674969
  O      2.907725   -0.679770    1.130553
  P      2.780496    0.081278   -0.262280
  S      3.013471   -0.955118   -1.909581
  O      3.935032    1.142090   -0.142361
  C      4.340148    1.829367    1.067248
  C      3.251710    2.726307    1.616737
  S      0.924402    1.154866   -0.149929
  C     -0.017292    0.230437   -1.382481
  S     -1.024763   -1.082171   -0.659086
  P     -2.677535    0.162288   -0.129415
  S     -3.123537    1.567630   -1.417264
  O     -2.342709    0.820732    1.260099
  C     -1.988472    0.056716    2.442382
  C     -0.979070    0.861011    3.235784
  O     -3.796033   -0.889468    0.279850
  C     -4.214385   -2.017031   -0.512226
  C     -4.633791   -1.625594   -1.913468
  H      1.165302   -3.557580    1.421606
  H      1.434277   -2.697994   -0.098562
  H      2.811899   -3.334151    0.804711
  H      2.275586   -1.750914    2.695001
  H      0.959365   -1.070025    1.695625
  H      4.640799    1.079707    1.801079
  H      5.209292    2.404635    0.744773
  H      2.402067    2.133120    1.949780
  H      3.643760    3.284821    2.460972
  H      2.910906    3.422608    0.854512
  H      0.681698   -0.237816   -2.079943
  H     -0.678149    0.935306   -1.890431
  H     -2.907591   -0.106602    3.007425
  H     -1.581711   -0.909850    2.129260
  H     -0.696464    0.305606    4.124090
  H     -0.097073    1.056876    2.630807
  H     -1.410669    1.814063    3.526567
  H     -3.391494   -2.736518   -0.541777
  H     -5.050779   -2.430653    0.053839
  H     -5.404622   -0.859147   -1.879502
  H     -3.782094   -1.229585   -2.465278
  H     -5.016272   -2.497901   -2.433580

 Total Charge           Charge          ....    0
 Multiplicity           Mult            ....    1
 Number of Electrons    NEL             ....  202
 Basis Dimension        Dim             ....  334

ORBITAL ENERGIES
----------------

  NO   OCC          E(Eh)            E(eV)
   0   2.0000     -88.048771     -2395.9289
   1   2.0000     -88.045876     -2395.8501
   2   2.0000     -87.987324     -2394.2568
   3   2.0000     -87.985420     -2394.2050
   4   2.0000     -76.430398     -2079.7769
   5   2.0000     -76.429198     -2079.7442
   6   2.0000     -18.799075      -511.5488
   7   2.0000     -18.798699      -511.5386
   8   2.0000     -18.795703      -511.4571
   9   2.0000     -18.793853      -511.4067
  10   2.0000      -9.962992      -271.1068
  11   2.0000      -9.961763      -271.0734
  12   2.0000      -9.961015      -271.0530
  13   2.0000      -9.960389      -271.0360
  14   2.0000      -9.949645      -270.7436
  15   2.0000      -9.896153      -269.2880
  16   2.0000      -9.892322      -269.1838
  17   2.0000      -9.885834      -269.0072
  18   2.0000      -9.885103      -268.9873
  19   2.0000      -7.693218      -209.3431
  20   2.0000      -7.690150      -209.2596
  21   2.0000      -7.632485      -207.6905
  22   2.0000      -7.630687      -207.6416
  23   2.0000      -6.427672      -174.9058
  24   2.0000      -6.426609      -174.8769
  25   2.0000      -5.720736      -155.6691
  26   2.0000      -5.717976      -155.5940
  27   2.0000      -5.717712      -155.5869
  28   2.0000      -5.714573      -155.5014
  29   2.0000      -5.710692      -155.3958
  30   2.0000      -5.707411      -155.3066
  31   2.0000      -5.661576      -154.0593
  32   2.0000      -5.659821      -154.0116
  33   2.0000      -5.652979      -153.8254
  34   2.0000      -5.652559      -153.8140
  35   2.0000      -5.651246      -153.7782
  36   2.0000      -5.650655      -153.7621
  37   2.0000      -4.650588      -126.5489
  38   2.0000      -4.649497      -126.5192
  39   2.0000      -4.649437      -126.5176
  40   2.0000      -4.648632      -126.4957
  41   2.0000      -4.647851      -126.4745
  42   2.0000      -4.646547      -126.4390
  43   2.0000      -0.993471       -27.0337
  44   2.0000      -0.992894       -27.0180
  45   2.0000      -0.948967       -25.8227
  46   2.0000      -0.948918       -25.8214
  47   2.0000      -0.765278       -20.8243
  48   2.0000      -0.726899       -19.7799
  49   2.0000      -0.718391       -19.5484
  50   2.0000      -0.696418       -18.9505
  51   2.0000      -0.694461       -18.8972
  52   2.0000      -0.681774       -18.5520
  53   2.0000      -0.653450       -17.7813
  54   2.0000      -0.640462       -17.4278
  55   2.0000      -0.597626       -16.2622
  56   2.0000      -0.592290       -16.1170
  57   2.0000      -0.586268       -15.9532
  58   2.0000      -0.577283       -15.7087
  59   2.0000      -0.565566       -15.3898
  60   2.0000      -0.512339       -13.9414
  61   2.0000      -0.502859       -13.6835
  62   2.0000      -0.480571       -13.0770
  63   2.0000      -0.476851       -12.9758
  64   2.0000      -0.464224       -12.6322
  65   2.0000      -0.453106       -12.3296
  66   2.0000      -0.444139       -12.0856
  67   2.0000      -0.440778       -11.9942
  68   2.0000      -0.432150       -11.7594
  69   2.0000      -0.428193       -11.6517
  70   2.0000      -0.418806       -11.3963
  71   2.0000      -0.409900       -11.1540
  72   2.0000      -0.400976       -10.9111
  73   2.0000      -0.391704       -10.6588
  74   2.0000      -0.387704       -10.5500
  75   2.0000      -0.370181       -10.0731
  76   2.0000      -0.364673        -9.9232
  77   2.0000      -0.360022        -9.7967
  78   2.0000      -0.358192        -9.7469
  79   2.0000      -0.353438        -9.6175
  80   2.0000      -0.351805        -9.5731
  81   2.0000      -0.348736        -9.4896
  82   2.0000      -0.347809        -9.4644
  83   2.0000      -0.342500        -9.3199
  84   2.0000      -0.340339        -9.2611
  85   2.0000      -0.324080        -8.8187
  86   2.0000      -0.316862        -8.6223
  87   2.0000      -0.303460        -8.2576
  88   2.0000      -0.301140        -8.1944
  89   2.0000      -0.298832        -8.1316
  90   2.0000      -0.296125        -8.0580
  91   2.0000      -0.281992        -7.6734
  92   2.0000      -0.280636        -7.6365
  93   2.0000      -0.268090        -7.2951
  94   2.0000      -0.260407        -7.0860
  95   2.0000      -0.242393        -6.5958
  96   2.0000      -0.223762        -6.0889
  97   2.0000      -0.209412        -5.6984
  98   2.0000      -0.202481        -5.5098
  99   2.0000      -0.201204        -5.4750
 100   2.0000      -0.198672        -5.4061
 101   0.0000      -0.046305        -1.2600
 102   0.0000      -0.033849        -0.9211
 103   0.0000      -0.013665        -0.3718
 104   0.0000      -0.000702        -0.0191
 105   0.0000       0.005397         0.1469

MULLIKEN ATOMIC CHARGES
-----------------------
   0 C :   -0.298563
   1 C :   -0.041092
   2 O :   -0.381005
   3 P :    0.610536
   4 S :   -0.301908
   5 O :   -0.357332
   6 C :    0.006304
   7 C :   -0.346757
   8 S :   -0.113186
   9 C :   -0.349015
  10 S :   -0.125208
  11 P :    0.592319
  12 S :   -0.298335
  13 O :   -0.351771
  14 C :   -0.013689
  15 C :   -0.313184
  16 O :   -0.383348
  17 C :   -0.010676
  18 C :   -0.310242
  19 H :    0.105537
  20 H :    0.128439
  21 H :    0.121218
  22 H :    0.103720
  23 H :    0.127530
  24 H :    0.111406
  25 H :    0.114487
  26 H :    0.139879
  27 H :    0.119583
  28 H :    0.134439
  29 H :    0.196492
  30 H :    0.195818
  31 H :    0.110561
  32 H :    0.103221
  33 H :    0.105570
  34 H :    0.153293
  35 H :    0.122871
  36 H :    0.112569
  37 H :    0.109869
  38 H :    0.128281
  39 H :    0.128354
  40 H :    0.113017
Sum of atomic charges:   -0.0000000

LOEWDIN ATOMIC CHARGES
----------------------
   0 C :   -0.366387
   1 C :   -0.121396
   2 O :   -0.246388
   3 P :    0.569522
   4 S :   -0.293431
   5 O :   -0.233024
   6 C :   -0.108301
   7 C :   -0.371122
   8 S :    0.082904
   9 C :   -0.494875
  10 S :    0.069080
  11 P :    0.566925
  12 S :   -0.299458
  13 O :   -0.235053
  14 C :   -0.114241
  15 C :   -0.358931
  16 O :   -0.247190
  17 C :   -0.114228
  18 C :   -0.368618
  19 H :    0.128231
  20 H :    0.115763
  21 H :    0.129427
  22 H :    0.118295
  23 H :    0.101873
  24 H :    0.115362
  25 H :    0.124798
  26 H :    0.116869
  27 H :    0.134863
  28 H :    0.132153
  29 H :    0.125995
  30 H :    0.128302
  31 H :    0.118270
  32 H :    0.098786
  33 H :    0.127866
  34 H :    0.120805
  35 H :    0.131576
  36 H :    0.108075
  37 H :    0.121630
  38 H :    0.131323
  39 H :    0.122953
  40 H :    0.131002

  Mayer bond orders larger than 0.100000
B(  0-C ,  1-C ) :   1.1661 B(  0-C , 19-H ) :   0.9368 B(  0-C , 20-H ) :   0.9278
B(  0-C , 21-H ) :   0.9441 B(  1-C ,  2-O ) :   0.9157 B(  1-C , 22-H ) :   0.9342
B(  1-C , 23-H ) :   0.8998 B(  2-O ,  3-P ) :   1.0662 B(  3-P ,  4-S ) :   1.6482
B(  3-P ,  5-O ) :   1.1495 B(  3-P ,  8-S ) :   0.9344 B(  4-S ,  8-S ) :   0.1180
B(  4-S , 29-H ) :   0.1220 B(  5-O ,  6-C ) :   0.8983 B(  6-C ,  7-C ) :   1.1683
B(  6-C , 24-H ) :   0.9267 B(  6-C , 25-H ) :   0.9333 B(  7-C , 26-H ) :   0.9299
B(  7-C , 27-H ) :   0.9349 B(  7-C , 28-H ) :   0.9413 B(  8-S ,  9-C ) :   1.0090
B(  9-C , 10-S ) :   1.0027 B(  9-C , 29-H ) :   0.8465 B(  9-C , 30-H ) :   0.8553
B( 10-S , 11-P ) :   0.9372 B( 10-S , 12-S ) :   0.1093 B( 11-P , 12-S ) :   1.6509
B( 11-P , 13-O ) :   1.1409 B( 11-P , 16-O ) :   1.0880 B( 12-S , 30-H ) :   0.1065
B( 13-O , 14-C ) :   0.8888 B( 14-C , 15-C ) :   1.1653 B( 14-C , 31-H ) :   0.9311
B( 14-C , 32-H ) :   0.9068 B( 15-C , 33-H ) :   0.9402 B( 15-C , 34-H ) :   0.9264
B( 15-C , 35-H ) :   0.9454 B( 16-O , 17-C ) :   0.9114 B( 17-C , 18-C ) :   1.1674
B( 17-C , 36-H ) :   0.9267 B( 17-C , 37-H ) :   0.9331 B( 18-C , 38-H ) :   0.9432
B( 18-C , 39-H ) :   0.9322 B( 18-C , 40-H ) :   0.9349

Dispersion correction           -0.064835882
FINAL SINGLE POINT ENERGY     -2929.515478322951

DIPOLE MOMENT
-------------

Method             : SCF
Type of density    : Electron Density
Multiplicity       :   1
Irrep              :   0
Energy             : -2929.6363203825153505 Eh
Relativity type    :
Basis              : AO
                                X                 Y                 Z
Electronic contribution:      1.744681941       5.928951166     -15.736364522
Nuclear contribution   :     -1.841087094      -6.781943643      17.873620826
                        -----------------------------------------
Total Dipole Moment    :     -0.096405154      -0.852992477       2.137256304
                        -----------------------------------------
Magnitude (a.u.)       :      2.303205295
Magnitude (Debye)      :      5.854282611

Rotational constants in cm-1:             0.012488             0.004644             0.004404
Rotational constants in MHz :           374.381986           139.236385           132.034503

                             ****ORCA TERMINATED NORMALLY****
TOTAL RUN TIME: 0 days 0 hours 0 minutes 21 seconds 164 msec
