                         Program Version 6.0.0  -   RELEASE  -
|  1> ! pbe def2-sv(p) def2/J RI DEFGRID1 loosescf d4 GCP(DFT/SV(P)) printgap
|  2> %output
|  3>     printlevel normal
|  4> end
|  5> * xyz 0 1
|  6> C 4.4578229314 2.3836581966 -0.4546402454
|  7> C 4.028663197 1.1268278989 -1.1873303002
|  8> O 3.7012215516 0.0675933174 -0.2685173724
|  9> P 2.2372959556 -0.1476736056 0.3135444685
| 10> S 1.5659853998 1.2782982865 1.4834008864
| 11> O 2.366388043 -1.5734873865 0.9785920452
| 12> C 2.532701469 -1.7313887918 2.404813383
| 13> C 3.9284825345 -1.335077667 2.8347239802
| 14> S 1.1209516265 -0.6030841723 -1.4477562448
| 15> C -0.048915559 -1.7892410431 -0.7248472033
| 16> S -1.0729445039 -1.0944424689 0.5872516964
| 17> P -2.3398960646 0.0728918883 -0.682736215
| 18> S -2.6433810518 -0.673059526 -2.4642549319
| 19> O -1.6937224371 1.5023988107 -0.8207203421
| 20> C -1.5051308672 2.42213339 0.281030726
| 21> C -2.6263901257 3.4385352065 0.320556107
| 22> O -3.5919285421 0.3586556926 0.2502109711
| 23> C -4.3250444942 -0.6388186816 0.9870360893
| 24> C -4.816440188 -1.7728687841 0.1126727554
| 25> H 4.7401035083 3.1404643772 -1.1794379436
| 26> H 3.6431639003 2.764130191 0.1575027829
| 27> H 5.3061622552 2.1681726566 0.1889177224
| 28> H 4.8447985521 0.7205055251 -1.7880543925
| 29> H 3.1663150805 1.3191636455 -1.8343454486
| 30> H 1.7797559535 -1.121715413 2.9146046733
| 31> H 2.3348506351 -2.7894696073 2.579146235
| 32> H 4.6692213936 -1.9017730276 2.2771860241
| 33> H 4.0811827617 -0.2736513524 2.6425649816
| 34> H 4.0481039724 -1.5244701247 3.896687111
| 35> H 0.4966767767 -2.6277459187 -0.3011182891
| 36> H -0.690670373 -2.1019191126 -1.5512740468
| 37> H -1.4396413243 1.859486589 1.2162321301
| 38> H -0.5411665124 2.8965465354 0.0868496286
| 39> H -2.4286010557 4.1503703729 1.1156834363
| 40> H -2.6829890709 3.9640671629 -0.628736171
| 41> H -3.5765242556 2.9442163081 0.5051419423
| 42> H -3.6790474966 -1.0159289012 1.7848286647
| 43> H -5.1567435113 -0.0784870727 1.417767201
| 44> H -5.3965144064 -1.3849748011 -0.7212870378
| 45> H -3.9726657421 -2.3324312845 -0.2884870265
| 46> H -5.4358705311 -2.4401897264 0.7031532839
| 47> *
| 48>
| 49>                          ****END OF INPUT****

CARTESIAN COORDINATES (ANGSTROEM)
---------------------------------
  C      4.457823    2.383658   -0.454640
  C      4.028663    1.126828   -1.187330
  O      3.701222    0.067593   -0.268517
  P      2.237296   -0.147674    0.313544
  S      1.565985    1.278298    1.483401
  O      2.366388   -1.573487    0.978592
  C      2.532701   -1.731389    2.404813
  C      3.928483   -1.335078    2.834724
  S      1.120952   -0.603084   -1.447756
  C     -0.048916   -1.789241   -0.724847
  S     -1.072945   -1.094442    0.587252
  P     -2.339896    0.072892   -0.682736
  S     -2.643381   -0.673060   -2.464255
  O     -1.693722    1.502399   -0.820720
  C     -1.505131    2.422133    0.281031
  C     -2.626390    3.438535    0.320556
  O     -3.591929    0.358656    0.250211
  C     -4.325044   -0.638819    0.987036
  C     -4.816440   -1.772869    0.112673
  H      4.740104    3.140464   -1.179438
  H      3.643164    2.764130    0.157503
  H      5.306162    2.168173    0.188918
  H      4.844799    0.720506   -1.788054
  H      3.166315    1.319164   -1.834345
  H      1.779756   -1.121715    2.914605
  H      2.334851   -2.789470    2.579146
  H      4.669221   -1.901773    2.277186
  H      4.081183   -0.273651    2.642565
  H      4.048104   -1.524470    3.896687
  H      0.496677   -2.627746   -0.301118
  H     -0.690670   -2.101919   -1.551274
  H     -1.439641    1.859487    1.216232
  H     -0.541167    2.896547    0.086850
  H     -2.428601    4.150370    1.115683
  H     -2.682989    3.964067   -0.628736
  H     -3.576524    2.944216    0.505142
  H     -3.679047   -1.015929    1.784829
  H     -5.156744   -0.078487    1.417767
  H     -5.396514   -1.384975   -0.721287
  H     -3.972666   -2.332431   -0.288487
  H     -5.435871   -2.440190    0.703153

 Total Charge           Charge          ....    0
 Multiplicity           Mult            ....    1
 Number of Electrons    NEL             ....  202
 Basis Dimension        Dim             ....  334

ORBITAL ENERGIES
----------------

  NO   OCC          E(Eh)            E(eV)
   0   2.0000     -88.041374     -2395.7276
   1   2.0000     -88.037303     -2395.6168
   2   2.0000     -87.987949     -2394.2738
   3   2.0000     -87.980424     -2394.0690
   4   2.0000     -76.428990     -2079.7386
   5   2.0000     -76.423996     -2079.6026
   6   2.0000     -18.799332      -511.5558
   7   2.0000     -18.796311      -511.4736
   8   2.0000     -18.791873      -511.3529
   9   2.0000     -18.783685      -511.1301
  10   2.0000      -9.959510      -271.0120
  11   2.0000      -9.959027      -270.9989
  12   2.0000      -9.956571      -270.9321
  13   2.0000      -9.953811      -270.8570
  14   2.0000      -9.942573      -270.5512
  15   2.0000      -9.886614      -269.0284
  16   2.0000      -9.883471      -268.9429
  17   2.0000      -9.882953      -268.9288
  18   2.0000      -9.877901      -268.7913
  19   2.0000      -7.686162      -209.1511
  20   2.0000      -7.682596      -209.0541
  21   2.0000      -7.632845      -207.7003
  22   2.0000      -7.625794      -207.5084
  23   2.0000      -6.426550      -174.8753
  24   2.0000      -6.421218      -174.7302
  25   2.0000      -5.713820      -155.4809
  26   2.0000      -5.710680      -155.3955
  27   2.0000      -5.710674      -155.3953
  28   2.0000      -5.707271      -155.3028
  29   2.0000      -5.703398      -155.1974
  30   2.0000      -5.699176      -155.0825
  31   2.0000      -5.661567      -154.0591
  32   2.0000      -5.654836      -153.8759
  33   2.0000      -5.653663      -153.8440
  34   2.0000      -5.652978      -153.8254
  35   2.0000      -5.646375      -153.6457
  36   2.0000      -5.645802      -153.6301
  37   2.0000      -4.649258      -126.5127
  38   2.0000      -4.648478      -126.4915
  39   2.0000      -4.646729      -126.4439
  40   2.0000      -4.644127      -126.3731
  41   2.0000      -4.643151      -126.3466
  42   2.0000      -4.641257      -126.2950
  43   2.0000      -0.991780       -26.9877
  44   2.0000      -0.986710       -26.8498
  45   2.0000      -0.950914       -25.8757
  46   2.0000      -0.941397       -25.6167
  47   2.0000      -0.761858       -20.7312
  48   2.0000      -0.720664       -19.6103
  49   2.0000      -0.708844       -19.2886
  50   2.0000      -0.689893       -18.7730
  51   2.0000      -0.688393       -18.7321
  52   2.0000      -0.671432       -18.2706
  53   2.0000      -0.652528       -17.7562
  54   2.0000      -0.638013       -17.3612
  55   2.0000      -0.597875       -16.2690
  56   2.0000      -0.589542       -16.0423
  57   2.0000      -0.573273       -15.5996
  58   2.0000      -0.569046       -15.4845
  59   2.0000      -0.564818       -15.3695
  60   2.0000      -0.507084       -13.7985
  61   2.0000      -0.495084       -13.4719
  62   2.0000      -0.481240       -13.0952
  63   2.0000      -0.470012       -12.7897
  64   2.0000      -0.461178       -12.5493
  65   2.0000      -0.448296       -12.1988
  66   2.0000      -0.441120       -12.0035
  67   2.0000      -0.430959       -11.7270
  68   2.0000      -0.428731       -11.6664
  69   2.0000      -0.409388       -11.1400
  70   2.0000      -0.405744       -11.0408
  71   2.0000      -0.401675       -10.9301
  72   2.0000      -0.396824       -10.7981
  73   2.0000      -0.393704       -10.7132
  74   2.0000      -0.381014       -10.3679
  75   2.0000      -0.372343       -10.1320
  76   2.0000      -0.362261        -9.8576
  77   2.0000      -0.353630        -9.6228
  78   2.0000      -0.351390        -9.5618
  79   2.0000      -0.349299        -9.5049
  80   2.0000      -0.347710        -9.4617
  81   2.0000      -0.346149        -9.4192
  82   2.0000      -0.340171        -9.2565
  83   2.0000      -0.336847        -9.1661
  84   2.0000      -0.333993        -9.0884
  85   2.0000      -0.322641        -8.7795
  86   2.0000      -0.313574        -8.5328
  87   2.0000      -0.299904        -8.1608
  88   2.0000      -0.296516        -8.0686
  89   2.0000      -0.294072        -8.0021
  90   2.0000      -0.282492        -7.6870
  91   2.0000      -0.279156        -7.5962
  92   2.0000      -0.274070        -7.4578
  93   2.0000      -0.265025        -7.2117
  94   2.0000      -0.256568        -6.9816
  95   2.0000      -0.238475        -6.4892
  96   2.0000      -0.218198        -5.9375
  97   2.0000      -0.205587        -5.5943
  98   2.0000      -0.198983        -5.4146
  99   2.0000      -0.198172        -5.3925
 100   2.0000      -0.190947        -5.1959
 101   0.0000      -0.047006        -1.2791
 102   0.0000      -0.022088        -0.6011
 103   0.0000      -0.020529        -0.5586
 104   0.0000      -0.000850        -0.0231
 105   0.0000       0.015436         0.4200

MULLIKEN ATOMIC CHARGES
-----------------------
   0 C :   -0.292968
   1 C :   -0.021711
   2 O :   -0.367577
   3 P :    0.611399
   4 S :   -0.323119
   5 O :   -0.371492
   6 C :   -0.010958
   7 C :   -0.302342
   8 S :   -0.087193
   9 C :   -0.352593
  10 S :   -0.113902
  11 P :    0.610544
  12 S :   -0.313407
  13 O :   -0.346296
  14 C :   -0.015111
  15 C :   -0.282266
  16 O :   -0.381259
  17 C :   -0.009857
  18 C :   -0.308093
  19 H :    0.108341
  20 H :    0.127969
  21 H :    0.114508
  22 H :    0.112094
  23 H :    0.113484
  24 H :    0.116299
  25 H :    0.104862
  26 H :    0.118044
  27 H :    0.124902
  28 H :    0.113119
  29 H :    0.188726
  30 H :    0.194439
  31 H :    0.103820
  32 H :    0.114164
  33 H :    0.107440
  34 H :    0.116301
  35 H :    0.115391
  36 H :    0.113317
  37 H :    0.108795
  38 H :    0.127858
  39 H :    0.123539
  40 H :    0.110789
Sum of atomic charges:    0.0000000

LOEWDIN ATOMIC CHARGES
----------------------
   0 C :   -0.364483
   1 C :   -0.114219
   2 O :   -0.246329
   3 P :    0.570744
   4 S :   -0.307934
   5 O :   -0.236424
   6 C :   -0.118912
   7 C :   -0.363543
   8 S :    0.075118
   9 C :   -0.481587
  10 S :    0.061938
  11 P :    0.573220
  12 S :   -0.305708
  13 O :   -0.228226
  14 C :   -0.117430
  15 C :   -0.359351
  16 O :   -0.243168
  17 C :   -0.114993
  18 C :   -0.369197
  19 H :    0.128967
  20 H :    0.123162
  21 H :    0.126350
  22 H :    0.121338
  23 H :    0.108865
  24 H :    0.111183
  25 H :    0.118035
  26 H :    0.127347
  27 H :    0.123822
  28 H :    0.131284
  29 H :    0.132746
  30 H :    0.127702
  31 H :    0.103448
  32 H :    0.116908
  33 H :    0.128313
  34 H :    0.127280
  35 H :    0.123354
  36 H :    0.108123
  37 H :    0.120847
  38 H :    0.130977
  39 H :    0.120553
  40 H :    0.129882

  Mayer bond orders larger than 0.100000
B(  0-C ,  1-C ) :   1.1646 B(  0-C , 19-H ) :   0.9387 B(  0-C , 20-H ) :   0.9307
B(  0-C , 21-H ) :   0.9470 B(  1-C ,  2-O ) :   0.9085 B(  1-C , 22-H ) :   0.9358
B(  1-C , 23-H ) :   0.9194 B(  2-O ,  3-P ) :   1.1055 B(  3-P ,  4-S ) :   1.6172
B(  3-P ,  5-O ) :   1.1163 B(  3-P ,  8-S ) :   0.9613 B(  4-S ,  8-S ) :   0.1063
B(  5-O ,  6-C ) :   0.8954 B(  6-C ,  7-C ) :   1.1664 B(  6-C , 24-H ) :   0.9118
B(  6-C , 25-H ) :   0.9329 B(  7-C , 26-H ) :   0.9462 B(  7-C , 27-H ) :   0.9341
B(  7-C , 28-H ) :   0.9389 B(  8-S ,  9-C ) :   1.0059 B(  9-C , 10-S ) :   1.0151
B(  9-C , 29-H ) :   0.8979 B(  9-C , 30-H ) :   0.8653 B( 10-S , 11-P ) :   0.9291
B( 10-S , 12-S ) :   0.1109 B( 11-P , 12-S ) :   1.6396 B( 11-P , 13-O ) :   1.1558
B( 11-P , 16-O ) :   1.0794 B( 13-O , 14-C ) :   0.8866 B( 14-C , 15-C ) :   1.1557
B( 14-C , 31-H ) :   0.9177 B( 14-C , 32-H ) :   0.9282 B( 15-C , 33-H ) :   0.9414
B( 15-C , 34-H ) :   0.9464 B( 15-C , 35-H ) :   0.9430 B( 16-O , 17-C ) :   0.9115
B( 17-C , 18-C ) :   1.1672 B( 17-C , 36-H ) :   0.9257 B( 17-C , 37-H ) :   0.9329
B( 18-C , 38-H ) :   0.9429 B( 18-C , 39-H ) :   0.9321 B( 18-C , 40-H ) :   0.9348

Dispersion correction           -0.065115933
FINAL SINGLE POINT ENERGY     -2929.515882862839

DIPOLE MOMENT
-------------

Method             : SCF
Type of density    : Electron Density
Multiplicity       :   1
Irrep              :   0
Energy             : -2929.6353273661825369 Eh
Relativity type    :
Basis              : AO
                                X                 Y                 Z
Electronic contribution:     -3.518137019      -6.304145607     -11.464450384
Nuclear contribution   :      3.988845361       6.046421115      12.763037600
                        -----------------------------------------
Total Dipole Moment    :      0.470708342      -0.257724492       1.298587216
                        -----------------------------------------
Magnitude (a.u.)       :      1.405103916
Magnitude (Debye)      :      3.571490324

Rotational constants in cm-1:             0.012547             0.004783             0.004543
Rotational constants in MHz :           376.149130           143.376777           136.181842

                             ****ORCA TERMINATED NORMALLY****
TOTAL RUN TIME: 0 days 0 hours 0 minutes 20 seconds 778 msec
