                         Program Version 6.0.0  -   RELEASE  -
|  1> ! pbe def2-sv(p) def2/J RI DEFGRID1 loosescf d4 GCP(DFT/SV(P)) printgap
|  2> %output
|  3>     printlevel normal
|  4> end
|  5> * xyz 0 1
|  6> C 1.4721017914 -0.8863402289 -3.1799384998
|  7> C 2.6407933651 -1.3271557877 -2.3214918622
|  8> O 2.2260112424 -1.4931648511 -0.9447283718
|  9> P 2.396732861 -0.3557319184 0.1403609748
| 10> S 1.7584265681 1.4495461324 -0.3099549124
| 11> O 3.9652416549 -0.4235789796 0.4064417391
| 12> C 4.6780296446 0.6094965232 1.1065540257
| 13> C 4.3097392694 0.6557477137 2.5755027777
| 14> S 1.5123060783 -1.3497389575 1.7753185593
| 15> C -0.1350530391 -0.6266421031 1.6313522586
| 16> S -0.9243784554 -1.0568791685 0.0488591471
| 17> P -2.4089873476 0.4814446602 0.1294584921
| 18> S -1.881966671 2.163711367 0.9767468443
| 19> O -3.6079417358 -0.1364008539 0.9462829579
| 20> C -4.2904602585 -1.3598991787 0.5761047488
| 21> C -5.5644490557 -1.0530135819 -0.1843297803
| 22> O -2.9826486914 0.5010518435 -1.3506795145
| 23> C -2.2058655671 0.6638695322 -2.5508961439
| 24> C -1.4258939728 1.9614344248 -2.5731038195
| 25> H 1.7835693442 -0.8450678783 -4.2186105856
| 26> H 0.6528123164 -1.5923756439 -3.073867007
| 27> H 1.1327157251 0.099861385 -2.870981154
| 28> H 3.4612418632 -0.6061392764 -2.3670901828
| 29> H 3.0025239695 -2.3141610996 -2.6141786903
| 30> H 5.727297045 0.3491973503 0.9613311915
| 31> H 4.4610296995 1.5686778033 0.6248413586
| 32> H 4.422115525 -0.3281062822 3.0240421816
| 33> H 4.954480299 1.3633565798 3.0868343096
| 34> H 3.274750399 0.9768028001 2.6900760028
| 35> H -0.0726018369 0.4641414567 1.6898455218
| 36> H -0.7199125644 -1.0290507083 2.4554226834
| 37> H -3.6115226385 -1.9800178113 -0.0162096721
| 38> H -4.5058028905 -1.8512323431 1.5266488915
| 39> H -6.0844001007 -1.9818983247 -0.3969044317
| 40> H -6.2060719038 -0.4100268291 0.4117822713
| 41> H -5.3343851287 -0.5466509168 -1.117699164
| 42> H -1.5354261655 -0.1944899471 -2.6455241448
| 43> H -2.9541875821 0.6389848198 -3.3452223985
| 44> H -0.9500616733 2.081095314 -3.5413355253
| 45> H -2.087546464 2.8048638934 -2.3909754075
| 46> H -0.6571396832 1.9619800409 -1.800558569
| 47> *
| 48>
| 49>                          ****END OF INPUT****

CARTESIAN COORDINATES (ANGSTROEM)
---------------------------------
  C      1.472102   -0.886340   -3.179938
  C      2.640793   -1.327156   -2.321492
  O      2.226011   -1.493165   -0.944728
  P      2.396733   -0.355732    0.140361
  S      1.758427    1.449546   -0.309955
  O      3.965242   -0.423579    0.406442
  C      4.678030    0.609497    1.106554
  C      4.309739    0.655748    2.575503
  S      1.512306   -1.349739    1.775319
  C     -0.135053   -0.626642    1.631352
  S     -0.924378   -1.056879    0.048859
  P     -2.408987    0.481445    0.129458
  S     -1.881967    2.163711    0.976747
  O     -3.607942   -0.136401    0.946283
  C     -4.290460   -1.359899    0.576105
  C     -5.564449   -1.053014   -0.184330
  O     -2.982649    0.501052   -1.350680
  C     -2.205866    0.663870   -2.550896
  C     -1.425894    1.961434   -2.573104
  H      1.783569   -0.845068   -4.218611
  H      0.652812   -1.592376   -3.073867
  H      1.132716    0.099861   -2.870981
  H      3.461242   -0.606139   -2.367090
  H      3.002524   -2.314161   -2.614179
  H      5.727297    0.349197    0.961331
  H      4.461030    1.568678    0.624841
  H      4.422116   -0.328106    3.024042
  H      4.954480    1.363357    3.086834
  H      3.274750    0.976803    2.690076
  H     -0.072602    0.464141    1.689846
  H     -0.719913   -1.029051    2.455423
  H     -3.611523   -1.980018   -0.016210
  H     -4.505803   -1.851232    1.526649
  H     -6.084400   -1.981898   -0.396904
  H     -6.206072   -0.410027    0.411782
  H     -5.334385   -0.546651   -1.117699
  H     -1.535426   -0.194490   -2.645524
  H     -2.954188    0.638985   -3.345222
  H     -0.950062    2.081095   -3.541336
  H     -2.087546    2.804864   -2.390975
  H     -0.657140    1.961980   -1.800559

 Total Charge           Charge          ....    0
 Multiplicity           Mult            ....    1
 Number of Electrons    NEL             ....  202
 Basis Dimension        Dim             ....  334

ORBITAL ENERGIES
----------------

  NO   OCC          E(Eh)            E(eV)
   0   2.0000     -88.046888     -2395.8776
   1   2.0000     -88.039736     -2395.6830
   2   2.0000     -87.986869     -2394.2444
   3   2.0000     -87.977174     -2393.9806
   4   2.0000     -76.426665     -2079.6753
   5   2.0000     -76.422477     -2079.5613
   6   2.0000     -18.795485      -511.4511
   7   2.0000     -18.792682      -511.3749
   8   2.0000     -18.789288      -511.2825
   9   2.0000     -18.787445      -511.2324
  10   2.0000      -9.956795      -270.9382
  11   2.0000      -9.956280      -270.9242
  12   2.0000      -9.953407      -270.8460
  13   2.0000      -9.952194      -270.8130
  14   2.0000      -9.951529      -270.7949
  15   2.0000      -9.885026      -268.9852
  16   2.0000      -9.884720      -268.9769
  17   2.0000      -9.883541      -268.9448
  18   2.0000      -9.876122      -268.7429
  19   2.0000      -7.692312      -209.3184
  20   2.0000      -7.684239      -209.0988
  21   2.0000      -7.631351      -207.6596
  22   2.0000      -7.622497      -207.4187
  23   2.0000      -6.424184      -174.8109
  24   2.0000      -6.419731      -174.6898
  25   2.0000      -5.720219      -155.6551
  26   2.0000      -5.716928      -155.5655
  27   2.0000      -5.711965      -155.4305
  28   2.0000      -5.709078      -155.3519
  29   2.0000      -5.708917      -155.3475
  30   2.0000      -5.701328      -155.1410
  31   2.0000      -5.660175      -154.0212
  32   2.0000      -5.652226      -153.8049
  33   2.0000      -5.651594      -153.7877
  34   2.0000      -5.651419      -153.7829
  35   2.0000      -5.643033      -153.5547
  36   2.0000      -5.642500      -153.5402
  37   2.0000      -4.646732      -126.4440
  38   2.0000      -4.645856      -126.4202
  39   2.0000      -4.644749      -126.3900
  40   2.0000      -4.642698      -126.3342
  41   2.0000      -4.641694      -126.3069
  42   2.0000      -4.639668      -126.2518
  43   2.0000      -0.987227       -26.8638
  44   2.0000      -0.987080       -26.8598
  45   2.0000      -0.944595       -25.7037
  46   2.0000      -0.943748       -25.6807
  47   2.0000      -0.763981       -20.7890
  48   2.0000      -0.721141       -19.6232
  49   2.0000      -0.709525       -19.3072
  50   2.0000      -0.688668       -18.7396
  51   2.0000      -0.686999       -18.6942
  52   2.0000      -0.675065       -18.3694
  53   2.0000      -0.650321       -17.6961
  54   2.0000      -0.634980       -17.2787
  55   2.0000      -0.597242       -16.2518
  56   2.0000      -0.586151       -15.9500
  57   2.0000      -0.576774       -15.6948
  58   2.0000      -0.572998       -15.5921
  59   2.0000      -0.558769       -15.2049
  60   2.0000      -0.504157       -13.7188
  61   2.0000      -0.499453       -13.5908
  62   2.0000      -0.473284       -12.8787
  63   2.0000      -0.469421       -12.7736
  64   2.0000      -0.451211       -12.2781
  65   2.0000      -0.449705       -12.2371
  66   2.0000      -0.438170       -11.9232
  67   2.0000      -0.436512       -11.8781
  68   2.0000      -0.427992       -11.6463
  69   2.0000      -0.418835       -11.3971
  70   2.0000      -0.409538       -11.1441
  71   2.0000      -0.406650       -11.0655
  72   2.0000      -0.397746       -10.8232
  73   2.0000      -0.385962       -10.5026
  74   2.0000      -0.377470       -10.2715
  75   2.0000      -0.373473       -10.1627
  76   2.0000      -0.357975        -9.7410
  77   2.0000      -0.355742        -9.6802
  78   2.0000      -0.354333        -9.6419
  79   2.0000      -0.349882        -9.5208
  80   2.0000      -0.344862        -9.3842
  81   2.0000      -0.342821        -9.3286
  82   2.0000      -0.341584        -9.2950
  83   2.0000      -0.338912        -9.2223
  84   2.0000      -0.332688        -9.0529
  85   2.0000      -0.318684        -8.6718
  86   2.0000      -0.311283        -8.4704
  87   2.0000      -0.296673        -8.0729
  88   2.0000      -0.294248        -8.0069
  89   2.0000      -0.288513        -7.8508
  90   2.0000      -0.286551        -7.7974
  91   2.0000      -0.277711        -7.5569
  92   2.0000      -0.275652        -7.5009
  93   2.0000      -0.263846        -7.1796
  94   2.0000      -0.257805        -7.0152
  95   2.0000      -0.235206        -6.4003
  96   2.0000      -0.221371        -6.0238
  97   2.0000      -0.208120        -5.6632
  98   2.0000      -0.197908        -5.3854
  99   2.0000      -0.194308        -5.2874
 100   2.0000      -0.190023        -5.1708
 101   0.0000      -0.044952        -1.2232
 102   0.0000      -0.030881        -0.8403
 103   0.0000      -0.009329        -0.2538
 104   0.0000       0.010185         0.2771
 105   0.0000       0.014593         0.3971

MULLIKEN ATOMIC CHARGES
-----------------------
   0 C :   -0.319919
   1 C :    0.002914
   2 O :   -0.362519
   3 P :    0.605568
   4 S :   -0.314527
   5 O :   -0.374522
   6 C :   -0.004868
   7 C :   -0.316992
   8 S :   -0.076967
   9 C :   -0.356128
  10 S :   -0.121106
  11 P :    0.599012
  12 S :   -0.296301
  13 O :   -0.356902
  14 C :   -0.009421
  15 C :   -0.288081
  16 O :   -0.380458
  17 C :   -0.021253
  18 C :   -0.332576
  19 H :    0.106403
  20 H :    0.124658
  21 H :    0.140906
  22 H :    0.102703
  23 H :    0.108372
  24 H :    0.104011
  25 H :    0.111982
  26 H :    0.117132
  27 H :    0.114186
  28 H :    0.129845
  29 H :    0.213141
  30 H :    0.180889
  31 H :    0.096331
  32 H :    0.106759
  33 H :    0.107504
  34 H :    0.120169
  35 H :    0.121065
  36 H :    0.118489
  37 H :    0.104829
  38 H :    0.108452
  39 H :    0.122488
  40 H :    0.164730
Sum of atomic charges:   -0.0000000

LOEWDIN ATOMIC CHARGES
----------------------
   0 C :   -0.365596
   1 C :   -0.107941
   2 O :   -0.243008
   3 P :    0.565054
   4 S :   -0.300583
   5 O :   -0.247248
   6 C :   -0.121053
   7 C :   -0.368599
   8 S :    0.100211
   9 C :   -0.481090
  10 S :    0.053315
  11 P :    0.566225
  12 S :   -0.289887
  13 O :   -0.240058
  14 C :   -0.116655
  15 C :   -0.358997
  16 O :   -0.242692
  17 C :   -0.114001
  18 C :   -0.373557
  19 H :    0.127769
  20 H :    0.124484
  21 H :    0.126095
  22 H :    0.110829
  23 H :    0.120192
  24 H :    0.118108
  25 H :    0.110100
  26 H :    0.124251
  27 H :    0.131610
  28 H :    0.122508
  29 H :    0.122961
  30 H :    0.134187
  31 H :    0.101401
  32 H :    0.119726
  33 H :    0.128152
  34 H :    0.128975
  35 H :    0.126080
  36 H :    0.108389
  37 H :    0.118861
  38 H :    0.128313
  39 H :    0.129545
  40 H :    0.123624

  Mayer bond orders larger than 0.100000
B(  0-C ,  1-C ) :   1.1687 B(  0-C , 19-H ) :   0.9373 B(  0-C , 20-H ) :   0.9379
B(  0-C , 21-H ) :   0.9281 B(  1-C ,  2-O ) :   0.8986 B(  1-C , 22-H ) :   0.9180
B(  1-C , 23-H ) :   0.9351 B(  2-O ,  3-P ) :   1.1297 B(  3-P ,  4-S ) :   1.6096
B(  3-P ,  5-O ) :   1.1026 B(  3-P ,  8-S ) :   0.9505 B(  4-S ,  8-S ) :   0.1170
B(  5-O ,  6-C ) :   0.9089 B(  6-C ,  7-C ) :   1.1651 B(  6-C , 24-H ) :   0.9334
B(  6-C , 25-H ) :   0.9135 B(  7-C , 26-H ) :   0.9453 B(  7-C , 27-H ) :   0.9384
B(  7-C , 28-H ) :   0.9358 B(  8-S ,  9-C ) :   1.0120 B(  9-C , 10-S ) :   0.9826
B(  9-C , 29-H ) :   0.8489 B(  9-C , 30-H ) :   0.9084 B( 10-S , 11-P ) :   0.9384
B( 10-S , 12-S ) :   0.1174 B( 11-P , 12-S ) :   1.6654 B( 11-P , 13-O ) :   1.1274
B( 11-P , 16-O ) :   1.0832 B( 13-O , 14-C ) :   0.8986 B( 14-C , 15-C ) :   1.1638
B( 14-C , 31-H ) :   0.9119 B( 14-C , 32-H ) :   0.9364 B( 15-C , 33-H ) :   0.9403
B( 15-C , 34-H ) :   0.9471 B( 15-C , 35-H ) :   0.9429 B( 16-O , 17-C ) :   0.9087
B( 17-C , 18-C ) :   1.1714 B( 17-C , 36-H ) :   0.9208 B( 17-C , 37-H ) :   0.9326
B( 18-C , 38-H ) :   0.9326 B( 18-C , 39-H ) :   0.9406 B( 18-C , 40-H ) :   0.9155

Dispersion correction           -0.065364749
FINAL SINGLE POINT ENERGY     -2929.517375740147

DIPOLE MOMENT
-------------

Method             : SCF
Type of density    : Electron Density
Multiplicity       :   1
Irrep              :   0
Energy             : -2929.6362711288948049 Eh
Relativity type    :
Basis              : AO
                                X                 Y                 Z
Electronic contribution:      2.067836437       0.216806810      12.434129058
Nuclear contribution   :     -1.740762739      -1.455775881     -13.394321991
                        -----------------------------------------
Total Dipole Moment    :      0.327073698      -1.238969071      -0.960192933
                        -----------------------------------------
Magnitude (a.u.)       :      1.601247024
Magnitude (Debye)      :      4.070046483

Rotational constants in cm-1:             0.012806             0.004849             0.004532
Rotational constants in MHz :           383.918402           145.380803           135.861362

                             ****ORCA TERMINATED NORMALLY****
TOTAL RUN TIME: 0 days 0 hours 0 minutes 21 seconds 37 msec
