                         Program Version 6.0.0  -   RELEASE  -
|  1> ! pbe def2-sv(p) def2/J RI DEFGRID1 loosescf d4 GCP(DFT/SV(P)) printgap
|  2> %output
|  3>     printlevel normal
|  4> end
|  5> * xyz 0 1
|  6> C 3.398803849 -1.3022158906 -2.7550915435
|  7> C 2.0025720142 -1.0559691137 -2.2223243464
|  8> O 1.964852881 0.1275478647 -1.3845732054
|  9> P 2.1076037849 0.0872365583 0.1797476565
| 10> S 2.1417419865 1.8472342731 1.0266720528
| 11> O 3.4509789304 -0.7492640027 0.3584203634
| 12> C 4.0021325049 -0.9937474934 1.6671651284
| 13> C 5.4164868988 -1.5071829826 1.4878487689
| 14> S 0.6455466898 -1.2945664212 0.9229571374
| 15> C -0.2702184209 -0.2113138742 2.0604837715
| 16> S -2.0675377979 -0.3131351939 1.8589693482
| 17> P -2.2132834198 0.2256395787 -0.1677034807
| 18> S -0.937581694 1.5321504926 -0.909424411
| 19> O -3.7407379096 0.6214349061 -0.354645828
| 20> C -4.22176035 1.965098224 -0.1824843191
| 21> C -4.1128552023 2.4319829301 1.2546817489
| 22> O -2.1629178142 -1.2190933944 -0.8122562222
| 23> C -1.9260490791 -1.4390367285 -2.2163830741
| 24> C -3.1635780079 -1.1613923801 -3.044346706
| 25> H 3.3712293735 -2.1461116241 -3.4373327588
| 26> H 3.7529259557 -0.4221954924 -3.2849759717
| 27> H 4.0824623783 -1.5190452319 -1.9394236583
| 28> H 1.6376164285 -1.9100007274 -1.6441620777
| 29> H 1.3059112843 -0.83187133 -3.0329498392
| 30> H 3.982656021 -0.056294348 2.2326444539
| 31> H 3.3701895784 -1.7307448811 2.1709433237
| 32> H 5.8501645641 -1.700921737 2.4632764991
| 33> H 5.4089804735 -2.4262695862 0.909128591
| 34> H 6.0186850787 -0.7667964502 0.9688740497
| 35> H 0.0717587061 0.8155767441 1.8997467727
| 36> H -0.0731373686 -0.53207791 3.0804250042
| 37> H -3.6497754248 2.6239004321 -0.8440702233
| 38> H -5.2601691654 1.915091707 -0.5127877699
| 39> H -3.0646677925 2.5358938269 1.5338486105
| 40> H -4.5995380847 3.3965899173 1.357796608
| 41> H -4.5834263214 1.7143998231 1.9221064878
| 42> H -1.096880594 -0.7958286992 -2.5311986481
| 43> H -1.6273099908 -2.4868920125 -2.2721679212
| 44> H -4.0061039708 -1.7261892124 -2.6549918622
| 45> H -3.4058271686 -0.1006803578 -3.0100238626
| 46> H -2.9783026028 -1.449999695 -4.074330448
| 47> *
| 48>
| 49>                          ****END OF INPUT****

CARTESIAN COORDINATES (ANGSTROEM)
---------------------------------
  C      3.398804   -1.302216   -2.755092
  C      2.002572   -1.055969   -2.222324
  O      1.964853    0.127548   -1.384573
  P      2.107604    0.087237    0.179748
  S      2.141742    1.847234    1.026672
  O      3.450979   -0.749264    0.358420
  C      4.002133   -0.993747    1.667165
  C      5.416487   -1.507183    1.487849
  S      0.645547   -1.294566    0.922957
  C     -0.270218   -0.211314    2.060484
  S     -2.067538   -0.313135    1.858969
  P     -2.213283    0.225640   -0.167703
  S     -0.937582    1.532150   -0.909424
  O     -3.740738    0.621435   -0.354646
  C     -4.221760    1.965098   -0.182484
  C     -4.112855    2.431983    1.254682
  O     -2.162918   -1.219093   -0.812256
  C     -1.926049   -1.439037   -2.216383
  C     -3.163578   -1.161392   -3.044347
  H      3.371229   -2.146112   -3.437333
  H      3.752926   -0.422195   -3.284976
  H      4.082462   -1.519045   -1.939424
  H      1.637616   -1.910001   -1.644162
  H      1.305911   -0.831871   -3.032950
  H      3.982656   -0.056294    2.232644
  H      3.370190   -1.730745    2.170943
  H      5.850165   -1.700922    2.463276
  H      5.408980   -2.426270    0.909129
  H      6.018685   -0.766796    0.968874
  H      0.071759    0.815577    1.899747
  H     -0.073137   -0.532078    3.080425
  H     -3.649775    2.623900   -0.844070
  H     -5.260169    1.915092   -0.512788
  H     -3.064668    2.535894    1.533849
  H     -4.599538    3.396590    1.357797
  H     -4.583426    1.714400    1.922106
  H     -1.096881   -0.795829   -2.531199
  H     -1.627310   -2.486892   -2.272168
  H     -4.006104   -1.726189   -2.654992
  H     -3.405827   -0.100680   -3.010024
  H     -2.978303   -1.450000   -4.074330

 Total Charge           Charge          ....    0
 Multiplicity           Mult            ....    1
 Number of Electrons    NEL             ....  202
 Basis Dimension        Dim             ....  334

ORBITAL ENERGIES
----------------

  NO   OCC          E(Eh)            E(eV)
   0   2.0000     -88.040958     -2395.7163
   1   2.0000     -88.039025     -2395.6637
   2   2.0000     -87.981661     -2394.1027
   3   2.0000     -87.981332     -2394.0938
   4   2.0000     -76.422786     -2079.5697
   5   2.0000     -76.422070     -2079.5502
   6   2.0000     -18.790829      -511.3245
   7   2.0000     -18.789773      -511.2957
   8   2.0000     -18.789749      -511.2951
   9   2.0000     -18.784815      -511.1608
  10   2.0000      -9.959024      -270.9988
  11   2.0000      -9.951381      -270.7909
  12   2.0000      -9.950505      -270.7670
  13   2.0000      -9.950442      -270.7653
  14   2.0000      -9.950332      -270.7623
  15   2.0000      -9.888547      -269.0810
  16   2.0000      -9.886675      -269.0301
  17   2.0000      -9.883994      -268.9571
  18   2.0000      -9.881652      -268.8934
  19   2.0000      -7.686562      -209.1620
  20   2.0000      -7.683400      -209.0759
  21   2.0000      -7.626603      -207.5304
  22   2.0000      -7.626119      -207.5173
  23   2.0000      -6.420164      -174.7015
  24   2.0000      -6.419574      -174.6855
  25   2.0000      -5.714529      -155.5003
  26   2.0000      -5.711256      -155.4112
  27   2.0000      -5.711001      -155.4042
  28   2.0000      -5.707946      -155.3211
  29   2.0000      -5.703409      -155.1977
  30   2.0000      -5.700473      -155.1178
  31   2.0000      -5.655620      -153.8973
  32   2.0000      -5.654973      -153.8796
  33   2.0000      -5.647173      -153.6674
  34   2.0000      -5.646832      -153.6581
  35   2.0000      -5.646640      -153.6529
  36   2.0000      -5.646361      -153.6453
  37   2.0000      -4.642935      -126.3407
  38   2.0000      -4.641976      -126.3146
  39   2.0000      -4.641867      -126.3116
  40   2.0000      -4.641350      -126.2975
  41   2.0000      -4.640495      -126.2743
  42   2.0000      -4.640157      -126.2651
  43   2.0000      -0.987124       -26.8610
  44   2.0000      -0.983506       -26.7626
  45   2.0000      -0.943061       -25.6620
  46   2.0000      -0.942740       -25.6533
  47   2.0000      -0.759533       -20.6679
  48   2.0000      -0.720182       -19.5972
  49   2.0000      -0.708517       -19.2797
  50   2.0000      -0.692189       -18.8354
  51   2.0000      -0.685667       -18.6580
  52   2.0000      -0.672581       -18.3019
  53   2.0000      -0.647605       -17.6222
  54   2.0000      -0.632590       -17.2136
  55   2.0000      -0.598537       -16.2870
  56   2.0000      -0.588118       -16.0035
  57   2.0000      -0.570967       -15.5368
  58   2.0000      -0.569414       -15.4945
  59   2.0000      -0.560946       -15.2641
  60   2.0000      -0.507795       -13.8178
  61   2.0000      -0.490860       -13.3570
  62   2.0000      -0.481597       -13.1049
  63   2.0000      -0.470316       -12.7980
  64   2.0000      -0.447064       -12.1652
  65   2.0000      -0.446414       -12.1475
  66   2.0000      -0.441451       -12.0125
  67   2.0000      -0.436076       -11.8662
  68   2.0000      -0.430579       -11.7167
  69   2.0000      -0.419548       -11.4165
  70   2.0000      -0.408022       -11.1029
  71   2.0000      -0.392167       -10.6714
  72   2.0000      -0.388176       -10.5628
  73   2.0000      -0.386882       -10.5276
  74   2.0000      -0.380164       -10.3448
  75   2.0000      -0.373585       -10.1658
  76   2.0000      -0.363677        -9.8962
  77   2.0000      -0.356118        -9.6905
  78   2.0000      -0.355246        -9.6667
  79   2.0000      -0.351701        -9.5703
  80   2.0000      -0.347839        -9.4652
  81   2.0000      -0.344289        -9.3686
  82   2.0000      -0.342306        -9.3146
  83   2.0000      -0.337680        -9.1887
  84   2.0000      -0.334463        -9.1012
  85   2.0000      -0.315348        -8.5811
  86   2.0000      -0.311892        -8.4870
  87   2.0000      -0.298323        -8.1178
  88   2.0000      -0.294261        -8.0072
  89   2.0000      -0.290812        -7.9134
  90   2.0000      -0.279624        -7.6090
  91   2.0000      -0.276149        -7.5144
  92   2.0000      -0.269158        -7.3242
  93   2.0000      -0.261084        -7.1045
  94   2.0000      -0.255796        -6.9606
  95   2.0000      -0.231383        -6.2962
  96   2.0000      -0.221455        -6.0261
  97   2.0000      -0.210962        -5.7406
  98   2.0000      -0.197128        -5.3641
  99   2.0000      -0.195895        -5.3306
 100   2.0000      -0.185220        -5.0401
 101   0.0000      -0.040698        -1.1075
 102   0.0000      -0.031376        -0.8538
 103   0.0000      -0.007612        -0.2071
 104   0.0000       0.011032         0.3002
 105   0.0000       0.019071         0.5189

MULLIKEN ATOMIC CHARGES
-----------------------
   0 C :   -0.282373
   1 C :   -0.035849
   2 O :   -0.347003
   3 P :    0.611770
   4 S :   -0.291281
   5 O :   -0.385493
   6 C :   -0.006818
   7 C :   -0.283284
   8 S :   -0.127665
   9 C :   -0.340366
  10 S :   -0.088887
  11 P :    0.603129
  12 S :   -0.312965
  13 O :   -0.372065
  14 C :   -0.002747
  15 C :   -0.318404
  16 O :   -0.359543
  17 C :   -0.029997
  18 C :   -0.295640
  19 H :    0.106903
  20 H :    0.121530
  21 H :    0.126387
  22 H :    0.106996
  23 H :    0.121941
  24 H :    0.102575
  25 H :    0.096882
  26 H :    0.112043
  27 H :    0.115296
  28 H :    0.121964
  29 H :    0.204824
  30 H :    0.176629
  31 H :    0.110828
  32 H :    0.104023
  33 H :    0.131709
  34 H :    0.113276
  35 H :    0.117953
  36 H :    0.124179
  37 H :    0.102537
  38 H :    0.117743
  39 H :    0.121274
  40 H :    0.107987
Sum of atomic charges:    0.0000000

LOEWDIN ATOMIC CHARGES
----------------------
   0 C :   -0.359998
   1 C :   -0.111291
   2 O :   -0.225856
   3 P :    0.572561
   4 S :   -0.288344
   5 O :   -0.252542
   6 C :   -0.124313
   7 C :   -0.350703
   8 S :    0.052231
   9 C :   -0.479561
  10 S :    0.091657
  11 P :    0.561392
  12 S :   -0.307022
  13 O :   -0.245114
  14 C :   -0.119498
  15 C :   -0.370091
  16 O :   -0.239525
  17 C :   -0.120267
  18 C :   -0.360931
  19 H :    0.128563
  20 H :    0.130414
  21 H :    0.126885
  22 H :    0.105417
  23 H :    0.120015
  24 H :    0.107662
  25 H :    0.104701
  26 H :    0.130805
  27 H :    0.124816
  28 H :    0.129036
  29 H :    0.123122
  30 H :    0.134327
  31 H :    0.110697
  32 H :    0.118095
  33 H :    0.123072
  34 H :    0.131205
  35 H :    0.123832
  36 H :    0.107544
  37 H :    0.116764
  38 H :    0.127366
  39 H :    0.124577
  40 H :    0.128300

  Mayer bond orders larger than 0.100000
B(  0-C ,  1-C ) :   1.1634 B(  0-C , 19-H ) :   0.9390 B(  0-C , 20-H ) :   0.9458
B(  0-C , 21-H ) :   0.9379 B(  1-C ,  2-O ) :   0.8971 B(  1-C , 22-H ) :   0.9170
B(  1-C , 23-H ) :   0.9245 B(  2-O ,  3-P ) :   1.1440 B(  3-P ,  4-S ) :   1.6461
B(  3-P ,  5-O ) :   1.0631 B(  3-P ,  8-S ) :   0.9377 B(  4-S ,  8-S ) :   0.1204
B(  4-S , 29-H ) :   0.1104 B(  5-O ,  6-C ) :   0.9108 B(  6-C ,  7-C ) :   1.1594
B(  6-C , 24-H ) :   0.9099 B(  6-C , 25-H ) :   0.9219 B(  7-C , 26-H ) :   0.9423
B(  7-C , 27-H ) :   0.9507 B(  7-C , 28-H ) :   0.9512 B(  8-S ,  9-C ) :   0.9989
B(  9-C , 10-S ) :   0.9984 B(  9-C , 29-H ) :   0.8471 B(  9-C , 30-H ) :   0.9120
B( 10-S , 11-P ) :   0.9589 B( 10-S , 12-S ) :   0.1135 B( 11-P , 12-S ) :   1.6186
B( 11-P , 13-O ) :   1.1019 B( 11-P , 16-O ) :   1.1200 B( 13-O , 14-C ) :   0.9079
B( 14-C , 15-C ) :   1.1670 B( 14-C , 31-H ) :   0.9153 B( 14-C , 32-H ) :   0.9339
B( 15-C , 33-H ) :   0.9349 B( 15-C , 34-H ) :   0.9377 B( 15-C , 35-H ) :   0.9442
B( 16-O , 17-C ) :   0.9131 B( 17-C , 18-C ) :   1.1617 B( 17-C , 36-H ) :   0.9005
B( 17-C , 37-H ) :   0.9354 B( 18-C , 38-H ) :   0.9466 B( 18-C , 39-H ) :   0.9414
B( 18-C , 40-H ) :   0.9400

Dispersion correction           -0.065514869
FINAL SINGLE POINT ENERGY     -2929.518077322576

DIPOLE MOMENT
-------------

Method             : SCF
Type of density    : Electron Density
Multiplicity       :   1
Irrep              :   0
Energy             : -2929.6368213327086778 Eh
Relativity type    :
Basis              : AO
                                X                 Y                 Z
Electronic contribution:     -4.425498242       6.214683489       9.796141682
Nuclear contribution   :      4.322260416      -7.479444629     -10.165250316
                        -----------------------------------------
Total Dipole Moment    :     -0.103237825      -1.264761140      -0.369108633
                        -----------------------------------------
Magnitude (a.u.)       :      1.321559674
Magnitude (Debye)      :      3.359137737

Rotational constants in cm-1:             0.012848             0.005085             0.004487
Rotational constants in MHz :           385.168578           152.436746           134.518723

                             ****ORCA TERMINATED NORMALLY****
TOTAL RUN TIME: 0 days 0 hours 0 minutes 20 seconds 805 msec
