                         Program Version 6.0.0  -   RELEASE  -
|  1> ! pbe def2-sv(p) def2/J RI DEFGRID1 loosescf d4 GCP(DFT/SV(P)) printgap
|  2> %output
|  3>     printlevel normal
|  4> end
|  5> * xyz 0 1
|  6> C 0.5234469309 -1.2389343172 3.2317645124
|  7> C 1.7001011263 -0.571157678 2.5513847899
|  8> O 1.9650852944 -1.2906361203 1.3179229287
|  9> P 2.6456422432 -0.6281077921 0.0629854598
| 10> S 2.9129557283 -1.919741281 -1.3808419541
| 11> O 3.9578291633 0.0120247114 0.6935078112
| 12> C 5.0936062863 0.4109843297 -0.0950127237
| 13> C 4.7688812582 1.5481346426 -1.0416485315
| 14> S 1.4318886418 1.0594549753 -0.4165159911
| 15> C 0.1749984356 0.1260887045 -1.3210495761
| 16> S -0.9894325589 -0.7366584671 -0.2395907194
| 17> P -2.7571717887 0.4389337648 -0.5551106619
| 18> S -2.5955232915 1.82072186 -1.9339096019
| 19> O -3.2338974809 0.95364601 0.8734317602
| 20> C -2.8059851334 2.2081670908 1.4315197003
| 21> C -1.363404696 2.1648793739 1.8913855556
| 22> O -3.8747662575 -0.6155530265 -0.9114442887
| 23> C -4.5937171416 -1.4337164071 0.0434836659
| 24> C -3.6759662122 -2.3232155622 0.8541074575
| 25> H 0.3113316313 -0.7255567929 4.1641445385
| 26> H -0.3489008364 -1.202735192 2.5841663852
| 27> H 0.754743981 -2.2798180694 3.4373049698
| 28> H 2.603878769 -0.6231664969 3.1608534239
| 29> H 1.4878595717 0.474379612 2.3086327027
| 30> H 5.8336405234 0.7059647954 0.6503340368
| 31> H 5.4507901012 -0.4615806617 -0.6503455315
| 32> H 4.0833060881 1.2055658825 -1.8155460121
| 33> H 4.3066031441 2.3712513945 -0.5023951769
| 34> H 5.6832809171 1.8935182619 -1.5132599832
| 35> H 0.6784983004 -0.6224608475 -1.9342624097
| 36> H -0.378459651 0.8384578665 -1.9381202528
| 37> H -2.9498628106 2.9907854434 0.6800299841
| 38> H -3.4889840479 2.3662059518 2.2676072043
| 39> H -1.1288010128 3.0842178457 2.4180464317
| 40> H -1.2047080526 1.3193309074 2.5554693257
| 41> H -0.6977733201 2.0781845508 1.0334439809
| 42> H -5.1690856895 -0.7714032982 0.6930692405
| 43> H -5.2676730488 -2.0161320766 -0.5864589775
| 44> H -3.0141104847 -1.7160263775 1.4690339564
| 45> H -4.274667847 -2.9584605044 1.4994060356
| 46> H -3.070322184 -2.9459559267 0.2003652343
| 47> *
| 48>
| 49>                          ****END OF INPUT****

CARTESIAN COORDINATES (ANGSTROEM)
---------------------------------
  C      0.523447   -1.238934    3.231765
  C      1.700101   -0.571158    2.551385
  O      1.965085   -1.290636    1.317923
  P      2.645642   -0.628108    0.062985
  S      2.912956   -1.919741   -1.380842
  O      3.957829    0.012025    0.693508
  C      5.093606    0.410984   -0.095013
  C      4.768881    1.548135   -1.041649
  S      1.431889    1.059455   -0.416516
  C      0.174998    0.126089   -1.321050
  S     -0.989433   -0.736658   -0.239591
  P     -2.757172    0.438934   -0.555111
  S     -2.595523    1.820722   -1.933910
  O     -3.233897    0.953646    0.873432
  C     -2.805985    2.208167    1.431520
  C     -1.363405    2.164879    1.891386
  O     -3.874766   -0.615553   -0.911444
  C     -4.593717   -1.433716    0.043484
  C     -3.675966   -2.323216    0.854107
  H      0.311332   -0.725557    4.164145
  H     -0.348901   -1.202735    2.584166
  H      0.754744   -2.279818    3.437305
  H      2.603879   -0.623166    3.160853
  H      1.487860    0.474380    2.308633
  H      5.833641    0.705965    0.650334
  H      5.450790   -0.461581   -0.650346
  H      4.083306    1.205566   -1.815546
  H      4.306603    2.371251   -0.502395
  H      5.683281    1.893518   -1.513260
  H      0.678498   -0.622461   -1.934262
  H     -0.378460    0.838458   -1.938120
  H     -2.949863    2.990785    0.680030
  H     -3.488984    2.366206    2.267607
  H     -1.128801    3.084218    2.418046
  H     -1.204708    1.319331    2.555469
  H     -0.697773    2.078185    1.033444
  H     -5.169086   -0.771403    0.693069
  H     -5.267673   -2.016132   -0.586459
  H     -3.014110   -1.716026    1.469034
  H     -4.274668   -2.958461    1.499406
  H     -3.070322   -2.945956    0.200365

 Total Charge           Charge          ....    0
 Multiplicity           Mult            ....    1
 Number of Electrons    NEL             ....  202
 Basis Dimension        Dim             ....  334

ORBITAL ENERGIES
----------------

  NO   OCC          E(Eh)            E(eV)
   0   2.0000     -88.044363     -2395.8089
   1   2.0000     -88.042270     -2395.7520
   2   2.0000     -87.990939     -2394.3552
   3   2.0000     -87.986876     -2394.2446
   4   2.0000     -76.430018     -2079.7665
   5   2.0000     -76.426888     -2079.6814
   6   2.0000     -18.798615      -511.5363
   7   2.0000     -18.796403      -511.4761
   8   2.0000     -18.793373      -511.3937
   9   2.0000     -18.793137      -511.3873
  10   2.0000      -9.960772      -271.0464
  11   2.0000      -9.958066      -270.9728
  12   2.0000      -9.956896      -270.9409
  13   2.0000      -9.956182      -270.9215
  14   2.0000      -9.947273      -270.6791
  15   2.0000      -9.893752      -269.2227
  16   2.0000      -9.889086      -269.0957
  17   2.0000      -9.888570      -269.0817
  18   2.0000      -9.886037      -269.0127
  19   2.0000      -7.688695      -209.2200
  20   2.0000      -7.686669      -209.1649
  21   2.0000      -7.636012      -207.7864
  22   2.0000      -7.632100      -207.6800
  23   2.0000      -6.427551      -174.9025
  24   2.0000      -6.424612      -174.8226
  25   2.0000      -5.716312      -155.5487
  26   2.0000      -5.714540      -155.5005
  27   2.0000      -5.713290      -155.4665
  28   2.0000      -5.711155      -155.4084
  29   2.0000      -5.705952      -155.2669
  30   2.0000      -5.703775      -155.2076
  31   2.0000      -5.664919      -154.1503
  32   2.0000      -5.661068      -154.0455
  33   2.0000      -5.656489      -153.9209
  34   2.0000      -5.656297      -153.9157
  35   2.0000      -5.652662      -153.8168
  36   2.0000      -5.652250      -153.8055
  37   2.0000      -4.650502      -126.5466
  38   2.0000      -4.648917      -126.5035
  39   2.0000      -4.648039      -126.4796
  40   2.0000      -4.647547      -126.4662
  41   2.0000      -4.646263      -126.4313
  42   2.0000      -4.644816      -126.3919
  43   2.0000      -0.992523       -27.0079
  44   2.0000      -0.990600       -26.9556
  45   2.0000      -0.948164       -25.8009
  46   2.0000      -0.947380       -25.7795
  47   2.0000      -0.761691       -20.7267
  48   2.0000      -0.724674       -19.7194
  49   2.0000      -0.715014       -19.4565
  50   2.0000      -0.696182       -18.9441
  51   2.0000      -0.691689       -18.8218
  52   2.0000      -0.680148       -18.5078
  53   2.0000      -0.652753       -17.7623
  54   2.0000      -0.638140       -17.3647
  55   2.0000      -0.604130       -16.4392
  56   2.0000      -0.593429       -16.1480
  57   2.0000      -0.584237       -15.8979
  58   2.0000      -0.574355       -15.6290
  59   2.0000      -0.556402       -15.1405
  60   2.0000      -0.507791       -13.8177
  61   2.0000      -0.500237       -13.6121
  62   2.0000      -0.476722       -12.9723
  63   2.0000      -0.475380       -12.9357
  64   2.0000      -0.462284       -12.5794
  65   2.0000      -0.453463       -12.3394
  66   2.0000      -0.442901       -12.0520
  67   2.0000      -0.439333       -11.9549
  68   2.0000      -0.434605       -11.8262
  69   2.0000      -0.428818       -11.6687
  70   2.0000      -0.413245       -11.2450
  71   2.0000      -0.404367       -11.0034
  72   2.0000      -0.393411       -10.7053
  73   2.0000      -0.388150       -10.5621
  74   2.0000      -0.378677       -10.3043
  75   2.0000      -0.375770       -10.2252
  76   2.0000      -0.366366        -9.9693
  77   2.0000      -0.361618        -9.8401
  78   2.0000      -0.360947        -9.8219
  79   2.0000      -0.356348        -9.6967
  80   2.0000      -0.354028        -9.6336
  81   2.0000      -0.347175        -9.4471
  82   2.0000      -0.344787        -9.3821
  83   2.0000      -0.340796        -9.2735
  84   2.0000      -0.339828        -9.2472
  85   2.0000      -0.319133        -8.6841
  86   2.0000      -0.312266        -8.4972
  87   2.0000      -0.304501        -8.2859
  88   2.0000      -0.301664        -8.2087
  89   2.0000      -0.299797        -8.1579
  90   2.0000      -0.296229        -8.0608
  91   2.0000      -0.278371        -7.5749
  92   2.0000      -0.272950        -7.4273
  93   2.0000      -0.265618        -7.2278
  94   2.0000      -0.257441        -7.0053
  95   2.0000      -0.233603        -6.3567
  96   2.0000      -0.222158        -6.0452
  97   2.0000      -0.211862        -5.7651
  98   2.0000      -0.207261        -5.6399
  99   2.0000      -0.205186        -5.5834
 100   2.0000      -0.199524        -5.4293
 101   0.0000      -0.042309        -1.1513
 102   0.0000      -0.033321        -0.9067
 103   0.0000      -0.014902        -0.4055
 104   0.0000       0.003742         0.1018
 105   0.0000       0.007212         0.1962

MULLIKEN ATOMIC CHARGES
-----------------------
   0 C :   -0.305405
   1 C :   -0.015597
   2 O :   -0.356421
   3 P :    0.598185
   4 S :   -0.306895
   5 O :   -0.385763
   6 C :    0.001417
   7 C :   -0.322635
   8 S :   -0.103110
   9 C :   -0.356939
  10 S :   -0.103906
  11 P :    0.611535
  12 S :   -0.306477
  13 O :   -0.386626
  14 C :    0.004972
  15 C :   -0.340589
  16 O :   -0.362231
  17 C :    0.011616
  18 C :   -0.348782
  19 H :    0.107806
  20 H :    0.147684
  21 H :    0.120577
  22 H :    0.108773
  23 H :    0.108517
  24 H :    0.105284
  25 H :    0.113907
  26 H :    0.132742
  27 H :    0.117930
  28 H :    0.115765
  29 H :    0.195817
  30 H :    0.195489
  31 H :    0.114604
  32 H :    0.103126
  33 H :    0.112215
  34 H :    0.120538
  35 H :    0.137698
  36 H :    0.109128
  37 H :    0.114072
  38 H :    0.136010
  39 H :    0.118931
  40 H :    0.137038
Sum of atomic charges:    0.0000000

LOEWDIN ATOMIC CHARGES
----------------------
   0 C :   -0.357632
   1 C :   -0.114290
   2 O :   -0.236636
   3 P :    0.568599
   4 S :   -0.307238
   5 O :   -0.249878
   6 C :   -0.114863
   7 C :   -0.371624
   8 S :    0.086605
   9 C :   -0.494333
  10 S :    0.083455
  11 P :    0.572714
  12 S :   -0.296514
  13 O :   -0.249063
  14 C :   -0.116292
  15 C :   -0.372295
  16 O :   -0.238957
  17 C :   -0.107075
  18 C :   -0.373377
  19 H :    0.128043
  20 H :    0.121520
  21 H :    0.130142
  22 H :    0.116449
  23 H :    0.103815
  24 H :    0.118925
  25 H :    0.114341
  26 H :    0.123551
  27 H :    0.123285
  28 H :    0.132521
  29 H :    0.128109
  30 H :    0.125870
  31 H :    0.112352
  32 H :    0.117849
  33 H :    0.131476
  34 H :    0.123817
  35 H :    0.113651
  36 H :    0.114877
  37 H :    0.124608
  38 H :    0.117818
  39 H :    0.134483
  40 H :    0.131192

  Mayer bond orders larger than 0.100000
B(  0-C ,  1-C ) :   1.1692 B(  0-C , 19-H ) :   0.9381 B(  0-C , 20-H ) :   0.9297
B(  0-C , 21-H ) :   0.9454 B(  1-C ,  2-O ) :   0.8863 B(  1-C , 22-H ) :   0.9312
B(  1-C , 23-H ) :   0.9076 B(  2-O ,  3-P ) :   1.1423 B(  3-P ,  4-S ) :   1.6416
B(  3-P ,  5-O ) :   1.0898 B(  3-P ,  8-S ) :   0.9486 B(  4-S ,  8-S ) :   0.1067
B(  5-O ,  6-C ) :   0.9062 B(  6-C ,  7-C ) :   1.1657 B(  6-C , 24-H ) :   0.9344
B(  6-C , 25-H ) :   0.9201 B(  7-C , 26-H ) :   0.9343 B(  7-C , 27-H ) :   0.9434
B(  7-C , 28-H ) :   0.9368 B(  8-S ,  9-C ) :   1.0015 B(  9-C , 10-S ) :   1.0083
B(  9-C , 29-H ) :   0.8645 B(  9-C , 30-H ) :   0.8459 B( 10-S , 11-P ) :   0.9473
B( 10-S , 12-S ) :   0.1181 B( 11-P , 12-S ) :   1.6304 B( 11-P , 13-O ) :   1.0650
B( 11-P , 16-O ) :   1.1414 B( 12-S , 30-H ) :   0.1228 B( 13-O , 14-C ) :   0.9102
B( 14-C , 15-C ) :   1.1622 B( 14-C , 31-H ) :   0.9143 B( 14-C , 32-H ) :   0.9332
B( 15-C , 33-H ) :   0.9365 B( 15-C , 34-H ) :   0.9385 B( 15-C , 35-H ) :   0.9260
B( 16-O , 17-C ) :   0.9000 B( 17-C , 18-C ) :   1.1694 B( 17-C , 36-H ) :   0.9277
B( 17-C , 37-H ) :   0.9333 B( 18-C , 38-H ) :   0.9309 B( 18-C , 39-H ) :   0.9346
B( 18-C , 40-H ) :   0.9392

Dispersion correction           -0.064327056
FINAL SINGLE POINT ENERGY     -2929.518681153123

DIPOLE MOMENT
-------------

Method             : SCF
Type of density    : Electron Density
Multiplicity       :   1
Irrep              :   0
Energy             : -2929.6401921952983685 Eh
Relativity type    :
Basis              : AO
                                X                 Y                 Z
Electronic contribution:     -0.364819378      -2.508285677     -17.473010371
Nuclear contribution   :      0.248276708       2.967420394      19.517620709
                        -----------------------------------------
Total Dipole Moment    :     -0.116542670       0.459134717       2.044610338
                        -----------------------------------------
Magnitude (a.u.)       :      2.098765903
Magnitude (Debye)      :      5.334638974

Rotational constants in cm-1:             0.012714             0.004472             0.004289
Rotational constants in MHz :           381.159567           134.068705           128.594272

                             ****ORCA TERMINATED NORMALLY****
TOTAL RUN TIME: 0 days 0 hours 0 minutes 21 seconds 331 msec
