                         Program Version 6.0.0  -   RELEASE  -
|  1> ! pbe def2-sv(p) def2/J RI DEFGRID1 loosescf d4 GCP(DFT/SV(P)) printgap
|  2> %output
|  3>     printlevel normal
|  4> end
|  5> * xyz 0 1
|  6> C 5.4323716177 -1.9311182915 -1.0935414029
|  7> C 4.2855686259 -0.9770069526 -1.3580694893
|  8> O 3.4525784887 -0.9512227278 -0.1793481796
|  9> P 2.3572099382 0.1800687672 0.0227452253
| 10> S 2.9891979368 2.0221585851 -0.1264751627
| 11> O 1.7799113747 -0.1469934565 1.4488935908
| 12> C 1.3879432517 -1.4801275806 1.8603883584
| 13> C 2.4785964077 -2.1168645063 2.695884703
| 14> S 0.8623146266 -0.3840614661 -1.4001067701
| 15> C 0.0174172618 1.2135031493 -1.4318278394
| 16> S -0.7749623505 1.6254696242 0.1460622662
| 17> P -2.3232034669 0.1918163219 -0.0019240338
| 18> S -3.10675414 -0.0874965054 -1.7802807709
| 19> O -3.3489580558 0.5990303694 1.1400287854
| 20> C -4.4532809586 1.4896044339 0.9040126417
| 21> C -3.9954629739 2.9079273987 0.6317857527
| 22> O -1.6011983941 -1.0615461687 0.6459789972
| 23> C -2.0495528504 -2.4101513647 0.3858500936
| 24> C -3.4058563445 -2.680663492 1.0018555688
| 25> H 6.0162290589 -1.58697592 -0.2444974344
| 26> H 5.0490014308 -2.9247956232 -0.8808351758
| 27> H 6.0688278537 -1.9725803478 -1.9712049472
| 28> H 3.6733821087 -1.3087130056 -2.2010465392
| 29> H 4.6428508693 0.0393575895 -1.5523437
| 30> H 0.4717757095 -1.3312617278 2.4354921957
| 31> H 1.1713140608 -2.0745486187 0.9682983997
| 32> H 2.7079747807 -1.4851710095 3.5495535915
| 33> H 2.1388915148 -3.0862773233 3.0468404557
| 34> H 3.3794497971 -2.2436325043 2.1013724194
| 35> H -0.736393045 1.1563708275 -2.2173090645
| 36> H 0.7447355701 2.0010099241 -1.6288115484
| 37> H -5.0325871606 1.1051106178 0.0583364255
| 38> H -5.0423971309 1.4248622438 1.8197498781
| 39> H -3.3306112725 3.2494498626 1.4214779931
| 40> H -3.4612294329 2.9523210929 -0.3166372137
| 41> H -4.8599722975 3.5619552542 0.5795307137
| 42> H -2.0775126558 -2.5607155622 -0.698045501
| 43> H -1.2730120645 -3.03603025 0.8270616554
| 44> H -4.1637808013 -2.0719104384 0.5102396797
| 45> H -3.6574083578 -3.7285499427 0.8718415547
| 46> H -3.3936511899 -2.4381556676 2.0611815294
| 47> *
| 48>
| 49>                          ****END OF INPUT****

CARTESIAN COORDINATES (ANGSTROEM)
---------------------------------
  C      5.432372   -1.931118   -1.093541
  C      4.285569   -0.977007   -1.358069
  O      3.452578   -0.951223   -0.179348
  P      2.357210    0.180069    0.022745
  S      2.989198    2.022159   -0.126475
  O      1.779911   -0.146993    1.448894
  C      1.387943   -1.480128    1.860388
  C      2.478596   -2.116865    2.695885
  S      0.862315   -0.384061   -1.400107
  C      0.017417    1.213503   -1.431828
  S     -0.774962    1.625470    0.146062
  P     -2.323203    0.191816   -0.001924
  S     -3.106754   -0.087497   -1.780281
  O     -3.348958    0.599030    1.140029
  C     -4.453281    1.489604    0.904013
  C     -3.995463    2.907927    0.631786
  O     -1.601198   -1.061546    0.645979
  C     -2.049553   -2.410151    0.385850
  C     -3.405856   -2.680663    1.001856
  H      6.016229   -1.586976   -0.244497
  H      5.049001   -2.924796   -0.880835
  H      6.068828   -1.972580   -1.971205
  H      3.673382   -1.308713   -2.201047
  H      4.642851    0.039358   -1.552344
  H      0.471776   -1.331262    2.435492
  H      1.171314   -2.074549    0.968298
  H      2.707975   -1.485171    3.549554
  H      2.138892   -3.086277    3.046840
  H      3.379450   -2.243633    2.101372
  H     -0.736393    1.156371   -2.217309
  H      0.744736    2.001010   -1.628812
  H     -5.032587    1.105111    0.058336
  H     -5.042397    1.424862    1.819750
  H     -3.330611    3.249450    1.421478
  H     -3.461229    2.952321   -0.316637
  H     -4.859972    3.561955    0.579531
  H     -2.077513   -2.560716   -0.698046
  H     -1.273012   -3.036030    0.827062
  H     -4.163781   -2.071910    0.510240
  H     -3.657408   -3.728550    0.871842
  H     -3.393651   -2.438156    2.061182

 Total Charge           Charge          ....    0
 Multiplicity           Mult            ....    1
 Number of Electrons    NEL             ....  202
 Basis Dimension        Dim             ....  334

ORBITAL ENERGIES
----------------

  NO   OCC          E(Eh)            E(eV)
   0   2.0000     -88.040875     -2395.7140
   1   2.0000     -88.038648     -2395.6534
   2   2.0000     -87.991986     -2394.3837
   3   2.0000     -87.983589     -2394.1552
   4   2.0000     -76.428307     -2079.7200
   5   2.0000     -76.424595     -2079.6190
   6   2.0000     -18.797414      -511.5036
   7   2.0000     -18.796888      -511.4893
   8   2.0000     -18.793207      -511.3892
   9   2.0000     -18.790502      -511.3155
  10   2.0000      -9.955730      -270.9092
  11   2.0000      -9.955040      -270.8904
  12   2.0000      -9.954912      -270.8869
  13   2.0000      -9.953544      -270.8497
  14   2.0000      -9.950171      -270.7579
  15   2.0000      -9.891659      -269.1657
  16   2.0000      -9.887353      -269.0486
  17   2.0000      -9.885858      -269.0079
  18   2.0000      -9.884860      -268.9807
  19   2.0000      -7.685939      -209.1450
  20   2.0000      -7.683628      -209.0822
  21   2.0000      -7.636889      -207.8103
  22   2.0000      -7.628960      -207.5946
  23   2.0000      -6.426032      -174.8612
  24   2.0000      -6.422237      -174.7580
  25   2.0000      -5.713754      -155.4791
  26   2.0000      -5.711324      -155.4130
  27   2.0000      -5.710658      -155.3949
  28   2.0000      -5.708224      -155.3287
  29   2.0000      -5.702746      -155.1796
  30   2.0000      -5.700739      -155.1250
  31   2.0000      -5.665583      -154.1684
  32   2.0000      -5.657948      -153.9606
  33   2.0000      -5.657575      -153.9504
  34   2.0000      -5.657233      -153.9411
  35   2.0000      -5.649450      -153.7294
  36   2.0000      -5.649128      -153.7206
  37   2.0000      -4.648460      -126.4910
  38   2.0000      -4.647746      -126.4716
  39   2.0000      -4.646624      -126.4411
  40   2.0000      -4.645161      -126.4013
  41   2.0000      -4.644000      -126.3697
  42   2.0000      -4.642346      -126.3247
  43   2.0000      -0.990446       -26.9514
  44   2.0000      -0.989911       -26.9368
  45   2.0000      -0.949397       -25.8344
  46   2.0000      -0.946386       -25.7525
  47   2.0000      -0.763176       -20.7671
  48   2.0000      -0.722338       -19.6558
  49   2.0000      -0.710922       -19.3452
  50   2.0000      -0.693789       -18.8790
  51   2.0000      -0.689620       -18.7655
  52   2.0000      -0.674892       -18.3647
  53   2.0000      -0.650413       -17.6986
  54   2.0000      -0.637871       -17.3574
  55   2.0000      -0.603545       -16.4233
  56   2.0000      -0.588592       -16.0164
  57   2.0000      -0.575171       -15.6512
  58   2.0000      -0.570384       -15.5209
  59   2.0000      -0.562605       -15.3093
  60   2.0000      -0.510172       -13.8825
  61   2.0000      -0.495124       -13.4730
  62   2.0000      -0.482425       -13.1274
  63   2.0000      -0.475823       -12.9478
  64   2.0000      -0.458455       -12.4752
  65   2.0000      -0.445532       -12.1236
  66   2.0000      -0.443025       -12.0553
  67   2.0000      -0.439853       -11.9690
  68   2.0000      -0.431252       -11.7350
  69   2.0000      -0.415585       -11.3087
  70   2.0000      -0.406610       -11.0644
  71   2.0000      -0.398020       -10.8307
  72   2.0000      -0.390304       -10.6207
  73   2.0000      -0.388714       -10.5774
  74   2.0000      -0.382113       -10.3978
  75   2.0000      -0.375798       -10.2260
  76   2.0000      -0.367550       -10.0015
  77   2.0000      -0.360161        -9.8005
  78   2.0000      -0.356999        -9.7144
  79   2.0000      -0.353450        -9.6179
  80   2.0000      -0.351658        -9.5691
  81   2.0000      -0.347122        -9.4457
  82   2.0000      -0.345109        -9.3909
  83   2.0000      -0.342593        -9.3224
  84   2.0000      -0.336307        -9.1514
  85   2.0000      -0.322685        -8.7807
  86   2.0000      -0.312351        -8.4995
  87   2.0000      -0.302797        -8.2395
  88   2.0000      -0.298479        -8.1220
  89   2.0000      -0.293803        -7.9948
  90   2.0000      -0.286997        -7.8096
  91   2.0000      -0.279564        -7.6073
  92   2.0000      -0.270856        -7.3704
  93   2.0000      -0.266635        -7.2555
  94   2.0000      -0.257970        -7.0197
  95   2.0000      -0.233334        -6.3493
  96   2.0000      -0.218340        -5.9413
  97   2.0000      -0.214603        -5.8396
  98   2.0000      -0.206253        -5.6124
  99   2.0000      -0.201449        -5.4817
 100   2.0000      -0.198240        -5.3944
 101   0.0000      -0.043255        -1.1770
 102   0.0000      -0.022612        -0.6153
 103   0.0000       0.000036         0.0010
 104   0.0000       0.002629         0.0715
 105   0.0000       0.012201         0.3320

MULLIKEN ATOMIC CHARGES
-----------------------
   0 C :   -0.282516
   1 C :   -0.011941
   2 O :   -0.385954
   3 P :    0.600843
   4 S :   -0.314630
   5 O :   -0.346308
   6 C :   -0.023090
   7 C :   -0.283929
   8 S :   -0.100685
   9 C :   -0.374056
  10 S :   -0.054998
  11 P :    0.610008
  12 S :   -0.338373
  13 O :   -0.370926
  14 C :   -0.006443
  15 C :   -0.315644
  16 O :   -0.360451
  17 C :   -0.008037
  18 C :   -0.303716
  19 H :    0.122990
  20 H :    0.115029
  21 H :    0.114464
  22 H :    0.105416
  23 H :    0.108066
  24 H :    0.118006
  25 H :    0.104989
  26 H :    0.120365
  27 H :    0.105874
  28 H :    0.119538
  29 H :    0.190733
  30 H :    0.195727
  31 H :    0.111396
  32 H :    0.106709
  33 H :    0.121724
  34 H :    0.127903
  35 H :    0.114179
  36 H :    0.114566
  37 H :    0.101187
  38 H :    0.123587
  39 H :    0.112263
  40 H :    0.116136
Sum of atomic charges:   -0.0000000

LOEWDIN ATOMIC CHARGES
----------------------
   0 C :   -0.350624
   1 C :   -0.119862
   2 O :   -0.250544
   3 P :    0.567847
   4 S :   -0.310494
   5 O :   -0.227589
   6 C :   -0.113912
   7 C :   -0.358675
   8 S :    0.060403
   9 C :   -0.487210
  10 S :    0.105276
  11 P :    0.574804
  12 S :   -0.324187
  13 O :   -0.242626
  14 C :   -0.118975
  15 C :   -0.369066
  16 O :   -0.238336
  17 C :   -0.117714
  18 C :   -0.364678
  19 H :    0.129577
  20 H :    0.125463
  21 H :    0.132176
  22 H :    0.109156
  23 H :    0.111262
  24 H :    0.120988
  25 H :    0.103266
  26 H :    0.129243
  27 H :    0.127682
  28 H :    0.125240
  29 H :    0.127754
  30 H :    0.129638
  31 H :    0.110634
  32 H :    0.119389
  33 H :    0.126228
  34 H :    0.121905
  35 H :    0.131732
  36 H :    0.111773
  37 H :    0.113431
  38 H :    0.122787
  39 H :    0.130611
  40 H :    0.126226

  Mayer bond orders larger than 0.100000
B(  0-C ,  1-C ) :   1.1595 B(  0-C , 19-H ) :   0.9506 B(  0-C , 20-H ) :   0.9508
B(  0-C , 21-H ) :   0.9417 B(  1-C ,  2-O ) :   0.9034 B(  1-C , 22-H ) :   0.9270
B(  1-C , 23-H ) :   0.9117 B(  2-O ,  3-P ) :   1.0751 B(  3-P ,  4-S ) :   1.6516
B(  3-P ,  5-O ) :   1.1489 B(  3-P ,  8-S ) :   0.9463 B(  4-S ,  8-S ) :   0.1106
B(  5-O ,  6-C ) :   0.8897 B(  6-C ,  7-C ) :   1.1562 B(  6-C , 24-H ) :   0.9306
B(  6-C , 25-H ) :   0.9112 B(  7-C , 26-H ) :   0.9464 B(  7-C , 27-H ) :   0.9408
B(  7-C , 28-H ) :   0.9417 B(  8-S ,  9-C ) :   1.0055 B(  9-C , 10-S ) :   1.0058
B(  9-C , 29-H ) :   0.8754 B(  9-C , 30-H ) :   0.8752 B( 10-S , 11-P ) :   0.9679
B( 10-S , 12-S ) :   0.1094 B( 11-P , 12-S ) :   1.5838 B( 11-P , 13-O ) :   1.1125
B( 11-P , 16-O ) :   1.1177 B( 13-O , 14-C ) :   0.9063 B( 14-C , 15-C ) :   1.1667
B( 14-C , 31-H ) :   0.9164 B( 14-C , 32-H ) :   0.9336 B( 15-C , 33-H ) :   0.9444
B( 15-C , 34-H ) :   0.9352 B( 15-C , 35-H ) :   0.9376 B( 16-O , 17-C ) :   0.9046
B( 17-C , 18-C ) :   1.1648 B( 17-C , 36-H ) :   0.9166 B( 17-C , 37-H ) :   0.9295
B( 18-C , 38-H ) :   0.9353 B( 18-C , 39-H ) :   0.9387 B( 18-C , 40-H ) :   0.9460

Dispersion correction           -0.064893459
FINAL SINGLE POINT ENERGY     -2929.525378534374

DIPOLE MOMENT
-------------

Method             : SCF
Type of density    : Electron Density
Multiplicity       :   1
Irrep              :   0
Energy             : -2929.6456793721490612 Eh
Relativity type    :
Basis              : AO
                                X                 Y                 Z
Electronic contribution:      0.631324841      14.385027665      -7.671650373
Nuclear contribution   :     -0.929841980     -15.794774884       8.130363276
                        -----------------------------------------
Total Dipole Moment    :     -0.298517139      -1.409747220       0.458712903
                        -----------------------------------------
Magnitude (a.u.)       :      1.512255677
Magnitude (Debye)      :      3.843848455

Rotational constants in cm-1:             0.013084             0.004741             0.004324
Rotational constants in MHz :           392.257482           142.118162           129.635024

                             ****ORCA TERMINATED NORMALLY****
TOTAL RUN TIME: 0 days 0 hours 0 minutes 20 seconds 788 msec
