                         Program Version 6.0.0  -   RELEASE  -
|  1> ! pbe def2-sv(p) def2/J RI DEFGRID1 loosescf d4 GCP(DFT/SV(P)) printgap
|  2> %output
|  3>     printlevel normal
|  4> end
|  5> * xyz 0 1
|  6> C 2.8932250493 2.7063252855 1.6070721384
|  7> C 1.8289431741 2.1313320111 0.6951897685
|  8> O 1.1864624588 0.9906881911 1.3112642502
|  9> P 1.5604052951 -0.5003719837 0.9596623938
| 10> S 0.6718057975 -1.8228501407 2.0902441241
| 11> O 3.1481450439 -0.4629052616 1.1229469515
| 12> C 3.9435075191 -1.6456751255 1.3101341699
| 13> C 3.936404234 -2.5580336857 0.1004701506
| 14> S 1.3378255943 -0.7309256139 -1.152675423
| 15> C -0.090599024 -1.8407854708 -1.2039443624
| 16> S -1.6019217053 -1.1339039749 -1.940886545
| 17> P -1.9076808024 0.5579711871 -0.7018303653
| 18> S -3.6884036644 1.3572134447 -0.8364486609
| 19> O -0.6799458559 1.5158276299 -1.0270436739
| 20> C -0.5512565779 2.1091872608 -2.3376077046
| 21> C -1.0653402071 3.5349122258 -2.3344934777
| 22> O -1.4323359997 0.1305048965 0.7512558595
| 23> C -2.3993063416 -0.2146266515 1.7605236717
| 24> C -3.0013350656 -1.5839313842 1.5180988669
| 25> H 2.460126238 2.9575204003 2.5715050826
| 26> H 3.6915253495 1.984614394 1.7575262219
| 27> H 3.3012670484 3.603721269 1.1524760083
| 28> H 2.2526942649 1.8249592749 -0.2651772806
| 29> H 1.0180625235 2.842693043 0.5272500358
| 30> H 4.942640883 -1.256185341 1.5110422557
| 31> H 3.5686531225 -2.1751562589 2.1915413566
| 32> H 4.6648994857 -3.3486227245 0.2493777162
| 33> H 2.9525845402 -3.0072855823 -0.0239078013
| 34> H 4.1874263329 -2.0003821996 -0.7981767738
| 35> H -0.2970761657 -2.1835462927 -0.1870860234
| 36> H 0.1586793619 -2.6742777474 -1.8560725299
| 37> H 0.5166077831 2.0663873857 -2.5635941874
| 38> H -1.0980596265 1.4994928445 -3.0656037262
| 39> H -0.5282463375 4.1282284669 -1.600029157
| 40> H -0.9229269564 3.966717927 -3.3197598985
| 41> H -2.1252919267 3.5499134473 -2.0895250005
| 42> H -1.8329029145 -0.1854657275 2.6926528993
| 43> H -3.1777147131 0.5545938516 1.7701623877
| 44> H -2.226212834 -2.3467644731 1.5348290868
| 45> H -3.7233328493 -1.7981002764 2.2993555968
| 46> H -3.5079284553 -1.6009691346 0.5530026945
| 47> *
| 48>
| 49>                          ****END OF INPUT****

CARTESIAN COORDINATES (ANGSTROEM)
---------------------------------
  C      2.893225    2.706325    1.607072
  C      1.828943    2.131332    0.695190
  O      1.186462    0.990688    1.311264
  P      1.560405   -0.500372    0.959662
  S      0.671806   -1.822850    2.090244
  O      3.148145   -0.462905    1.122947
  C      3.943508   -1.645675    1.310134
  C      3.936404   -2.558034    0.100470
  S      1.337826   -0.730926   -1.152675
  C     -0.090599   -1.840785   -1.203944
  S     -1.601922   -1.133904   -1.940887
  P     -1.907681    0.557971   -0.701830
  S     -3.688404    1.357213   -0.836449
  O     -0.679946    1.515828   -1.027044
  C     -0.551257    2.109187   -2.337608
  C     -1.065340    3.534912   -2.334493
  O     -1.432336    0.130505    0.751256
  C     -2.399306   -0.214627    1.760524
  C     -3.001335   -1.583931    1.518099
  H      2.460126    2.957520    2.571505
  H      3.691525    1.984614    1.757526
  H      3.301267    3.603721    1.152476
  H      2.252694    1.824959   -0.265177
  H      1.018063    2.842693    0.527250
  H      4.942641   -1.256185    1.511042
  H      3.568653   -2.175156    2.191541
  H      4.664899   -3.348623    0.249378
  H      2.952585   -3.007286   -0.023908
  H      4.187426   -2.000382   -0.798177
  H     -0.297076   -2.183546   -0.187086
  H      0.158679   -2.674278   -1.856073
  H      0.516608    2.066387   -2.563594
  H     -1.098060    1.499493   -3.065604
  H     -0.528246    4.128228   -1.600029
  H     -0.922927    3.966718   -3.319760
  H     -2.125292    3.549913   -2.089525
  H     -1.832903   -0.185466    2.692653
  H     -3.177715    0.554594    1.770162
  H     -2.226213   -2.346764    1.534829
  H     -3.723333   -1.798100    2.299356
  H     -3.507928   -1.600969    0.553003

 Total Charge           Charge          ....    0
 Multiplicity           Mult            ....    1
 Number of Electrons    NEL             ....  202
 Basis Dimension        Dim             ....  334

ORBITAL ENERGIES
----------------

  NO   OCC          E(Eh)            E(eV)
   0   2.0000     -88.047413     -2395.8919
   1   2.0000     -88.043294     -2395.7798
   2   2.0000     -87.993661     -2394.4292
   3   2.0000     -87.985941     -2394.2192
   4   2.0000     -76.431347     -2079.8027
   5   2.0000     -76.424213     -2079.6086
   6   2.0000     -18.797655      -511.5102
   7   2.0000     -18.791466      -511.3418
   8   2.0000     -18.788511      -511.2614
   9   2.0000     -18.787778      -511.2414
  10   2.0000      -9.958604      -270.9874
  11   2.0000      -9.956889      -270.9407
  12   2.0000      -9.956499      -270.9301
  13   2.0000      -9.953253      -270.8418
  14   2.0000      -9.941159      -270.5127
  15   2.0000      -9.887579      -269.0547
  16   2.0000      -9.887377      -269.0492
  17   2.0000      -9.882110      -268.9059
  18   2.0000      -9.873595      -268.6742
  19   2.0000      -7.691930      -209.3080
  20   2.0000      -7.688409      -209.2123
  21   2.0000      -7.638686      -207.8592
  22   2.0000      -7.631107      -207.6530
  23   2.0000      -6.428589      -174.9308
  24   2.0000      -6.421866      -174.7479
  25   2.0000      -5.719813      -155.6440
  26   2.0000      -5.716564      -155.5556
  27   2.0000      -5.716557      -155.5554
  28   2.0000      -5.712523      -155.4457
  29   2.0000      -5.708792      -155.3441
  30   2.0000      -5.705543      -155.2557
  31   2.0000      -5.667592      -154.2230
  32   2.0000      -5.660051      -154.0178
  33   2.0000      -5.659347      -153.9987
  34   2.0000      -5.658711      -153.9813
  35   2.0000      -5.651808      -153.7935
  36   2.0000      -5.651165      -153.7760
  37   2.0000      -4.651368      -126.5702
  38   2.0000      -4.650156      -126.5372
  39   2.0000      -4.649119      -126.5090
  40   2.0000      -4.644231      -126.3759
  41   2.0000      -4.644082      -126.3719
  42   2.0000      -4.642068      -126.3171
  43   2.0000      -0.991298       -26.9746
  44   2.0000      -0.985144       -26.8071
  45   2.0000      -0.946249       -25.7487
  46   2.0000      -0.942703       -25.6523
  47   2.0000      -0.762568       -20.7505
  48   2.0000      -0.721270       -19.6267
  49   2.0000      -0.709047       -19.2941
  50   2.0000      -0.692748       -18.8506
  51   2.0000      -0.681149       -18.5350
  52   2.0000      -0.676582       -18.4107
  53   2.0000      -0.655532       -17.8379
  54   2.0000      -0.640748       -17.4357
  55   2.0000      -0.599547       -16.3145
  56   2.0000      -0.591008       -16.0821
  57   2.0000      -0.577287       -15.7088
  58   2.0000      -0.569754       -15.5038
  59   2.0000      -0.558836       -15.2067
  60   2.0000      -0.507101       -13.7989
  61   2.0000      -0.495594       -13.4858
  62   2.0000      -0.477416       -12.9912
  63   2.0000      -0.467286       -12.7155
  64   2.0000      -0.453963       -12.3530
  65   2.0000      -0.449886       -12.2420
  66   2.0000      -0.443314       -12.0632
  67   2.0000      -0.437173       -11.8961
  68   2.0000      -0.428936       -11.6719
  69   2.0000      -0.419142       -11.4054
  70   2.0000      -0.408857       -11.1256
  71   2.0000      -0.397511       -10.8168
  72   2.0000      -0.394760       -10.7420
  73   2.0000      -0.387277       -10.5383
  74   2.0000      -0.384499       -10.4627
  75   2.0000      -0.372288       -10.1305
  76   2.0000      -0.362243        -9.8571
  77   2.0000      -0.360092        -9.7986
  78   2.0000      -0.356547        -9.7021
  79   2.0000      -0.354169        -9.6374
  80   2.0000      -0.346882        -9.4391
  81   2.0000      -0.344741        -9.3809
  82   2.0000      -0.339996        -9.2518
  83   2.0000      -0.333066        -9.0632
  84   2.0000      -0.330228        -8.9860
  85   2.0000      -0.321155        -8.7391
  86   2.0000      -0.318354        -8.6628
  87   2.0000      -0.301730        -8.2105
  88   2.0000      -0.298521        -8.1232
  89   2.0000      -0.293444        -7.9850
  90   2.0000      -0.287196        -7.8150
  91   2.0000      -0.272294        -7.4095
  92   2.0000      -0.266694        -7.2571
  93   2.0000      -0.264662        -7.2018
  94   2.0000      -0.256754        -6.9866
  95   2.0000      -0.233696        -6.3592
  96   2.0000      -0.223224        -6.0742
  97   2.0000      -0.213770        -5.8170
  98   2.0000      -0.208502        -5.6736
  99   2.0000      -0.203281        -5.5316
 100   2.0000      -0.198434        -5.3997
 101   0.0000      -0.042121        -1.1462
 102   0.0000      -0.032111        -0.8738
 103   0.0000      -0.021368        -0.5815
 104   0.0000      -0.002692        -0.0732
 105   0.0000       0.011551         0.3143

MULLIKEN ATOMIC CHARGES
-----------------------
   0 C :   -0.278490
   1 C :   -0.027318
   2 O :   -0.348221
   3 P :    0.625279
   4 S :   -0.311200
   5 O :   -0.385693
   6 C :   -0.000206
   7 C :   -0.310690
   8 S :   -0.108762
   9 C :   -0.352222
  10 S :   -0.088812
  11 P :    0.581550
  12 S :   -0.315884
  13 O :   -0.356112
  14 C :   -0.014539
  15 C :   -0.284505
  16 O :   -0.363113
  17 C :    0.004585
  18 C :   -0.325566
  19 H :    0.120044
  20 H :    0.119614
  21 H :    0.107400
  22 H :    0.099906
  23 H :    0.122120
  24 H :    0.104095
  25 H :    0.113082
  26 H :    0.113368
  27 H :    0.119506
  28 H :    0.117687
  29 H :    0.207122
  30 H :    0.180868
  31 H :    0.102207
  32 H :    0.102473
  33 H :    0.111347
  34 H :    0.107040
  35 H :    0.128521
  36 H :    0.110832
  37 H :    0.112810
  38 H :    0.129013
  39 H :    0.109325
  40 H :    0.121538
Sum of atomic charges:   -0.0000000

LOEWDIN ATOMIC CHARGES
----------------------
   0 C :   -0.358242
   1 C :   -0.114627
   2 O :   -0.224794
   3 P :    0.585382
   4 S :   -0.286662
   5 O :   -0.251709
   6 C :   -0.117489
   7 C :   -0.370854
   8 S :    0.083598
   9 C :   -0.482419
  10 S :    0.073196
  11 P :    0.562749
  12 S :   -0.314919
  13 O :   -0.237755
  14 C :   -0.122962
  15 C :   -0.360920
  16 O :   -0.230571
  17 C :   -0.124442
  18 C :   -0.369568
  19 H :    0.129378
  20 H :    0.125728
  21 H :    0.128709
  22 H :    0.102688
  23 H :    0.120872
  24 H :    0.117983
  25 H :    0.112065
  26 H :    0.130858
  27 H :    0.119015
  28 H :    0.123006
  29 H :    0.122932
  30 H :    0.138519
  31 H :    0.110354
  32 H :    0.105672
  33 H :    0.122126
  34 H :    0.128601
  35 H :    0.126663
  36 H :    0.118147
  37 H :    0.108603
  38 H :    0.120842
  39 H :    0.130554
  40 H :    0.119692

  Mayer bond orders larger than 0.100000
B(  0-C ,  1-C ) :   1.1583 B(  0-C , 19-H ) :   0.9466 B(  0-C , 20-H ) :   0.9416
B(  0-C , 21-H ) :   0.9401 B(  1-C ,  2-O ) :   0.8918 B(  1-C , 22-H ) :   0.9160
B(  1-C , 23-H ) :   0.9267 B(  2-O ,  3-P ) :   1.1469 B(  3-P ,  4-S ) :   1.6019
B(  3-P ,  5-O ) :   1.0691 B(  3-P ,  8-S ) :   0.9526 B(  4-S ,  8-S ) :   0.1135
B(  4-S , 29-H ) :   0.1023 B(  5-O ,  6-C ) :   0.9122 B(  6-C ,  7-C ) :   1.1677
B(  6-C , 24-H ) :   0.9339 B(  6-C , 25-H ) :   0.9182 B(  7-C , 26-H ) :   0.9367
B(  7-C , 27-H ) :   0.9387 B(  7-C , 28-H ) :   0.9421 B(  8-S ,  9-C ) :   1.0127
B(  9-C , 10-S ) :   0.9752 B(  9-C , 29-H ) :   0.8490 B(  9-C , 30-H ) :   0.9096
B( 10-S , 11-P ) :   0.9719 B( 11-P , 12-S ) :   1.6497 B( 11-P , 13-O ) :   1.0921
B( 11-P , 16-O ) :   1.1082 B( 13-O , 14-C ) :   0.8972 B( 14-C , 15-C ) :   1.1677
B( 14-C , 31-H ) :   0.9290 B( 14-C , 32-H ) :   0.9085 B( 15-C , 33-H ) :   0.9481
B( 15-C , 34-H ) :   0.9399 B( 15-C , 35-H ) :   0.9318 B( 16-O , 17-C ) :   0.8921
B( 17-C , 18-C ) :   1.1690 B( 17-C , 36-H ) :   0.9197 B( 17-C , 37-H ) :   0.9139
B( 18-C , 38-H ) :   0.9351 B( 18-C , 39-H ) :   0.9392 B( 18-C , 40-H ) :   0.9358

Dispersion correction           -0.069760966
FINAL SINGLE POINT ENERGY     -2929.518688800527

DIPOLE MOMENT
-------------

Method             : SCF
Type of density    : Electron Density
Multiplicity       :   1
Irrep              :   0
Energy             : -2929.6381439986071200 Eh
Relativity type    :
Basis              : AO
                                X                 Y                 Z
Electronic contribution:    -12.020922772      -5.933205940      -3.015459558
Nuclear contribution   :     13.831019769       6.054451544       2.708569102
                        -----------------------------------------
Total Dipole Moment    :      1.810096998       0.121245605      -0.306890457
                        -----------------------------------------
Magnitude (a.u.)       :      1.839927550
Magnitude (Debye)      :      4.676724167

Rotational constants in cm-1:             0.011441             0.006152             0.005486
Rotational constants in MHz :           342.991453           184.434472           164.473988

                             ****ORCA TERMINATED NORMALLY****
TOTAL RUN TIME: 0 days 0 hours 0 minutes 22 seconds 494 msec
