                         Program Version 6.0.0  -   RELEASE  -
|  1> ! pbe def2-sv(p) def2/J RI DEFGRID1 loosescf d4 GCP(DFT/SV(P)) printgap
|  2> %output
|  3>     printlevel normal
|  4> end
|  5> * xyz 0 1
|  6> C 4.2466593932 1.2483055295 -2.4233201339
|  7> C 4.4769983464 0.691992598 -1.0326405419
|  8> O 3.5079006526 1.2407537126 -0.1046104012
|  9> P 2.2983974872 0.4151192652 0.4965288579
| 10> S 1.348240673 1.5254388055 1.7892154473
| 11> O 2.932332355 -0.9325373856 1.0768271239
| 12> C 2.9271513378 -1.2961128508 2.4739519214
| 13> C 1.9641438381 -2.4378715736 2.730427583
| 14> S 1.3269296283 -0.3135688562 -1.2451906826
| 15> C 0.3886863564 -1.6854459797 -0.5185310759
| 16> S -0.8649964996 -1.1555078719 0.6742332311
| 17> P -2.1210540998 -0.1319161666 -0.711660412
| 18> S -2.1458066692 -0.8873042104 -2.5132568325
| 19> O -1.6951829084 1.3835105986 -0.7049818852
| 20> C -1.8085664915 2.2472491349 0.4529481388
| 21> C -3.0967056315 3.0402146618 0.4023477161
| 22> O -3.5129608284 -0.1140053611 0.0515614374
| 23> C -4.2839944871 -1.3244861063 0.2096902253
| 24> C -5.691338677 -0.9298366687 0.6079819149
| 25> H 5.0227672507 0.8808872468 -3.0871308041
| 26> H 3.2758833908 0.9356709859 -2.803070405
| 27> H 4.2779699991 2.3340780052 -2.3991002282
| 28> H 5.4455466377 1.0041545857 -0.6384546025
| 29> H 4.4066949297 -0.3979043574 -1.0214355842
| 30> H 3.9558300087 -1.5860303582 2.6947178997
| 31> H 2.6558105875 -0.4173936613 3.0673656559
| 32> H 2.2155031094 -3.2937662429 2.1097661685
| 33> H 2.0336203199 -2.7257918649 3.774395679
| 34> H 0.941692236 -2.126904239 2.5203627723
| 35> H 1.063639229 -2.3601792463 0.0009215949
| 36> H -0.1032588192 -2.1773018441 -1.3586657975
| 37> H -1.7431759175 1.6422473604 1.3613848352
| 38> H -0.9330050812 2.8974810286 0.3988495593
| 39> H -3.1493127166 3.6024016105 -0.5260732659
| 40> H -3.952567224 2.3730360266 0.459614915
| 41> H -3.1183591817 3.7281626644 1.2416283114
| 42> H -4.2718777818 -1.869690113 -0.7396794475
| 43> H -3.8056435453 -1.9342441279 0.980861594
| 44> H -6.1429042066 -0.3195523099 -0.169198513
| 45> H -6.2850302121 -1.8270847144 0.7478381413
| 46> H -5.6712121001 -0.3641193349 1.5350631475
| 47> *
| 48>
| 49>                          ****END OF INPUT****

CARTESIAN COORDINATES (ANGSTROEM)
---------------------------------
  C      4.246659    1.248306   -2.423320
  C      4.476998    0.691993   -1.032641
  O      3.507901    1.240754   -0.104610
  P      2.298397    0.415119    0.496529
  S      1.348241    1.525439    1.789215
  O      2.932332   -0.932537    1.076827
  C      2.927151   -1.296113    2.473952
  C      1.964144   -2.437872    2.730428
  S      1.326930   -0.313569   -1.245191
  C      0.388686   -1.685446   -0.518531
  S     -0.864996   -1.155508    0.674233
  P     -2.121054   -0.131916   -0.711660
  S     -2.145807   -0.887304   -2.513257
  O     -1.695183    1.383511   -0.704982
  C     -1.808566    2.247249    0.452948
  C     -3.096706    3.040215    0.402348
  O     -3.512961   -0.114005    0.051561
  C     -4.283994   -1.324486    0.209690
  C     -5.691339   -0.929837    0.607982
  H      5.022767    0.880887   -3.087131
  H      3.275883    0.935671   -2.803070
  H      4.277970    2.334078   -2.399100
  H      5.445547    1.004155   -0.638455
  H      4.406695   -0.397904   -1.021436
  H      3.955830   -1.586030    2.694718
  H      2.655811   -0.417394    3.067366
  H      2.215503   -3.293766    2.109766
  H      2.033620   -2.725792    3.774396
  H      0.941692   -2.126904    2.520363
  H      1.063639   -2.360179    0.000922
  H     -0.103259   -2.177302   -1.358666
  H     -1.743176    1.642247    1.361385
  H     -0.933005    2.897481    0.398850
  H     -3.149313    3.602402   -0.526073
  H     -3.952567    2.373036    0.459615
  H     -3.118359    3.728163    1.241628
  H     -4.271878   -1.869690   -0.739679
  H     -3.805644   -1.934244    0.980862
  H     -6.142904   -0.319552   -0.169199
  H     -6.285030   -1.827085    0.747838
  H     -5.671212   -0.364119    1.535063

 Total Charge           Charge          ....    0
 Multiplicity           Mult            ....    1
 Number of Electrons    NEL             ....  202
 Basis Dimension        Dim             ....  334

ORBITAL ENERGIES
----------------

  NO   OCC          E(Eh)            E(eV)
   0   2.0000     -88.041633     -2395.7346
   1   2.0000     -88.040775     -2395.7113
   2   2.0000     -87.982753     -2394.1324
   3   2.0000     -87.981931     -2394.1101
   4   2.0000     -76.425134     -2079.6336
   5   2.0000     -76.423568     -2079.5910
   6   2.0000     -18.795365      -511.4479
   7   2.0000     -18.795334      -511.4470
   8   2.0000     -18.790506      -511.3157
   9   2.0000     -18.785461      -511.1784
  10   2.0000      -9.956198      -270.9219
  11   2.0000      -9.956055      -270.9180
  12   2.0000      -9.954804      -270.8840
  13   2.0000      -9.954697      -270.8811
  14   2.0000      -9.942993      -270.5626
  15   2.0000      -9.891204      -269.1533
  16   2.0000      -9.890364      -269.1305
  17   2.0000      -9.886480      -269.0248
  18   2.0000      -9.877581      -268.7826
  19   2.0000      -7.686484      -209.1599
  20   2.0000      -7.685462      -209.1320
  21   2.0000      -7.628096      -207.5711
  22   2.0000      -7.627279      -207.5488
  23   2.0000      -6.422767      -174.7724
  24   2.0000      -6.421202      -174.7298
  25   2.0000      -5.714460      -155.4984
  26   2.0000      -5.713214      -155.4645
  27   2.0000      -5.710916      -155.4019
  28   2.0000      -5.710026      -155.3777
  29   2.0000      -5.703459      -155.1990
  30   2.0000      -5.702580      -155.1751
  31   2.0000      -5.657112      -153.9378
  32   2.0000      -5.656266      -153.9148
  33   2.0000      -5.648562      -153.7052
  34   2.0000      -5.648263      -153.6970
  35   2.0000      -5.647686      -153.6813
  36   2.0000      -5.647463      -153.6753
  37   2.0000      -4.645871      -126.4206
  38   2.0000      -4.644339      -126.3789
  39   2.0000      -4.644082      -126.3719
  40   2.0000      -4.642947      -126.3410
  41   2.0000      -4.642940      -126.3408
  42   2.0000      -4.641391      -126.2987
  43   2.0000      -0.986984       -26.8572
  44   2.0000      -0.984908       -26.8007
  45   2.0000      -0.945050       -25.7161
  46   2.0000      -0.942467       -25.6458
  47   2.0000      -0.763018       -20.7628
  48   2.0000      -0.721750       -19.6398
  49   2.0000      -0.711013       -19.3477
  50   2.0000      -0.693903       -18.8821
  51   2.0000      -0.689156       -18.7529
  52   2.0000      -0.671513       -18.2728
  53   2.0000      -0.647976       -17.6323
  54   2.0000      -0.637057       -17.3352
  55   2.0000      -0.592341       -16.1184
  56   2.0000      -0.585782       -15.9399
  57   2.0000      -0.576091       -15.6762
  58   2.0000      -0.566427       -15.4133
  59   2.0000      -0.564547       -15.3621
  60   2.0000      -0.510471       -13.8906
  61   2.0000      -0.504188       -13.7196
  62   2.0000      -0.479141       -13.0381
  63   2.0000      -0.476544       -12.9674
  64   2.0000      -0.458504       -12.4765
  65   2.0000      -0.445001       -12.1091
  66   2.0000      -0.442905       -12.0521
  67   2.0000      -0.435096       -11.8396
  68   2.0000      -0.430029       -11.7017
  69   2.0000      -0.415036       -11.2937
  70   2.0000      -0.405969       -11.0470
  71   2.0000      -0.391665       -10.6577
  72   2.0000      -0.385567       -10.4918
  73   2.0000      -0.380887       -10.3645
  74   2.0000      -0.378586       -10.3018
  75   2.0000      -0.377967       -10.2850
  76   2.0000      -0.367555       -10.0017
  77   2.0000      -0.359382        -9.7793
  78   2.0000      -0.357829        -9.7370
  79   2.0000      -0.353283        -9.6133
  80   2.0000      -0.352055        -9.5799
  81   2.0000      -0.345522        -9.4021
  82   2.0000      -0.341360        -9.2889
  83   2.0000      -0.339911        -9.2494
  84   2.0000      -0.334894        -9.1129
  85   2.0000      -0.319523        -8.6947
  86   2.0000      -0.311049        -8.4641
  87   2.0000      -0.303030        -8.2459
  88   2.0000      -0.300611        -8.1800
  89   2.0000      -0.287577        -7.8254
  90   2.0000      -0.286227        -7.7886
  91   2.0000      -0.272908        -7.4262
  92   2.0000      -0.268012        -7.2930
  93   2.0000      -0.266618        -7.2550
  94   2.0000      -0.257671        -7.0116
  95   2.0000      -0.240168        -6.5353
  96   2.0000      -0.218227        -5.9383
  97   2.0000      -0.204711        -5.5705
  98   2.0000      -0.203192        -5.5291
  99   2.0000      -0.197625        -5.3777
 100   2.0000      -0.190221        -5.1762
 101   0.0000      -0.046185        -1.2568
 102   0.0000      -0.024020        -0.6536
 103   0.0000      -0.005432        -0.1478
 104   0.0000       0.002096         0.0570
 105   0.0000       0.013851         0.3769

MULLIKEN ATOMIC CHARGES
-----------------------
   0 C :   -0.293682
   1 C :   -0.021083
   2 O :   -0.361885
   3 P :    0.610446
   4 S :   -0.307215
   5 O :   -0.395531
   6 C :   -0.008946
   7 C :   -0.317457
   8 S :   -0.083294
   9 C :   -0.368043
  10 S :   -0.112878
  11 P :    0.622677
  12 S :   -0.320191
  13 O :   -0.347697
  14 C :   -0.018804
  15 C :   -0.285796
  16 O :   -0.384517
  17 C :   -0.012031
  18 C :   -0.283307
  19 H :    0.110619
  20 H :    0.132123
  21 H :    0.122037
  22 H :    0.109418
  23 H :    0.107304
  24 H :    0.103185
  25 H :    0.115520
  26 H :    0.120015
  27 H :    0.115440
  28 H :    0.134179
  29 H :    0.189370
  30 H :    0.195151
  31 H :    0.106970
  32 H :    0.120745
  33 H :    0.116880
  34 H :    0.117258
  35 H :    0.108789
  36 H :    0.106168
  37 H :    0.103556
  38 H :    0.123774
  39 H :    0.113315
  40 H :    0.117419
Sum of atomic charges:   -0.0000000

LOEWDIN ATOMIC CHARGES
----------------------
   0 C :   -0.358948
   1 C :   -0.118535
   2 O :   -0.243110
   3 P :    0.562472
   4 S :   -0.300123
   5 O :   -0.260371
   6 C :   -0.119078
   7 C :   -0.362639
   8 S :    0.093535
   9 C :   -0.482273
  10 S :    0.067223
  11 P :    0.571246
  12 S :   -0.313384
  13 O :   -0.226651
  14 C :   -0.116082
  15 C :   -0.360509
  16 O :   -0.247429
  17 C :   -0.120808
  18 C :   -0.350685
  19 H :    0.130449
  20 H :    0.122280
  21 H :    0.129930
  22 H :    0.120683
  23 H :    0.108740
  24 H :    0.116753
  25 H :    0.109145
  26 H :    0.123563
  27 H :    0.133735
  28 H :    0.118959
  29 H :    0.130117
  30 H :    0.130381
  31 H :    0.105519
  32 H :    0.119960
  33 H :    0.127577
  34 H :    0.122741
  35 H :    0.129285
  36 H :    0.110140
  37 H :    0.108226
  38 H :    0.129897
  39 H :    0.131607
  40 H :    0.126462

  Mayer bond orders larger than 0.100000
B(  0-C ,  1-C ) :   1.1649 B(  0-C , 19-H ) :   0.9395 B(  0-C , 20-H ) :   0.9388
B(  0-C , 21-H ) :   0.9460 B(  1-C ,  2-O ) :   0.8943 B(  1-C , 22-H ) :   0.9327
B(  1-C , 23-H ) :   0.9164 B(  2-O ,  3-P ) :   1.1357 B(  3-P ,  4-S ) :   1.6547
B(  3-P ,  5-O ) :   1.0573 B(  3-P ,  8-S ) :   0.9656 B(  4-S ,  8-S ) :   0.1032
B(  5-O ,  6-C ) :   0.9067 B(  6-C ,  7-C ) :   1.1705 B(  6-C , 24-H ) :   0.9326
B(  6-C , 25-H ) :   0.9005 B(  7-C , 26-H ) :   0.9405 B(  7-C , 27-H ) :   0.9366
B(  7-C , 28-H ) :   0.9312 B(  8-S ,  9-C ) :   0.9970 B(  9-C , 10-S ) :   1.0157
B(  9-C , 29-H ) :   0.8911 B(  9-C , 30-H ) :   0.8749 B( 10-S , 11-P ) :   0.9391
B( 10-S , 12-S ) :   0.1076 B( 11-P , 12-S ) :   1.6419 B( 11-P , 13-O ) :   1.1615
B( 11-P , 16-O ) :   1.0767 B( 13-O , 14-C ) :   0.8828 B( 14-C , 15-C ) :   1.1557
B( 14-C , 31-H ) :   0.9185 B( 14-C , 32-H ) :   0.9271 B( 15-C , 33-H ) :   0.9462
B( 15-C , 34-H ) :   0.9414 B( 15-C , 35-H ) :   0.9408 B( 16-O , 17-C ) :   0.9048
B( 17-C , 18-C ) :   1.1598 B( 17-C , 36-H ) :   0.9102 B( 17-C , 37-H ) :   0.9269
B( 18-C , 38-H ) :   0.9505 B( 18-C , 39-H ) :   0.9416 B( 18-C , 40-H ) :   0.9504

Dispersion correction           -0.064276144
FINAL SINGLE POINT ENERGY     -2929.519580595113

DIPOLE MOMENT
-------------

Method             : SCF
Type of density    : Electron Density
Multiplicity       :   1
Irrep              :   0
Energy             : -2929.6397295642050267 Eh
Relativity type    :
Basis              : AO
                                X                 Y                 Z
Electronic contribution:      4.217901913       1.179267200      -6.964307221
Nuclear contribution   :     -3.771903882      -2.083696152       7.880493463
                        -----------------------------------------
Total Dipole Moment    :      0.445998031      -0.904428952       0.916186242
                        -----------------------------------------
Magnitude (a.u.)       :      1.362462184
Magnitude (Debye)      :      3.463103655

Rotational constants in cm-1:             0.011987             0.004790             0.004613
Rotational constants in MHz :           359.369451           143.604886           138.303310

                             ****ORCA TERMINATED NORMALLY****
TOTAL RUN TIME: 0 days 0 hours 0 minutes 20 seconds 714 msec
