                         Program Version 6.0.0  -   RELEASE  -
|  1> ! pbe def2-sv(p) def2/J RI DEFGRID1 loosescf d4 GCP(DFT/SV(P)) printgap
|  2> %output
|  3>     printlevel normal
|  4> end
|  5> * xyz 0 1
|  6> C 1.4483301627 -0.9809953102 -3.026929951
|  7> C 2.0944249605 -1.5473888763 -1.7785498562
|  8> O 2.5743405308 -0.4434212725 -0.9709809523
|  9> P 2.5628909204 -0.4567090261 0.6055230261
| 10> S 3.3486819257 1.2038925228 1.2784944926
| 11> O 3.3007758711 -1.8316606695 0.9056065664
| 12> C 3.2656530142 -2.545247856 2.1573785026
| 13> C 3.6788265246 -1.6870747337 3.3342026335
| 14> S 0.55971061 -0.847907533 1.2250025997
| 15> C 0.0138870162 0.8699529942 1.208741424
| 16> S -0.1598432506 1.5388067032 -0.4795395399
| 17> P -2.1883095135 1.0195414898 -0.7887259818
| 18> S -2.8727161764 1.2799530252 -2.6041214598
| 19> O -2.8539078952 1.8765260117 0.3669458796
| 20> C -4.2545919274 2.2254888464 0.3357734113
| 21> C -5.1407674692 1.0098458513 0.5049526442
| 22> O -2.3367745653 -0.456698118 -0.2131459913
| 23> C -2.0782318215 -1.6198577292 -1.0239448939
| 24> C -2.3722583227 -2.8394993308 -0.175725564
| 25> H 1.0957318935 -1.795738368 -3.6513551483
| 26> H 0.6089313544 -0.3369210918 -2.769788175
| 27> H 2.1693840367 -0.3874860058 -3.5813007444
| 28> H 2.9591582722 -2.1662373519 -2.0239362714
| 29> H 1.3864703081 -2.1372243298 -1.1877119445
| 30> H 2.2534242107 -2.933678096 2.2980851238
| 31> H 3.9629362465 -3.369845936 1.9999237841
| 32> H 2.9632310007 -0.8794519282 3.4814104798
| 33> H 3.7144090303 -2.2972209236 4.2309271555
| 34> H 4.657597109 -1.2469617862 3.1585242617
| 35> H 0.7701836177 1.4831567894 1.7008199698
| 36> H -0.9423042813 0.9204920484 1.7209602011
| 37> H -4.36482618 2.9302222953 1.1610132452
| 38> H -4.4640349718 2.7276778981 -0.6138263096
| 39> H -4.8669555925 0.4651252739 1.4045620104
| 40> H -6.1763801339 1.327586519 0.5748133906
| 41> H -5.0300596408 0.3519459687 -0.3559111519
| 42> H -2.7155157537 -1.5693170956 -1.912140111
| 43> H -1.03272663 -1.602995951 -1.3424743351
| 44> H -2.1839020851 -3.7334948713 -0.7605802292
| 45> H -1.7312123455 -2.8370543584 0.7019483978
| 46> H -3.4099757263 -2.8314450857 0.1435631213
| 47> *
| 48>
| 49>                          ****END OF INPUT****

CARTESIAN COORDINATES (ANGSTROEM)
---------------------------------
  C      1.448330   -0.980995   -3.026930
  C      2.094425   -1.547389   -1.778550
  O      2.574341   -0.443421   -0.970981
  P      2.562891   -0.456709    0.605523
  S      3.348682    1.203893    1.278494
  O      3.300776   -1.831661    0.905607
  C      3.265653   -2.545248    2.157379
  C      3.678827   -1.687075    3.334203
  S      0.559711   -0.847908    1.225003
  C      0.013887    0.869953    1.208741
  S     -0.159843    1.538807   -0.479540
  P     -2.188310    1.019541   -0.788726
  S     -2.872716    1.279953   -2.604121
  O     -2.853908    1.876526    0.366946
  C     -4.254592    2.225489    0.335773
  C     -5.140767    1.009846    0.504953
  O     -2.336775   -0.456698   -0.213146
  C     -2.078232   -1.619858   -1.023945
  C     -2.372258   -2.839499   -0.175726
  H      1.095732   -1.795738   -3.651355
  H      0.608931   -0.336921   -2.769788
  H      2.169384   -0.387486   -3.581301
  H      2.959158   -2.166237   -2.023936
  H      1.386470   -2.137224   -1.187712
  H      2.253424   -2.933678    2.298085
  H      3.962936   -3.369846    1.999924
  H      2.963231   -0.879452    3.481410
  H      3.714409   -2.297221    4.230927
  H      4.657597   -1.246962    3.158524
  H      0.770184    1.483157    1.700820
  H     -0.942304    0.920492    1.720960
  H     -4.364826    2.930222    1.161013
  H     -4.464035    2.727678   -0.613826
  H     -4.866956    0.465125    1.404562
  H     -6.176380    1.327587    0.574813
  H     -5.030060    0.351946   -0.355911
  H     -2.715516   -1.569317   -1.912140
  H     -1.032727   -1.602996   -1.342474
  H     -2.183902   -3.733495   -0.760580
  H     -1.731212   -2.837054    0.701948
  H     -3.409976   -2.831445    0.143563

 Total Charge           Charge          ....    0
 Multiplicity           Mult            ....    1
 Number of Electrons    NEL             ....  202
 Basis Dimension        Dim             ....  334

ORBITAL ENERGIES
----------------

  NO   OCC          E(Eh)            E(eV)
   0   2.0000     -88.050562     -2395.9776
   1   2.0000     -88.042213     -2395.7504
   2   2.0000     -87.990350     -2394.3392
   3   2.0000     -87.986681     -2394.2393
   4   2.0000     -76.429832     -2079.7615
   5   2.0000     -76.427982     -2079.7111
   6   2.0000     -18.799864      -511.5703
   7   2.0000     -18.796721      -511.4848
   8   2.0000     -18.794914      -511.4356
   9   2.0000     -18.791946      -511.3549
  10   2.0000      -9.963867      -271.1306
  11   2.0000      -9.957696      -270.9627
  12   2.0000      -9.956684      -270.9352
  13   2.0000      -9.956630      -270.9337
  14   2.0000      -9.955922      -270.9144
  15   2.0000      -9.891897      -269.1722
  16   2.0000      -9.888047      -269.0674
  17   2.0000      -9.887380      -269.0493
  18   2.0000      -9.884443      -268.9694
  19   2.0000      -7.695096      -209.3942
  20   2.0000      -7.687233      -209.1803
  21   2.0000      -7.635487      -207.7722
  22   2.0000      -7.631984      -207.6768
  23   2.0000      -6.427111      -174.8906
  24   2.0000      -6.425942      -174.8588
  25   2.0000      -5.722675      -155.7219
  26   2.0000      -5.719533      -155.6364
  27   2.0000      -5.715422      -155.5245
  28   2.0000      -5.712526      -155.4457
  29   2.0000      -5.711585      -155.4201
  30   2.0000      -5.704058      -155.2153
  31   2.0000      -5.664397      -154.1361
  32   2.0000      -5.661065      -154.0454
  33   2.0000      -5.656092      -153.9101
  34   2.0000      -5.655702      -153.8995
  35   2.0000      -5.652491      -153.8121
  36   2.0000      -5.652048      -153.8000
  37   2.0000      -4.649959      -126.5318
  38   2.0000      -4.649144      -126.5096
  39   2.0000      -4.648328      -126.4874
  40   2.0000      -4.647920      -126.4763
  41   2.0000      -4.647111      -126.4543
  42   2.0000      -4.646320      -126.4328
  43   2.0000      -0.992145       -26.9976
  44   2.0000      -0.990978       -26.9659
  45   2.0000      -0.949722       -25.8432
  46   2.0000      -0.947489       -25.7825
  47   2.0000      -0.767124       -20.8745
  48   2.0000      -0.726810       -19.7775
  49   2.0000      -0.715284       -19.4639
  50   2.0000      -0.693752       -18.8780
  51   2.0000      -0.692635       -18.8476
  52   2.0000      -0.676760       -18.4156
  53   2.0000      -0.655307       -17.8318
  54   2.0000      -0.640923       -17.4404
  55   2.0000      -0.600438       -16.3387
  56   2.0000      -0.593356       -16.1460
  57   2.0000      -0.574639       -15.6367
  58   2.0000      -0.569848       -15.5063
  59   2.0000      -0.567668       -15.4470
  60   2.0000      -0.511604       -13.9215
  61   2.0000      -0.507372       -13.8063
  62   2.0000      -0.481530       -13.1031
  63   2.0000      -0.478171       -13.0117
  64   2.0000      -0.467175       -12.7125
  65   2.0000      -0.452230       -12.3058
  66   2.0000      -0.441572       -12.0158
  67   2.0000      -0.437335       -11.9005
  68   2.0000      -0.430637       -11.7182
  69   2.0000      -0.420483       -11.4419
  70   2.0000      -0.419619       -11.4184
  71   2.0000      -0.402166       -10.9435
  72   2.0000      -0.400016       -10.8850
  73   2.0000      -0.388645       -10.5756
  74   2.0000      -0.384367       -10.4591
  75   2.0000      -0.369790       -10.0625
  76   2.0000      -0.367357        -9.9963
  77   2.0000      -0.361753        -9.8438
  78   2.0000      -0.356192        -9.6925
  79   2.0000      -0.351911        -9.5760
  80   2.0000      -0.351560        -9.5664
  81   2.0000      -0.350329        -9.5329
  82   2.0000      -0.346290        -9.4230
  83   2.0000      -0.342877        -9.3302
  84   2.0000      -0.335193        -9.1211
  85   2.0000      -0.321627        -8.7519
  86   2.0000      -0.317688        -8.6447
  87   2.0000      -0.304049        -8.2736
  88   2.0000      -0.301587        -8.2066
  89   2.0000      -0.297715        -8.1012
  90   2.0000      -0.291581        -7.9343
  91   2.0000      -0.280269        -7.6265
  92   2.0000      -0.278156        -7.5690
  93   2.0000      -0.271504        -7.3880
  94   2.0000      -0.257517        -7.0074
  95   2.0000      -0.241317        -6.5666
  96   2.0000      -0.220857        -6.0098
  97   2.0000      -0.210278        -5.7219
  98   2.0000      -0.206072        -5.6075
  99   2.0000      -0.205443        -5.5904
 100   2.0000      -0.201411        -5.4807
 101   0.0000      -0.043982        -1.1968
 102   0.0000      -0.025711        -0.6996
 103   0.0000      -0.018345        -0.4992
 104   0.0000      -0.000274        -0.0075
 105   0.0000       0.007347         0.1999

MULLIKEN ATOMIC CHARGES
-----------------------
   0 C :   -0.291739
   1 C :   -0.017400
   2 O :   -0.347889
   3 P :    0.592479
   4 S :   -0.298806
   5 O :   -0.381897
   6 C :   -0.010056
   7 C :   -0.308711
   8 S :   -0.116500
   9 C :   -0.360644
  10 S :   -0.045287
  11 P :    0.598849
  12 S :   -0.320844
  13 O :   -0.377573
  14 C :   -0.004951
  15 C :   -0.308917
  16 O :   -0.386493
  17 C :   -0.030270
  18 C :   -0.281985
  19 H :    0.105514
  20 H :    0.135933
  21 H :    0.123130
  22 H :    0.108648
  23 H :    0.099637
  24 H :    0.110345
  25 H :    0.110568
  26 H :    0.124809
  27 H :    0.112413
  28 H :    0.129158
  29 H :    0.198209
  30 H :    0.190844
  31 H :    0.108078
  32 H :    0.116006
  33 H :    0.115406
  34 H :    0.114154
  35 H :    0.123592
  36 H :    0.110828
  37 H :    0.117827
  38 H :    0.109450
  39 H :    0.117641
  40 H :    0.116444
Sum of atomic charges:    0.0000000

LOEWDIN ATOMIC CHARGES
----------------------
   0 C :   -0.357108
   1 C :   -0.115067
   2 O :   -0.232349
   3 P :    0.565356
   4 S :   -0.298066
   5 O :   -0.246999
   6 C :   -0.114182
   7 C :   -0.368702
   8 S :    0.072319
   9 C :   -0.481913
  10 S :    0.103613
  11 P :    0.564035
  12 S :   -0.321382
  13 O :   -0.246961
  14 C :   -0.114698
  15 C :   -0.366036
  16 O :   -0.249531
  17 C :   -0.124820
  18 C :   -0.351770
  19 H :    0.128007
  20 H :    0.122172
  21 H :    0.132188
  22 H :    0.117359
  23 H :    0.096733
  24 H :    0.107064
  25 H :    0.122014
  26 H :    0.121298
  27 H :    0.130643
  28 H :    0.131733
  29 H :    0.130610
  30 H :    0.134848
  31 H :    0.120200
  32 H :    0.113862
  33 H :    0.125408
  34 H :    0.131507
  35 H :    0.122332
  36 H :    0.110755
  37 H :    0.107096
  38 H :    0.129914
  39 H :    0.121328
  40 H :    0.127191

  Mayer bond orders larger than 0.100000
B(  0-C ,  1-C ) :   1.1660 B(  0-C , 19-H ) :   0.9405 B(  0-C , 20-H ) :   0.9290
B(  0-C , 21-H ) :   0.9454 B(  1-C ,  2-O ) :   0.8874 B(  1-C , 22-H ) :   0.9309
B(  1-C , 23-H ) :   0.9072 B(  2-O ,  3-P ) :   1.1432 B(  3-P ,  4-S ) :   1.6517
B(  3-P ,  5-O ) :   1.0874 B(  3-P ,  8-S ) :   0.9322 B(  4-S ,  8-S ) :   0.1093
B(  5-O ,  6-C ) :   0.9122 B(  6-C ,  7-C ) :   1.1676 B(  6-C , 24-H ) :   0.9267
B(  6-C , 25-H ) :   0.9331 B(  7-C , 26-H ) :   0.9323 B(  7-C , 27-H ) :   0.9349
B(  7-C , 28-H ) :   0.9431 B(  8-S ,  9-C ) :   1.0018 B(  9-C , 10-S ) :   0.9816
B(  9-C , 29-H ) :   0.8650 B(  9-C , 30-H ) :   0.8912 B( 10-S , 11-P ) :   0.9889
B( 11-P , 12-S ) :   1.6445 B( 11-P , 13-O ) :   1.1042 B( 11-P , 16-O ) :   1.0731
B( 13-O , 14-C ) :   0.9040 B( 14-C , 15-C ) :   1.1636 B( 14-C , 31-H ) :   0.9354
B( 14-C , 32-H ) :   0.9183 B( 15-C , 33-H ) :   0.9461 B( 15-C , 34-H ) :   0.9377
B( 15-C , 35-H ) :   0.9345 B( 16-O , 17-C ) :   0.8951 B( 17-C , 18-C ) :   1.1627
B( 17-C , 36-H ) :   0.9164 B( 17-C , 37-H ) :   0.9074 B( 18-C , 38-H ) :   0.9419
B( 18-C , 39-H ) :   0.9455 B( 18-C , 40-H ) :   0.9501

Dispersion correction           -0.064510443
FINAL SINGLE POINT ENERGY     -2929.521090535421

DIPOLE MOMENT
-------------

Method             : SCF
Type of density    : Electron Density
Multiplicity       :   1
Irrep              :   0
Energy             : -2929.6420829129106096 Eh
Relativity type    :
Basis              : AO
                                X                 Y                 Z
Electronic contribution:      9.296521522      17.361756574      -3.402232636
Nuclear contribution   :    -10.084786678     -19.294779108       4.288668593
                        -----------------------------------------
Total Dipole Moment    :     -0.788265156      -1.933022534       0.886435957
                        -----------------------------------------
Magnitude (a.u.)       :      2.267974157
Magnitude (Debye)      :      5.764732177

Rotational constants in cm-1:             0.013106             0.004502             0.004416
Rotational constants in MHz :           392.911680           134.954285           132.387003

                             ****ORCA TERMINATED NORMALLY****
TOTAL RUN TIME: 0 days 0 hours 0 minutes 21 seconds 481 msec
