                         Program Version 6.0.1  -  RELEASE   -
|  1> ! pbe def2-sv(p) def2/J RI DEFGRID1 loosescf d4 GCP(DFT/SV(P)) printgap
|  2> %output
|  3>     printlevel normal
|  4> end
|  5> * xyz 0 1
|  6> C 2.3395177471 -3.3388926784 -2.6528647902
|  7> C 3.2773221626 -3.0438683495 -1.4928911262
|  8> O 3.0241246573 -1.726432988 -0.9684906639
|  9> C 2.148019984 -1.5938551796 0.0042241509
| 10> O 1.5833319535 -2.5094724145 0.5606785793
| 11> C 1.8995258892 -0.1309573092 0.3245134702
| 12> C 1.0456335162 0.4671188891 -0.7997476048
| 13> H 1.6372661992 0.5482156236 -1.7145976805
| 14> C 0.5044512198 1.8303770591 -0.411863619
| 15> O -0.6882056579 2.0599733222 -0.3489634019
| 16> O 1.4543775209 2.6828355219 -0.163674846
| 17> C 1.0929077158 3.9937036509 0.3288715472
| 18> C 0.9535806715 3.9676099286 1.8418703751
| 19> S -0.3756819046 -0.5925847158 -1.2451875896
| 20> P -1.7456716357 -0.1593268414 0.3181424186
| 21> S -1.1742538677 0.4643689804 2.0966983566
| 22> O -3.0147062508 0.5285363975 -0.3358681755
| 23> C -3.4697478042 1.8571722559 -0.0701214478
| 24> O -2.4404143618 -1.6031477802 0.4112932927
| 25> C -1.7828838626 -2.6926579839 1.0622008388
| 26> H 2.5497648133 -4.3289359004 -3.0432812136
| 27> H 1.305323531 -3.3009564915 -2.3168441856
| 28> H 2.4747496483 -2.605086136 -3.4419814683
| 29> H 4.3177597778 -3.0197215407 -1.8170951905
| 30> H 3.1441808566 -3.7721182654 -0.6881215662
| 31> H 2.8443231825 0.4087168888 0.3759715283
| 32> H 1.3760926625 -0.0687178683 1.2804752079
| 33> H 1.9139715881 4.6363555021 0.01247596
| 34> H 0.15735683 4.3007247499 -0.144868333
| 35> H 0.6806158392 4.9562425597 2.1950556139
| 36> H 0.1799317977 3.2612115396 2.1390946987
| 37> H 1.890407646 3.6682085567 2.3025606708
| 38> H -3.1218516222 2.5191045773 -0.8608024501
| 39> H -3.0918003194 2.2039952263 0.8929114679
| 40> H -4.556175007 1.8044356832 -0.0555951948
| 41> H -1.6945802527 -2.4861773015 2.1300726902
| 42> H -0.7858071035 -2.8585235367 0.6492149135
| 43> H -2.4143448359 -3.5601402445 0.8915601892
| 44> *
| 45>
| 46>                          ****END OF INPUT****

CARTESIAN COORDINATES (ANGSTROEM)
---------------------------------
  C      2.339518   -3.338893   -2.652865
  C      3.277322   -3.043868   -1.492891
  O      3.024125   -1.726433   -0.968491
  C      2.148020   -1.593855    0.004224
  O      1.583332   -2.509472    0.560679
  C      1.899526   -0.130957    0.324513
  C      1.045634    0.467119   -0.799748
  H      1.637266    0.548216   -1.714598
  C      0.504451    1.830377   -0.411864
  O     -0.688206    2.059973   -0.348963
  O      1.454378    2.682836   -0.163675
  C      1.092908    3.993704    0.328872
  C      0.953581    3.967610    1.841870
  S     -0.375682   -0.592585   -1.245188
  P     -1.745672   -0.159327    0.318142
  S     -1.174254    0.464369    2.096698
  O     -3.014706    0.528536   -0.335868
  C     -3.469748    1.857172   -0.070121
  O     -2.440414   -1.603148    0.411293
  C     -1.782884   -2.692658    1.062201
  H      2.549765   -4.328936   -3.043281
  H      1.305324   -3.300956   -2.316844
  H      2.474750   -2.605086   -3.441981
  H      4.317760   -3.019722   -1.817095
  H      3.144181   -3.772118   -0.688122
  H      2.844323    0.408717    0.375972
  H      1.376093   -0.068718    1.280475
  H      1.913972    4.636356    0.012476
  H      0.157357    4.300725   -0.144868
  H      0.680616    4.956243    2.195056
  H      0.179932    3.261212    2.139095
  H      1.890408    3.668209    2.302561
  H     -3.121852    2.519105   -0.860802
  H     -3.091800    2.203995    0.892911
  H     -4.556175    1.804436   -0.055595
  H     -1.694580   -2.486177    2.130073
  H     -0.785807   -2.858524    0.649215
  H     -2.414345   -3.560140    0.891560

 Total Charge           Charge          ....    0
 Multiplicity           Mult            ....    1
 Number of Electrons    NEL             ....  174
 Basis Dimension        Dim             ....  316

ORBITAL ENERGIES
----------------

  NO   OCC          E(Eh)            E(eV)
   0   2.0000     -88.035204     -2395.5597
   1   2.0000     -87.974810     -2393.9163
   2   2.0000     -76.418835     -2079.4622
   3   2.0000     -18.827617      -512.3255
   4   2.0000     -18.807407      -511.7756
   5   2.0000     -18.777843      -510.9711
   6   2.0000     -18.768516      -510.7173
   7   2.0000     -18.762374      -510.5502
   8   2.0000     -18.740907      -509.9660
   9   2.0000     -10.033074      -273.0138
  10   2.0000     -10.012716      -272.4599
  11   2.0000      -9.961847      -271.0756
  12   2.0000      -9.956521      -270.9307
  13   2.0000      -9.950918      -270.7782
  14   2.0000      -9.931618      -270.2531
  15   2.0000      -9.919042      -269.9109
  16   2.0000      -9.908276      -269.6179
  17   2.0000      -9.890980      -269.1473
  18   2.0000      -9.889214      -269.0992
  19   2.0000      -7.680050      -208.9848
  20   2.0000      -7.619792      -207.3451
  21   2.0000      -6.414515      -174.5478
  22   2.0000      -5.708202      -155.3281
  23   2.0000      -5.704648      -155.2314
  24   2.0000      -5.696627      -155.0131
  25   2.0000      -5.648864      -153.7134
  26   2.0000      -5.640724      -153.4919
  27   2.0000      -5.639432      -153.4567
  28   2.0000      -4.636869      -126.1756
  29   2.0000      -4.636710      -126.1713
  30   2.0000      -4.635170      -126.1294
  31   2.0000      -1.037369       -28.2283
  32   2.0000      -1.015019       -27.6201
  33   2.0000      -0.969523       -26.3821
  34   2.0000      -0.941800       -25.6277
  35   2.0000      -0.922976       -25.1154
  36   2.0000      -0.917968       -24.9792
  37   2.0000      -0.769721       -20.9452
  38   2.0000      -0.718029       -19.5386
  39   2.0000      -0.710545       -19.3349
  40   2.0000      -0.685300       -18.6480
  41   2.0000      -0.652338       -17.7510
  42   2.0000      -0.629452       -17.1283
  43   2.0000      -0.622649       -16.9431
  44   2.0000      -0.604353       -16.4453
  45   2.0000      -0.597241       -16.2518
  46   2.0000      -0.571051       -15.5391
  47   2.0000      -0.512930       -13.9575
  48   2.0000      -0.505889       -13.7659
  49   2.0000      -0.500972       -13.6321
  50   2.0000      -0.487513       -13.2659
  51   2.0000      -0.463754       -12.6194
  52   2.0000      -0.459430       -12.5017
  53   2.0000      -0.450867       -12.2687
  54   2.0000      -0.441656       -12.0181
  55   2.0000      -0.437133       -11.8950
  56   2.0000      -0.421117       -11.4592
  57   2.0000      -0.415327       -11.3016
  58   2.0000      -0.409372       -11.1396
  59   2.0000      -0.405376       -11.0308
  60   2.0000      -0.396923       -10.8008
  61   2.0000      -0.393404       -10.7051
  62   2.0000      -0.391287       -10.6475
  63   2.0000      -0.383078       -10.4241
  64   2.0000      -0.376201       -10.2369
  65   2.0000      -0.369311       -10.0495
  66   2.0000      -0.361914        -9.8482
  67   2.0000      -0.357121        -9.7178
  68   2.0000      -0.353723        -9.6253
  69   2.0000      -0.340190        -9.2570
  70   2.0000      -0.338285        -9.2052
  71   2.0000      -0.333587        -9.0774
  72   2.0000      -0.329411        -8.9637
  73   2.0000      -0.311703        -8.4819
  74   2.0000      -0.304539        -8.2869
  75   2.0000      -0.298172        -8.1137
  76   2.0000      -0.291513        -7.9325
  77   2.0000      -0.284949        -7.7539
  78   2.0000      -0.274481        -7.4690
  79   2.0000      -0.265297        -7.2191
  80   2.0000      -0.260121        -7.0783
  81   2.0000      -0.246275        -6.7015
  82   2.0000      -0.241830        -6.5805
  83   2.0000      -0.224213        -6.1011
  84   2.0000      -0.214555        -5.8383
  85   2.0000      -0.195050        -5.3076
  86   2.0000      -0.187118        -5.0917
  87   0.0000      -0.050639        -1.3780
  88   0.0000      -0.038903        -1.0586
  89   0.0000      -0.020185        -0.5493
  90   0.0000       0.005149         0.1401
  91   0.0000       0.030382         0.8267

MULLIKEN ATOMIC CHARGES
-----------------------
   0 C :   -0.306001
   1 C :   -0.017225
   2 O :   -0.234421
   3 C :    0.124108
   4 O :   -0.184408
   5 C :   -0.049103
   6 C :   -0.346731
   7 H :    0.151646
   8 C :    0.231239
   9 O :   -0.189686
  10 O :   -0.216893
  11 C :   -0.013593
  12 C :   -0.315466
  13 S :   -0.082015
  14 P :    0.627442
  15 S :   -0.346084
  16 O :   -0.367989
  17 C :   -0.084375
  18 O :   -0.374535
  19 C :   -0.124753
  20 H :    0.114250
  21 H :    0.131935
  22 H :    0.112153
  23 H :    0.104347
  24 H :    0.113195
  25 H :    0.111196
  26 H :    0.119966
  27 H :    0.109230
  28 H :    0.113472
  29 H :    0.115002
  30 H :    0.145993
  31 H :    0.116462
  32 H :    0.114658
  33 H :    0.114021
  34 H :    0.118802
  35 H :    0.113192
  36 H :    0.138084
  37 H :    0.112886
Sum of atomic charges:    0.0000000

LOEWDIN ATOMIC CHARGES
----------------------
   0 C :   -0.356656
   1 C :   -0.111938
   2 O :   -0.060700
   3 C :    0.024361
   4 O :   -0.156364
   5 C :   -0.253624
   6 C :   -0.260780
   7 H :    0.149239
   8 C :    0.026446
   9 O :   -0.154737
  10 O :   -0.033863
  11 C :   -0.105440
  12 C :   -0.359231
  13 S :    0.113610
  14 P :    0.591766
  15 S :   -0.328377
  16 O :   -0.238384
  17 C :   -0.207193
  18 O :   -0.258447
  19 C :   -0.227422
  20 H :    0.131292
  21 H :    0.130180
  22 H :    0.123684
  23 H :    0.118057
  24 H :    0.121617
  25 H :    0.139862
  26 H :    0.134237
  27 H :    0.120949
  28 H :    0.122179
  29 H :    0.132474
  30 H :    0.132235
  31 H :    0.126681
  32 H :    0.112194
  33 H :    0.107823
  34 H :    0.117230
  35 H :    0.109645
  36 H :    0.110760
  37 H :    0.116635

  Mayer bond orders larger than 0.100000
B(  0-C ,  1-C ) :   1.1751 B(  0-C , 20-H ) :   0.9431 B(  0-C , 21-H ) :   0.9418
B(  0-C , 22-H ) :   0.9498 B(  1-C ,  2-O ) :   0.9103 B(  1-C , 23-H ) :   0.9368
B(  1-C , 24-H ) :   0.9107 B(  2-O ,  3-C ) :   1.2197 B(  3-C ,  4-O ) :   2.0165
B(  3-C ,  5-C ) :   1.0230 B(  5-C ,  6-C ) :   1.0417 B(  5-C , 25-H ) :   0.8761
B(  5-C , 26-H ) :   0.8714 B(  6-C ,  7-H ) :   0.8621 B(  6-C ,  8-C ) :   0.9155
B(  6-C , 13-S ) :   1.0415 B(  8-C ,  9-O ) :   1.9421 B(  8-C , 10-O ) :   1.2863
B(  9-O , 14-P ) :   0.1066 B( 10-O , 11-C ) :   0.8933 B( 11-C , 12-C ) :   1.1779
B( 11-C , 27-H ) :   0.9362 B( 11-C , 28-H ) :   0.9144 B( 12-C , 29-H ) :   0.9410
B( 12-C , 30-H ) :   0.9295 B( 12-C , 31-H ) :   0.9481 B( 13-S , 14-P ) :   0.9255
B( 13-S , 15-S ) :   0.1177 B( 14-P , 15-S ) :   1.5416 B( 14-P , 16-O ) :   1.1406
B( 14-P , 18-O ) :   1.0966 B( 16-O , 17-C ) :   0.9292 B( 17-C , 32-H ) :   0.9540
B( 17-C , 33-H ) :   0.9346 B( 17-C , 34-H ) :   0.9548 B( 18-O , 19-C ) :   0.9329
B( 19-C , 35-H ) :   0.9439 B( 19-C , 36-H ) :   0.9220 B( 19-C , 37-H ) :   0.9569

Dispersion correction           -0.053594611
FINAL SINGLE POINT ENERGY     -1979.016019506984

DIPOLE MOMENT
-------------

Method             : SCF
Type of density    : Electron Density
Multiplicity       :   1
Irrep              :   0
Energy             : -1979.1458772762644003 Eh
Relativity type    :
Basis              : AO
                                X                 Y                 Z
Electronic contribution:     -8.556066513      -1.359593632       0.562664161
Nuclear contribution   :      9.866079265       2.301868662      -1.460174506
                        -----------------------------------------
Total Dipole Moment    :      1.310012752       0.942275030      -0.897510346
                        -----------------------------------------
Magnitude (a.u.)       :      1.846494101
Magnitude (Debye)      :      4.693415012

Rotational constants in cm-1:             0.012215             0.008171             0.006050
Rotational constants in MHz :           366.201698           244.945597           181.365799

                             ****ORCA TERMINATED NORMALLY****
TOTAL RUN TIME: 0 days 0 hours 0 minutes 45 seconds 444 msec
