                         Program Version 6.0.1  -  RELEASE   -
|  1> ! r2scan-3c def2/J RI DEFGRID2 scfconv6 printgap
|  2> %output
|  3>     printlevel normal
|  4> end
|  5> * xyz 0 1
|  6> C 3.6234058953 -4.0984791291 -0.7645438632
|  7> C 2.1539881803 -3.7293539372 -0.8914361658
|  8> O 1.9000840542 -2.4199295358 -0.3458255303
|  9> C 2.1229044097 -1.3706181615 -1.1104069622
| 10> O 2.493265573 -1.4188382333 -2.2616983884
| 11> C 1.8149547043 -0.0767256934 -0.3782768086
| 12> C 0.7033899846 0.6579620362 -1.1247256146
| 13> H 1.0151044251 0.8275061725 -2.1607285319
| 14> C 0.3495593777 1.9915396712 -0.4912418899
| 15> O -0.7949450908 2.302829351 -0.2286965154
| 16> O 1.4036000553 2.7344429161 -0.304684337
| 17> C 1.2456779986 4.0089698273 0.3581566694
| 18> C 1.4814161646 3.8532261758 1.8511201423
| 19> S -0.8157056339 -0.3382984255 -1.2556424557
| 20> P -1.7076966122 -0.0045873031 0.6552554326
| 21> S -0.5950775674 0.4565152603 2.1978759243
| 22> O -2.995725077 0.8950598414 0.5097975305
| 23> C -3.9819710797 0.6890942246 -0.5187199767
| 24> O -2.4209010893 -1.4355698089 0.8439313464
| 25> C -1.6546205607 -2.6122619311 1.1099591103
| 26> H 4.2311323038 -3.4273433714 -1.3670123154
| 27> H 3.9384976269 -4.0278883057 0.2729144471
| 28> H 3.7688415712 -5.1149389159 -1.1148678422
| 29> H 1.525439518 -4.3965326389 -0.301478708
| 30> H 1.8418968541 -3.7345449295 -1.9396847718
| 31> H 2.7053326288 0.5540257365 -0.3787669941
| 32> H 1.5208194667 -0.2979947634 0.6487582237
| 33> H 1.9967112569 4.6514710999 -0.1016557677
| 34> H 0.2396939951 4.3859081938 0.156966375
| 35> H 0.7600797461 3.1569162461 2.2758501999
| 36> H 2.4812877297 3.4727498307 2.0375679559
| 37> H 1.3674959171 4.817431944 2.3348720947
| 38> H -3.5214065565 0.7973040697 -1.5006626987
| 39> H -4.7235546022 1.466836668 -0.356144171
| 40> H -4.4245127094 -0.3003635805 -0.417233299
| 41> H -2.3786828988 -3.3856358794 1.3522765097
| 42> H -0.9822354172 -2.4389028561 1.9519809501
| 43> H -1.0769083962 -2.8876866981 0.2272071579
| 44> *
| 45>
| 46>                          ****END OF INPUT****

CARTESIAN COORDINATES (ANGSTROEM)
---------------------------------
  C      3.623406   -4.098479   -0.764544
  C      2.153988   -3.729354   -0.891436
  O      1.900084   -2.419930   -0.345826
  C      2.122904   -1.370618   -1.110407
  O      2.493266   -1.418838   -2.261698
  C      1.814955   -0.076726   -0.378277
  C      0.703390    0.657962   -1.124726
  H      1.015104    0.827506   -2.160729
  C      0.349559    1.991540   -0.491242
  O     -0.794945    2.302829   -0.228697
  O      1.403600    2.734443   -0.304684
  C      1.245678    4.008970    0.358157
  C      1.481416    3.853226    1.851120
  S     -0.815706   -0.338298   -1.255642
  P     -1.707697   -0.004587    0.655255
  S     -0.595078    0.456515    2.197876
  O     -2.995725    0.895060    0.509798
  C     -3.981971    0.689094   -0.518720
  O     -2.420901   -1.435570    0.843931
  C     -1.654621   -2.612262    1.109959
  H      4.231132   -3.427343   -1.367012
  H      3.938498   -4.027888    0.272914
  H      3.768842   -5.114939   -1.114868
  H      1.525440   -4.396533   -0.301479
  H      1.841897   -3.734545   -1.939685
  H      2.705333    0.554026   -0.378767
  H      1.520819   -0.297995    0.648758
  H      1.996711    4.651471   -0.101656
  H      0.239694    4.385908    0.156966
  H      0.760080    3.156916    2.275850
  H      2.481288    3.472750    2.037568
  H      1.367496    4.817432    2.334872
  H     -3.521407    0.797304   -1.500663
  H     -4.723555    1.466837   -0.356144
  H     -4.424513   -0.300364   -0.417233
  H     -2.378683   -3.385636    1.352277
  H     -0.982235   -2.438903    1.951981
  H     -1.076908   -2.887687    0.227207

 Total Charge           Charge          ....    0
 Multiplicity           Mult            ....    1
 Number of Electrons    NEL             ....  174
 Basis Dimension        Dim             ....  510

ORBITAL ENERGIES
----------------

  NO   OCC          E(Eh)            E(eV)
   0   2.0000     -88.572924     -2410.1918
   1   2.0000     -88.511388     -2408.5173
   2   2.0000     -76.910287     -2092.8353
   3   2.0000     -19.015408      -517.4356
   4   2.0000     -19.005111      -517.1554
   5   2.0000     -18.984155      -516.5851
   6   2.0000     -18.981562      -516.5146
   7   2.0000     -18.942803      -515.4599
   8   2.0000     -18.935894      -515.2719
   9   2.0000     -10.171469      -276.7797
  10   2.0000     -10.160640      -276.4851
  11   2.0000     -10.101520      -274.8763
  12   2.0000     -10.099669      -274.8260
  13   2.0000     -10.097136      -274.7570
  14   2.0000     -10.089946      -274.5614
  15   2.0000     -10.083784      -274.3937
  16   2.0000     -10.053346      -273.5655
  17   2.0000     -10.032885      -273.0087
  18   2.0000     -10.028626      -272.8928
  19   2.0000      -7.867250      -214.0788
  20   2.0000      -7.806578      -212.4278
  21   2.0000      -6.587909      -179.2661
  22   2.0000      -5.814279      -158.2146
  23   2.0000      -5.811034      -158.1263
  24   2.0000      -5.804274      -157.9423
  25   2.0000      -5.754513      -156.5883
  26   2.0000      -5.746968      -156.3830
  27   2.0000      -5.746103      -156.3594
  28   2.0000      -4.733644      -128.8090
  29   2.0000      -4.733088      -128.7939
  30   2.0000      -4.731383      -128.7475
  31   2.0000      -1.093713       -29.7614
  32   2.0000      -1.081178       -29.4204
  33   2.0000      -1.041966       -28.3533
  34   2.0000      -0.999873       -27.2079
  35   2.0000      -0.994994       -27.0752
  36   2.0000      -0.985780       -26.8244
  37   2.0000      -0.811699       -22.0875
  38   2.0000      -0.755304       -20.5529
  39   2.0000      -0.748972       -20.3806
  40   2.0000      -0.726089       -19.7579
  41   2.0000      -0.695001       -18.9119
  42   2.0000      -0.668127       -18.1806
  43   2.0000      -0.661628       -18.0038
  44   2.0000      -0.651247       -17.7213
  45   2.0000      -0.630507       -17.1570
  46   2.0000      -0.599313       -16.3081
  47   2.0000      -0.540026       -14.6948
  48   2.0000      -0.532064       -14.4782
  49   2.0000      -0.523898       -14.2560
  50   2.0000      -0.508086       -13.8257
  51   2.0000      -0.486619       -13.2416
  52   2.0000      -0.478954       -13.0330
  53   2.0000      -0.471843       -12.8395
  54   2.0000      -0.460202       -12.5227
  55   2.0000      -0.451417       -12.2837
  56   2.0000      -0.443311       -12.0631
  57   2.0000      -0.442306       -12.0358
  58   2.0000      -0.435993       -11.8640
  59   2.0000      -0.425618       -11.5817
  60   2.0000      -0.419461       -11.4141
  61   2.0000      -0.416962       -11.3461
  62   2.0000      -0.410997       -11.1838
  63   2.0000      -0.405819       -11.0429
  64   2.0000      -0.401861       -10.9352
  65   2.0000      -0.381615       -10.3843
  66   2.0000      -0.378237       -10.2923
  67   2.0000      -0.369079       -10.0432
  68   2.0000      -0.363733        -9.8977
  69   2.0000      -0.351081        -9.5534
  70   2.0000      -0.349048        -9.4981
  71   2.0000      -0.346434        -9.4270
  72   2.0000      -0.342643        -9.3238
  73   2.0000      -0.325362        -8.8535
  74   2.0000      -0.317725        -8.6457
  75   2.0000      -0.313717        -8.5367
  76   2.0000      -0.312666        -8.5081
  77   2.0000      -0.306277        -8.3342
  78   2.0000      -0.286922        -7.8076
  79   2.0000      -0.281513        -7.6604
  80   2.0000      -0.278658        -7.5827
  81   2.0000      -0.269840        -7.3427
  82   2.0000      -0.256682        -6.9847
  83   2.0000      -0.244714        -6.6590
  84   2.0000      -0.235356        -6.4044
  85   2.0000      -0.210765        -5.7352
  86   2.0000      -0.206203        -5.6111
  87   0.0000      -0.044266        -1.2045
  88   0.0000      -0.034861        -0.9486
  89   0.0000      -0.012922        -0.3516
  90   0.0000       0.000976         0.0266
  91   0.0000       0.021985         0.5982

MULLIKEN ATOMIC CHARGES
-----------------------
   0 C :   -0.472608
   1 C :   -0.138880
   2 O :   -0.158641
   3 C :    0.396527
   4 O :   -0.424897
   5 C :   -0.431191
   6 C :   -0.007840
   7 H :    0.210192
   8 C :    0.325531
   9 O :   -0.392920
  10 O :   -0.163596
  11 C :   -0.139255
  12 C :   -0.463851
  13 S :   -0.181693
  14 P :    0.805819
  15 S :   -0.470212
  16 O :   -0.301950
  17 C :   -0.299079
  18 O :   -0.367667
  19 C :   -0.305122
  20 H :    0.175100
  21 H :    0.154049
  22 H :    0.148695
  23 H :    0.148737
  24 H :    0.170740
  25 H :    0.187618
  26 H :    0.213182
  27 H :    0.149803
  28 H :    0.175431
  29 H :    0.188483
  30 H :    0.150723
  31 H :    0.147563
  32 H :    0.168199
  33 H :    0.155409
  34 H :    0.166926
  35 H :    0.148503
  36 H :    0.176232
  37 H :    0.155941
Sum of atomic charges:    0.0000000

LOEWDIN ATOMIC CHARGES
----------------------
   0 C :   -0.388503
   1 C :    0.027225
   2 O :   -0.585406
   3 C :    0.344070
   4 O :   -0.432972
   5 C :   -0.208877
   6 C :   -0.190272
   7 H :    0.211723
   8 C :    0.351368
   9 O :   -0.457978
  10 O :   -0.571263
  11 C :    0.036991
  12 C :   -0.388672
  13 S :    0.215714
  14 P :    0.418301
  15 S :   -0.087307
  16 O :   -0.638267
  17 C :   -0.049969
  18 O :   -0.693507
  19 C :   -0.066705
  20 H :    0.166296
  21 H :    0.158447
  22 H :    0.159894
  23 H :    0.178375
  24 H :    0.188480
  25 H :    0.194705
  26 H :    0.199559
  27 H :    0.179158
  28 H :    0.192072
  29 H :    0.173491
  30 H :    0.157251
  31 H :    0.159918
  32 H :    0.173599
  33 H :    0.180684
  34 H :    0.172128
  35 H :    0.174758
  36 H :    0.176491
  37 H :    0.169001

  Mayer bond orders larger than 0.100000
B(  0-C ,  1-C ) :   0.9360 B(  0-C , 20-H ) :   0.9708 B(  0-C , 21-H ) :   0.9729
B(  0-C , 22-H ) :   0.9646 B(  1-C ,  2-O ) :   0.8091 B(  1-C , 23-H ) :   0.9604
B(  1-C , 24-H ) :   0.9677 B(  2-O ,  3-C ) :   1.0560 B(  3-C ,  4-O ) :   1.8309
B(  3-C ,  5-C ) :   0.9057 B(  5-C ,  6-C ) :   0.9088 B(  5-C , 25-H ) :   0.9409
B(  5-C , 26-H ) :   0.9561 B(  6-C ,  7-H ) :   0.8966 B(  6-C ,  8-C ) :   0.9747
B(  6-C , 13-S ) :   0.8348 B(  8-C ,  9-O ) :   1.8043 B(  8-C , 10-O ) :   1.1504
B( 10-O , 11-C ) :   0.7829 B( 11-C , 12-C ) :   0.9455 B( 11-C , 27-H ) :   0.9611
B( 11-C , 28-H ) :   0.9680 B( 12-C , 29-H ) :   0.9576 B( 12-C , 30-H ) :   0.9726
B( 12-C , 31-H ) :   0.9649 B( 13-S , 14-P ) :   0.9809 B( 14-P , 15-S ) :   1.7557
B( 14-P , 16-O ) :   1.1975 B( 14-P , 18-O ) :   0.9936 B( 16-O , 17-C ) :   0.7986
B( 17-C , 32-H ) :   0.9577 B( 17-C , 33-H ) :   0.9648 B( 17-C , 34-H ) :   0.9638
B( 18-O , 19-C ) :   0.8449 B( 19-C , 35-H ) :   0.9687 B( 19-C , 36-H ) :   0.9570
B( 19-C , 37-H ) :   0.9519

Dispersion correction           -0.017591228
FINAL SINGLE POINT ENERGY     -1981.448621967121

DIPOLE MOMENT
-------------

Method             : SCF
Type of density    : Electron Density
Multiplicity       :   1
Irrep              :   0
Energy             : -1981.4687642356043398 Eh
Relativity type    :
Basis              : AO
                                X                 Y                 Z
Electronic contribution:    -10.912637599       5.175795208      -1.234757112
Nuclear contribution   :     11.209660218      -5.507603834       0.880766943
                        -----------------------------------------
Total Dipole Moment    :      0.297022619      -0.331808626      -0.353990168
                        -----------------------------------------
Magnitude (a.u.)       :      0.568883503
Magnitude (Debye)      :      1.445986950

Rotational constants in cm-1:             0.011435             0.007908             0.005847
Rotational constants in MHz :           342.826763           237.087096           175.290315

                             ****ORCA TERMINATED NORMALLY****
TOTAL RUN TIME: 0 days 0 hours 1 minutes 22 seconds 148 msec
