                         Program Version 6.0.1  -  RELEASE   -
|  1> ! r2scan-3c def2/J RI DEFGRID2 scfconv6 printgap
|  2> %output
|  3>     printlevel normal
|  4> end
|  5> %cpcm
|  6>     smd true
|  7>     smdsolvent "water"
|  8> end
|  9> * xyz 0 1
| 10> C 3.6234058953 -4.0984791291 -0.7645438632
| 11> C 2.1539881803 -3.7293539372 -0.8914361658
| 12> O 1.9000840542 -2.4199295358 -0.3458255303
| 13> C 2.1229044097 -1.3706181615 -1.1104069622
| 14> O 2.493265573 -1.4188382333 -2.2616983884
| 15> C 1.8149547043 -0.0767256934 -0.3782768086
| 16> C 0.7033899846 0.6579620362 -1.1247256146
| 17> H 1.0151044251 0.8275061725 -2.1607285319
| 18> C 0.3495593777 1.9915396712 -0.4912418899
| 19> O -0.7949450908 2.302829351 -0.2286965154
| 20> O 1.4036000553 2.7344429161 -0.304684337
| 21> C 1.2456779986 4.0089698273 0.3581566694
| 22> C 1.4814161646 3.8532261758 1.8511201423
| 23> S -0.8157056339 -0.3382984255 -1.2556424557
| 24> P -1.7076966122 -0.0045873031 0.6552554326
| 25> S -0.5950775674 0.4565152603 2.1978759243
| 26> O -2.995725077 0.8950598414 0.5097975305
| 27> C -3.9819710797 0.6890942246 -0.5187199767
| 28> O -2.4209010893 -1.4355698089 0.8439313464
| 29> C -1.6546205607 -2.6122619311 1.1099591103
| 30> H 4.2311323038 -3.4273433714 -1.3670123154
| 31> H 3.9384976269 -4.0278883057 0.2729144471
| 32> H 3.7688415712 -5.1149389159 -1.1148678422
| 33> H 1.525439518 -4.3965326389 -0.301478708
| 34> H 1.8418968541 -3.7345449295 -1.9396847718
| 35> H 2.7053326288 0.5540257365 -0.3787669941
| 36> H 1.5208194667 -0.2979947634 0.6487582237
| 37> H 1.9967112569 4.6514710999 -0.1016557677
| 38> H 0.2396939951 4.3859081938 0.156966375
| 39> H 0.7600797461 3.1569162461 2.2758501999
| 40> H 2.4812877297 3.4727498307 2.0375679559
| 41> H 1.3674959171 4.817431944 2.3348720947
| 42> H -3.5214065565 0.7973040697 -1.5006626987
| 43> H -4.7235546022 1.466836668 -0.356144171
| 44> H -4.4245127094 -0.3003635805 -0.417233299
| 45> H -2.3786828988 -3.3856358794 1.3522765097
| 46> H -0.9822354172 -2.4389028561 1.9519809501
| 47> H -1.0769083962 -2.8876866981 0.2272071579
| 48> *
| 49>
| 50>                          ****END OF INPUT****

CARTESIAN COORDINATES (ANGSTROEM)
---------------------------------
  C      3.623406   -4.098479   -0.764544
  C      2.153988   -3.729354   -0.891436
  O      1.900084   -2.419930   -0.345826
  C      2.122904   -1.370618   -1.110407
  O      2.493266   -1.418838   -2.261698
  C      1.814955   -0.076726   -0.378277
  C      0.703390    0.657962   -1.124726
  H      1.015104    0.827506   -2.160729
  C      0.349559    1.991540   -0.491242
  O     -0.794945    2.302829   -0.228697
  O      1.403600    2.734443   -0.304684
  C      1.245678    4.008970    0.358157
  C      1.481416    3.853226    1.851120
  S     -0.815706   -0.338298   -1.255642
  P     -1.707697   -0.004587    0.655255
  S     -0.595078    0.456515    2.197876
  O     -2.995725    0.895060    0.509798
  C     -3.981971    0.689094   -0.518720
  O     -2.420901   -1.435570    0.843931
  C     -1.654621   -2.612262    1.109959
  H      4.231132   -3.427343   -1.367012
  H      3.938498   -4.027888    0.272914
  H      3.768842   -5.114939   -1.114868
  H      1.525440   -4.396533   -0.301479
  H      1.841897   -3.734545   -1.939685
  H      2.705333    0.554026   -0.378767
  H      1.520819   -0.297995    0.648758
  H      1.996711    4.651471   -0.101656
  H      0.239694    4.385908    0.156966
  H      0.760080    3.156916    2.275850
  H      2.481288    3.472750    2.037568
  H      1.367496    4.817432    2.334872
  H     -3.521407    0.797304   -1.500663
  H     -4.723555    1.466837   -0.356144
  H     -4.424513   -0.300364   -0.417233
  H     -2.378683   -3.385636    1.352277
  H     -0.982235   -2.438903    1.951981
  H     -1.076908   -2.887687    0.227207

 Total Charge           Charge          ....    0
 Multiplicity           Mult            ....    1
 Number of Electrons    NEL             ....  174
 Basis Dimension        Dim             ....  510

ORBITAL ENERGIES
----------------

  NO   OCC          E(Eh)            E(eV)
   0   2.0000     -88.579560     -2410.3724
   1   2.0000     -88.525634     -2408.9050
   2   2.0000     -76.921344     -2093.1362
   3   2.0000     -19.016933      -517.4771
   4   2.0000     -19.009685      -517.2798
   5   2.0000     -18.995639      -516.8976
   6   2.0000     -18.989110      -516.7200
   7   2.0000     -18.953722      -515.7570
   8   2.0000     -18.949359      -515.6383
   9   2.0000     -10.179538      -276.9993
  10   2.0000     -10.170700      -276.7588
  11   2.0000     -10.102454      -274.9017
  12   2.0000     -10.089422      -274.5471
  13   2.0000     -10.086193      -274.4593
  14   2.0000     -10.084365      -274.4095
  15   2.0000     -10.078856      -274.2596
  16   2.0000     -10.053704      -273.5752
  17   2.0000     -10.019721      -272.6505
  18   2.0000     -10.019506      -272.6446
  19   2.0000      -7.873863      -214.2587
  20   2.0000      -7.821087      -212.8226
  21   2.0000      -6.599106      -179.5708
  22   2.0000      -5.820897      -158.3946
  23   2.0000      -5.817659      -158.3065
  24   2.0000      -5.810880      -158.1221
  25   2.0000      -5.768920      -156.9803
  26   2.0000      -5.761525      -156.7791
  27   2.0000      -5.760612      -156.7542
  28   2.0000      -4.744811      -129.1129
  29   2.0000      -4.744232      -129.0971
  30   2.0000      -4.742664      -129.0544
  31   2.0000      -1.096945       -29.8494
  32   2.0000      -1.087140       -29.5826
  33   2.0000      -1.051648       -28.6168
  34   2.0000      -1.008342       -27.4384
  35   2.0000      -1.003973       -27.3195
  36   2.0000      -0.997130       -27.1333
  37   2.0000      -0.814201       -22.1555
  38   2.0000      -0.749128       -20.3848
  39   2.0000      -0.746303       -20.3079
  40   2.0000      -0.728385       -19.8204
  41   2.0000      -0.696141       -18.9430
  42   2.0000      -0.667222       -18.1560
  43   2.0000      -0.661854       -18.0100
  44   2.0000      -0.656544       -17.8655
  45   2.0000      -0.625015       -17.0075
  46   2.0000      -0.597222       -16.2512
  47   2.0000      -0.540776       -14.7153
  48   2.0000      -0.528571       -14.3831
  49   2.0000      -0.522759       -14.2250
  50   2.0000      -0.510268       -13.8851
  51   2.0000      -0.490625       -13.3506
  52   2.0000      -0.480494       -13.0749
  53   2.0000      -0.476329       -12.9616
  54   2.0000      -0.465899       -12.6777
  55   2.0000      -0.458029       -12.4636
  56   2.0000      -0.447260       -12.1706
  57   2.0000      -0.444952       -12.1078
  58   2.0000      -0.439122       -11.9491
  59   2.0000      -0.426348       -11.6015
  60   2.0000      -0.418716       -11.3938
  61   2.0000      -0.413462       -11.2509
  62   2.0000      -0.409106       -11.1323
  63   2.0000      -0.406852       -11.0710
  64   2.0000      -0.400602       -10.9009
  65   2.0000      -0.378470       -10.2987
  66   2.0000      -0.374731       -10.1969
  67   2.0000      -0.368918       -10.0388
  68   2.0000      -0.359475        -9.7818
  69   2.0000      -0.352136        -9.5821
  70   2.0000      -0.348838        -9.4924
  71   2.0000      -0.344360        -9.3705
  72   2.0000      -0.340584        -9.2678
  73   2.0000      -0.327087        -8.9005
  74   2.0000      -0.318982        -8.6800
  75   2.0000      -0.312155        -8.4942
  76   2.0000      -0.309914        -8.4332
  77   2.0000      -0.308474        -8.3940
  78   2.0000      -0.291368        -7.9285
  79   2.0000      -0.286758        -7.8031
  80   2.0000      -0.284477        -7.7410
  81   2.0000      -0.276396        -7.5211
  82   2.0000      -0.267943        -7.2911
  83   2.0000      -0.257958        -7.0194
  84   2.0000      -0.244355        -6.6492
  85   2.0000      -0.224661        -6.1133
  86   2.0000      -0.221123        -6.0171
  87   0.0000      -0.052460        -1.4275
  88   0.0000      -0.043225        -1.1762
  89   0.0000      -0.020771        -0.5652
  90   0.0000      -0.003836        -0.1044
  91   0.0000       0.013503         0.3674

MULLIKEN ATOMIC CHARGES
-----------------------
   0 C :   -0.496840
   1 C :   -0.144217
   2 O :   -0.175776
   3 C :    0.420840
   4 O :   -0.489825
   5 C :   -0.436383
   6 C :   -0.004743
   7 H :    0.246603
   8 C :    0.340809
   9 O :   -0.445567
  10 O :   -0.168672
  11 C :   -0.137726
  12 C :   -0.497520
  13 S :   -0.186209
  14 P :    0.805761
  15 S :   -0.506283
  16 O :   -0.350776
  17 C :   -0.305313
  18 O :   -0.396874
  19 C :   -0.316292
  20 H :    0.171141
  21 H :    0.166998
  22 H :    0.172362
  23 H :    0.178835
  24 H :    0.176195
  25 H :    0.219936
  26 H :    0.209138
  27 H :    0.179342
  28 H :    0.181528
  29 H :    0.170553
  30 H :    0.170383
  31 H :    0.172907
  32 H :    0.179405
  33 H :    0.181871
  34 H :    0.185307
  35 H :    0.177919
  36 H :    0.178301
  37 H :    0.172880
Sum of atomic charges:    0.0000000

LOEWDIN ATOMIC CHARGES
----------------------
   0 C :   -0.390803
   1 C :    0.033500
   2 O :   -0.588379
   3 C :    0.352775
   4 O :   -0.479677
   5 C :   -0.203639
   6 C :   -0.185887
   7 H :    0.225466
   8 C :    0.360399
   9 O :   -0.499144
  10 O :   -0.565649
  11 C :    0.044003
  12 C :   -0.392716
  13 S :    0.219337
  14 P :    0.413093
  15 S :   -0.117915
  16 O :   -0.670040
  17 C :   -0.043376
  18 O :   -0.707349
  19 C :   -0.061706
  20 H :    0.163394
  21 H :    0.162970
  22 H :    0.168715
  23 H :    0.191241
  24 H :    0.190664
  25 H :    0.207334
  26 H :    0.198687
  27 H :    0.192321
  28 H :    0.193724
  29 H :    0.164309
  30 H :    0.163076
  31 H :    0.169136
  32 H :    0.179325
  33 H :    0.191684
  34 H :    0.181033
  35 H :    0.187477
  36 H :    0.176866
  37 H :    0.175748

  Mayer bond orders larger than 0.100000
B(  0-C ,  1-C ) :   0.9331 B(  0-C , 20-H ) :   0.9685 B(  0-C , 21-H ) :   0.9693
B(  0-C , 22-H ) :   0.9595 B(  1-C ,  2-O ) :   0.7912 B(  1-C , 23-H ) :   0.9502
B(  1-C , 24-H ) :   0.9623 B(  2-O ,  3-C ) :   1.0766 B(  3-C ,  4-O ) :   1.7820
B(  3-C ,  5-C ) :   0.9160 B(  5-C ,  6-C ) :   0.8958 B(  5-C , 25-H ) :   0.9289
B(  5-C , 26-H ) :   0.9563 B(  6-C ,  7-H ) :   0.8744 B(  6-C ,  8-C ) :   0.9950
B(  6-C , 13-S ) :   0.8115 B(  8-C ,  9-O ) :   1.7689 B(  8-C , 10-O ) :   1.1700
B( 10-O , 11-C ) :   0.7670 B( 11-C , 12-C ) :   0.9330 B( 11-C , 27-H ) :   0.9508
B( 11-C , 28-H ) :   0.9650 B( 12-C , 29-H ) :   0.9627 B( 12-C , 30-H ) :   0.9697
B( 12-C , 31-H ) :   0.9597 B( 13-S , 14-P ) :   0.9998 B( 14-P , 15-S ) :   1.7603
B( 14-P , 16-O ) :   1.1854 B( 14-P , 18-O ) :   0.9937 B( 16-O , 17-C ) :   0.7920
B( 17-C , 32-H ) :   0.9485 B( 17-C , 33-H ) :   0.9542 B( 17-C , 34-H ) :   0.9542
B( 18-O , 19-C ) :   0.8342 B( 19-C , 35-H ) :   0.9585 B( 19-C , 36-H ) :   0.9536
B( 19-C , 37-H ) :   0.9460

Dispersion correction           -0.017591228
FINAL SINGLE POINT ENERGY     -1981.462176705654

DIPOLE MOMENT
-------------

Method             : SCF
Type of density    : Electron Density
Multiplicity       :   1
Irrep              :   0
Energy             : -1981.4823189741377973 Eh
Relativity type    :
Basis              : AO
                                X                 Y                 Z
Electronic contribution:    -10.612925957       4.919423426      -1.489947653
Nuclear contribution   :     11.209660218      -5.507603834       0.880766943
                        -----------------------------------------
Total Dipole Moment    :      0.596734261      -0.588180408      -0.609180710
                        -----------------------------------------
Magnitude (a.u.)       :      1.035929103
Magnitude (Debye)      :      2.633122523

Rotational constants in cm-1:             0.011435             0.007908             0.005847
Rotational constants in MHz :           342.826763           237.087096           175.290315

                             ****ORCA TERMINATED NORMALLY****
TOTAL RUN TIME: 0 days 0 hours 1 minutes 50 seconds 4 msec
