                         Program Version 6.0.0  -   RELEASE  -
|  1> ! pbe def2-sv(p) def2/J RI DEFGRID1 loosescf d4 GCP(DFT/SV(P)) printgap
|  2> %output
|  3>     printlevel normal
|  4> end
|  5> * xyz 0 1
|  6> C 1.6185805335 -1.1124745981 -2.8490016749
|  7> C 2.5794378285 -0.1740841964 -2.1465993243
|  8> O 1.8949145635 0.5355791207 -1.0829388975
|  9> P 2.1175624981 0.2597553729 0.4497505396
| 10> S 0.967265372 1.4291616422 1.5167816297
| 11> O 3.6892847829 0.4552078384 0.5700162341
| 12> C 4.5138558066 -0.0227658956 1.6509132572
| 13> C 4.0343117365 0.4462858018 3.0080646709
| 14> S 1.8705221712 -1.8218872368 0.809195044
| 15> C 0.1128708256 -1.8052600549 1.2220505829
| 16> S -0.9889323738 -1.9321998132 -0.2267796666
| 17> P -1.940842757 -0.0417871632 -0.3641925343
| 18> S -1.1596949706 1.3832016582 -1.4685706226
| 19> O -2.1989083995 0.2485914116 1.1666744437
| 20> C -2.5348723573 1.5645491445 1.6504634279
| 21> C -3.8984855194 2.0057473006 1.1665429965
| 22> O -3.381723955 -0.500605172 -0.8636457331
| 23> C -3.7007982245 -0.6860845954 -2.2560794701
| 24> C -4.5201219943 0.4826558813 -2.7688808073
| 25> H 2.1070852922 -1.5349682093 -3.7209379946
| 26> H 1.3081177837 -1.9195152338 -2.1884494845
| 27> H 0.7357481129 -0.560747371 -3.1646582543
| 28> H 2.92869435 0.6103767554 -2.8195715076
| 29> H 3.4337153126 -0.7112455745 -1.7284907469
| 30> H 4.5359924586 -1.1148465322 1.6041270933
| 31> H 5.5000230284 0.3806087048 1.4144323498
| 32> H 4.7405662053 0.1290210539 3.7684122827
| 33> H 3.9471514849 1.530222536 3.026200466
| 34> H 3.0569194683 0.0205885455 3.2303075871
| 35> H -0.117476603 -0.8896111592 1.7695387663
| 36> H -0.0696632821 -2.6900850026 1.8254873925
| 37> H -2.496411111 1.4590178391 2.7355380648
| 38> H -1.7548869341 2.2625181325 1.3285307615
| 39> H -4.6457272128 1.259349094 1.4229317475
| 40> H -4.1540909826 2.9531764417 1.6304083263
| 41> H -3.8811964139 2.1329538252 0.0849632058
| 42> H -2.7761181583 -0.7904976316 -2.8303361151
| 43> H -4.2643812309 -1.619786411 -2.2972405124
| 44> H -5.4059812311 0.6160664369 -2.154545443
| 45> H -3.9256958784 1.3935706485 -2.7389908332
| 46> H -4.8176803599 0.2884474308 -3.7941387658
| 47> *
| 48>
| 49>                          ****END OF INPUT****

CARTESIAN COORDINATES (ANGSTROEM)
---------------------------------
  C      1.618581   -1.112475   -2.849002
  C      2.579438   -0.174084   -2.146599
  O      1.894915    0.535579   -1.082939
  P      2.117562    0.259755    0.449751
  S      0.967265    1.429162    1.516782
  O      3.689285    0.455208    0.570016
  C      4.513856   -0.022766    1.650913
  C      4.034312    0.446286    3.008065
  S      1.870522   -1.821887    0.809195
  C      0.112871   -1.805260    1.222051
  S     -0.988932   -1.932200   -0.226780
  P     -1.940843   -0.041787   -0.364193
  S     -1.159695    1.383202   -1.468571
  O     -2.198908    0.248591    1.166674
  C     -2.534872    1.564549    1.650463
  C     -3.898486    2.005747    1.166543
  O     -3.381724   -0.500605   -0.863646
  C     -3.700798   -0.686085   -2.256079
  C     -4.520122    0.482656   -2.768881
  H      2.107085   -1.534968   -3.720938
  H      1.308118   -1.919515   -2.188449
  H      0.735748   -0.560747   -3.164658
  H      2.928694    0.610377   -2.819572
  H      3.433715   -0.711246   -1.728491
  H      4.535992   -1.114847    1.604127
  H      5.500023    0.380609    1.414432
  H      4.740566    0.129021    3.768412
  H      3.947151    1.530223    3.026200
  H      3.056919    0.020589    3.230308
  H     -0.117477   -0.889611    1.769539
  H     -0.069663   -2.690085    1.825487
  H     -2.496411    1.459018    2.735538
  H     -1.754887    2.262518    1.328531
  H     -4.645727    1.259349    1.422932
  H     -4.154091    2.953176    1.630408
  H     -3.881196    2.132954    0.084963
  H     -2.776118   -0.790498   -2.830336
  H     -4.264381   -1.619786   -2.297241
  H     -5.405981    0.616066   -2.154545
  H     -3.925696    1.393571   -2.738991
  H     -4.817680    0.288447   -3.794139

 Total Charge           Charge          ....    0
 Multiplicity           Mult            ....    1
 Number of Electrons    NEL             ....  202
 Basis Dimension        Dim             ....  334

ORBITAL ENERGIES
----------------

  NO   OCC          E(Eh)            E(eV)
   0   2.0000     -88.045586     -2395.8422
   1   2.0000     -88.035008     -2395.5544
   2   2.0000     -87.981640     -2394.1021
   3   2.0000     -87.976680     -2393.9672
   4   2.0000     -76.424341     -2079.6121
   5   2.0000     -76.419760     -2079.4874
   6   2.0000     -18.793933      -511.4089
   7   2.0000     -18.787523      -511.2345
   8   2.0000     -18.783265      -511.1186
   9   2.0000     -18.782241      -511.0908
  10   2.0000      -9.958926      -270.9962
  11   2.0000      -9.956583      -270.9324
  12   2.0000      -9.949483      -270.7392
  13   2.0000      -9.949177      -270.7309
  14   2.0000      -9.944428      -270.6016
  15   2.0000      -9.883520      -268.9443
  16   2.0000      -9.878660      -268.8120
  17   2.0000      -9.878256      -268.8010
  18   2.0000      -9.873391      -268.6686
  19   2.0000      -7.690644      -209.2731
  20   2.0000      -7.680573      -208.9990
  21   2.0000      -7.626713      -207.5334
  22   2.0000      -7.621533      -207.3925
  23   2.0000      -6.421675      -174.7427
  24   2.0000      -6.417249      -174.6222
  25   2.0000      -5.718272      -155.6021
  26   2.0000      -5.715000      -155.5131
  27   2.0000      -5.708796      -155.3442
  28   2.0000      -5.708018      -155.3231
  29   2.0000      -5.704876      -155.2376
  30   2.0000      -5.697287      -155.0311
  31   2.0000      -5.655750      -153.9008
  32   2.0000      -5.650449      -153.7565
  33   2.0000      -5.647345      -153.6721
  34   2.0000      -5.646665      -153.6536
  35   2.0000      -5.642418      -153.5380
  36   2.0000      -5.641455      -153.5118
  37   2.0000      -4.644367      -126.3796
  38   2.0000      -4.643734      -126.3624
  39   2.0000      -4.641791      -126.3095
  40   2.0000      -4.639829      -126.2562
  41   2.0000      -4.639092      -126.2361
  42   2.0000      -4.637643      -126.1967
  43   2.0000      -0.985893       -26.8275
  44   2.0000      -0.980890       -26.6914
  45   2.0000      -0.940659       -25.5966
  46   2.0000      -0.940177       -25.5835
  47   2.0000      -0.759985       -20.6802
  48   2.0000      -0.717874       -19.5343
  49   2.0000      -0.707316       -19.2470
  50   2.0000      -0.686738       -18.6871
  51   2.0000      -0.681952       -18.5569
  52   2.0000      -0.670329       -18.2406
  53   2.0000      -0.648298       -17.6411
  54   2.0000      -0.632209       -17.2033
  55   2.0000      -0.593202       -16.1419
  56   2.0000      -0.586824       -15.9683
  57   2.0000      -0.571744       -15.5579
  58   2.0000      -0.563709       -15.3393
  59   2.0000      -0.562149       -15.2969
  60   2.0000      -0.502525       -13.6744
  61   2.0000      -0.494106       -13.4453
  62   2.0000      -0.471668       -12.8347
  63   2.0000      -0.469035       -12.7631
  64   2.0000      -0.453535       -12.3413
  65   2.0000      -0.443426       -12.0662
  66   2.0000      -0.435500       -11.8506
  67   2.0000      -0.432179       -11.7602
  68   2.0000      -0.428048       -11.6478
  69   2.0000      -0.416831       -11.3426
  70   2.0000      -0.409131       -11.1330
  71   2.0000      -0.397066       -10.8047
  72   2.0000      -0.393422       -10.7056
  73   2.0000      -0.381816       -10.3897
  74   2.0000      -0.380252       -10.3472
  75   2.0000      -0.367830       -10.0092
  76   2.0000      -0.355751        -9.6805
  77   2.0000      -0.350399        -9.5348
  78   2.0000      -0.349437        -9.5087
  79   2.0000      -0.343675        -9.3519
  80   2.0000      -0.342355        -9.3159
  81   2.0000      -0.341192        -9.2843
  82   2.0000      -0.338014        -9.1978
  83   2.0000      -0.335369        -9.1259
  84   2.0000      -0.325985        -8.8705
  85   2.0000      -0.312880        -8.5139
  86   2.0000      -0.309328        -8.4172
  87   2.0000      -0.296689        -8.0733
  88   2.0000      -0.292297        -7.9538
  89   2.0000      -0.288051        -7.8383
  90   2.0000      -0.280204        -7.6247
  91   2.0000      -0.273430        -7.4404
  92   2.0000      -0.268534        -7.3072
  93   2.0000      -0.261261        -7.1093
  94   2.0000      -0.254784        -6.9330
  95   2.0000      -0.234940        -6.3931
  96   2.0000      -0.218843        -5.9550
  97   2.0000      -0.209717        -5.7067
  98   2.0000      -0.200312        -5.4508
  99   2.0000      -0.189515        -5.1570
 100   2.0000      -0.178021        -4.8442
 101   0.0000      -0.039421        -1.0727
 102   0.0000      -0.025883        -0.7043
 103   0.0000      -0.023151        -0.6300
 104   0.0000       0.002095         0.0570
 105   0.0000       0.017537         0.4772

MULLIKEN ATOMIC CHARGES
-----------------------
   0 C :   -0.299071
   1 C :   -0.004663
   2 O :   -0.332920
   3 P :    0.600827
   4 S :   -0.305389
   5 O :   -0.377723
   6 C :   -0.010302
   7 C :   -0.306545
   8 S :   -0.122977
   9 C :   -0.347233
  10 S :   -0.104020
  11 P :    0.607667
  12 S :   -0.300017
  13 O :   -0.368551
  14 C :   -0.009682
  15 C :   -0.309632
  16 O :   -0.375923
  17 C :   -0.008345
  18 C :   -0.291558
  19 H :    0.100207
  20 H :    0.124437
  21 H :    0.126830
  22 H :    0.109782
  23 H :    0.093390
  24 H :    0.111485
  25 H :    0.109416
  26 H :    0.110381
  27 H :    0.127780
  28 H :    0.121648
  29 H :    0.207369
  30 H :    0.184100
  31 H :    0.102815
  32 H :    0.129405
  33 H :    0.114974
  34 H :    0.111001
  35 H :    0.129174
  36 H :    0.100107
  37 H :    0.104579
  38 H :    0.113599
  39 H :    0.127369
  40 H :    0.106208
Sum of atomic charges:    0.0000000

LOEWDIN ATOMIC CHARGES
----------------------
   0 C :   -0.365668
   1 C :   -0.109888
   2 O :   -0.222122
   3 P :    0.568091
   4 S :   -0.289581
   5 O :   -0.244660
   6 C :   -0.115117
   7 C :   -0.369364
   8 S :    0.061542
   9 C :   -0.476633
  10 S :    0.068515
  11 P :    0.564905
  12 S :   -0.299924
  13 O :   -0.233925
  14 C :   -0.118375
  15 C :   -0.366027
  16 O :   -0.250606
  17 C :   -0.117733
  18 C :   -0.361379
  19 H :    0.125037
  20 H :    0.115033
  21 H :    0.126480
  22 H :    0.122041
  23 H :    0.103251
  24 H :    0.106986
  25 H :    0.121463
  26 H :    0.129609
  27 H :    0.130940
  28 H :    0.119927
  29 H :    0.128467
  30 H :    0.138883
  31 H :    0.118138
  32 H :    0.111770
  33 H :    0.125451
  34 H :    0.130454
  35 H :    0.123484
  36 H :    0.106363
  37 H :    0.116616
  38 H :    0.124880
  39 H :    0.124815
  40 H :    0.127858

  Mayer bond orders larger than 0.100000
B(  0-C ,  1-C ) :   1.1671 B(  0-C , 19-H ) :   0.9374 B(  0-C , 20-H ) :   0.9328
B(  0-C , 21-H ) :   0.9374 B(  1-C ,  2-O ) :   0.8897 B(  1-C , 22-H ) :   0.9337
B(  1-C , 23-H ) :   0.9190 B(  2-O ,  3-P ) :   1.1636 B(  3-P ,  4-S ) :   1.6293
B(  3-P ,  5-O ) :   1.0937 B(  3-P ,  8-S ) :   0.9284 B(  4-S ,  8-S ) :   0.1085
B(  5-O ,  6-C ) :   0.9115 B(  6-C ,  7-C ) :   1.1677 B(  6-C , 24-H ) :   0.9260
B(  6-C , 25-H ) :   0.9332 B(  7-C , 26-H ) :   0.9349 B(  7-C , 27-H ) :   0.9430
B(  7-C , 28-H ) :   0.9325 B(  8-S ,  9-C ) :   1.0084 B(  9-C , 10-S ) :   1.0029
B(  9-C , 29-H ) :   0.8530 B(  9-C , 30-H ) :   0.9102 B( 10-S , 11-P ) :   0.9506
B( 10-S , 12-S ) :   0.1072 B( 11-P , 12-S ) :   1.6339 B( 11-P , 13-O ) :   1.1290
B( 11-P , 16-O ) :   1.0864 B( 13-O , 14-C ) :   0.8927 B( 14-C , 15-C ) :   1.1633
B( 14-C , 31-H ) :   0.9360 B( 14-C , 32-H ) :   0.9104 B( 15-C , 33-H ) :   0.9448
B( 15-C , 34-H ) :   0.9382 B( 15-C , 35-H ) :   0.9324 B( 16-O , 17-C ) :   0.9091
B( 17-C , 18-C ) :   1.1706 B( 17-C , 36-H ) :   0.9121 B( 17-C , 37-H ) :   0.9338
B( 18-C , 38-H ) :   0.9468 B( 18-C , 39-H ) :   0.9324 B( 18-C , 40-H ) :   0.9397

Dispersion correction           -0.067752224
FINAL SINGLE POINT ENERGY     -2929.513532066862

DIPOLE MOMENT
-------------

Method             : SCF
Type of density    : Electron Density
Multiplicity       :   1
Irrep              :   0
Energy             : -2929.6309869050191992 Eh
Relativity type    :
Basis              : AO
                                X                 Y                 Z
Electronic contribution:      6.189567836      -3.695163695       3.604726265
Nuclear contribution   :     -5.821177277       2.849924690      -3.471927663
                        -----------------------------------------
Total Dipole Moment    :      0.368390559      -0.845239005       0.132798601
                        -----------------------------------------
Magnitude (a.u.)       :      0.931544979
Magnitude (Debye)      :      2.367799166

Rotational constants in cm-1:             0.013215             0.005339             0.004837
Rotational constants in MHz :           396.168642           160.061510           145.016119

                             ****ORCA TERMINATED NORMALLY****
TOTAL RUN TIME: 0 days 0 hours 0 minutes 21 seconds 29 msec
