                         Program Version 6.0.1  -  RELEASE   -
|  1> ! pbe def2-sv(p) def2/J RI DEFGRID1 loosescf d4 GCP(DFT/SV(P)) printgap
|  2> %output
|  3>     printlevel normal
|  4> end
|  5> * xyz 0 1
|  6> C 5.53601692 -1.8941278453 -1.4510303901
|  7> C 4.6930442042 -0.7952459856 -0.824397561
|  8> O 3.3952201855 -1.2875662016 -0.4371892773
|  9> C 2.4584328265 -1.3699043115 -1.3629552561
| 10> O 2.6061281869 -1.0764492938 -2.5265413593
| 11> C 1.149130807 -1.8712432654 -0.7746477741
| 12> C 0.1566189577 -0.7034286505 -0.7561511766
| 13> H -0.0216230205 -0.3499487226 -1.7755886253
| 14> C 0.7825688023 0.4261785907 0.040121491
| 15> O 1.6737533711 1.1051985188 -0.4168193357
| 16> O 0.3155668334 0.5100522214 1.2671668122
| 17> C 0.9263123488 1.461299893 2.1621050788
| 18> C 2.0838936176 0.8136127467 2.9025628606
| 19> S -1.4163210266 -1.266258495 -0.0317621172
| 20> P -2.3311325798 0.6292810291 0.2498221484
| 21> S -1.621994611 2.1028232255 -0.8333536625
| 22> O -3.8755838371 0.3001592258 -0.0068109233
| 23> C -4.3641184883 -0.0233429868 -1.3134766698
| 24> O -2.366144654 0.9540215992 1.7929239356
| 25> C -2.8844150984 0.0120606555 2.7576206234
| 26> H 5.0812281201 -2.2289744455 -2.3802451044
| 27> H 6.5263747437 -1.505608713 -1.6636195981
| 28> H 5.6183589547 -2.736670013 -0.7699972495
| 29> H 4.5494498967 0.0366558548 -1.519976461
| 30> H 5.1344488827 -0.4359792626 0.1054439032
| 31> H 1.3193912954 -2.2404411967 0.2362960382
| 32> H 0.7517398473 -2.6664975362 -1.4053912089
| 33> H 1.2599406824 2.3201896754 1.5727497074
| 34> H 0.1236614164 1.759716456 2.8369732074
| 35> H 2.8464797625 0.497705803 2.1936246281
| 36> H 2.5153568776 1.5347077425 3.588546505
| 37> H 1.7366431544 -0.0515176241 3.4601334927
| 38> H -4.0039753919 0.7057421935 -2.0410448524
| 39> H -5.4477234098 0.0189984464 -1.2392603698
| 40> H -4.0361446917 -1.0241489486 -1.5938368573
| 41> H -2.3576710829 -0.9376777422 2.666575349
| 42> H -3.9502714972 -0.1332203835 2.5954842033
| 43> H -2.6991249159 0.4672896444 3.7268575288
| 44> *
| 45>
| 46>                          ****END OF INPUT****

CARTESIAN COORDINATES (ANGSTROEM)
---------------------------------
  C      5.536017   -1.894128   -1.451030
  C      4.693044   -0.795246   -0.824398
  O      3.395220   -1.287566   -0.437189
  C      2.458433   -1.369904   -1.362955
  O      2.606128   -1.076449   -2.526541
  C      1.149131   -1.871243   -0.774648
  C      0.156619   -0.703429   -0.756151
  H     -0.021623   -0.349949   -1.775589
  C      0.782569    0.426179    0.040121
  O      1.673753    1.105199   -0.416819
  O      0.315567    0.510052    1.267167
  C      0.926312    1.461300    2.162105
  C      2.083894    0.813613    2.902563
  S     -1.416321   -1.266258   -0.031762
  P     -2.331133    0.629281    0.249822
  S     -1.621995    2.102823   -0.833354
  O     -3.875584    0.300159   -0.006811
  C     -4.364118   -0.023343   -1.313477
  O     -2.366145    0.954022    1.792924
  C     -2.884415    0.012061    2.757621
  H      5.081228   -2.228974   -2.380245
  H      6.526375   -1.505609   -1.663620
  H      5.618359   -2.736670   -0.769997
  H      4.549450    0.036656   -1.519976
  H      5.134449   -0.435979    0.105444
  H      1.319391   -2.240441    0.236296
  H      0.751740   -2.666498   -1.405391
  H      1.259941    2.320190    1.572750
  H      0.123661    1.759716    2.836973
  H      2.846480    0.497706    2.193625
  H      2.515357    1.534708    3.588547
  H      1.736643   -0.051518    3.460133
  H     -4.003975    0.705742   -2.041045
  H     -5.447723    0.018998   -1.239260
  H     -4.036145   -1.024149   -1.593837
  H     -2.357671   -0.937678    2.666575
  H     -3.950271   -0.133220    2.595484
  H     -2.699125    0.467290    3.726858

 Total Charge           Charge          ....    0
 Multiplicity           Mult            ....    1
 Number of Electrons    NEL             ....  174
 Basis Dimension        Dim             ....  316

ORBITAL ENERGIES
----------------

  NO   OCC          E(Eh)            E(eV)
   0   2.0000     -88.042822     -2395.7670
   1   2.0000     -87.984885     -2394.1904
   2   2.0000     -76.428600     -2079.7279
   3   2.0000     -18.809333      -511.8280
   4   2.0000     -18.801231      -511.6075
   5   2.0000     -18.798870      -511.5432
   6   2.0000     -18.795690      -511.4567
   7   2.0000     -18.735704      -509.8244
   8   2.0000     -18.733153      -509.7550
   9   2.0000     -10.015417      -272.5333
  10   2.0000     -10.009022      -272.3593
  11   2.0000      -9.955089      -270.8917
  12   2.0000      -9.948283      -270.7065
  13   2.0000      -9.947184      -270.6766
  14   2.0000      -9.946697      -270.6634
  15   2.0000      -9.943980      -270.5894
  16   2.0000      -9.916422      -269.8396
  17   2.0000      -9.889010      -269.0936
  18   2.0000      -9.884092      -268.9598
  19   2.0000      -7.687753      -209.1944
  20   2.0000      -7.629924      -207.6208
  21   2.0000      -6.425667      -174.8513
  22   2.0000      -5.715464      -155.5257
  23   2.0000      -5.712291      -155.4393
  24   2.0000      -5.704898      -155.2382
  25   2.0000      -5.659096      -153.9918
  26   2.0000      -5.650225      -153.7504
  27   2.0000      -5.650149      -153.7484
  28   2.0000      -4.648413      -126.4898
  29   2.0000      -4.647581      -126.4671
  30   2.0000      -4.645913      -126.4217
  31   2.0000      -1.016776       -27.6679
  32   2.0000      -1.007007       -27.4021
  33   2.0000      -0.991376       -26.9767
  34   2.0000      -0.946884       -25.7660
  35   2.0000      -0.918333       -24.9891
  36   2.0000      -0.912008       -24.8170
  37   2.0000      -0.769641       -20.9430
  38   2.0000      -0.713965       -19.4280
  39   2.0000      -0.703016       -19.1301
  40   2.0000      -0.694669       -18.9029
  41   2.0000      -0.661768       -18.0076
  42   2.0000      -0.640984       -17.4421
  43   2.0000      -0.623594       -16.9689
  44   2.0000      -0.616024       -16.7629
  45   2.0000      -0.597148       -16.2492
  46   2.0000      -0.566805       -15.4236
  47   2.0000      -0.519677       -14.1411
  48   2.0000      -0.500834       -13.6284
  49   2.0000      -0.497788       -13.5455
  50   2.0000      -0.480399       -13.0723
  51   2.0000      -0.475263       -12.9326
  52   2.0000      -0.461778       -12.5656
  53   2.0000      -0.449075       -12.2199
  54   2.0000      -0.439392       -11.9565
  55   2.0000      -0.435930       -11.8623
  56   2.0000      -0.422717       -11.5027
  57   2.0000      -0.419482       -11.4147
  58   2.0000      -0.418783       -11.3957
  59   2.0000      -0.407313       -11.0835
  60   2.0000      -0.405781       -11.0419
  61   2.0000      -0.396741       -10.7959
  62   2.0000      -0.394894       -10.7456
  63   2.0000      -0.383373       -10.4321
  64   2.0000      -0.379826       -10.3356
  65   2.0000      -0.366573        -9.9750
  66   2.0000      -0.357658        -9.7324
  67   2.0000      -0.353416        -9.6169
  68   2.0000      -0.346385        -9.4256
  69   2.0000      -0.336673        -9.1613
  70   2.0000      -0.332734        -9.0542
  71   2.0000      -0.330828        -9.0023
  72   2.0000      -0.324124        -8.8199
  73   2.0000      -0.319971        -8.7069
  74   2.0000      -0.308646        -8.3987
  75   2.0000      -0.303540        -8.2598
  76   2.0000      -0.298011        -8.1093
  77   2.0000      -0.291955        -7.9445
  78   2.0000      -0.276539        -7.5250
  79   2.0000      -0.265046        -7.2123
  80   2.0000      -0.261848        -7.1253
  81   2.0000      -0.255847        -6.9620
  82   2.0000      -0.237539        -6.4638
  83   2.0000      -0.220788        -6.0080
  84   2.0000      -0.213762        -5.8167
  85   2.0000      -0.203154        -5.5281
  86   2.0000      -0.201959        -5.4956
  87   0.0000      -0.042028        -1.1436
  88   0.0000      -0.030908        -0.8411
  89   0.0000      -0.021716        -0.5909
  90   0.0000       0.010607         0.2886
  91   0.0000       0.015213         0.4140

MULLIKEN ATOMIC CHARGES
-----------------------
   0 C :   -0.307415
   1 C :   -0.011139
   2 O :   -0.235150
   3 C :    0.103284
   4 O :   -0.194689
   5 C :   -0.060069
   6 C :   -0.266308
   7 H :    0.161621
   8 C :    0.167801
   9 O :   -0.186275
  10 O :   -0.225810
  11 C :   -0.011145
  12 C :   -0.307273
  13 S :   -0.106280
  14 P :    0.608558
  15 S :   -0.295822
  16 O :   -0.388447
  17 C :   -0.100658
  18 O :   -0.361178
  19 C :   -0.109730
  20 H :    0.129889
  21 H :    0.112928
  22 H :    0.109945
  23 H :    0.119512
  24 H :    0.101862
  25 H :    0.104849
  26 H :    0.125771
  27 H :    0.118483
  28 H :    0.106094
  29 H :    0.127047
  30 H :    0.114127
  31 H :    0.110720
  32 H :    0.121266
  33 H :    0.126389
  34 H :    0.115991
  35 H :    0.122368
  36 H :    0.128134
  37 H :    0.130747
Sum of atomic charges:    0.0000000

LOEWDIN ATOMIC CHARGES
----------------------
   0 C :   -0.357680
   1 C :   -0.108349
   2 O :   -0.058466
   3 C :    0.029132
   4 O :   -0.159352
   5 C :   -0.240950
   6 C :   -0.258568
   7 H :    0.148953
   8 C :    0.001150
   9 O :   -0.147059
  10 O :   -0.057338
  11 C :   -0.108804
  12 C :   -0.355830
  13 S :    0.083903
  14 P :    0.572021
  15 S :   -0.289954
  16 O :   -0.260087
  17 C :   -0.215495
  18 O :   -0.235677
  19 C :   -0.210521
  20 H :    0.131187
  21 H :    0.130838
  22 H :    0.122938
  23 H :    0.125845
  24 H :    0.116408
  25 H :    0.132172
  26 H :    0.143667
  27 H :    0.124847
  28 H :    0.117562
  29 H :    0.128976
  30 H :    0.131065
  31 H :    0.123171
  32 H :    0.113714
  33 H :    0.123125
  34 H :    0.109501
  35 H :    0.110828
  36 H :    0.118074
  37 H :    0.125051

  Mayer bond orders larger than 0.100000
B(  0-C ,  1-C ) :   1.1709 B(  0-C , 20-H ) :   0.9448 B(  0-C , 21-H ) :   0.9445
B(  0-C , 22-H ) :   0.9479 B(  1-C ,  2-O ) :   0.9151 B(  1-C , 23-H ) :   0.9169
B(  1-C , 24-H ) :   0.9363 B(  2-O ,  3-C ) :   1.2125 B(  3-C ,  4-O ) :   2.0520
B(  3-C ,  5-C ) :   1.0073 B(  5-C ,  6-C ) :   1.0574 B(  5-C , 25-H ) :   0.8973
B(  5-C , 26-H ) :   0.8930 B(  6-C ,  7-H ) :   0.8653 B(  6-C ,  8-C ) :   0.9143
B(  6-C , 13-S ) :   0.9989 B(  8-C ,  9-O ) :   2.0231 B(  8-C , 10-O ) :   1.2361
B( 10-O , 11-C ) :   0.8996 B( 11-C , 12-C ) :   1.1728 B( 11-C , 27-H ) :   0.9125
B( 11-C , 28-H ) :   0.9317 B( 12-C , 29-H ) :   0.9424 B( 12-C , 30-H ) :   0.9448
B( 12-C , 31-H ) :   0.9488 B( 13-S , 14-P ) :   0.9575 B( 13-S , 15-S ) :   0.1144
B( 14-P , 15-S ) :   1.6445 B( 14-P , 16-O ) :   1.0730 B( 14-P , 18-O ) :   1.1211
B( 16-O , 17-C ) :   0.9297 B( 17-C , 32-H ) :   0.9360 B( 17-C , 33-H ) :   0.9585
B( 17-C , 34-H ) :   0.9468 B( 18-O , 19-C ) :   0.9151 B( 19-C , 35-H ) :   0.9371
B( 19-C , 36-H ) :   0.9480 B( 19-C , 37-H ) :   0.9590

Dispersion correction           -0.052553720
FINAL SINGLE POINT ENERGY     -1979.017409197656

DIPOLE MOMENT
-------------

Method             : SCF
Type of density    : Electron Density
Multiplicity       :   1
Irrep              :   0
Energy             : -1979.1476808303282269 Eh
Relativity type    :
Basis              : AO
                                X                 Y                 Z
Electronic contribution:    -16.542211509       5.928944056      -6.272070918
Nuclear contribution   :     16.219154120      -7.117751758       7.859365294
                        -----------------------------------------
Total Dipole Moment    :     -0.323057390      -1.188807701       1.587294376
                        -----------------------------------------
Magnitude (a.u.)       :      2.009261870
Magnitude (Debye)      :      5.107137804

Rotational constants in cm-1:             0.017655             0.005908             0.005289
Rotational constants in MHz :           529.277524           177.125122           158.564537

                             ****ORCA TERMINATED NORMALLY****
TOTAL RUN TIME: 0 days 0 hours 0 minutes 40 seconds 706 msec
