                         Program Version 6.0.0  -   RELEASE  -
|  1> ! pbe def2-sv(p) def2/J RI DEFGRID1 loosescf d4 GCP(DFT/SV(P)) printgap
|  2> %output
|  3>     printlevel normal
|  4> end
|  5> * xyz 0 1
|  6> C 2.4011738343 1.1051548002 -0.0014999403
|  7> C 1.1511229801 0.2817837983 0.001659059
|  8> C 1.1919759546 -1.1082428971 0.0011173543
|  9> C -0.0025404438 -1.8108608292 -0.0001458291
| 10> C -1.1926533242 -1.1072166666 -0.0010236516
| 11> C -1.1454658969 0.2858152935 -0.0007785025
| 12> N 0.0013769221 0.9512044406 0.0005628012
| 13> C -2.402050329 1.0995967087 0.0006573499
| 14> H 2.3804939692 1.8087110562 0.8270815651
| 15> H 3.2810434694 0.4738944013 0.0784644078
| 16> H 2.4563061103 1.6834805961 -0.9211247235
| 17> H 2.1384983366 -1.626133725 0.0017992935
| 18> H -0.0025217099 -2.8913732511 -0.000535733
| 19> H -2.1433781205 -1.6173231261 -0.0018767312
| 20> H -2.9721179525 0.9030036496 0.9065585133
| 21> H -2.1542856353 2.1550806837 -0.0445750493
| 22> H -3.021796802 0.8352315346 -0.8534439966
| 23> *
| 24>
| 25>                          ****END OF INPUT****

CARTESIAN COORDINATES (ANGSTROEM)
---------------------------------
  C      2.401174    1.105155   -0.001500
  C      1.151123    0.281784    0.001659
  C      1.191976   -1.108243    0.001117
  C     -0.002540   -1.810861   -0.000146
  C     -1.192653   -1.107217   -0.001024
  C     -1.145466    0.285815   -0.000779
  N      0.001377    0.951204    0.000563
  C     -2.402050    1.099597    0.000657
  H      2.380494    1.808711    0.827082
  H      3.281043    0.473894    0.078464
  H      2.456306    1.683481   -0.921125
  H      2.138498   -1.626134    0.001799
  H     -0.002522   -2.891373   -0.000536
  H     -2.143378   -1.617323   -0.001877
  H     -2.972118    0.903004    0.906559
  H     -2.154286    2.155081   -0.044575
  H     -3.021797    0.835232   -0.853444

 Total Charge           Charge          ....    0
 Multiplicity           Mult            ....    1
 Number of Electrons    NEL             ....   58
 Basis Dimension        Dim             ....  130

ORBITAL ENERGIES
----------------

  NO   OCC          E(Eh)            E(eV)
   0   2.0000     -13.975491      -380.2924
   1   2.0000      -9.928010      -270.1549
   2   2.0000      -9.927725      -270.1471
   3   2.0000      -9.901280      -269.4275
   4   2.0000      -9.890803      -269.1424
   5   2.0000      -9.890595      -269.1368
   6   2.0000      -9.877469      -268.7796
   7   2.0000      -9.876316      -268.7482
   8   2.0000      -0.855615       -23.2825
   9   2.0000      -0.717768       -19.5315
  10   2.0000      -0.715433       -19.4679
  11   2.0000      -0.647202       -17.6113
  12   2.0000      -0.611134       -16.6298
  13   2.0000      -0.542172       -14.7532
  14   2.0000      -0.534888       -14.5550
  15   2.0000      -0.451883       -12.2964
  16   2.0000      -0.440037       -11.9740
  17   2.0000      -0.393570       -10.7096
  18   2.0000      -0.392048       -10.6682
  19   2.0000      -0.370697       -10.0872
  20   2.0000      -0.367864       -10.0101
  21   2.0000      -0.362841        -9.8734
  22   2.0000      -0.335213        -9.1216
  23   2.0000      -0.327066        -8.8999
  24   2.0000      -0.321842        -8.7578
  25   2.0000      -0.310269        -8.4428
  26   2.0000      -0.253720        -6.9041
  27   2.0000      -0.220599        -6.0028
  28   2.0000      -0.200113        -5.4453
  29   0.0000      -0.047963        -1.3051
  30   0.0000      -0.036821        -1.0019
  31   0.0000       0.046203         1.2572
  32   0.0000       0.065425         1.7803
  33   0.0000       0.070800         1.9266

MULLIKEN ATOMIC CHARGES
-----------------------
   0 C :   -0.181185
   1 C :   -0.073025
   2 C :   -0.101382
   3 C :    0.003368
   4 C :   -0.096019
   5 C :   -0.081909
   6 N :   -0.069972
   7 C :   -0.200440
   8 H :    0.115334
   9 H :    0.089480
  10 H :    0.117313
  11 H :    0.044941
  12 H :    0.059077
  13 H :    0.044424
  14 H :    0.112995
  15 H :    0.106011
  16 H :    0.110990
Sum of atomic charges:   -0.0000000

LOEWDIN ATOMIC CHARGES
----------------------
   0 C :   -0.330216
   1 C :   -0.012970
   2 C :   -0.149907
   3 C :   -0.096396
   4 C :   -0.146671
   5 C :   -0.012880
   6 N :   -0.081023
   7 C :   -0.335412
   8 H :    0.136536
   9 H :    0.120785
  10 H :    0.137470
  11 H :    0.124231
  12 H :    0.126064
  13 H :    0.124341
  14 H :    0.133389
  15 H :    0.130626
  16 H :    0.132031

  Mayer bond orders larger than 0.100000
B(  0-C ,  1-C ) :   1.1139 B(  0-C ,  8-H ) :   0.9300 B(  0-C ,  9-H ) :   0.9414
B(  0-C , 10-H ) :   0.9282 B(  1-C ,  2-C ) :   1.4039 B(  1-C ,  6-N ) :   1.4755
B(  2-C ,  3-C ) :   1.3954 B(  2-C , 11-H ) :   0.9403 B(  3-C ,  4-C ) :   1.4224
B(  3-C , 12-H ) :   0.9542 B(  4-C ,  5-C ) :   1.3496 B(  4-C , 13-H ) :   0.9507
B(  5-C ,  6-N ) :   1.5768 B(  5-C ,  7-C ) :   1.0962 B(  7-C , 14-H ) :   0.9350
B(  7-C , 15-H ) :   0.9365 B(  7-C , 16-H ) :   0.9366

Dispersion correction           -0.016181946
FINAL SINGLE POINT ENERGY      -326.187290008978

DIPOLE MOMENT
-------------

Method             : SCF
Type of density    : Electron Density
Multiplicity       :   1
Irrep              :   0
Energy             :  -326.2356424679085762 Eh
Relativity type    :
Basis              : AO
                                X                 Y                 Z
Electronic contribution:      0.010877359      -2.164598190       0.003880567
Nuclear contribution   :     -0.035416132       1.623154464      -0.007176206
                        -----------------------------------------
Total Dipole Moment    :     -0.024538772      -0.541443726      -0.003295639
                        -----------------------------------------
Magnitude (a.u.)       :      0.542009521
Magnitude (Debye)      :      1.377678717

Rotational constants in cm-1:             0.118636             0.064301             0.042353
Rotational constants in MHz :          3556.622692          1927.702052          1269.699799

                             ****ORCA TERMINATED NORMALLY****
TOTAL RUN TIME: 0 days 0 hours 0 minutes 6 seconds 943 msec
