                         Program Version 6.0.0  -   RELEASE  -
|  1> ! pbe def2-sv(p) def2/J RI DEFGRID1 loosescf d4 GCP(DFT/SV(P)) printgap
|  2> %output
|  3>     printlevel normal
|  4> end
|  5> * xyz 0 1
|  6> C 2.9472606463 -1.141609581 -2.5252243445
|  7> C 1.8610546874 -0.4005943269 -1.7706823959
|  8> O 1.6245599243 -1.0450872187 -0.5118169947
|  9> P 1.9373257167 -0.4076635045 0.919906402
| 10> S 3.0530415087 1.2074881592 0.8474967111
| 11> O 2.4493036261 -1.6662909279 1.7377137757
| 12> C 3.5451751245 -2.503743241 1.3135785989
| 13> C 4.8902205586 -1.868588571 1.6070463957
| 14> S 0.1291015111 -0.2567156227 1.982210392
| 15> C -0.2966467696 1.4400463757 1.4985284397
| 16> S -0.3427050468 1.7207449584 -0.2986377386
| 17> P -1.9756149068 0.4948653238 -0.8522720271
| 18> S -2.6373456669 0.6927916315 -2.6839661799
| 19> O -3.0650856954 0.6918026221 0.2949967833
| 20> C -4.1415457202 1.6348764631 0.1570144536
| 21> C -3.6584619021 3.0684311356 0.251208637
| 22> O -1.3542652521 -0.9203941656 -0.5020559329
| 23> C -1.9129738462 -2.1529667062 -0.9981098557
| 24> C -3.2493932939 -2.4653558576 -0.359313062
| 25> H 2.677420872 -2.1875617982 -2.6431910955
| 26> H 3.0677216173 -0.6900726229 -3.5045469406
| 27> H 3.8887236058 -1.0720149157 -1.9844368289
| 28> H 0.9107326204 -0.4201071029 -2.3114997322
| 29> H 2.1511434196 0.6411174713 -1.5938075498
| 30> H 3.4066152532 -3.4208636158 1.8892075576
| 31> H 3.4337059454 -2.7187829658 0.2474135859
| 32> H 4.9674623783 -1.6278655348 2.6640118937
| 33> H 5.6809987651 -2.5615390218 1.337290599
| 34> H 5.0112576591 -0.9497796074 1.0362597279
| 35> H 0.4636788514 2.1283192182 1.8665074606
| 36> H -1.269043056 1.6501424407 1.9357806687
| 37> H -4.6299594508 1.4628049245 -0.807454789
| 38> H -4.8224245273 1.3817659852 0.9706913495
| 39> H -2.9650350265 3.2796394341 -0.5628403598
| 40> H -4.5084360979 3.7383436031 0.1690892755
| 41> H -3.155097051 3.2470323043 1.197867964
| 42> H -2.0103260392 -2.0743089991 -2.0861072418
| 43> H -1.1576740995 -2.8985785759 -0.7441099267
| 44> H -3.5689445106 -3.4574824295 -0.6627764579
| 45> H -3.1634525364 -2.4266777525 0.7236810311
| 46> H -3.9939812689 -1.7395057342 -0.6823091958
| 47> *
| 48>
| 49>                          ****END OF INPUT****

CARTESIAN COORDINATES (ANGSTROEM)
---------------------------------
  C      2.947261   -1.141610   -2.525224
  C      1.861055   -0.400594   -1.770682
  O      1.624560   -1.045087   -0.511817
  P      1.937326   -0.407664    0.919906
  S      3.053042    1.207488    0.847497
  O      2.449304   -1.666291    1.737714
  C      3.545175   -2.503743    1.313579
  C      4.890221   -1.868589    1.607046
  S      0.129102   -0.256716    1.982210
  C     -0.296647    1.440046    1.498528
  S     -0.342705    1.720745   -0.298638
  P     -1.975615    0.494865   -0.852272
  S     -2.637346    0.692792   -2.683966
  O     -3.065086    0.691803    0.294997
  C     -4.141546    1.634876    0.157014
  C     -3.658462    3.068431    0.251209
  O     -1.354265   -0.920394   -0.502056
  C     -1.912974   -2.152967   -0.998110
  C     -3.249393   -2.465356   -0.359313
  H      2.677421   -2.187562   -2.643191
  H      3.067722   -0.690073   -3.504547
  H      3.888724   -1.072015   -1.984437
  H      0.910733   -0.420107   -2.311500
  H      2.151143    0.641117   -1.593808
  H      3.406615   -3.420864    1.889208
  H      3.433706   -2.718783    0.247414
  H      4.967462   -1.627866    2.664012
  H      5.680999   -2.561539    1.337291
  H      5.011258   -0.949780    1.036260
  H      0.463679    2.128319    1.866507
  H     -1.269043    1.650142    1.935781
  H     -4.629959    1.462805   -0.807455
  H     -4.822425    1.381766    0.970691
  H     -2.965035    3.279639   -0.562840
  H     -4.508436    3.738344    0.169089
  H     -3.155097    3.247032    1.197868
  H     -2.010326   -2.074309   -2.086107
  H     -1.157674   -2.898579   -0.744110
  H     -3.568945   -3.457482   -0.662776
  H     -3.163453   -2.426678    0.723681
  H     -3.993981   -1.739506   -0.682309

 Total Charge           Charge          ....    0
 Multiplicity           Mult            ....    1
 Number of Electrons    NEL             ....  202
 Basis Dimension        Dim             ....  334

ORBITAL ENERGIES
----------------

  NO   OCC          E(Eh)            E(eV)
   0   2.0000     -88.045507     -2395.8400
   1   2.0000     -88.037970     -2395.6350
   2   2.0000     -87.991238     -2394.3633
   3   2.0000     -87.986228     -2394.2270
   4   2.0000     -76.428543     -2079.7264
   5   2.0000     -76.426045     -2079.6584
   6   2.0000     -18.799228      -511.5530
   7   2.0000     -18.792177      -511.3611
   8   2.0000     -18.789119      -511.2779
   9   2.0000     -18.788718      -511.2670
  10   2.0000      -9.958667      -270.9891
  11   2.0000      -9.957151      -270.9479
  12   2.0000      -9.956958      -270.9426
  13   2.0000      -9.951270      -270.7878
  14   2.0000      -9.942771      -270.5565
  15   2.0000      -9.889507      -269.1072
  16   2.0000      -9.884903      -268.9819
  17   2.0000      -9.883811      -268.9522
  18   2.0000      -9.882744      -268.9231
  19   2.0000      -7.689954      -209.2543
  20   2.0000      -7.683536      -209.0796
  21   2.0000      -7.636395      -207.7969
  22   2.0000      -7.631160      -207.6544
  23   2.0000      -6.426201      -174.8658
  24   2.0000      -6.423234      -174.7851
  25   2.0000      -5.718266      -155.6019
  26   2.0000      -5.714205      -155.4914
  27   2.0000      -5.711599      -155.4205
  28   2.0000      -5.708219      -155.3285
  29   2.0000      -5.706809      -155.2902
  30   2.0000      -5.700015      -155.1053
  31   2.0000      -5.665238      -154.1590
  32   2.0000      -5.659972      -154.0157
  33   2.0000      -5.657009      -153.9350
  34   2.0000      -5.656647      -153.9252
  35   2.0000      -5.652038      -153.7998
  36   2.0000      -5.651179      -153.7764
  37   2.0000      -4.648577      -126.4942
  38   2.0000      -4.648166      -126.4830
  39   2.0000      -4.646647      -126.4417
  40   2.0000      -4.646001      -126.4241
  41   2.0000      -4.644768      -126.3906
  42   2.0000      -4.643814      -126.3646
  43   2.0000      -0.989467       -26.9248
  44   2.0000      -0.984557       -26.7912
  45   2.0000      -0.948793       -25.8180
  46   2.0000      -0.941359       -25.6157
  47   2.0000      -0.764811       -20.8116
  48   2.0000      -0.723794       -19.6954
  49   2.0000      -0.708717       -19.2852
  50   2.0000      -0.690392       -18.7865
  51   2.0000      -0.686001       -18.6670
  52   2.0000      -0.673812       -18.3354
  53   2.0000      -0.655137       -17.8272
  54   2.0000      -0.638999       -17.3880
  55   2.0000      -0.602495       -16.3947
  56   2.0000      -0.591978       -16.1085
  57   2.0000      -0.576478       -15.6868
  58   2.0000      -0.573767       -15.6130
  59   2.0000      -0.562395       -15.3036
  60   2.0000      -0.500298       -13.6138
  61   2.0000      -0.494025       -13.4431
  62   2.0000      -0.476691       -12.9714
  63   2.0000      -0.475310       -12.9338
  64   2.0000      -0.460182       -12.5222
  65   2.0000      -0.445547       -12.1240
  66   2.0000      -0.443962       -12.0808
  67   2.0000      -0.433078       -11.7847
  68   2.0000      -0.428968       -11.6728
  69   2.0000      -0.413248       -11.2451
  70   2.0000      -0.408137       -11.1060
  71   2.0000      -0.400084       -10.8868
  72   2.0000      -0.394535       -10.7359
  73   2.0000      -0.387208       -10.5365
  74   2.0000      -0.378071       -10.2878
  75   2.0000      -0.376715       -10.2509
  76   2.0000      -0.371046       -10.0967
  77   2.0000      -0.357664        -9.7325
  78   2.0000      -0.355322        -9.6688
  79   2.0000      -0.350782        -9.5453
  80   2.0000      -0.350759        -9.5446
  81   2.0000      -0.348844        -9.4925
  82   2.0000      -0.342254        -9.3132
  83   2.0000      -0.338581        -9.2132
  84   2.0000      -0.332881        -9.0581
  85   2.0000      -0.324476        -8.8294
  86   2.0000      -0.313665        -8.5353
  87   2.0000      -0.297779        -8.1030
  88   2.0000      -0.292546        -7.9606
  89   2.0000      -0.290043        -7.8925
  90   2.0000      -0.287622        -7.8266
  91   2.0000      -0.275444        -7.4952
  92   2.0000      -0.274781        -7.4772
  93   2.0000      -0.267336        -7.2746
  94   2.0000      -0.258043        -7.0217
  95   2.0000      -0.232251        -6.3199
  96   2.0000      -0.217965        -5.9311
  97   2.0000      -0.212036        -5.7698
  98   2.0000      -0.209427        -5.6988
  99   2.0000      -0.200025        -5.4430
 100   2.0000      -0.197484        -5.3738
 101   0.0000      -0.043435        -1.1819
 102   0.0000      -0.024555        -0.6682
 103   0.0000      -0.009853        -0.2681
 104   0.0000       0.004729         0.1287
 105   0.0000       0.006941         0.1889

MULLIKEN ATOMIC CHARGES
-----------------------
   0 C :   -0.283570
   1 C :   -0.028378
   2 O :   -0.376067
   3 P :    0.647707
   4 S :   -0.336257
   5 O :   -0.378661
   6 C :   -0.015754
   7 C :   -0.306130
   8 S :   -0.073306
   9 C :   -0.354523
  10 S :   -0.079019
  11 P :    0.615378
  12 S :   -0.326446
  13 O :   -0.380637
  14 C :   -0.009291
  15 C :   -0.319199
  16 O :   -0.358665
  17 C :   -0.003360
  18 C :   -0.306910
  19 H :    0.111847
  20 H :    0.113897
  21 H :    0.111276
  22 H :    0.106816
  23 H :    0.119988
  24 H :    0.107916
  25 H :    0.108576
  26 H :    0.120114
  27 H :    0.107757
  28 H :    0.132547
  29 H :    0.195818
  30 H :    0.182999
  31 H :    0.114173
  32 H :    0.106779
  33 H :    0.132808
  34 H :    0.115953
  35 H :    0.117749
  36 H :    0.108930
  37 H :    0.105710
  38 H :    0.111387
  39 H :    0.120436
  40 H :    0.119613
Sum of atomic charges:   -0.0000000

LOEWDIN ATOMIC CHARGES
----------------------
   0 C :   -0.356255
   1 C :   -0.131999
   2 O :   -0.239955
   3 P :    0.569894
   4 S :   -0.320321
   5 O :   -0.247930
   6 C :   -0.111928
   7 C :   -0.365346
   8 S :    0.099674
   9 C :   -0.477624
  10 S :    0.107326
  11 P :    0.564332
  12 S :   -0.322355
  13 O :   -0.246583
  14 C :   -0.122020
  15 C :   -0.366562
  16 O :   -0.235659
  17 C :   -0.116627
  18 C :   -0.363941
  19 H :    0.122070
  20 H :    0.131969
  21 H :    0.121522
  22 H :    0.109790
  23 H :    0.104250
  24 H :    0.120468
  25 H :    0.110146
  26 H :    0.129541
  27 H :    0.128411
  28 H :    0.122585
  29 H :    0.135834
  30 H :    0.129673
  31 H :    0.110802
  32 H :    0.118915
  33 H :    0.124247
  34 H :    0.133130
  35 H :    0.122523
  36 H :    0.109196
  37 H :    0.119016
  38 H :    0.129977
  39 H :    0.127990
  40 H :    0.121824

  Mayer bond orders larger than 0.100000
B(  0-C ,  1-C ) :   1.1621 B(  0-C , 19-H ) :   0.9478 B(  0-C , 20-H ) :   0.9410
B(  0-C , 21-H ) :   0.9430 B(  1-C ,  2-O ) :   0.9052 B(  1-C , 22-H ) :   0.9228
B(  1-C , 23-H ) :   0.8987 B(  2-O ,  3-P ) :   1.0890 B(  3-P ,  4-S ) :   1.6084
B(  3-P ,  5-O ) :   1.1197 B(  3-P ,  8-S ) :   0.9663 B(  4-S ,  8-S ) :   0.1092
B(  5-O ,  6-C ) :   0.9115 B(  6-C ,  7-C ) :   1.1654 B(  6-C , 24-H ) :   0.9358
B(  6-C , 25-H ) :   0.9205 B(  7-C , 26-H ) :   0.9463 B(  7-C , 27-H ) :   0.9383
B(  7-C , 28-H ) :   0.9335 B(  8-S ,  9-C ) :   1.0117 B(  9-C , 10-S ) :   0.9825
B(  9-C , 29-H ) :   0.8884 B(  9-C , 30-H ) :   0.8960 B( 10-S , 11-P ) :   0.9631
B( 11-P , 12-S ) :   1.6238 B( 11-P , 13-O ) :   1.0699 B( 11-P , 16-O ) :   1.1222
B( 13-O , 14-C ) :   0.9065 B( 14-C , 15-C ) :   1.1626 B( 14-C , 31-H ) :   0.9133
B( 14-C , 32-H ) :   0.9335 B( 15-C , 33-H ) :   0.9337 B( 15-C , 34-H ) :   0.9382
B( 15-C , 35-H ) :   0.9442 B( 16-O , 17-C ) :   0.9053 B( 17-C , 18-C ) :   1.1648
B( 17-C , 36-H ) :   0.9175 B( 17-C , 37-H ) :   0.9323 B( 18-C , 38-H ) :   0.9389
B( 18-C , 39-H ) :   0.9462 B( 18-C , 40-H ) :   0.9395

Dispersion correction           -0.067042447
FINAL SINGLE POINT ENERGY     -2929.522015249051

DIPOLE MOMENT
-------------

Method             : SCF
Type of density    : Electron Density
Multiplicity       :   1
Irrep              :   0
Energy             : -2929.6409511484848736 Eh
Relativity type    :
Basis              : AO
                                X                 Y                 Z
Electronic contribution:     -0.887084098       9.316244891       3.710000271
Nuclear contribution   :      0.412668018     -10.272270077      -3.366997443
                        -----------------------------------------
Total Dipole Moment    :     -0.474416080      -0.956025185       0.343002829
                        -----------------------------------------
Magnitude (a.u.)       :      1.121028863
Magnitude (Debye)      :      2.849428923

Rotational constants in cm-1:             0.013228             0.005084             0.004822
Rotational constants in MHz :           396.580229           152.409088           144.546610

                             ****ORCA TERMINATED NORMALLY****
TOTAL RUN TIME: 0 days 0 hours 0 minutes 21 seconds 742 msec
