                         Program Version 6.0.0  -   RELEASE  -
|  1> ! pbe def2-sv(p) def2/J RI DEFGRID1 loosescf d4 GCP(DFT/SV(P)) printgap
|  2> %output
|  3>     printlevel normal
|  4> end
|  5> * xyz 0 1
|  6> C 3.437493055 2.1315468091 0.011091365
|  7> C 3.0270937161 1.5874644336 1.36329274
|  8> O 1.8894774253 0.6905579873 1.2759495117
|  9> P 1.8770554974 -0.7477215914 0.6416214568
| 10> S 0.3486279046 -1.7977964867 1.2785684177
| 11> O 3.3114348059 -1.3034149692 1.0313736077
| 12> C 3.7003465098 -2.6571993524 0.7210310963
| 13> C 4.956447039 -2.9689773171 1.5088470565
| 14> S 2.0110116795 -0.599097279 -1.4873561713
| 15> C 0.2566078399 -0.4107813752 -1.8354651928
| 16> S -0.4268639308 1.0566923143 -0.998166147
| 17> P -2.4220991974 0.3614676853 -0.6981653196
| 18> S -2.7162635948 -1.5627883871 -0.8710572031
| 19> O -3.2763881458 1.153425733 -1.7576257135
| 20> C -3.2607016871 2.5965228832 -1.8989756905
| 21> C -4.3914493194 3.2312630305 -1.116151369
| 22> O -2.882325476 1.026877673 0.6707972969
| 23> C -2.4845302095 0.5404626299 1.9661041712
| 24> C -1.38807408 1.4077166474 2.5523213196
| 25> H 3.8786900084 1.3483876406 -0.6009983754
| 26> H 2.5717731771 2.5369773582 -0.5078577832
| 27> H 4.1688342878 2.9203981109 0.1567410308
| 28> H 2.661543405 2.3798397397 2.0182714471
| 29> H 3.8486834556 1.0541877854 1.8431946845
| 30> H 2.8777181734 -3.3272527762 0.9918994793
| 31> H 3.8755916344 -2.723918628 -0.356076003
| 32> H 5.2710631093 -3.9836701612 1.2884320108
| 33> H 5.7486282497 -2.279060546 1.2335260435
| 34> H 4.7615241542 -2.8779998733 2.5737526623
| 35> H -0.2935333452 -1.2892692919 -1.4849247477
| 36> H 0.1659773 -0.2925254402 -2.9125280537
| 37> H -2.2876096836 2.9725853109 -1.5699010828
| 38> H -3.3780585667 2.7619014127 -2.97136718
| 39> H -4.2656571009 3.0471334417 -0.0527909827
| 40> H -4.3914054066 4.3013719439 -1.2986060644
| 41> H -5.3428581321 2.8126294762 -1.4325406035
| 42> H -3.391580988 0.5857472002 2.5720060501
| 43> H -2.1624718875 -0.5025684577 1.8803284886
| 44> H -1.1875944669 1.0801413844 3.5674517097
| 45> H -0.4736107377 1.3126845957 1.9706222722
| 46> H -1.6984645751 2.4485470827 2.5606477325
| 47> *
| 48>
| 49>                          ****END OF INPUT****

CARTESIAN COORDINATES (ANGSTROEM)
---------------------------------
  C      3.437493    2.131547    0.011091
  C      3.027094    1.587464    1.363293
  O      1.889477    0.690558    1.275950
  P      1.877055   -0.747722    0.641621
  S      0.348628   -1.797796    1.278568
  O      3.311435   -1.303415    1.031374
  C      3.700347   -2.657199    0.721031
  C      4.956447   -2.968977    1.508847
  S      2.011012   -0.599097   -1.487356
  C      0.256608   -0.410781   -1.835465
  S     -0.426864    1.056692   -0.998166
  P     -2.422099    0.361468   -0.698165
  S     -2.716264   -1.562788   -0.871057
  O     -3.276388    1.153426   -1.757626
  C     -3.260702    2.596523   -1.898976
  C     -4.391449    3.231263   -1.116151
  O     -2.882325    1.026878    0.670797
  C     -2.484530    0.540463    1.966104
  C     -1.388074    1.407717    2.552321
  H      3.878690    1.348388   -0.600998
  H      2.571773    2.536977   -0.507858
  H      4.168834    2.920398    0.156741
  H      2.661543    2.379840    2.018271
  H      3.848683    1.054188    1.843195
  H      2.877718   -3.327253    0.991899
  H      3.875592   -2.723919   -0.356076
  H      5.271063   -3.983670    1.288432
  H      5.748628   -2.279061    1.233526
  H      4.761524   -2.878000    2.573753
  H     -0.293533   -1.289269   -1.484925
  H      0.165977   -0.292525   -2.912528
  H     -2.287610    2.972585   -1.569901
  H     -3.378059    2.761901   -2.971367
  H     -4.265657    3.047133   -0.052791
  H     -4.391405    4.301372   -1.298606
  H     -5.342858    2.812629   -1.432541
  H     -3.391581    0.585747    2.572006
  H     -2.162472   -0.502568    1.880328
  H     -1.187594    1.080141    3.567452
  H     -0.473611    1.312685    1.970622
  H     -1.698465    2.448547    2.560648

 Total Charge           Charge          ....    0
 Multiplicity           Mult            ....    1
 Number of Electrons    NEL             ....  202
 Basis Dimension        Dim             ....  334

ORBITAL ENERGIES
----------------

  NO   OCC          E(Eh)            E(eV)
   0   2.0000     -88.045086     -2395.8286
   1   2.0000     -88.037991     -2395.6355
   2   2.0000     -87.980568     -2394.0730
   3   2.0000     -87.976704     -2393.9678
   4   2.0000     -76.427886     -2079.7085
   5   2.0000     -76.419098     -2079.4694
   6   2.0000     -18.799247      -511.5535
   7   2.0000     -18.795579      -511.4537
   8   2.0000     -18.786906      -511.2177
   9   2.0000     -18.785185      -511.1709
  10   2.0000      -9.961086      -271.0549
  11   2.0000      -9.957897      -270.9681
  12   2.0000      -9.953271      -270.8423
  13   2.0000      -9.949875      -270.7499
  14   2.0000      -9.940543      -270.4959
  15   2.0000      -9.892991      -269.2020
  16   2.0000      -9.890862      -269.1440
  17   2.0000      -9.883168      -268.9347
  18   2.0000      -9.871395      -268.6143
  19   2.0000      -7.689978      -209.2549
  20   2.0000      -7.682383      -209.0483
  21   2.0000      -7.625468      -207.4995
  22   2.0000      -7.622065      -207.4069
  23   2.0000      -6.425017      -174.8336
  24   2.0000      -6.416747      -174.6086
  25   2.0000      -5.717844      -155.5904
  26   2.0000      -5.714415      -155.4971
  27   2.0000      -5.710189      -155.3821
  28   2.0000      -5.707104      -155.2982
  29   2.0000      -5.706988      -155.2950
  30   2.0000      -5.699431      -155.0894
  31   2.0000      -5.654489      -153.8665
  32   2.0000      -5.651131      -153.7751
  33   2.0000      -5.646063      -153.6372
  34   2.0000      -5.645547      -153.6231
  35   2.0000      -5.642488      -153.5399
  36   2.0000      -5.642199      -153.5320
  37   2.0000      -4.648073      -126.4805
  38   2.0000      -4.646775      -126.4452
  39   2.0000      -4.645053      -126.3983
  40   2.0000      -4.639526      -126.2479
  41   2.0000      -4.638491      -126.2198
  42   2.0000      -4.637021      -126.1797
  43   2.0000      -0.993586       -27.0369
  44   2.0000      -0.981650       -26.7121
  45   2.0000      -0.949726       -25.8433
  46   2.0000      -0.938512       -25.5382
  47   2.0000      -0.761192       -20.7131
  48   2.0000      -0.722018       -19.6471
  49   2.0000      -0.710647       -19.3377
  50   2.0000      -0.697411       -18.9775
  51   2.0000      -0.682624       -18.5751
  52   2.0000      -0.672936       -18.3115
  53   2.0000      -0.646606       -17.5951
  54   2.0000      -0.630101       -17.1459
  55   2.0000      -0.593975       -16.1629
  56   2.0000      -0.585081       -15.9209
  57   2.0000      -0.578200       -15.7336
  58   2.0000      -0.569246       -15.4900
  59   2.0000      -0.558244       -15.1906
  60   2.0000      -0.510615       -13.8945
  61   2.0000      -0.496872       -13.5206
  62   2.0000      -0.479866       -13.0578
  63   2.0000      -0.473220       -12.8770
  64   2.0000      -0.450196       -12.2504
  65   2.0000      -0.447036       -12.1645
  66   2.0000      -0.442531       -12.0419
  67   2.0000      -0.438321       -11.9273
  68   2.0000      -0.433248       -11.7893
  69   2.0000      -0.416025       -11.3206
  70   2.0000      -0.408831       -11.1249
  71   2.0000      -0.400532       -10.8990
  72   2.0000      -0.386914       -10.5285
  73   2.0000      -0.381779       -10.3887
  74   2.0000      -0.378617       -10.3027
  75   2.0000      -0.370712       -10.0876
  76   2.0000      -0.360469        -9.8088
  77   2.0000      -0.358807        -9.7636
  78   2.0000      -0.354670        -9.6511
  79   2.0000      -0.352484        -9.5916
  80   2.0000      -0.347962        -9.4685
  81   2.0000      -0.347124        -9.4457
  82   2.0000      -0.340285        -9.2596
  83   2.0000      -0.337517        -9.1843
  84   2.0000      -0.325889        -8.8679
  85   2.0000      -0.322263        -8.7692
  86   2.0000      -0.312670        -8.5082
  87   2.0000      -0.306543        -8.3415
  88   2.0000      -0.298067        -8.1108
  89   2.0000      -0.287663        -7.8277
  90   2.0000      -0.282290        -7.6815
  91   2.0000      -0.278193        -7.5700
  92   2.0000      -0.269720        -7.3395
  93   2.0000      -0.262843        -7.1523
  94   2.0000      -0.254550        -6.9266
  95   2.0000      -0.233331        -6.3492
  96   2.0000      -0.220064        -5.9882
  97   2.0000      -0.204653        -5.5689
  98   2.0000      -0.197626        -5.3777
  99   2.0000      -0.193057        -5.2534
 100   2.0000      -0.184421        -5.0184
 101   0.0000      -0.046237        -1.2582
 102   0.0000      -0.030763        -0.8371
 103   0.0000      -0.006177        -0.1681
 104   0.0000       0.009429         0.2566
 105   0.0000       0.015233         0.4145

MULLIKEN ATOMIC CHARGES
-----------------------
   0 C :   -0.315451
   1 C :    0.000971
   2 O :   -0.351175
   3 P :    0.612491
   4 S :   -0.303159
   5 O :   -0.387432
   6 C :   -0.012170
   7 C :   -0.281827
   8 S :   -0.122502
   9 C :   -0.341329
  10 S :   -0.139961
  11 P :    0.612395
  12 S :   -0.293993
  13 O :   -0.356459
  14 C :   -0.013111
  15 C :   -0.289515
  16 O :   -0.383381
  17 C :   -0.009756
  18 C :   -0.317444
  19 H :    0.124599
  20 H :    0.125240
  21 H :    0.113257
  22 H :    0.110513
  23 H :    0.112657
  24 H :    0.110813
  25 H :    0.106522
  26 H :    0.115589
  27 H :    0.113686
  28 H :    0.122294
  29 H :    0.216508
  30 H :    0.179382
  31 H :    0.100772
  32 H :    0.108160
  33 H :    0.123847
  34 H :    0.106749
  35 H :    0.119842
  36 H :    0.101073
  37 H :    0.125573
  38 H :    0.106957
  39 H :    0.150012
  40 H :    0.098765
Sum of atomic charges:   -0.0000000

LOEWDIN ATOMIC CHARGES
----------------------
   0 C :   -0.368703
   1 C :   -0.107333
   2 O :   -0.228245
   3 P :    0.564087
   4 S :   -0.298431
   5 O :   -0.251061
   6 C :   -0.119317
   7 C :   -0.350495
   8 S :    0.070283
   9 C :   -0.480391
  10 S :    0.054394
  11 P :    0.566939
  12 S :   -0.288369
  13 O :   -0.239727
  14 C :   -0.114707
  15 C :   -0.360270
  16 O :   -0.245020
  17 C :   -0.117342
  18 C :   -0.368172
  19 H :    0.117846
  20 H :    0.126832
  21 H :    0.130835
  22 H :    0.122178
  23 H :    0.115041
  24 H :    0.112722
  25 H :    0.109400
  26 H :    0.132780
  27 H :    0.125325
  28 H :    0.129711
  29 H :    0.123912
  30 H :    0.134086
  31 H :    0.101229
  32 H :    0.120482
  33 H :    0.126392
  34 H :    0.127898
  35 H :    0.129014
  36 H :    0.115987
  37 H :    0.109843
  38 H :    0.130035
  39 H :    0.122604
  40 H :    0.117726

  Mayer bond orders larger than 0.100000
B(  0-C ,  1-C ) :   1.1704 B(  0-C , 19-H ) :   0.9391 B(  0-C , 20-H ) :   0.9423
B(  0-C , 21-H ) :   0.9358 B(  1-C ,  2-O ) :   0.8952 B(  1-C , 22-H ) :   0.9341
B(  1-C , 23-H ) :   0.9264 B(  2-O ,  3-P ) :   1.1222 B(  3-P ,  4-S ) :   1.6637
B(  3-P ,  5-O ) :   1.0791 B(  3-P ,  8-S ) :   0.9318 B(  4-S ,  8-S ) :   0.1112
B(  5-O ,  6-C ) :   0.8998 B(  6-C ,  7-C ) :   1.1596 B(  6-C , 24-H ) :   0.9115
B(  6-C , 25-H ) :   0.9279 B(  7-C , 26-H ) :   0.9416 B(  7-C , 27-H ) :   0.9511
B(  7-C , 28-H ) :   0.9508 B(  8-S ,  9-C ) :   1.0096 B(  9-C , 10-S ) :   0.9895
B(  9-C , 29-H ) :   0.8415 B(  9-C , 30-H ) :   0.9095 B( 10-S , 11-P ) :   0.9345
B( 10-S , 12-S ) :   0.1173 B( 11-P , 12-S ) :   1.6671 B( 11-P , 13-O ) :   1.1349
B( 11-P , 16-O ) :   1.0943 B( 13-O , 14-C ) :   0.9000 B( 14-C , 15-C ) :   1.1629
B( 14-C , 31-H ) :   0.9124 B( 14-C , 32-H ) :   0.9369 B( 15-C , 33-H ) :   0.9406
B( 15-C , 34-H ) :   0.9397 B( 15-C , 35-H ) :   0.9469 B( 16-O , 17-C ) :   0.8913
B( 17-C , 18-C ) :   1.1722 B( 17-C , 36-H ) :   0.9350 B( 17-C , 37-H ) :   0.9005
B( 18-C , 38-H ) :   0.9402 B( 18-C , 39-H ) :   0.9234 B( 18-C , 40-H ) :   0.9471

Dispersion correction           -0.065004677
FINAL SINGLE POINT ENERGY     -2929.516750715597

DIPOLE MOMENT
-------------

Method             : SCF
Type of density    : Electron Density
Multiplicity       :   1
Irrep              :   0
Energy             : -2929.6366317866077225 Eh
Relativity type    :
Basis              : AO
                                X                 Y                 Z
Electronic contribution:     -9.142663766     -12.399299012      -8.834636450
Nuclear contribution   :     10.775213284      13.855340749       9.012564723
                        -----------------------------------------
Total Dipole Moment    :      1.632549517       1.456041737       0.177928273
                        -----------------------------------------
Magnitude (a.u.)       :      2.194751452
Magnitude (Debye)      :      5.578614851

Rotational constants in cm-1:             0.013547             0.004703             0.004513
Rotational constants in MHz :           406.137943           140.998228           135.286495

                             ****ORCA TERMINATED NORMALLY****
TOTAL RUN TIME: 0 days 0 hours 0 minutes 21 seconds 26 msec
