                         Program Version 6.0.0  -   RELEASE  -
|  1> ! pbe def2-sv(p) def2/J RI DEFGRID1 loosescf d4 GCP(DFT/SV(P)) printgap
|  2> %output
|  3>     printlevel normal
|  4> end
|  5> * xyz 0 1
|  6> C 2.7562548401 0.8240561439 -2.983497349
|  7> C 3.5725264045 1.223215812 -1.7708808866
|  8> O 3.4910423788 0.2419579931 -0.7241516724
|  9> P 2.1519880983 -0.0464545424 0.0850678497
| 10> S 1.2159258425 1.6232908387 0.5522154857
| 11> O 2.6823829847 -0.895234818 1.3052670524
| 12> C 2.9126071444 -0.3732239889 2.6333906352
| 13> C 2.2808404799 -1.3109556621 3.6424406976
| 14> S 1.2942369532 -1.6089219546 -1.043636267
| 15> C 0.1632558653 -2.3362364205 0.1932758881
| 16> S -0.6422777696 -1.1288526724 1.2770010762
| 17> P -1.8494546835 -0.0974035769 -0.1192861951
| 18> S -1.2050211759 0.5648349467 -1.8528865077
| 19> O -2.5222806037 0.9990310806 0.8065534691
| 20> C -2.1452906605 2.3867870587 0.8564283577
| 21> C -3.3935448884 3.2089169377 1.104502164
| 22> O -2.9676454825 -1.2146347501 -0.2361430084
| 23> C -3.9416083735 -1.2300810808 -1.2987946989
| 24> C -4.9159073495 -0.0766161253 -1.1867887333
| 25> H 1.6933847769 0.8195751286 -2.7366805579
| 26> H 2.9227936331 1.5375920159 -3.783969877
| 27> H 3.0381680357 -0.1709950576 -3.3189595892
| 28> H 3.2275173478 2.1835837026 -1.3734116001
| 29> H 4.6377282127 1.2754659378 -1.999475412
| 30> H 3.9949714857 -0.3130098789 2.7620485321
| 31> H 2.4815360263 0.631604118 2.6983446419
| 32> H 2.4839087317 -0.9429364357 4.6427330409
| 33> H 1.2048319126 -1.3564297757 3.4882247812
| 34> H 2.6971898224 -2.3082011421 3.5347810497
| 35> H 0.7328961403 -2.9909983234 0.8490716571
| 36> H -0.5846535123 -2.8935403963 -0.3671522275
| 37> H -1.4167388612 2.508041062 1.6620426029
| 38> H -1.6624882107 2.6579260129 -0.0888744712
| 39> H -3.8778316609 2.8761951409 2.017893829
| 40> H -3.1132346898 4.2522948683 1.2039646649
| 41> H -4.088298717 3.102033914 0.2759054328
| 42> H -3.4105726954 -1.193803593 -2.2554738772
| 43> H -4.4384347622 -2.1941113908 -1.1822836329
| 44> H -4.3925181374 0.8633863852 -1.3576294386
| 45> H -5.6944423496 -0.1874448966 -1.9350542485
| 46> H -5.3625631818 -0.0569033391 -0.1961289108
| 47> *
| 48>
| 49>                          ****END OF INPUT****

CARTESIAN COORDINATES (ANGSTROEM)
---------------------------------
  C      2.756255    0.824056   -2.983497
  C      3.572526    1.223216   -1.770881
  O      3.491042    0.241958   -0.724152
  P      2.151988   -0.046455    0.085068
  S      1.215926    1.623291    0.552215
  O      2.682383   -0.895235    1.305267
  C      2.912607   -0.373224    2.633391
  C      2.280840   -1.310956    3.642441
  S      1.294237   -1.608922   -1.043636
  C      0.163256   -2.336236    0.193276
  S     -0.642278   -1.128853    1.277001
  P     -1.849455   -0.097404   -0.119286
  S     -1.205021    0.564835   -1.852887
  O     -2.522281    0.999031    0.806553
  C     -2.145291    2.386787    0.856428
  C     -3.393545    3.208917    1.104502
  O     -2.967645   -1.214635   -0.236143
  C     -3.941608   -1.230081   -1.298795
  C     -4.915907   -0.076616   -1.186789
  H      1.693385    0.819575   -2.736681
  H      2.922794    1.537592   -3.783970
  H      3.038168   -0.170995   -3.318960
  H      3.227517    2.183584   -1.373412
  H      4.637728    1.275466   -1.999475
  H      3.994971   -0.313010    2.762049
  H      2.481536    0.631604    2.698345
  H      2.483909   -0.942936    4.642733
  H      1.204832   -1.356430    3.488225
  H      2.697190   -2.308201    3.534781
  H      0.732896   -2.990998    0.849072
  H     -0.584654   -2.893540   -0.367152
  H     -1.416739    2.508041    1.662043
  H     -1.662488    2.657926   -0.088874
  H     -3.877832    2.876195    2.017894
  H     -3.113235    4.252295    1.203965
  H     -4.088299    3.102034    0.275905
  H     -3.410573   -1.193804   -2.255474
  H     -4.438435   -2.194111   -1.182284
  H     -4.392518    0.863386   -1.357629
  H     -5.694442   -0.187445   -1.935054
  H     -5.362563   -0.056903   -0.196129

 Total Charge           Charge          ....    0
 Multiplicity           Mult            ....    1
 Number of Electrons    NEL             ....  202
 Basis Dimension        Dim             ....  334

ORBITAL ENERGIES
----------------

  NO   OCC          E(Eh)            E(eV)
   0   2.0000     -88.040914     -2395.7151
   1   2.0000     -88.034877     -2395.5508
   2   2.0000     -87.981834     -2394.1074
   3   2.0000     -87.978119     -2394.0063
   4   2.0000     -76.423109     -2079.5785
   5   2.0000     -76.421776     -2079.5422
   6   2.0000     -18.789552      -511.2897
   7   2.0000     -18.787538      -511.2349
   8   2.0000     -18.786202      -511.1986
   9   2.0000     -18.783183      -511.1164
  10   2.0000      -9.958989      -270.9979
  11   2.0000      -9.948321      -270.7076
  12   2.0000      -9.947786      -270.6930
  13   2.0000      -9.944108      -270.5929
  14   2.0000      -9.943839      -270.5856
  15   2.0000      -9.884469      -268.9701
  16   2.0000      -9.882926      -268.9281
  17   2.0000      -9.882371      -268.9130
  18   2.0000      -9.875621      -268.7293
  19   2.0000      -7.685734      -209.1395
  20   2.0000      -7.680202      -208.9889
  21   2.0000      -7.626406      -207.5251
  22   2.0000      -7.622840      -207.4280
  23   2.0000      -6.420338      -174.7063
  24   2.0000      -6.418868      -174.6663
  25   2.0000      -5.713745      -155.4789
  26   2.0000      -5.710420      -155.3884
  27   2.0000      -5.708438      -155.3345
  28   2.0000      -5.704759      -155.2344
  29   2.0000      -5.702324      -155.1681
  30   2.0000      -5.696688      -155.0148
  31   2.0000      -5.655343      -153.8897
  32   2.0000      -5.651719      -153.7911
  33   2.0000      -5.647105      -153.6655
  34   2.0000      -5.646510      -153.6494
  35   2.0000      -5.643522      -153.5680
  36   2.0000      -5.642987      -153.5535
  37   2.0000      -4.642839      -126.3381
  38   2.0000      -4.642152      -126.3194
  39   2.0000      -4.641542      -126.3028
  40   2.0000      -4.640854      -126.2841
  41   2.0000      -4.640740      -126.2809
  42   2.0000      -4.639208      -126.2393
  43   2.0000      -0.982241       -26.7281
  44   2.0000      -0.980272       -26.6745
  45   2.0000      -0.942292       -25.6411
  46   2.0000      -0.940108       -25.5816
  47   2.0000      -0.761753       -20.7284
  48   2.0000      -0.718546       -19.5526
  49   2.0000      -0.706364       -19.2211
  50   2.0000      -0.685127       -18.6433
  51   2.0000      -0.680494       -18.5172
  52   2.0000      -0.665081       -18.0978
  53   2.0000      -0.649191       -17.6654
  54   2.0000      -0.634315       -17.2606
  55   2.0000      -0.598609       -16.2890
  56   2.0000      -0.587593       -15.9892
  57   2.0000      -0.567313       -15.4374
  58   2.0000      -0.563470       -15.3328
  59   2.0000      -0.560461       -15.2509
  60   2.0000      -0.500745       -13.6260
  61   2.0000      -0.494912       -13.4672
  62   2.0000      -0.475293       -12.9334
  63   2.0000      -0.466141       -12.6843
  64   2.0000      -0.453875       -12.3506
  65   2.0000      -0.436100       -11.8669
  66   2.0000      -0.433942       -11.8082
  67   2.0000      -0.429225       -11.6798
  68   2.0000      -0.423801       -11.5322
  69   2.0000      -0.413055       -11.2398
  70   2.0000      -0.405608       -11.0372
  71   2.0000      -0.393787       -10.7155
  72   2.0000      -0.389614       -10.6019
  73   2.0000      -0.386037       -10.5046
  74   2.0000      -0.377210       -10.2644
  75   2.0000      -0.372774       -10.1437
  76   2.0000      -0.366753        -9.9798
  77   2.0000      -0.354370        -9.6429
  78   2.0000      -0.353317        -9.6142
  79   2.0000      -0.349405        -9.5078
  80   2.0000      -0.345524        -9.4022
  81   2.0000      -0.341227        -9.2853
  82   2.0000      -0.339481        -9.2377
  83   2.0000      -0.336582        -9.1589
  84   2.0000      -0.328511        -8.9392
  85   2.0000      -0.317475        -8.6389
  86   2.0000      -0.304696        -8.2912
  87   2.0000      -0.292582        -7.9616
  88   2.0000      -0.290737        -7.9114
  89   2.0000      -0.279531        -7.6064
  90   2.0000      -0.278451        -7.5770
  91   2.0000      -0.272604        -7.4179
  92   2.0000      -0.265033        -7.2119
  93   2.0000      -0.258536        -7.0351
  94   2.0000      -0.255426        -6.9505
  95   2.0000      -0.246581        -6.7098
  96   2.0000      -0.222207        -6.0466
  97   2.0000      -0.211434        -5.7534
  98   2.0000      -0.186639        -5.0787
  99   2.0000      -0.184285        -5.0146
 100   2.0000      -0.180362        -4.9079
 101   0.0000      -0.050470        -1.3734
 102   0.0000      -0.033071        -0.8999
 103   0.0000      -0.010142        -0.2760
 104   0.0000       0.008162         0.2221
 105   0.0000       0.021898         0.5959

MULLIKEN ATOMIC CHARGES
-----------------------
   0 C :   -0.343338
   1 C :    0.002547
   2 O :   -0.368736
   3 P :    0.617630
   4 S :   -0.336219
   5 O :   -0.373426
   6 C :    0.000008
   7 C :   -0.302396
   8 S :   -0.091462
   9 C :   -0.315169
  10 S :   -0.104010
  11 P :    0.631690
  12 S :   -0.305803
  13 O :   -0.379686
  14 C :   -0.021114
  15 C :   -0.281888
  16 O :   -0.372630
  17 C :   -0.002152
  18 C :   -0.315099
  19 H :    0.153789
  20 H :    0.111579
  21 H :    0.117938
  22 H :    0.108793
  23 H :    0.101530
  24 H :    0.104306
  25 H :    0.106988
  26 H :    0.110578
  27 H :    0.128686
  28 H :    0.113518
  29 H :    0.186366
  30 H :    0.179402
  31 H :    0.111182
  32 H :    0.118604
  33 H :    0.114131
  34 H :    0.111183
  35 H :    0.117914
  36 H :    0.108327
  37 H :    0.101881
  38 H :    0.125925
  39 H :    0.110951
  40 H :    0.117682
Sum of atomic charges:    0.0000000

LOEWDIN ATOMIC CHARGES
----------------------
   0 C :   -0.374128
   1 C :   -0.120488
   2 O :   -0.246240
   3 P :    0.568480
   4 S :   -0.317814
   5 O :   -0.244678
   6 C :   -0.116559
   7 C :   -0.357618
   8 S :    0.086984
   9 C :   -0.467279
  10 S :    0.098139
  11 P :    0.568041
  12 S :   -0.302190
  13 O :   -0.243107
  14 C :   -0.121022
  15 C :   -0.352140
  16 O :   -0.246875
  17 C :   -0.120434
  18 C :   -0.365771
  19 H :    0.124641
  20 H :    0.130991
  21 H :    0.123460
  22 H :    0.108586
  23 H :    0.116970
  24 H :    0.115885
  25 H :    0.106164
  26 H :    0.130516
  27 H :    0.120485
  28 H :    0.124069
  29 H :    0.135116
  30 H :    0.133210
  31 H :    0.111280
  32 H :    0.108765
  33 H :    0.125646
  34 H :    0.130779
  35 H :    0.125021
  36 H :    0.108757
  37 H :    0.116994
  38 H :    0.121149
  39 H :    0.129879
  40 H :    0.126336

  Mayer bond orders larger than 0.100000
B(  0-C ,  1-C ) :   1.1630 B(  0-C , 19-H ) :   0.9257 B(  0-C , 20-H ) :   0.9378
B(  0-C , 21-H ) :   0.9436 B(  1-C ,  2-O ) :   0.9104 B(  1-C , 22-H ) :   0.9127
B(  1-C , 23-H ) :   0.9331 B(  2-O ,  3-P ) :   1.1184 B(  3-P ,  4-S ) :   1.5738
B(  3-P ,  5-O ) :   1.1216 B(  3-P ,  8-S ) :   0.9812 B(  4-S ,  8-S ) :   0.1159
B(  5-O ,  6-C ) :   0.8960 B(  6-C ,  7-C ) :   1.1634 B(  6-C , 24-H ) :   0.9340
B(  6-C , 25-H ) :   0.8995 B(  7-C , 26-H ) :   0.9408 B(  7-C , 27-H ) :   0.9411
B(  7-C , 28-H ) :   0.9498 B(  8-S ,  9-C ) :   0.9831 B(  9-C , 10-S ) :   1.0160
B(  9-C , 29-H ) :   0.9085 B(  9-C , 30-H ) :   0.9064 B( 10-S , 11-P ) :   0.9319
B( 10-S , 12-S ) :   0.1178 B( 11-P , 12-S ) :   1.6229 B( 11-P , 13-O ) :   1.1225
B( 11-P , 16-O ) :   1.1112 B( 13-O , 14-C ) :   0.8962 B( 14-C , 15-C ) :   1.1535
B( 14-C , 31-H ) :   0.9289 B( 14-C , 32-H ) :   0.9073 B( 15-C , 33-H ) :   0.9493
B( 15-C , 34-H ) :   0.9419 B( 15-C , 35-H ) :   0.9485 B( 16-O , 17-C ) :   0.9109
B( 17-C , 18-C ) :   1.1651 B( 17-C , 36-H ) :   0.9134 B( 17-C , 37-H ) :   0.9342
B( 18-C , 38-H ) :   0.9323 B( 18-C , 39-H ) :   0.9383 B( 18-C , 40-H ) :   0.9463

Dispersion correction           -0.068152331
FINAL SINGLE POINT ENERGY     -2929.511982114130

DIPOLE MOMENT
-------------

Method             : SCF
Type of density    : Electron Density
Multiplicity       :   1
Irrep              :   0
Energy             : -2929.6271788270728393 Eh
Relativity type    :
Basis              : AO
                                X                 Y                 Z
Electronic contribution:      8.389172072      -7.991610247      -2.069029167
Nuclear contribution   :     -8.654299988       7.730138060       2.461402029
                        -----------------------------------------
Total Dipole Moment    :     -0.265127917      -0.261472187       0.392372862
                        -----------------------------------------
Magnitude (a.u.)       :      0.540940828
Magnitude (Debye)      :      1.374962315

Rotational constants in cm-1:             0.011314             0.005653             0.005365
Rotational constants in MHz :           339.172230           169.460257           160.826556

                             ****ORCA TERMINATED NORMALLY****
TOTAL RUN TIME: 0 days 0 hours 0 minutes 21 seconds 230 msec
