                         Program Version 6.0.0  -   RELEASE  -
|  1> ! pbe def2-sv(p) def2/J RI DEFGRID1 loosescf d4 GCP(DFT/SV(P)) printgap
|  2> %output
|  3>     printlevel normal
|  4> end
|  5> * xyz 0 1
|  6> C 3.2284641772 -1.0174108998 -3.1950480111
|  7> C 1.9087472819 -0.7917858969 -2.4861318408
|  8> O 2.0291778841 0.2473436273 -1.4843806388
|  9> P 2.2659549774 -0.0291429345 0.0455906313
| 10> S 2.4191697187 1.6454213774 1.0412814729
| 11> O 3.5544315348 -0.9646988119 -0.0131478073
| 12> C 4.0406386155 -1.7887910655 1.0611126102
| 13> C 4.3771354596 -0.9962722746 2.3071032517
| 14> S 0.7544379737 -1.4065385508 0.6979675154
| 15> C 0.011833296 -0.4297774848 2.0374614685
| 16> S -1.8001525534 -0.4345469707 2.0024162928
| 17> P -2.1128714927 0.2635001134 0.0432704981
| 18> S -0.8483332645 1.5874275499 -0.6854809713
| 19> O -3.6243604423 0.7480718089 0.0821668063
| 20> C -4.0008258053 2.0141156751 0.6591660301
| 21> C -5.4058477187 2.3375521392 0.1928166299
| 22> O -2.2230615531 -1.1025245755 -0.7422048324
| 23> C -2.0856986014 -1.1850255426 -2.1752195827
| 24> C -3.2886012474 -0.6012880016 -2.8851956535
| 25> H 3.578910578 -0.0845314487 -3.6280284353
| 26> H 3.9764014815 -1.3810603905 -2.4962353445
| 27> H 3.0847829543 -1.7489566473 -3.9840492617
| 28> H 1.549298176 -1.7077034721 -2.0073800152
| 29> H 1.1519840007 -0.4133031657 -3.1770517267
| 30> H 3.2859280483 -2.5505831519 1.2768703078
| 31> H 4.9306693377 -2.2592289341 0.6392879684
| 32> H 5.0768154359 -0.1983982279 2.0705480583
| 33> H 3.4782760604 -0.5457370861 2.7247302437
| 34> H 4.8202942062 -1.6574156269 3.0447986209
| 35> H 0.3887980896 0.5951921758 1.9614642719
| 36> H 0.2833839101 -0.8776255596 2.9904782906
| 37> H -3.9531011739 1.9221565695 1.7477642878
| 38> H -3.2816762633 2.7736582677 0.3334481257
| 39> H -6.0839055752 1.5429387377 0.4897787438
| 40> H -5.7242788866 3.2713115503 0.6444143915
| 41> H -5.4298477453 2.43605281 -0.8886974286
| 42> H -1.1721149345 -0.6552032064 -2.464799015
| 43> H -1.9749378061 -2.2531291877 -2.3660835444
| 44> H -3.3418255434 0.4702860309 -2.6972726049
| 45> H -3.1949433286 -0.7702059321 -3.9534195114
| 46> H -4.2001018793 -1.0670892959 -2.5210275772
| 47> *
| 48>
| 49>                          ****END OF INPUT****

CARTESIAN COORDINATES (ANGSTROEM)
---------------------------------
  C      3.228464   -1.017411   -3.195048
  C      1.908747   -0.791786   -2.486132
  O      2.029178    0.247344   -1.484381
  P      2.265955   -0.029143    0.045591
  S      2.419170    1.645421    1.041281
  O      3.554432   -0.964699   -0.013148
  C      4.040639   -1.788791    1.061113
  C      4.377135   -0.996272    2.307103
  S      0.754438   -1.406539    0.697968
  C      0.011833   -0.429777    2.037461
  S     -1.800153   -0.434547    2.002416
  P     -2.112871    0.263500    0.043270
  S     -0.848333    1.587428   -0.685481
  O     -3.624360    0.748072    0.082167
  C     -4.000826    2.014116    0.659166
  C     -5.405848    2.337552    0.192817
  O     -2.223062   -1.102525   -0.742205
  C     -2.085699   -1.185026   -2.175220
  C     -3.288601   -0.601288   -2.885196
  H      3.578911   -0.084531   -3.628028
  H      3.976401   -1.381060   -2.496235
  H      3.084783   -1.748957   -3.984049
  H      1.549298   -1.707703   -2.007380
  H      1.151984   -0.413303   -3.177052
  H      3.285928   -2.550583    1.276870
  H      4.930669   -2.259229    0.639288
  H      5.076815   -0.198398    2.070548
  H      3.478276   -0.545737    2.724730
  H      4.820294   -1.657416    3.044799
  H      0.388798    0.595192    1.961464
  H      0.283384   -0.877626    2.990478
  H     -3.953101    1.922157    1.747764
  H     -3.281676    2.773658    0.333448
  H     -6.083906    1.542939    0.489779
  H     -5.724279    3.271312    0.644414
  H     -5.429848    2.436053   -0.888697
  H     -1.172115   -0.655203   -2.464799
  H     -1.974938   -2.253129   -2.366084
  H     -3.341826    0.470286   -2.697273
  H     -3.194943   -0.770206   -3.953420
  H     -4.200102   -1.067089   -2.521028

 Total Charge           Charge          ....    0
 Multiplicity           Mult            ....    1
 Number of Electrons    NEL             ....  202
 Basis Dimension        Dim             ....  334

ORBITAL ENERGIES
----------------

  NO   OCC          E(Eh)            E(eV)
   0   2.0000     -88.042194     -2395.7499
   1   2.0000     -88.041009     -2395.7176
   2   2.0000     -87.980205     -2394.0631
   3   2.0000     -87.979743     -2394.0505
   4   2.0000     -76.423576     -2079.5912
   5   2.0000     -76.421760     -2079.5418
   6   2.0000     -18.790785      -511.3232
   7   2.0000     -18.789759      -511.2953
   8   2.0000     -18.787704      -511.2394
   9   2.0000     -18.786840      -511.2159
  10   2.0000      -9.957001      -270.9438
  11   2.0000      -9.954561      -270.8774
  12   2.0000      -9.952203      -270.8132
  13   2.0000      -9.951918      -270.8055
  14   2.0000      -9.950646      -270.7709
  15   2.0000      -9.887300      -269.0471
  16   2.0000      -9.885937      -269.0100
  17   2.0000      -9.884072      -268.9593
  18   2.0000      -9.881896      -268.9001
  19   2.0000      -7.686740      -209.1668
  20   2.0000      -7.686291      -209.1546
  21   2.0000      -7.625102      -207.4896
  22   2.0000      -7.624725      -207.4793
  23   2.0000      -6.420556      -174.7122
  24   2.0000      -6.419348      -174.6793
  25   2.0000      -5.714686      -155.5045
  26   2.0000      -5.714099      -155.4885
  27   2.0000      -5.711142      -155.4081
  28   2.0000      -5.710839      -155.3998
  29   2.0000      -5.703660      -155.2045
  30   2.0000      -5.703453      -155.1988
  31   2.0000      -5.654221      -153.8592
  32   2.0000      -5.653614      -153.8427
  33   2.0000      -5.645753      -153.6287
  34   2.0000      -5.645362      -153.6181
  35   2.0000      -5.645004      -153.6084
  36   2.0000      -5.644940      -153.6066
  37   2.0000      -4.643271      -126.3498
  38   2.0000      -4.642508      -126.3291
  39   2.0000      -4.641726      -126.3078
  40   2.0000      -4.641186      -126.2931
  41   2.0000      -4.640786      -126.2822
  42   2.0000      -4.639864      -126.2571
  43   2.0000      -0.985852       -26.8264
  44   2.0000      -0.984529       -26.7904
  45   2.0000      -0.943773       -25.6814
  46   2.0000      -0.941484       -25.6191
  47   2.0000      -0.760557       -20.6958
  48   2.0000      -0.720152       -19.5963
  49   2.0000      -0.710155       -19.3243
  50   2.0000      -0.689633       -18.7659
  51   2.0000      -0.688213       -18.7272
  52   2.0000      -0.673308       -18.3216
  53   2.0000      -0.647049       -17.6071
  54   2.0000      -0.633695       -17.2437
  55   2.0000      -0.596460       -16.2305
  56   2.0000      -0.587108       -15.9760
  57   2.0000      -0.574660       -15.6373
  58   2.0000      -0.566609       -15.4182
  59   2.0000      -0.562688       -15.3115
  60   2.0000      -0.505038       -13.7428
  61   2.0000      -0.498554       -13.5663
  62   2.0000      -0.477083       -12.9821
  63   2.0000      -0.471926       -12.8418
  64   2.0000      -0.449887       -12.2421
  65   2.0000      -0.447467       -12.1762
  66   2.0000      -0.439365       -11.9557
  67   2.0000      -0.433884       -11.8066
  68   2.0000      -0.430253       -11.7078
  69   2.0000      -0.417041       -11.3483
  70   2.0000      -0.406628       -11.0649
  71   2.0000      -0.403409       -10.9773
  72   2.0000      -0.392733       -10.6868
  73   2.0000      -0.386219       -10.5095
  74   2.0000      -0.378676       -10.3043
  75   2.0000      -0.372175       -10.1274
  76   2.0000      -0.357644        -9.7320
  77   2.0000      -0.356517        -9.7013
  78   2.0000      -0.355304        -9.6683
  79   2.0000      -0.348707        -9.4888
  80   2.0000      -0.346583        -9.4310
  81   2.0000      -0.344910        -9.3855
  82   2.0000      -0.342165        -9.3108
  83   2.0000      -0.338613        -9.2141
  84   2.0000      -0.332558        -9.0494
  85   2.0000      -0.317806        -8.6479
  86   2.0000      -0.313042        -8.5183
  87   2.0000      -0.298893        -8.1333
  88   2.0000      -0.294518        -8.0143
  89   2.0000      -0.287709        -7.8290
  90   2.0000      -0.281679        -7.6649
  91   2.0000      -0.277898        -7.5620
  92   2.0000      -0.270428        -7.3587
  93   2.0000      -0.260574        -7.0906
  94   2.0000      -0.256335        -6.9752
  95   2.0000      -0.233631        -6.3574
  96   2.0000      -0.222149        -6.0450
  97   2.0000      -0.209156        -5.6914
  98   2.0000      -0.195830        -5.3288
  99   2.0000      -0.194736        -5.2990
 100   2.0000      -0.183186        -4.9847
 101   0.0000      -0.042533        -1.1574
 102   0.0000      -0.032837        -0.8935
 103   0.0000      -0.004839        -0.1317
 104   0.0000       0.010685         0.2908
 105   0.0000       0.018436         0.5017

MULLIKEN ATOMIC CHARGES
-----------------------
   0 C :   -0.274252
   1 C :   -0.039427
   2 O :   -0.344993
   3 P :    0.611293
   4 S :   -0.285978
   5 O :   -0.380886
   6 C :   -0.005658
   7 C :   -0.306067
   8 S :   -0.131249
   9 C :   -0.341780
  10 S :   -0.097406
  11 P :    0.604178
  12 S :   -0.313758
  13 O :   -0.375611
  14 C :   -0.011242
  15 C :   -0.282027
  16 O :   -0.359648
  17 C :   -0.028116
  18 C :   -0.301574
  19 H :    0.121376
  20 H :    0.121914
  21 H :    0.105987
  22 H :    0.102096
  23 H :    0.126803
  24 H :    0.106263
  25 H :    0.104301
  26 H :    0.125241
  27 H :    0.120251
  28 H :    0.108520
  29 H :    0.206965
  30 H :    0.177574
  31 H :    0.102227
  32 H :    0.107501
  33 H :    0.116533
  34 H :    0.112633
  35 H :    0.119233
  36 H :    0.125570
  37 H :    0.103312
  38 H :    0.123348
  39 H :    0.108747
  40 H :    0.117806
Sum of atomic charges:    0.0000000

LOEWDIN ATOMIC CHARGES
----------------------
   0 C :   -0.358320
   1 C :   -0.113501
   2 O :   -0.225573
   3 P :    0.571525
   4 S :   -0.280968
   5 O :   -0.248231
   6 C :   -0.119781
   7 C :   -0.368048
   8 S :    0.057205
   9 C :   -0.479795
  10 S :    0.080021
  11 P :    0.558110
  12 S :   -0.308649
  13 O :   -0.248593
  14 C :   -0.120955
  15 C :   -0.350412
  16 O :   -0.237745
  17 C :   -0.118496
  18 C :   -0.362974
  19 H :    0.130448
  20 H :    0.126750
  21 H :    0.127874
  22 H :    0.103402
  23 H :    0.120062
  24 H :    0.103662
  25 H :    0.118266
  26 H :    0.130363
  27 H :    0.118706
  28 H :    0.128459
  29 H :    0.123697
  30 H :    0.133097
  31 H :    0.109599
  32 H :    0.109252
  33 H :    0.126909
  34 H :    0.131145
  35 H :    0.127525
  36 H :    0.108796
  37 H :    0.117813
  38 H :    0.123563
  39 H :    0.128761
  40 H :    0.127033

  Mayer bond orders larger than 0.100000
B(  0-C ,  1-C ) :   1.1612 B(  0-C , 19-H ) :   0.9459 B(  0-C , 20-H ) :   0.9399
B(  0-C , 21-H ) :   0.9398 B(  1-C ,  2-O ) :   0.8990 B(  1-C , 22-H ) :   0.9177
B(  1-C , 23-H ) :   0.9218 B(  2-O ,  3-P ) :   1.1388 B(  3-P ,  4-S ) :   1.6461
B(  3-P ,  5-O ) :   1.0686 B(  3-P ,  8-S ) :   0.9280 B(  4-S ,  8-S ) :   0.1204
B(  4-S , 29-H ) :   0.1129 B(  5-O ,  6-C ) :   0.9184 B(  6-C ,  7-C ) :   1.1660
B(  6-C , 24-H ) :   0.9189 B(  6-C , 25-H ) :   0.9329 B(  7-C , 26-H ) :   0.9445
B(  7-C , 27-H ) :   0.9337 B(  7-C , 28-H ) :   0.9357 B(  8-S ,  9-C ) :   0.9987
B(  9-C , 10-S ) :   0.9985 B(  9-C , 29-H ) :   0.8456 B(  9-C , 30-H ) :   0.9104
B( 10-S , 11-P ) :   0.9605 B( 10-S , 12-S ) :   0.1141 B( 11-P , 12-S ) :   1.6288
B( 11-P , 13-O ) :   1.1010 B( 11-P , 16-O ) :   1.1261 B( 13-O , 14-C ) :   0.9039
B( 14-C , 15-C ) :   1.1601 B( 14-C , 31-H ) :   0.9284 B( 14-C , 32-H ) :   0.9095
B( 15-C , 33-H ) :   0.9503 B( 15-C , 34-H ) :   0.9420 B( 15-C , 35-H ) :   0.9518
B( 16-O , 17-C ) :   0.9080 B( 17-C , 18-C ) :   1.1637 B( 17-C , 36-H ) :   0.9032
B( 17-C , 37-H ) :   0.9347 B( 18-C , 38-H ) :   0.9365 B( 18-C , 39-H ) :   0.9391
B( 18-C , 40-H ) :   0.9463

Dispersion correction           -0.065370238
FINAL SINGLE POINT ENERGY     -2929.516464482886

DIPOLE MOMENT
-------------

Method             : SCF
Type of density    : Electron Density
Multiplicity       :   1
Irrep              :   0
Energy             : -2929.6350823818052049 Eh
Relativity type    :
Basis              : AO
                                X                 Y                 Z
Electronic contribution:      2.407400614       3.762180988      11.240354221
Nuclear contribution   :     -2.736978532      -5.105190589     -11.702238855
                        -----------------------------------------
Total Dipole Moment    :     -0.329577918      -1.343009601      -0.461884634
                        -----------------------------------------
Magnitude (a.u.)       :      1.457955352
Magnitude (Debye)      :      3.705827997

Rotational constants in cm-1:             0.012892             0.005017             0.004447
Rotational constants in MHz :           386.491095           150.405092           133.316528

                             ****ORCA TERMINATED NORMALLY****
TOTAL RUN TIME: 0 days 0 hours 0 minutes 21 seconds 61 msec
