                         Program Version 6.0.0  -   RELEASE  -
|  1> ! wb97x-v def2-tzvp def2/J RIJCOSX DEFGRID2 scfconv7 GCP(DFT/TZ) printgap
|  2> %output
|  3>     printlevel normal
|  4> end
|  5> * xyz 0 1
|  6> C -1.4801258699941067 -0.0017540040903424392 -0.23042646907206424
|  7> C -0.7279207774311038 -1.2514948386757423 0.2300602513739878
|  8> C 0.7225877744045471 -1.1863256351510443 -0.2224154914534517
|  9> O 1.376050133504973 0.0016897730876617766 0.2628758853004522
| 10> C 0.7197312416960087 1.1881428191342778 -0.22237197636558148
| 11> C -0.7309452357563891 1.2497944898064945 0.23008560590167548
| 12> H -2.505617572052076 -0.002996322743269583 0.15402493736089565
| 13> H -1.542944240526831 -0.0018197845396125067 -1.3272478871986642
| 14> H -0.7593767518776172 -1.3254801037767407 1.324692272876504
| 15> H -1.186988761944138 -2.1605580623059257 -0.17582110324236225
| 16> H 1.3033939045907403 -2.0285124201967415 0.16542672020761368
| 17> H 0.7778870394220652 -1.2022190292282964 -1.3235788235411088
| 18> H 1.2984913124403326 2.031717600998728 0.16551749281964942
| 19> H 0.7750106276508658 1.2042303478386633 -1.3235323005135093
| 20> H -0.7625934143147031 1.3236821857476468 1.3247183736445285
| 21> H -1.192207424163215 2.157748758259217 -0.17578785925568943
| 22> *
| 23>
| 24>                          ****END OF INPUT****

CARTESIAN COORDINATES (ANGSTROEM)
---------------------------------
  C     -1.480126   -0.001754   -0.230426
  C     -0.727921   -1.251495    0.230060
  C      0.722588   -1.186326   -0.222415
  O      1.376050    0.001690    0.262876
  C      0.719731    1.188143   -0.222372
  C     -0.730945    1.249794    0.230086
  H     -2.505618   -0.002996    0.154025
  H     -1.542944   -0.001820   -1.327248
  H     -0.759377   -1.325480    1.324692
  H     -1.186989   -2.160558   -0.175821
  H      1.303394   -2.028512    0.165427
  H      0.777887   -1.202219   -1.323579
  H      1.298491    2.031718    0.165517
  H      0.775011    1.204230   -1.323532
  H     -0.762593    1.323682    1.324718
  H     -1.192207    2.157749   -0.175788

 Total Charge           Charge          ....    0
 Multiplicity           Mult            ....    1
 Number of Electrons    NEL             ....   48
 Basis Dimension        Dim             ....  246

ORBITAL ENERGIES
----------------

  NO   OCC          E(Eh)            E(eV)
   0   2.0000     -21.665505      -589.5484
   1   2.0000     -12.086568      -328.8922
   2   2.0000     -12.086399      -328.8876
   3   2.0000     -12.045048      -327.7624
   4   2.0000     -12.041881      -327.6762
   5   2.0000     -12.041532      -327.6667
   6   2.0000      -1.666763       -45.3549
   7   2.0000      -1.314492       -35.7691
   8   2.0000      -1.281679       -34.8763
   9   2.0000      -1.151351       -31.3298
  10   2.0000      -1.146074       -31.1863
  11   2.0000      -1.036837       -28.2138
  12   2.0000      -0.970707       -26.4143
  13   2.0000      -0.963446       -26.2167
  14   2.0000      -0.934547       -25.4303
  15   2.0000      -0.887338       -24.1457
  16   2.0000      -0.870981       -23.7006
  17   2.0000      -0.865944       -23.5635
  18   2.0000      -0.834269       -22.7016
  19   2.0000      -0.799108       -21.7448
  20   2.0000      -0.789657       -21.4876
  21   2.0000      -0.775773       -21.1099
  22   2.0000      -0.767817       -20.8934
  23   2.0000      -0.744128       -20.2488
  24   0.0000      -0.160815        -4.3760
  25   0.0000      -0.103612        -2.8194
  26   0.0000      -0.029395        -0.7999
  27   0.0000      -0.021333        -0.5805
  28   0.0000      -0.016637        -0.4527

MULLIKEN ATOMIC CHARGES
-----------------------
   0 C :   -0.184771
   1 C :   -0.162412
   2 C :   -0.066598
   3 O :   -0.305140
   4 C :   -0.066617
   5 C :   -0.162385
   6 H :    0.101837
   7 H :    0.092608
   8 H :    0.090348
   9 H :    0.096814
  10 H :    0.108109
  11 H :    0.081469
  12 H :    0.108107
  13 H :    0.081474
  14 H :    0.090345
  15 H :    0.096811
Sum of atomic charges:    0.0000000

LOEWDIN ATOMIC CHARGES
----------------------
   0 C :   -0.263262
   1 C :   -0.268206
   2 C :   -0.305197
   3 O :    0.124738
   4 C :   -0.305200
   5 C :   -0.268204
   6 H :    0.130968
   7 H :    0.133401
   8 H :    0.135704
   9 H :    0.134299
  10 H :    0.124120
  11 H :    0.116359
  12 H :    0.124120
  13 H :    0.116358
  14 H :    0.135703
  15 H :    0.134299

  Mayer bond orders larger than 0.100000
B(  0-C ,  1-C ) :   0.9789 B(  0-C ,  5-C ) :   0.9790 B(  0-C ,  6-H ) :   0.9750
B(  0-C ,  7-H ) :   0.9803 B(  1-C ,  2-C ) :   0.9951 B(  1-C ,  8-H ) :   0.9650
B(  1-C ,  9-H ) :   0.9675 B(  2-C ,  3-O ) :   1.0087 B(  2-C , 10-H ) :   0.9709
B(  2-C , 11-H ) :   0.9834 B(  3-O ,  4-C ) :   1.0087 B(  4-C ,  5-C ) :   0.9951
B(  4-C , 12-H ) :   0.9709 B(  4-C , 13-H ) :   0.9834 B(  5-C , 14-H ) :   0.9650
B(  5-C , 15-H ) :   0.9675

FINAL SINGLE POINT ENERGY      -271.784848816506

DIPOLE MOMENT
-------------

Method             : SCF
Type of density    : Electron Density
Multiplicity       :   1
Irrep              :   0
Energy             :  -271.7960848887056500 Eh
Relativity type    :
Basis              : AO
                                X                 Y                 Z
Electronic contribution:      3.000814671       0.003586673       0.890428169
Nuclear contribution   :     -3.563277650      -0.004263234      -1.160008862
                        -----------------------------------------
Total Dipole Moment    :     -0.562462979      -0.000676561      -0.269580693
                        -----------------------------------------
Magnitude (a.u.)       :      0.623729758
Magnitude (Debye)      :      1.585395051

Rotational constants in cm-1:             0.154968             0.149919             0.086514
Rotational constants in MHz :          4645.838744          4494.452244          2593.610061

                             ****ORCA TERMINATED NORMALLY****
TOTAL RUN TIME: 0 days 0 hours 1 minutes 48 seconds 645 msec
