                         Program Version 6.0.0  -   RELEASE  -
|  1> ! wb97x-v def2-tzvp def2/J RIJCOSX DEFGRID2 scfconv7 GCP(DFT/TZ) printgap
|  2> %output
|  3>     printlevel normal
|  4> end
|  5> %cpcm
|  6>     smd true
|  7>     smdsolvent "water"
|  8> end
|  9> * xyz 0 1
| 10> C -1.4801258699941067 -0.0017540040903424392 -0.23042646907206424
| 11> C -0.7279207774311038 -1.2514948386757423 0.2300602513739878
| 12> C 0.7225877744045471 -1.1863256351510443 -0.2224154914534517
| 13> O 1.376050133504973 0.0016897730876617766 0.2628758853004522
| 14> C 0.7197312416960087 1.1881428191342778 -0.22237197636558148
| 15> C -0.7309452357563891 1.2497944898064945 0.23008560590167548
| 16> H -2.505617572052076 -0.002996322743269583 0.15402493736089565
| 17> H -1.542944240526831 -0.0018197845396125067 -1.3272478871986642
| 18> H -0.7593767518776172 -1.3254801037767407 1.324692272876504
| 19> H -1.186988761944138 -2.1605580623059257 -0.17582110324236225
| 20> H 1.3033939045907403 -2.0285124201967415 0.16542672020761368
| 21> H 0.7778870394220652 -1.2022190292282964 -1.3235788235411088
| 22> H 1.2984913124403326 2.031717600998728 0.16551749281964942
| 23> H 0.7750106276508658 1.2042303478386633 -1.3235323005135093
| 24> H -0.7625934143147031 1.3236821857476468 1.3247183736445285
| 25> H -1.192207424163215 2.157748758259217 -0.17578785925568943
| 26> *
| 27>
| 28>                          ****END OF INPUT****

CARTESIAN COORDINATES (ANGSTROEM)
---------------------------------
  C     -1.480126   -0.001754   -0.230426
  C     -0.727921   -1.251495    0.230060
  C      0.722588   -1.186326   -0.222415
  O      1.376050    0.001690    0.262876
  C      0.719731    1.188143   -0.222372
  C     -0.730945    1.249794    0.230086
  H     -2.505618   -0.002996    0.154025
  H     -1.542944   -0.001820   -1.327248
  H     -0.759377   -1.325480    1.324692
  H     -1.186989   -2.160558   -0.175821
  H      1.303394   -2.028512    0.165427
  H      0.777887   -1.202219   -1.323579
  H      1.298491    2.031718    0.165517
  H      0.775011    1.204230   -1.323532
  H     -0.762593    1.323682    1.324718
  H     -1.192207    2.157749   -0.175788

 Total Charge           Charge          ....    0
 Multiplicity           Mult            ....    1
 Number of Electrons    NEL             ....   48
 Basis Dimension        Dim             ....  246

ORBITAL ENERGIES
----------------

  NO   OCC          E(Eh)            E(eV)
   0   2.0000     -21.672806      -589.7470
   1   2.0000     -12.081471      -328.7535
   2   2.0000     -12.081309      -328.7491
   3   2.0000     -12.033547      -327.4495
   4   2.0000     -12.032327      -327.4163
   5   2.0000     -12.031701      -327.3992
   6   2.0000      -1.674179       -45.5567
   7   2.0000      -1.305511       -35.5248
   8   2.0000      -1.277910       -34.7737
   9   2.0000      -1.145106       -31.1599
  10   2.0000      -1.142117       -31.0786
  11   2.0000      -1.031925       -28.0801
  12   2.0000      -0.974030       -26.5047
  13   2.0000      -0.961069       -26.1520
  14   2.0000      -0.936891       -25.4941
  15   2.0000      -0.879689       -23.9376
  16   2.0000      -0.862988       -23.4831
  17   2.0000      -0.858787       -23.3688
  18   2.0000      -0.827632       -22.5210
  19   2.0000      -0.794728       -21.6257
  20   2.0000      -0.780651       -21.2426
  21   2.0000      -0.767428       -20.8828
  22   2.0000      -0.761279       -20.7154
  23   2.0000      -0.735982       -20.0271
  24   0.0000      -0.158605        -4.3159
  25   0.0000      -0.102297        -2.7836
  26   0.0000      -0.016631        -0.4525
  27   0.0000      -0.013581        -0.3695
  28   0.0000      -0.007043        -0.1916

MULLIKEN ATOMIC CHARGES
-----------------------
   0 C :   -0.193152
   1 C :   -0.192012
   2 C :   -0.078930
   3 O :   -0.396085
   4 C :   -0.078945
   5 C :   -0.191990
   6 H :    0.115191
   7 H :    0.106213
   8 H :    0.101190
   9 H :    0.116793
  10 H :    0.129636
  11 H :    0.107237
  12 H :    0.129634
  13 H :    0.107239
  14 H :    0.101190
  15 H :    0.116790
Sum of atomic charges:    0.0000000

LOEWDIN ATOMIC CHARGES
----------------------
   0 C :   -0.263389
   1 C :   -0.268317
   2 C :   -0.306284
   3 O :    0.083917
   4 C :   -0.306286
   5 C :   -0.268315
   6 H :    0.133763
   7 H :    0.137553
   8 H :    0.136809
   9 H :    0.140122
  10 H :    0.127635
  11 H :    0.124115
  12 H :    0.127634
  13 H :    0.124113
  14 H :    0.136809
  15 H :    0.140122

  Mayer bond orders larger than 0.100000
B(  0-C ,  1-C ) :   0.9754 B(  0-C ,  5-C ) :   0.9754 B(  0-C ,  6-H ) :   0.9725
B(  0-C ,  7-H ) :   0.9760 B(  1-C ,  2-C ) :   0.9977 B(  1-C ,  8-H ) :   0.9664
B(  1-C ,  9-H ) :   0.9632 B(  2-C ,  3-O ) :   0.9689 B(  2-C , 10-H ) :   0.9676
B(  2-C , 11-H ) :   0.9822 B(  3-O ,  4-C ) :   0.9689 B(  4-C ,  5-C ) :   0.9977
B(  4-C , 12-H ) :   0.9676 B(  4-C , 13-H ) :   0.9822 B(  5-C , 14-H ) :   0.9663
B(  5-C , 15-H ) :   0.9632

FINAL SINGLE POINT ENERGY      -271.789384584721

DIPOLE MOMENT
-------------

Method             : SCF
Type of density    : Electron Density
Multiplicity       :   1
Irrep              :   0
Energy             :  -271.8006206569213532 Eh
Relativity type    :
Basis              : AO
                                X                 Y                 Z
Electronic contribution:      2.761227177       0.003302235       0.709823090
Nuclear contribution   :     -3.563277650      -0.004263234      -1.160008862
                        -----------------------------------------
Total Dipole Moment    :     -0.802050473      -0.000960999      -0.450185771
                        -----------------------------------------
Magnitude (a.u.)       :      0.919757095
Magnitude (Debye)      :      2.337836745

Rotational constants in cm-1:             0.154968             0.149919             0.086514
Rotational constants in MHz :          4645.838744          4494.452244          2593.610061

                             ****ORCA TERMINATED NORMALLY****
TOTAL RUN TIME: 0 days 0 hours 2 minutes 5 seconds 188 msec
