                         Program Version 6.0.0  -   RELEASE  -
|  1> ! pbe def2-sv(p) def2/J RI DEFGRID1 loosescf d4 GCP(DFT/SV(P)) printgap
|  2> %output
|  3>     printlevel normal
|  4> end
|  5> * xyz 0 1
|  6> C 4.0963839575 -1.6602199875 -2.2899270399
|  7> C 4.3480353772 -1.6727808571 -0.7960871006
|  8> O 3.1253792309 -1.5930456983 -0.0428071931
|  9> P 2.2237453809 -0.282805844 -0.0129929574
| 10> S 3.236040624 1.3985453173 0.0550665545
| 11> O 1.2846147054 -0.5918913593 1.2240396053
| 12> C 1.6430787788 -0.2402908705 2.5814045162
| 13> C 0.3865047788 0.1874657421 3.3111559279
| 14> S 0.8388170031 -0.5381386277 -1.5831762246
| 15> C 0.2811660093 1.1882447076 -1.6443048531
| 16> S -0.557163131 1.7191610678 -0.1373294117
| 17> P -2.2919518749 0.4762648818 -0.3395757217
| 18> S -2.7996799097 -0.0032847814 -2.1631795294
| 19> O -3.4069002311 1.3170531132 0.3837781983
| 20> C -3.2676167183 2.0121858136 1.6469317432
| 21> C -3.4942698974 1.0854877744 2.8227638218
| 22> O -2.0546928993 -0.7553084119 0.6438583336
| 23> C -1.6567455685 -2.0730146131 0.2323114058
| 24> C -2.6342659664 -3.0791156613 0.8075076117
| 25> H 3.7013551692 -0.6912877648 -2.5930799558
| 26> H 5.0298862111 -1.8384560437 -2.8139361267
| 27> H 3.3772628595 -2.4298465318 -2.559165685
| 28> H 4.986891811 -0.8325058445 -0.5059247271
| 29> H 4.7964874703 -2.6119457634 -0.4697195659
| 30> H 2.0941844342 -1.1243339922 3.0373054232
| 31> H 2.3802424053 0.5692823349 2.5517293675
| 32> H -0.3480396885 -0.6126354762 3.2836966259
| 33> H 0.6329433679 0.4152861305 4.3429638719
| 34> H -0.0342466352 1.0718383055 2.8389011398
| 35> H -0.4014511256 1.2586220613 -2.4907734853
| 36> H 1.1412830858 1.8461034848 -1.7647539332
| 37> H -2.2759756515 2.4717964071 1.6845772101
| 38> H -4.0300440542 2.7916084692 1.598304192
| 39> H -2.7341976949 0.3099388061 2.8436621506
| 40> H -3.4436275675 1.6609992437 3.7417344077
| 41> H -4.4720449213 0.6181434954 2.7447520494
| 42> H -1.6461500209 -2.1210448296 -0.8618743201
| 43> H -0.643317792 -2.2334551603 0.6092644905
| 44> H -3.6291348882 -2.8980548457 0.4082508375
| 45> H -2.3165066787 -4.0795581974 0.5323495833
| 46> H -2.6677882964 -2.9964466579 1.8900059504
| 47> *
| 48>
| 49>                          ****END OF INPUT****

CARTESIAN COORDINATES (ANGSTROEM)
---------------------------------
  C      4.096384   -1.660220   -2.289927
  C      4.348035   -1.672781   -0.796087
  O      3.125379   -1.593046   -0.042807
  P      2.223745   -0.282806   -0.012993
  S      3.236041    1.398545    0.055067
  O      1.284615   -0.591891    1.224040
  C      1.643079   -0.240291    2.581405
  C      0.386505    0.187466    3.311156
  S      0.838817   -0.538139   -1.583176
  C      0.281166    1.188245   -1.644305
  S     -0.557163    1.719161   -0.137329
  P     -2.291952    0.476265   -0.339576
  S     -2.799680   -0.003285   -2.163180
  O     -3.406900    1.317053    0.383778
  C     -3.267617    2.012186    1.646932
  C     -3.494270    1.085488    2.822764
  O     -2.054693   -0.755308    0.643858
  C     -1.656746   -2.073015    0.232311
  C     -2.634266   -3.079116    0.807508
  H      3.701355   -0.691288   -2.593080
  H      5.029886   -1.838456   -2.813936
  H      3.377263   -2.429847   -2.559166
  H      4.986892   -0.832506   -0.505925
  H      4.796487   -2.611946   -0.469720
  H      2.094184   -1.124334    3.037305
  H      2.380242    0.569282    2.551729
  H     -0.348040   -0.612635    3.283697
  H      0.632943    0.415286    4.342964
  H     -0.034247    1.071838    2.838901
  H     -0.401451    1.258622   -2.490773
  H      1.141283    1.846103   -1.764754
  H     -2.275976    2.471796    1.684577
  H     -4.030044    2.791608    1.598304
  H     -2.734198    0.309939    2.843662
  H     -3.443628    1.660999    3.741734
  H     -4.472045    0.618143    2.744752
  H     -1.646150   -2.121045   -0.861874
  H     -0.643318   -2.233455    0.609264
  H     -3.629135   -2.898055    0.408251
  H     -2.316507   -4.079558    0.532350
  H     -2.667788   -2.996447    1.890006

 Total Charge           Charge          ....    0
 Multiplicity           Mult            ....    1
 Number of Electrons    NEL             ....  202
 Basis Dimension        Dim             ....  334

ORBITAL ENERGIES
----------------

  NO   OCC          E(Eh)            E(eV)
   0   2.0000     -88.046416     -2395.8648
   1   2.0000     -88.039735     -2395.6830
   2   2.0000     -87.992091     -2394.3865
   3   2.0000     -87.985594     -2394.2097
   4   2.0000     -76.429329     -2079.7478
   5   2.0000     -76.426329     -2079.6661
   6   2.0000     -18.795890      -511.4622
   7   2.0000     -18.795385      -511.4484
   8   2.0000     -18.793007      -511.3837
   9   2.0000     -18.788502      -511.2611
  10   2.0000      -9.963000      -271.1070
  11   2.0000      -9.954853      -270.8853
  12   2.0000      -9.954671      -270.8804
  13   2.0000      -9.954504      -270.8758
  14   2.0000      -9.942955      -270.5616
  15   2.0000      -9.890477      -269.1336
  16   2.0000      -9.889048      -269.0947
  17   2.0000      -9.886158      -269.0160
  18   2.0000      -9.882106      -268.9058
  19   2.0000      -7.691208      -209.2884
  20   2.0000      -7.684560      -209.1075
  21   2.0000      -7.637034      -207.8143
  22   2.0000      -7.630866      -207.6464
  23   2.0000      -6.426993      -174.8874
  24   2.0000      -6.423821      -174.8011
  25   2.0000      -5.719067      -155.6237
  26   2.0000      -5.715813      -155.5352
  27   2.0000      -5.712393      -155.4421
  28   2.0000      -5.709163      -155.3542
  29   2.0000      -5.708105      -155.3254
  30   2.0000      -5.701508      -155.1459
  31   2.0000      -5.665747      -154.1728
  32   2.0000      -5.659903      -154.0138
  33   2.0000      -5.657763      -153.9556
  34   2.0000      -5.657312      -153.9433
  35   2.0000      -5.651442      -153.7835
  36   2.0000      -5.650889      -153.7685
  37   2.0000      -4.649454      -126.5181
  38   2.0000      -4.648718      -126.4981
  39   2.0000      -4.647539      -126.4660
  40   2.0000      -4.646571      -126.4396
  41   2.0000      -4.645481      -126.4100
  42   2.0000      -4.644234      -126.3760
  43   2.0000      -0.989455       -26.9244
  44   2.0000      -0.986513       -26.8444
  45   2.0000      -0.947797       -25.7909
  46   2.0000      -0.944161       -25.6919
  47   2.0000      -0.766246       -20.8506
  48   2.0000      -0.724527       -19.7154
  49   2.0000      -0.713703       -19.4208
  50   2.0000      -0.690973       -18.8023
  51   2.0000      -0.689074       -18.7507
  52   2.0000      -0.674644       -18.3580
  53   2.0000      -0.650953       -17.7133
  54   2.0000      -0.640900       -17.4398
  55   2.0000      -0.602106       -16.3841
  56   2.0000      -0.592940       -16.1347
  57   2.0000      -0.575765       -15.6674
  58   2.0000      -0.571550       -15.5527
  59   2.0000      -0.560229       -15.2446
  60   2.0000      -0.508111       -13.8264
  61   2.0000      -0.499863       -13.6020
  62   2.0000      -0.482630       -13.1330
  63   2.0000      -0.475934       -12.9508
  64   2.0000      -0.458097       -12.4655
  65   2.0000      -0.447151       -12.1676
  66   2.0000      -0.444759       -12.1025
  67   2.0000      -0.434982       -11.8365
  68   2.0000      -0.428565       -11.6618
  69   2.0000      -0.418585       -11.3903
  70   2.0000      -0.407422       -11.0865
  71   2.0000      -0.395717       -10.7680
  72   2.0000      -0.393115       -10.6972
  73   2.0000      -0.388568       -10.5735
  74   2.0000      -0.384240       -10.4557
  75   2.0000      -0.375016       -10.2047
  76   2.0000      -0.368087       -10.0162
  77   2.0000      -0.360154        -9.8003
  78   2.0000      -0.356146        -9.6912
  79   2.0000      -0.355193        -9.6653
  80   2.0000      -0.350698        -9.5430
  81   2.0000      -0.347297        -9.4504
  82   2.0000      -0.346242        -9.4217
  83   2.0000      -0.341887        -9.3032
  84   2.0000      -0.338766        -9.2183
  85   2.0000      -0.318259        -8.6603
  86   2.0000      -0.313546        -8.5320
  87   2.0000      -0.300331        -8.1724
  88   2.0000      -0.296297        -8.0626
  89   2.0000      -0.289172        -7.8688
  90   2.0000      -0.287699        -7.8287
  91   2.0000      -0.280369        -7.6292
  92   2.0000      -0.276577        -7.5260
  93   2.0000      -0.267023        -7.2661
  94   2.0000      -0.255346        -6.9483
  95   2.0000      -0.235447        -6.4068
  96   2.0000      -0.216254        -5.8846
  97   2.0000      -0.214162        -5.8276
  98   2.0000      -0.209586        -5.7031
  99   2.0000      -0.201619        -5.4863
 100   2.0000      -0.199825        -5.4375
 101   0.0000      -0.047890        -1.3031
 102   0.0000      -0.027313        -0.7432
 103   0.0000      -0.006987        -0.1901
 104   0.0000       0.000343         0.0093
 105   0.0000       0.007057         0.1920

MULLIKEN ATOMIC CHARGES
-----------------------
   0 C :   -0.316605
   1 C :   -0.004301
   2 O :   -0.375653
   3 P :    0.616252
   4 S :   -0.335203
   5 O :   -0.362713
   6 C :   -0.004045
   7 C :   -0.305698
   8 S :   -0.075112
   9 C :   -0.349742
  10 S :   -0.121816
  11 P :    0.627220
  12 S :   -0.316716
  13 O :   -0.358950
  14 C :   -0.027341
  15 C :   -0.311192
  16 O :   -0.384004
  17 C :   -0.024282
  18 C :   -0.275705
  19 H :    0.126921
  20 H :    0.114502
  21 H :    0.118822
  22 H :    0.111986
  23 H :    0.105525
  24 H :    0.103362
  25 H :    0.107654
  26 H :    0.129158
  27 H :    0.108421
  28 H :    0.126490
  29 H :    0.195528
  30 H :    0.191611
  31 H :    0.122113
  32 H :    0.116234
  33 H :    0.141527
  34 H :    0.110970
  35 H :    0.120786
  36 H :    0.112993
  37 H :    0.109148
  38 H :    0.115433
  39 H :    0.108344
  40 H :    0.108080
Sum of atomic charges:    0.0000000

LOEWDIN ATOMIC CHARGES
----------------------
   0 C :   -0.369002
   1 C :   -0.119521
   2 O :   -0.247816
   3 P :    0.570095
   4 S :   -0.322909
   5 O :   -0.238808
   6 C :   -0.114686
   7 C :   -0.355025
   8 S :    0.106802
   9 C :   -0.480893
  10 S :    0.067823
  11 P :    0.572951
  12 S :   -0.306661
  13 O :   -0.235601
  14 C :   -0.110365
  15 C :   -0.363374
  16 O :   -0.245424
  17 C :   -0.128969
  18 C :   -0.353328
  19 H :    0.121233
  20 H :    0.131752
  21 H :    0.124980
  22 H :    0.110713
  23 H :    0.118836
  24 H :    0.113896
  25 H :    0.108174
  26 H :    0.125564
  27 H :    0.129108
  28 H :    0.122436
  29 H :    0.131466
  30 H :    0.131075
  31 H :    0.105349
  32 H :    0.124857
  33 H :    0.127136
  34 H :    0.130322
  35 H :    0.130112
  36 H :    0.103064
  37 H :    0.107469
  38 H :    0.126638
  39 H :    0.129130
  40 H :    0.121402

  Mayer bond orders larger than 0.100000
B(  0-C ,  1-C ) :   1.1643 B(  0-C , 19-H ) :   0.9357 B(  0-C , 20-H ) :   0.9379
B(  0-C , 21-H ) :   0.9450 B(  1-C ,  2-O ) :   0.9088 B(  1-C , 22-H ) :   0.9157
B(  1-C , 23-H ) :   0.9338 B(  2-O ,  3-P ) :   1.1123 B(  3-P ,  4-S ) :   1.5985
B(  3-P ,  5-O ) :   1.1171 B(  3-P ,  8-S ) :   0.9628 B(  4-S ,  8-S ) :   0.1078
B(  5-O ,  6-C ) :   0.8949 B(  6-C ,  7-C ) :   1.1645 B(  6-C , 24-H ) :   0.9337
B(  6-C , 25-H ) :   0.9039 B(  7-C , 26-H ) :   0.9416 B(  7-C , 27-H ) :   0.9380
B(  7-C , 28-H ) :   0.9428 B(  8-S ,  9-C ) :   0.9942 B(  9-C , 10-S ) :   1.0231
B(  9-C , 29-H ) :   0.8778 B(  9-C , 30-H ) :   0.8827 B( 10-S , 11-P ) :   0.9253
B( 10-S , 12-S ) :   0.1045 B( 11-P , 12-S ) :   1.6364 B( 11-P , 13-O ) :   1.1507
B( 11-P , 16-O ) :   1.0868 B( 13-O , 14-C ) :   0.9013 B( 14-C , 15-C ) :   1.1624
B( 14-C , 31-H ) :   0.9123 B( 14-C , 32-H ) :   0.9346 B( 15-C , 33-H ) :   0.9313
B( 15-C , 34-H ) :   0.9379 B( 15-C , 35-H ) :   0.9446 B( 16-O , 17-C ) :   0.8970
B( 17-C , 18-C ) :   1.1569 B( 17-C , 36-H ) :   0.9014 B( 17-C , 37-H ) :   0.9204
B( 18-C , 38-H ) :   0.9481 B( 18-C , 39-H ) :   0.9422 B( 18-C , 40-H ) :   0.9516

Dispersion correction           -0.066567449
FINAL SINGLE POINT ENERGY     -2929.523451252498

DIPOLE MOMENT
-------------

Method             : SCF
Type of density    : Electron Density
Multiplicity       :   1
Irrep              :   0
Energy             : -2929.6425227707354679 Eh
Relativity type    :
Basis              : AO
                                X                 Y                 Z
Electronic contribution:      0.930211595      10.356449522     -15.998013975
Nuclear contribution   :     -0.446367126     -11.019124177      17.390941157
                        -----------------------------------------
Total Dipole Moment    :      0.483844469      -0.662674655       1.392927182
                        -----------------------------------------
Magnitude (a.u.)       :      1.616628994
Magnitude (Debye)      :      4.109144343

Rotational constants in cm-1:             0.011790             0.005444             0.005051
Rotational constants in MHz :           353.459560           163.200903           151.436899

                             ****ORCA TERMINATED NORMALLY****
TOTAL RUN TIME: 0 days 0 hours 0 minutes 21 seconds 684 msec
