                         Program Version 6.0.0  -   RELEASE  -
|  1> ! pbe def2-sv(p) def2/J RI DEFGRID1 loosescf d4 GCP(DFT/SV(P)) printgap
|  2> %output
|  3>     printlevel normal
|  4> end
|  5> * xyz 0 1
|  6> C 2.4201374426 -0.1089826186 -3.0715189953
|  7> C 3.2357070909 0.4794841777 -1.9379328938
|  8> O 2.3877541459 0.9496482809 -0.8620531843
|  9> P 1.9739609932 0.0784749523 0.395443205
| 10> S 0.9958576164 1.165674756 1.6907034233
| 11> O 3.3511758883 -0.531479599 0.9558316231
| 12> C 4.2846323791 0.2907869157 1.6864620299
| 13> C 4.1594111096 0.0365398849 3.1758928073
| 14> S 1.1699221834 -1.7643312416 -0.2347308499
| 15> C -0.1679057635 -1.945930601 0.9888696985
| 16> S -1.8212880887 -1.9949050221 0.2460708781
| 17> P -2.0778212094 0.0463766717 -0.2379390839
| 18> S -0.7776308029 0.8519885491 -1.4776244099
| 19> O -2.1997850003 0.6180697782 1.2327367741
| 20> C -2.8574184956 1.8479379963 1.6044464438
| 21> C -2.284698712 3.0546725213 0.8922993232
| 22> O -3.5753162839 0.1397802945 -0.7561541887
| 23> C -3.9181600073 -0.0228051769 -2.1437131024
| 24> C -3.7100415853 -1.4483518437 -2.6106401193
| 25> H 1.622236913 0.5773343667 -3.3453413726
| 26> H 3.0678889164 -0.2717292008 -3.9269388991
| 27> H 1.9729819949 -1.0553414207 -2.7764692576
| 28> H 3.7643617908 1.3786801782 -2.2597046013
| 29> H 3.9452068077 -0.2505986046 -1.538629941
| 30> H 5.2696797562 -7.62158e-05 1.3160923681
| 31> H 4.1011111165 1.3446680614 1.4519251615
| 32> H 4.2881463701 -1.0221392983 3.3819927529
| 33> H 4.9206954071 0.6035717935 3.7018723433
| 34> H 3.1777690917 0.3476878527 3.5267388297
| 35> H -0.1115354318 -1.118648939 1.700327256
| 36> H -0.0392508849 -2.9062426477 1.4805432289
| 37> H -3.9235887643 1.7361579508 1.3946671152
| 38> H -2.6876666289 1.9063542906 2.6809332306
| 39> H -2.7541002419 3.9561805686 1.2727730725
| 40> H -1.2105040225 3.1106878558 1.0598768512
| 41> H -2.4646347418 2.9818653457 -0.1797644457
| 42> H -4.9673969257 0.2714726917 -2.1902140554
| 43> H -3.3073875465 0.6682680071 -2.733678882
| 44> H -4.2319316392 -2.1408824496 -1.9552735931
| 45> H -4.0842728038 -1.5542963785 -3.6236961527
| 46> H -2.6476803561 -1.6893966471 -2.5983758972
| 47> *
| 48>
| 49>                          ****END OF INPUT****

CARTESIAN COORDINATES (ANGSTROEM)
---------------------------------
  C      2.420137   -0.108983   -3.071519
  C      3.235707    0.479484   -1.937933
  O      2.387754    0.949648   -0.862053
  P      1.973961    0.078475    0.395443
  S      0.995858    1.165675    1.690703
  O      3.351176   -0.531480    0.955832
  C      4.284632    0.290787    1.686462
  C      4.159411    0.036540    3.175893
  S      1.169922   -1.764331   -0.234731
  C     -0.167906   -1.945931    0.988870
  S     -1.821288   -1.994905    0.246071
  P     -2.077821    0.046377   -0.237939
  S     -0.777631    0.851989   -1.477624
  O     -2.199785    0.618070    1.232737
  C     -2.857418    1.847938    1.604446
  C     -2.284699    3.054673    0.892299
  O     -3.575316    0.139780   -0.756154
  C     -3.918160   -0.022805   -2.143713
  C     -3.710042   -1.448352   -2.610640
  H      1.622237    0.577334   -3.345341
  H      3.067889   -0.271729   -3.926939
  H      1.972982   -1.055341   -2.776469
  H      3.764362    1.378680   -2.259705
  H      3.945207   -0.250599   -1.538630
  H      5.269680   -0.000076    1.316092
  H      4.101111    1.344668    1.451925
  H      4.288146   -1.022139    3.381993
  H      4.920695    0.603572    3.701872
  H      3.177769    0.347688    3.526739
  H     -0.111535   -1.118649    1.700327
  H     -0.039251   -2.906243    1.480543
  H     -3.923589    1.736158    1.394667
  H     -2.687667    1.906354    2.680933
  H     -2.754100    3.956181    1.272773
  H     -1.210504    3.110688    1.059877
  H     -2.464635    2.981865   -0.179764
  H     -4.967397    0.271473   -2.190214
  H     -3.307388    0.668268   -2.733679
  H     -4.231932   -2.140882   -1.955274
  H     -4.084273   -1.554296   -3.623696
  H     -2.647680   -1.689397   -2.598376

 Total Charge           Charge          ....    0
 Multiplicity           Mult            ....    1
 Number of Electrons    NEL             ....  202
 Basis Dimension        Dim             ....  334

ORBITAL ENERGIES
----------------

  NO   OCC          E(Eh)            E(eV)
   0   2.0000     -88.036004     -2395.5815
   1   2.0000     -88.035455     -2395.5665
   2   2.0000     -87.980238     -2394.0640
   3   2.0000     -87.977795     -2393.9975
   4   2.0000     -76.420577     -2079.5096
   5   2.0000     -76.419597     -2079.4830
   6   2.0000     -18.790661      -511.3199
   7   2.0000     -18.787583      -511.2361
   8   2.0000     -18.779878      -511.0264
   9   2.0000     -18.779389      -511.0132
  10   2.0000      -9.953995      -270.8620
  11   2.0000      -9.952914      -270.8326
  12   2.0000      -9.950074      -270.7553
  13   2.0000      -9.947632      -270.6888
  14   2.0000      -9.946859      -270.6678
  15   2.0000      -9.882395      -268.9137
  16   2.0000      -9.880191      -268.8537
  17   2.0000      -9.876449      -268.7518
  18   2.0000      -9.871042      -268.6047
  19   2.0000      -7.681443      -209.0227
  20   2.0000      -7.681070      -209.0125
  21   2.0000      -7.625420      -207.4982
  22   2.0000      -7.622322      -207.4139
  23   2.0000      -6.417792      -174.6370
  24   2.0000      -6.417343      -174.6248
  25   2.0000      -5.709415      -155.3611
  26   2.0000      -5.708878      -155.3465
  27   2.0000      -5.706196      -155.2735
  28   2.0000      -5.705756      -155.2615
  29   2.0000      -5.697963      -155.0494
  30   2.0000      -5.697832      -155.0459
  31   2.0000      -5.654391      -153.8638
  32   2.0000      -5.651134      -153.7752
  33   2.0000      -5.646374      -153.6456
  34   2.0000      -5.645044      -153.6095
  35   2.0000      -5.642990      -153.5536
  36   2.0000      -5.642612      -153.5433
  37   2.0000      -4.640836      -126.2836
  38   2.0000      -4.640333      -126.2699
  39   2.0000      -4.639427      -126.2452
  40   2.0000      -4.638736      -126.2264
  41   2.0000      -4.637988      -126.2061
  42   2.0000      -4.637826      -126.2016
  43   2.0000      -0.982403       -26.7326
  44   2.0000      -0.978089       -26.6151
  45   2.0000      -0.938417       -25.5356
  46   2.0000      -0.934517       -25.4295
  47   2.0000      -0.757968       -20.6253
  48   2.0000      -0.716826       -19.5058
  49   2.0000      -0.703797       -19.1513
  50   2.0000      -0.686690       -18.6858
  51   2.0000      -0.682834       -18.5808
  52   2.0000      -0.667144       -18.1539
  53   2.0000      -0.649045       -17.6614
  54   2.0000      -0.630515       -17.1572
  55   2.0000      -0.592006       -16.1093
  56   2.0000      -0.580807       -15.8046
  57   2.0000      -0.572727       -15.5847
  58   2.0000      -0.570751       -15.5309
  59   2.0000      -0.552865       -15.0442
  60   2.0000      -0.502876       -13.6840
  61   2.0000      -0.490736       -13.3536
  62   2.0000      -0.468807       -12.7569
  63   2.0000      -0.465045       -12.6545
  64   2.0000      -0.450293       -12.2531
  65   2.0000      -0.447045       -12.1647
  66   2.0000      -0.434947       -11.8355
  67   2.0000      -0.427015       -11.6197
  68   2.0000      -0.422970       -11.5096
  69   2.0000      -0.412940       -11.2367
  70   2.0000      -0.408938       -11.1278
  71   2.0000      -0.401588       -10.9278
  72   2.0000      -0.383362       -10.4318
  73   2.0000      -0.378075       -10.2879
  74   2.0000      -0.374521       -10.1912
  75   2.0000      -0.365776        -9.9533
  76   2.0000      -0.363042        -9.8789
  77   2.0000      -0.352022        -9.5790
  78   2.0000      -0.349998        -9.5239
  79   2.0000      -0.345475        -9.4008
  80   2.0000      -0.341943        -9.3047
  81   2.0000      -0.337444        -9.1823
  82   2.0000      -0.335357        -9.1255
  83   2.0000      -0.331151        -9.0111
  84   2.0000      -0.327640        -8.9155
  85   2.0000      -0.313763        -8.5379
  86   2.0000      -0.304201        -8.2777
  87   2.0000      -0.300966        -8.1897
  88   2.0000      -0.292281        -7.9534
  89   2.0000      -0.281792        -7.6680
  90   2.0000      -0.275079        -7.4853
  91   2.0000      -0.271153        -7.3785
  92   2.0000      -0.268146        -7.2966
  93   2.0000      -0.264418        -7.1952
  94   2.0000      -0.252142        -6.8611
  95   2.0000      -0.232899        -6.3375
  96   2.0000      -0.216472        -5.8905
  97   2.0000      -0.203380        -5.5343
  98   2.0000      -0.195931        -5.3316
  99   2.0000      -0.186085        -5.0636
 100   2.0000      -0.180341        -4.9073
 101   0.0000      -0.037054        -1.0083
 102   0.0000      -0.030865        -0.8399
 103   0.0000      -0.008976        -0.2443
 104   0.0000       0.003072         0.0836
 105   0.0000       0.024815         0.6753

MULLIKEN ATOMIC CHARGES
-----------------------
   0 C :   -0.300673
   1 C :   -0.029820
   2 O :   -0.360333
   3 P :    0.623124
   4 S :   -0.302124
   5 O :   -0.387484
   6 C :   -0.014321
   7 C :   -0.281905
   8 S :   -0.088065
   9 C :   -0.348594
  10 S :   -0.094112
  11 P :    0.628496
  12 S :   -0.317634
  13 O :   -0.368585
  14 C :    0.007645
  15 C :   -0.323766
  16 O :   -0.379582
  17 C :   -0.002674
  18 C :   -0.322638
  19 H :    0.135445
  20 H :    0.106718
  21 H :    0.132625
  22 H :    0.108935
  23 H :    0.103983
  24 H :    0.099250
  25 H :    0.103598
  26 H :    0.110419
  27 H :    0.103995
  28 H :    0.122728
  29 H :    0.199026
  30 H :    0.183425
  31 H :    0.104084
  32 H :    0.105350
  33 H :    0.103748
  34 H :    0.141474
  35 H :    0.121050
  36 H :    0.102919
  37 H :    0.110526
  38 H :    0.119013
  39 H :    0.113519
  40 H :    0.131216
Sum of atomic charges:   -0.0000000

LOEWDIN ATOMIC CHARGES
----------------------
   0 C :   -0.363826
   1 C :   -0.115668
   2 O :   -0.236335
   3 P :    0.571811
   4 S :   -0.291981
   5 O :   -0.265362
   6 C :   -0.120333
   7 C :   -0.360749
   8 S :    0.086803
   9 C :   -0.476799
  10 S :    0.079727
  11 P :    0.571727
  12 S :   -0.304716
  13 O :   -0.240898
  14 C :   -0.106483
  15 C :   -0.371666
  16 O :   -0.244988
  17 C :   -0.121567
  18 C :   -0.371243
  19 H :    0.130813
  20 H :    0.128113
  21 H :    0.120416
  22 H :    0.120866
  23 H :    0.108013
  24 H :    0.113510
  25 H :    0.108298
  26 H :    0.124627
  27 H :    0.126765
  28 H :    0.123784
  29 H :    0.125797
  30 H :    0.138404
  31 H :    0.110925
  32 H :    0.120622
  33 H :    0.126193
  34 H :    0.130023
  35 H :    0.119322
  36 H :    0.117384
  37 H :    0.109505
  38 H :    0.124608
  39 H :    0.131598
  40 H :    0.122961

  Mayer bond orders larger than 0.100000
B(  0-C ,  1-C ) :   1.1713 B(  0-C , 19-H ) :   0.9400 B(  0-C , 20-H ) :   0.9375
B(  0-C , 21-H ) :   0.9353 B(  1-C ,  2-O ) :   0.9088 B(  1-C , 22-H ) :   0.9345
B(  1-C , 23-H ) :   0.9179 B(  2-O ,  3-P ) :   1.1166 B(  3-P ,  4-S ) :   1.6112
B(  3-P ,  5-O ) :   1.0669 B(  3-P ,  8-S ) :   0.9587 B(  4-S ,  8-S ) :   0.1117
B(  4-S , 29-H ) :   0.1020 B(  5-O ,  6-C ) :   0.9032 B(  6-C ,  7-C ) :   1.1717
B(  6-C , 24-H ) :   0.9335 B(  6-C , 25-H ) :   0.9127 B(  7-C , 26-H ) :   0.9477
B(  7-C , 27-H ) :   0.9409 B(  7-C , 28-H ) :   0.9351 B(  8-S ,  9-C ) :   0.9988
B(  9-C , 10-S ) :   0.9995 B(  9-C , 29-H ) :   0.8537 B(  9-C , 30-H ) :   0.9123
B( 10-S , 11-P ) :   0.9546 B( 10-S , 12-S ) :   0.1215 B( 11-P , 12-S ) :   1.6226
B( 11-P , 13-O ) :   1.1220 B( 11-P , 16-O ) :   1.0860 B( 13-O , 14-C ) :   0.9039
B( 14-C , 15-C ) :   1.1683 B( 14-C , 31-H ) :   0.9324 B( 14-C , 32-H ) :   0.9346
B( 15-C , 33-H ) :   0.9350 B( 15-C , 34-H ) :   0.9352 B( 15-C , 35-H ) :   0.9352
B( 16-O , 17-C ) :   0.9068 B( 17-C , 18-C ) :   1.1658 B( 17-C , 36-H ) :   0.9325
B( 17-C , 37-H ) :   0.9114 B( 18-C , 38-H ) :   0.9446 B( 18-C , 39-H ) :   0.9382
B( 18-C , 40-H ) :   0.9323

Dispersion correction           -0.067807017
FINAL SINGLE POINT ENERGY     -2929.509208028012

DIPOLE MOMENT
-------------

Method             : SCF
Type of density    : Electron Density
Multiplicity       :   1
Irrep              :   0
Energy             : -2929.6261649566285996 Eh
Relativity type    :
Basis              : AO
                                X                 Y                 Z
Electronic contribution:     -3.391709812      -6.530611791       3.725899818
Nuclear contribution   :      3.576157990       6.404871504      -4.041898303
                        -----------------------------------------
Total Dipole Moment    :      0.184448178      -0.125740287      -0.315998485
                        -----------------------------------------
Magnitude (a.u.)       :      0.386893774
Magnitude (Debye)      :      0.983405822

Rotational constants in cm-1:             0.012107             0.005529             0.005043
Rotational constants in MHz :           362.963707           165.755384           151.196470

                             ****ORCA TERMINATED NORMALLY****
TOTAL RUN TIME: 0 days 0 hours 0 minutes 21 seconds 340 msec
