                         Program Version 6.0.1  -  RELEASE   -
|  1> ! pbe def2-sv(p) def2/J RI DEFGRID1 loosescf d4 GCP(DFT/SV(P)) printgap
|  2> %output
|  3>     printlevel normal
|  4> end
|  5> * xyz 0 1
|  6> C 5.1910905889 -1.3253541411 -2.2692712833
|  7> C 4.2138102769 -0.274245251 -1.7672246516
|  8> O 2.9052997435 -0.8403950933 -1.5648847499
|  9> C 2.6420484133 -1.4146455882 -0.4093697039
| 10> O 3.4239978947 -1.5157090317 0.5085816432
| 11> C 1.2118582705 -1.9272502242 -0.3632374158
| 12> C 0.2478763285 -0.7411209684 -0.4405697135
| 13> H 0.3833590447 -0.200025017 -1.3799487878
| 14> C 0.5004205887 0.1954802912 0.7266795095
| 15> O -0.2106025115 0.2377183043 1.7087947757
| 16> O 1.5891461314 0.8972047366 0.5410237373
| 17> C 2.0082413181 1.7928753862 1.5925956082
| 18> C 2.6761916073 1.035276907 2.7284831134
| 19> S -1.4722412003 -1.3337410812 -0.3310606985
| 20> P -2.4060029467 0.5385345595 0.0170733258
| 21> S -1.437226702 2.1164881862 -0.61913479
| 22> O -3.8201550114 0.3168355121 -0.7044239367
| 23> C -3.9213694222 0.2029879211 -2.1284265276
| 24> O -2.894691647 0.6657594113 1.5105126752
| 25> C -3.5324412751 -0.4173181257 2.2166877869
| 26> H 6.1471450764 -0.8557081356 -2.475287544
| 27> H 5.3316928865 -2.0959860204 -1.5147974497
| 28> H 4.8134126131 -1.7835561199 -3.1790237045
| 29> H 4.0586085059 0.5123165367 -2.505691305
| 30> H 4.556506947 0.1547120853 -0.8216228125
| 31> H 1.0620595055 -2.4778173077 0.5660787949
| 32> H 1.0332885491 -2.5841376461 -1.2146476363
| 33> H 2.7012211923 2.4712581213 1.095427925
| 34> H 1.1292470657 2.3406995242 1.9450849306
| 35> H 3.1225671015 1.7438018276 3.417802515
| 36> H 1.9440538905 0.4334862339 3.2619138457
| 37> H 3.4468134699 0.3761060287 2.3346692182
| 38> H -4.9825150717 0.2759645204 -2.3520305924
| 39> H -3.5236778734 -0.7587185381 -2.4517792569
| 40> H -3.3739368021 1.0156879789 -2.6083008551
| 41> H -4.3730290551 -0.7984970182 1.6396582587
| 42> H -3.8681690876 0.0178959581 3.1541767108
| 43> H -2.8045546448 -1.207172466 2.400814253
| 44> *
| 45>
| 46>                          ****END OF INPUT****

CARTESIAN COORDINATES (ANGSTROEM)
---------------------------------
  C      5.191091   -1.325354   -2.269271
  C      4.213810   -0.274245   -1.767225
  O      2.905300   -0.840395   -1.564885
  C      2.642048   -1.414646   -0.409370
  O      3.423998   -1.515709    0.508582
  C      1.211858   -1.927250   -0.363237
  C      0.247876   -0.741121   -0.440570
  H      0.383359   -0.200025   -1.379949
  C      0.500421    0.195480    0.726680
  O     -0.210603    0.237718    1.708795
  O      1.589146    0.897205    0.541024
  C      2.008241    1.792875    1.592596
  C      2.676192    1.035277    2.728483
  S     -1.472241   -1.333741   -0.331061
  P     -2.406003    0.538535    0.017073
  S     -1.437227    2.116488   -0.619135
  O     -3.820155    0.316836   -0.704424
  C     -3.921369    0.202988   -2.128427
  O     -2.894692    0.665759    1.510513
  C     -3.532441   -0.417318    2.216688
  H      6.147145   -0.855708   -2.475288
  H      5.331693   -2.095986   -1.514797
  H      4.813413   -1.783556   -3.179024
  H      4.058609    0.512317   -2.505691
  H      4.556507    0.154712   -0.821623
  H      1.062060   -2.477817    0.566079
  H      1.033289   -2.584138   -1.214648
  H      2.701221    2.471258    1.095428
  H      1.129247    2.340700    1.945085
  H      3.122567    1.743802    3.417803
  H      1.944054    0.433486    3.261914
  H      3.446813    0.376106    2.334669
  H     -4.982515    0.275965   -2.352031
  H     -3.523678   -0.758719   -2.451779
  H     -3.373937    1.015688   -2.608301
  H     -4.373029   -0.798497    1.639658
  H     -3.868169    0.017896    3.154177
  H     -2.804555   -1.207172    2.400814

 Total Charge           Charge          ....    0
 Multiplicity           Mult            ....    1
 Number of Electrons    NEL             ....  174
 Basis Dimension        Dim             ....  316

ORBITAL ENERGIES
----------------

  NO   OCC          E(Eh)            E(eV)
   0   2.0000     -88.039141     -2395.6668
   1   2.0000     -87.978981     -2394.0298
   2   2.0000     -76.422529     -2079.5627
   3   2.0000     -18.808278      -511.7993
   4   2.0000     -18.808239      -511.7982
   5   2.0000     -18.787798      -511.2420
   6   2.0000     -18.786304      -511.2013
   7   2.0000     -18.744725      -510.0699
   8   2.0000     -18.739215      -509.9200
   9   2.0000     -10.017494      -272.5899
  10   2.0000     -10.015607      -272.5385
  11   2.0000      -9.952982      -270.8344
  12   2.0000      -9.947208      -270.6773
  13   2.0000      -9.945366      -270.6272
  14   2.0000      -9.943506      -270.5765
  15   2.0000      -9.941657      -270.5262
  16   2.0000      -9.918918      -269.9075
  17   2.0000      -9.891455      -269.1602
  18   2.0000      -9.877182      -268.7718
  19   2.0000      -7.684181      -209.0972
  20   2.0000      -7.624240      -207.4661
  21   2.0000      -6.419332      -174.6789
  22   2.0000      -5.711941      -155.4298
  23   2.0000      -5.708805      -155.3445
  24   2.0000      -5.701176      -155.1369
  25   2.0000      -5.653350      -153.8355
  26   2.0000      -5.644674      -153.5994
  27   2.0000      -5.644329      -153.5900
  28   2.0000      -4.641990      -126.3150
  29   2.0000      -4.641348      -126.2975
  30   2.0000      -4.639645      -126.2512
  31   2.0000      -1.019635       -27.7457
  32   2.0000      -1.013862       -27.5886
  33   2.0000      -0.981563       -26.7097
  34   2.0000      -0.937254       -25.5040
  35   2.0000      -0.921751       -25.0821
  36   2.0000      -0.920523       -25.0487
  37   2.0000      -0.768794       -20.9200
  38   2.0000      -0.715759       -19.4768
  39   2.0000      -0.703038       -19.1306
  40   2.0000      -0.690941       -18.8015
  41   2.0000      -0.661149       -17.9908
  42   2.0000      -0.632328       -17.2065
  43   2.0000      -0.619482       -16.8570
  44   2.0000      -0.615453       -16.7473
  45   2.0000      -0.598128       -16.2759
  46   2.0000      -0.564958       -15.3733
  47   2.0000      -0.513276       -13.9669
  48   2.0000      -0.505195       -13.7471
  49   2.0000      -0.493512       -13.4291
  50   2.0000      -0.478421       -13.0185
  51   2.0000      -0.470150       -12.7934
  52   2.0000      -0.465997       -12.6804
  53   2.0000      -0.446093       -12.1388
  54   2.0000      -0.438451       -11.9309
  55   2.0000      -0.427770       -11.6402
  56   2.0000      -0.426594       -11.6082
  57   2.0000      -0.420337       -11.4379
  58   2.0000      -0.412265       -11.2183
  59   2.0000      -0.411103       -11.1867
  60   2.0000      -0.403522       -10.9804
  61   2.0000      -0.399747       -10.8777
  62   2.0000      -0.392095       -10.6694
  63   2.0000      -0.386467       -10.5163
  64   2.0000      -0.379008       -10.3133
  65   2.0000      -0.364651        -9.9227
  66   2.0000      -0.362175        -9.8553
  67   2.0000      -0.350046        -9.5252
  68   2.0000      -0.343640        -9.3509
  69   2.0000      -0.342090        -9.3087
  70   2.0000      -0.337035        -9.1712
  71   2.0000      -0.331685        -9.0256
  72   2.0000      -0.321979        -8.7615
  73   2.0000      -0.314624        -8.5614
  74   2.0000      -0.301544        -8.2054
  75   2.0000      -0.298622        -8.1259
  76   2.0000      -0.294483        -8.0133
  77   2.0000      -0.290059        -7.8929
  78   2.0000      -0.270968        -7.3734
  79   2.0000      -0.267096        -7.2680
  80   2.0000      -0.258314        -7.0291
  81   2.0000      -0.256380        -6.9765
  82   2.0000      -0.232734        -6.3330
  83   2.0000      -0.226889        -6.1740
  84   2.0000      -0.219879        -5.9832
  85   2.0000      -0.198396        -5.3986
  86   2.0000      -0.196543        -5.3482
  87   0.0000      -0.043204        -1.1756
  88   0.0000      -0.034933        -0.9506
  89   0.0000      -0.021787        -0.5929
  90   0.0000       0.014023         0.3816
  91   0.0000       0.024913         0.6779

MULLIKEN ATOMIC CHARGES
-----------------------
   0 C :   -0.305422
   1 C :   -0.012274
   2 O :   -0.232383
   3 C :    0.108512
   4 O :   -0.197813
   5 C :   -0.041884
   6 C :   -0.286066
   7 H :    0.153402
   8 C :    0.169096
   9 O :   -0.187758
  10 O :   -0.222771
  11 C :   -0.001939
  12 C :   -0.325770
  13 S :   -0.100278
  14 P :    0.613717
  15 S :   -0.322226
  16 O :   -0.387627
  17 C :   -0.099897
  18 O :   -0.347545
  19 C :   -0.102792
  20 H :    0.114789
  21 H :    0.127512
  22 H :    0.114991
  23 H :    0.107320
  24 H :    0.109714
  25 H :    0.111152
  26 H :    0.124422
  27 H :    0.100617
  28 H :    0.116669
  29 H :    0.109285
  30 H :    0.127702
  31 H :    0.135548
  32 H :    0.124257
  33 H :    0.112772
  34 H :    0.116681
  35 H :    0.117363
  36 H :    0.131268
  37 H :    0.127656
Sum of atomic charges:    0.0000000

LOEWDIN ATOMIC CHARGES
----------------------
   0 C :   -0.356031
   1 C :   -0.108711
   2 O :   -0.055419
   3 C :    0.027553
   4 O :   -0.160962
   5 C :   -0.238180
   6 C :   -0.266642
   7 H :    0.140570
   8 C :   -0.001799
   9 O :   -0.165956
  10 O :   -0.035483
  11 C :   -0.103890
  12 C :   -0.363740
  13 S :    0.092116
  14 P :    0.584536
  15 S :   -0.311115
  16 O :   -0.262431
  17 C :   -0.217535
  18 O :   -0.227040
  19 C :   -0.207303
  20 H :    0.131690
  21 H :    0.130850
  22 H :    0.125318
  23 H :    0.120220
  24 H :    0.119702
  25 H :    0.139964
  26 H :    0.143003
  27 H :    0.117458
  28 H :    0.124754
  29 H :    0.128679
  30 H :    0.130640
  31 H :    0.130523
  32 H :    0.121916
  33 H :    0.106855
  34 H :    0.111090
  35 H :    0.111874
  36 H :    0.127062
  37 H :    0.115862

  Mayer bond orders larger than 0.100000
B(  0-C ,  1-C ) :   1.1734 B(  0-C , 20-H ) :   0.9441 B(  0-C , 21-H ) :   0.9458
B(  0-C , 22-H ) :   0.9485 B(  1-C ,  2-O ) :   0.9135 B(  1-C , 23-H ) :   0.9366
B(  1-C , 24-H ) :   0.9147 B(  2-O ,  3-C ) :   1.2126 B(  3-C ,  4-O ) :   2.0296
B(  3-C ,  5-C ) :   1.0224 B(  5-C ,  6-C ) :   1.0521 B(  5-C , 25-H ) :   0.8971
B(  5-C , 26-H ) :   0.8903 B(  6-C ,  7-H ) :   0.8651 B(  6-C ,  8-C ) :   0.8805
B(  6-C , 13-S ) :   1.0173 B(  8-C ,  9-O ) :   2.0190 B(  8-C , 10-O ) :   1.2425
B( 10-O , 11-C ) :   0.9010 B( 11-C , 12-C ) :   1.1715 B( 11-C , 27-H ) :   0.9382
B( 11-C , 28-H ) :   0.9177 B( 12-C , 29-H ) :   0.9423 B( 12-C , 30-H ) :   0.9430
B( 12-C , 31-H ) :   0.9363 B( 13-S , 14-P ) :   0.9494 B( 13-S , 15-S ) :   0.1123
B( 14-P , 15-S ) :   1.6133 B( 14-P , 16-O ) :   1.0711 B( 14-P , 18-O ) :   1.1488
B( 16-O , 17-C ) :   0.9344 B( 17-C , 32-H ) :   0.9587 B( 17-C , 33-H ) :   0.9462
B( 17-C , 34-H ) :   0.9353 B( 18-O , 19-C ) :   0.9171 B( 19-C , 35-H ) :   0.9453
B( 19-C , 36-H ) :   0.9599 B( 19-C , 37-H ) :   0.9421

Dispersion correction           -0.052326191
FINAL SINGLE POINT ENERGY     -1979.016387989187

DIPOLE MOMENT
-------------

Method             : SCF
Type of density    : Electron Density
Multiplicity       :   1
Irrep              :   0
Energy             : -1979.1472548601827839 Eh
Relativity type    :
Basis              : AO
                                X                 Y                 Z
Electronic contribution:    -17.684587820       3.045592791      -0.059661845
Nuclear contribution   :     18.013829304      -3.715631769      -0.603129883
                        -----------------------------------------
Total Dipole Moment    :      0.329241484      -0.670038978      -0.662791729
                        -----------------------------------------
Magnitude (a.u.)       :      0.998321122
Magnitude (Debye)      :      2.537530631

Rotational constants in cm-1:             0.016776             0.005936             0.005394
Rotational constants in MHz :           502.938428           177.960334           161.719686

                             ****ORCA TERMINATED NORMALLY****
TOTAL RUN TIME: 0 days 0 hours 0 minutes 44 seconds 378 msec
