                         Program Version 6.0.0  -   RELEASE  -
|  1> ! r2scan-3c def2/J RI DEFGRID2 scfconv6 printgap
|  2> %output
|  3>     printlevel normal
|  4> end
|  5> * xyz 0 1
|  6> C 4.0063811231 -1.903740467 -2.1033374434
|  7> C 4.5961602497 -1.489640214 -0.7706035745
|  8> O 3.5839787235 -1.2034989515 0.2104951419
|  9> P 2.5983596558 0.0353761757 0.0856021199
| 10> S 3.4121395962 1.6692263191 -0.6195753932
| 11> O 2.1030482745 0.2449262469 1.5659917504
| 12> C 1.2026104064 -0.5909287185 2.3314455797
| 13> C 1.5919956471 -2.053128286 2.3163989428
| 14> S 0.9316041443 -0.7193414414 -1.0223886375
| 15> C 0.2754546946 0.8898426816 -1.5092913211
| 16> S -0.4852301012 1.7752693068 -0.1187902065
| 17> P -2.2770629733 0.6459779245 -0.0933529158
| 18> S -3.0336808891 0.2438197518 -1.8601653656
| 19> O -3.050427922 1.6163874079 0.8885679399
| 20> C -4.1791219471 1.2003623069 1.6892366315
| 21> C -5.4040897602 0.9161721142 0.8437288016
| 22> O -2.0020741482 -0.6381875516 0.8073316188
| 23> C -2.0433662643 -2.0014536542 0.3407717434
| 24> C -3.1128827233 -2.7568897907 1.1044126887
| 25> H 3.2928292788 -2.712529451 -1.9689876893
| 26> H 3.4980056137 -1.0585410915 -2.5647227176
| 27> H 4.804778182 -2.2323112985 -2.7608955848
| 28> H 5.2244729887 -0.6013018842 -0.8882808649
| 29> H 5.1742428023 -2.2963873603 -0.3179312411
| 30> H 1.2651333138 -0.1663234917 3.3347659467
| 31> H 0.1917942434 -0.4447670559 1.9407582402
| 32> H 1.5248837507 -2.4523770603 1.305916046
| 33> H 2.6123766956 -2.1729121816 2.6707357922
| 34> H 0.9189136332 -2.6054330827 2.9652932456
| 35> H -0.4727280641 0.7159688098 -2.2841418104
| 36> H 1.0914019664 1.5149317077 -1.8735724591
| 37> H -3.8881184218 0.320525517 2.2681214957
| 38> H -4.3430529025 2.0465440297 2.3584418244
| 39> H -5.2127737762 0.083831385 0.1678392359
| 40> H -6.2390227015 0.6657851959 1.4906537174
| 41> H -5.6606031232 1.7875972801 0.2463194442
| 42> H -2.249677977 -2.0021635007 -0.7344859214
| 43> H -1.0512935927 -2.419958857 0.517488163
| 44> H -3.0933867073 -3.798081177 0.7999339489
| 45> H -2.9287753999 -2.6924579178 2.1730915355
| 46> H -4.0951613865 -2.3439044597 0.8876005295
| 47> *
| 48>
| 49>                          ****END OF INPUT****

CARTESIAN COORDINATES (ANGSTROEM)
---------------------------------
  C      4.006381   -1.903740   -2.103337
  C      4.596160   -1.489640   -0.770604
  O      3.583979   -1.203499    0.210495
  P      2.598360    0.035376    0.085602
  S      3.412140    1.669226   -0.619575
  O      2.103048    0.244926    1.565992
  C      1.202610   -0.590929    2.331446
  C      1.591996   -2.053128    2.316399
  S      0.931604   -0.719341   -1.022389
  C      0.275455    0.889843   -1.509291
  S     -0.485230    1.775269   -0.118790
  P     -2.277063    0.645978   -0.093353
  S     -3.033681    0.243820   -1.860165
  O     -3.050428    1.616387    0.888568
  C     -4.179122    1.200362    1.689237
  C     -5.404090    0.916172    0.843729
  O     -2.002074   -0.638188    0.807332
  C     -2.043366   -2.001454    0.340772
  C     -3.112883   -2.756890    1.104413
  H      3.292829   -2.712529   -1.968988
  H      3.498006   -1.058541   -2.564723
  H      4.804778   -2.232311   -2.760896
  H      5.224473   -0.601302   -0.888281
  H      5.174243   -2.296387   -0.317931
  H      1.265133   -0.166323    3.334766
  H      0.191794   -0.444767    1.940758
  H      1.524884   -2.452377    1.305916
  H      2.612377   -2.172912    2.670736
  H      0.918914   -2.605433    2.965293
  H     -0.472728    0.715969   -2.284142
  H      1.091402    1.514932   -1.873572
  H     -3.888118    0.320526    2.268121
  H     -4.343053    2.046544    2.358442
  H     -5.212774    0.083831    0.167839
  H     -6.239023    0.665785    1.490654
  H     -5.660603    1.787597    0.246319
  H     -2.249678   -2.002164   -0.734486
  H     -1.051294   -2.419959    0.517488
  H     -3.093387   -3.798081    0.799934
  H     -2.928775   -2.692458    2.173092
  H     -4.095161   -2.343904    0.887601

 Total Charge           Charge          ....    0
 Multiplicity           Mult            ....    1
 Number of Electrons    NEL             ....  202
 Basis Dimension        Dim             ....  539

ORBITAL ENERGIES
----------------

  NO   OCC          E(Eh)            E(eV)
   0   2.0000     -88.576001     -2410.2755
   1   2.0000     -88.573359     -2410.2036
   2   2.0000     -88.524374     -2408.8707
   3   2.0000     -88.518191     -2408.7024
   4   2.0000     -76.918443     -2093.0572
   5   2.0000     -76.915013     -2092.9639
   6   2.0000     -19.000108      -517.0192
   7   2.0000     -18.997664      -516.9527
   8   2.0000     -18.994692      -516.8718
   9   2.0000     -18.989419      -516.7284
  10   2.0000     -10.108248      -275.0594
  11   2.0000     -10.103023      -274.9172
  12   2.0000     -10.100982      -274.8617
  13   2.0000     -10.100848      -274.8581
  14   2.0000     -10.100206      -274.8406
  15   2.0000     -10.040451      -273.2146
  16   2.0000     -10.036354      -273.1031
  17   2.0000     -10.034104      -273.0418
  18   2.0000     -10.029632      -272.9202
  19   2.0000      -7.870535      -214.1681
  20   2.0000      -7.867273      -214.0794
  21   2.0000      -7.819206      -212.7714
  22   2.0000      -7.812993      -212.6024
  23   2.0000      -6.596736      -179.5063
  24   2.0000      -6.593284      -179.4124
  25   2.0000      -5.817270      -158.2960
  26   2.0000      -5.814372      -158.2171
  27   2.0000      -5.814205      -158.2126
  28   2.0000      -5.811216      -158.1312
  29   2.0000      -5.807799      -158.0382
  30   2.0000      -5.804321      -157.9436
  31   2.0000      -5.766791      -156.9224
  32   2.0000      -5.760688      -156.7563
  33   2.0000      -5.759672      -156.7287
  34   2.0000      -5.759077      -156.7125
  35   2.0000      -5.753245      -156.5538
  36   2.0000      -5.752968      -156.5462
  37   2.0000      -4.742651      -129.0541
  38   2.0000      -4.741362      -129.0190
  39   2.0000      -4.740371      -128.9921
  40   2.0000      -4.739001      -128.9548
  41   2.0000      -4.738304      -128.9358
  42   2.0000      -4.736759      -128.8938
  43   2.0000      -1.056454       -28.7476
  44   2.0000      -1.050591       -28.5880
  45   2.0000      -1.016473       -27.6596
  46   2.0000      -1.011203       -27.5162
  47   2.0000      -0.801854       -21.8196
  48   2.0000      -0.764091       -20.7920
  49   2.0000      -0.753704       -20.5093
  50   2.0000      -0.740724       -20.1561
  51   2.0000      -0.736391       -20.0382
  52   2.0000      -0.713557       -19.4169
  53   2.0000      -0.688703       -18.7406
  54   2.0000      -0.668720       -18.1968
  55   2.0000      -0.633964       -17.2510
  56   2.0000      -0.628354       -17.0984
  57   2.0000      -0.616249       -16.7690
  58   2.0000      -0.611036       -16.6271
  59   2.0000      -0.590570       -16.0702
  60   2.0000      -0.533792       -14.5252
  61   2.0000      -0.517180       -14.0732
  62   2.0000      -0.501761       -13.6536
  63   2.0000      -0.491770       -13.3817
  64   2.0000      -0.482023       -13.1165
  65   2.0000      -0.466384       -12.6910
  66   2.0000      -0.462244       -12.5783
  67   2.0000      -0.461560       -12.5597
  68   2.0000      -0.450856       -12.2684
  69   2.0000      -0.437408       -11.9025
  70   2.0000      -0.432346       -11.7647
  71   2.0000      -0.418012       -11.3747
  72   2.0000      -0.413913       -11.2631
  73   2.0000      -0.402187       -10.9441
  74   2.0000      -0.396032       -10.7766
  75   2.0000      -0.391991       -10.6666
  76   2.0000      -0.385589       -10.4924
  77   2.0000      -0.381916       -10.3925
  78   2.0000      -0.374596       -10.1933
  79   2.0000      -0.370227       -10.0744
  80   2.0000      -0.369441       -10.0530
  81   2.0000      -0.365106        -9.9350
  82   2.0000      -0.362427        -9.8621
  83   2.0000      -0.358780        -9.7629
  84   2.0000      -0.353964        -9.6318
  85   2.0000      -0.339609        -9.2412
  86   2.0000      -0.324110        -8.8195
  87   2.0000      -0.316839        -8.6216
  88   2.0000      -0.313579        -8.5329
  89   2.0000      -0.310007        -8.4357
  90   2.0000      -0.308083        -8.3834
  91   2.0000      -0.297906        -8.1064
  92   2.0000      -0.285166        -7.7598
  93   2.0000      -0.282429        -7.6853
  94   2.0000      -0.276827        -7.5329
  95   2.0000      -0.248140        -6.7522
  96   2.0000      -0.231197        -6.2912
  97   2.0000      -0.227220        -6.1830
  98   2.0000      -0.217394        -5.9156
  99   2.0000      -0.215046        -5.8517
 100   2.0000      -0.212531        -5.7833
 101   0.0000      -0.047881        -1.3029
 102   0.0000      -0.026310        -0.7159
 103   0.0000      -0.003492        -0.0950
 104   0.0000      -0.001856        -0.0505
 105   0.0000       0.013490         0.3671

MULLIKEN ATOMIC CHARGES
-----------------------
   0 C :   -0.443350
   1 C :   -0.168700
   2 O :   -0.267471
   3 P :    0.650298
   4 S :   -0.454519
   5 O :   -0.253240
   6 C :   -0.157730
   7 C :   -0.451432
   8 S :   -0.176983
   9 C :   -0.243571
  10 S :   -0.100053
  11 P :    0.672491
  12 S :   -0.473441
  13 O :   -0.305624
  14 C :   -0.157273
  15 C :   -0.427220
  16 O :   -0.290676
  17 C :   -0.108546
  18 C :   -0.481969
  19 H :    0.151465
  20 H :    0.179027
  21 H :    0.148101
  22 H :    0.176261
  23 H :    0.148157
  24 H :    0.152780
  25 H :    0.187484
  26 H :    0.157249
  27 H :    0.162620
  28 H :    0.150818
  29 H :    0.213831
  30 H :    0.223567
  31 H :    0.158419
  32 H :    0.152871
  33 H :    0.161759
  34 H :    0.147822
  35 H :    0.163009
  36 H :    0.183067
  37 H :    0.156761
  38 H :    0.151159
  39 H :    0.155465
  40 H :    0.157321
Sum of atomic charges:    0.0000000

LOEWDIN ATOMIC CHARGES
----------------------
   0 C :   -0.408194
   1 C :    0.021784
   2 O :   -0.670917
   3 P :    0.386882
   4 S :   -0.105105
   5 O :   -0.650963
   6 C :    0.021876
   7 C :   -0.404732
   8 S :    0.133626
   9 C :   -0.425743
  10 S :    0.187535
  11 P :    0.383370
  12 S :   -0.134409
  13 O :   -0.660893
  14 C :    0.031139
  15 C :   -0.402056
  16 O :   -0.692624
  17 C :    0.002930
  18 C :   -0.392258
  19 H :    0.158716
  20 H :    0.166381
  21 H :    0.159508
  22 H :    0.181454
  23 H :    0.179217
  24 H :    0.183302
  25 H :    0.191227
  26 H :    0.161365
  27 H :    0.165317
  28 H :    0.159509
  29 H :    0.193021
  30 H :    0.194104
  31 H :    0.174727
  32 H :    0.182691
  33 H :    0.163772
  34 H :    0.158637
  35 H :    0.165290
  36 H :    0.185811
  37 H :    0.175813
  38 H :    0.161783
  39 H :    0.157873
  40 H :    0.159233

  Mayer bond orders larger than 0.100000
B(  0-C ,  1-C ) :   0.9135 B(  0-C , 19-H ) :   0.9690 B(  0-C , 20-H ) :   0.9636
B(  0-C , 21-H ) :   0.9568 B(  1-C ,  2-O ) :   0.8097 B(  1-C , 22-H ) :   0.9674
B(  1-C , 23-H ) :   0.9616 B(  2-O ,  3-P ) :   1.0411 B(  3-P ,  4-S ) :   1.8144
B(  3-P ,  5-O ) :   1.1843 B(  3-P ,  8-S ) :   0.9835 B(  5-O ,  6-C ) :   0.8123
B(  6-C ,  7-C ) :   0.8999 B(  6-C , 24-H ) :   0.9600 B(  6-C , 25-H ) :   0.9558
B(  7-C , 26-H ) :   0.9671 B(  7-C , 27-H ) :   0.9640 B(  7-C , 28-H ) :   0.9603
B(  8-S ,  9-C ) :   0.9063 B(  9-C , 10-S ) :   0.9131 B(  9-C , 29-H ) :   0.9008
B(  9-C , 30-H ) :   0.9015 B( 10-S , 11-P ) :   1.1022 B( 11-P , 12-S ) :   1.7678
B( 11-P , 13-O ) :   1.1497 B( 11-P , 16-O ) :   1.0408 B( 13-O , 14-C ) :   0.7922
B( 14-C , 15-C ) :   0.9440 B( 14-C , 31-H ) :   0.9676 B( 14-C , 32-H ) :   0.9585
B( 15-C , 33-H ) :   0.9517 B( 15-C , 34-H ) :   0.9659 B( 15-C , 35-H ) :   0.9670
B( 16-O , 17-C ) :   0.7263 B( 17-C , 18-C ) :   0.9354 B( 17-C , 36-H ) :   0.9435
B( 17-C , 37-H ) :   0.9538 B( 18-C , 38-H ) :   0.9642 B( 18-C , 39-H ) :   0.9797
B( 18-C , 40-H ) :   0.9710

Dispersion correction           -0.021936131
FINAL SINGLE POINT ENERGY     -2932.459906984549

DIPOLE MOMENT
-------------

Method             : SCF
Type of density    : Electron Density
Multiplicity       :   1
Irrep              :   0
Energy             : -2932.4847313694681361 Eh
Relativity type    :
Basis              : AO
                                X                 Y                 Z
Electronic contribution:      8.664051683      20.163529332      -8.092139767
Nuclear contribution   :     -9.341559258     -22.145055954       9.295276579
                        -----------------------------------------
Total Dipole Moment    :     -0.677507575      -1.981526623       1.203136812
                        -----------------------------------------
Magnitude (a.u.)       :      2.415160959
Magnitude (Debye)      :      6.138851296

Rotational constants in cm-1:             0.013953             0.004648             0.004401
Rotational constants in MHz :           418.306899           139.348920           131.952882

                             ****ORCA TERMINATED NORMALLY****
TOTAL RUN TIME: 0 days 0 hours 1 minutes 24 seconds 673 msec
