                         Program Version 6.0.0  -   RELEASE  -
|  1> ! r2scan-3c def2/J RI DEFGRID2 scfconv6 printgap
|  2> %output
|  3>     printlevel normal
|  4> end
|  5> %cpcm
|  6>     smd true
|  7>     smdsolvent "water"
|  8> end
|  9> * xyz 0 1
| 10> C 4.0063811231 -1.903740467 -2.1033374434
| 11> C 4.5961602497 -1.489640214 -0.7706035745
| 12> O 3.5839787235 -1.2034989515 0.2104951419
| 13> P 2.5983596558 0.0353761757 0.0856021199
| 14> S 3.4121395962 1.6692263191 -0.6195753932
| 15> O 2.1030482745 0.2449262469 1.5659917504
| 16> C 1.2026104064 -0.5909287185 2.3314455797
| 17> C 1.5919956471 -2.053128286 2.3163989428
| 18> S 0.9316041443 -0.7193414414 -1.0223886375
| 19> C 0.2754546946 0.8898426816 -1.5092913211
| 20> S -0.4852301012 1.7752693068 -0.1187902065
| 21> P -2.2770629733 0.6459779245 -0.0933529158
| 22> S -3.0336808891 0.2438197518 -1.8601653656
| 23> O -3.050427922 1.6163874079 0.8885679399
| 24> C -4.1791219471 1.2003623069 1.6892366315
| 25> C -5.4040897602 0.9161721142 0.8437288016
| 26> O -2.0020741482 -0.6381875516 0.8073316188
| 27> C -2.0433662643 -2.0014536542 0.3407717434
| 28> C -3.1128827233 -2.7568897907 1.1044126887
| 29> H 3.2928292788 -2.712529451 -1.9689876893
| 30> H 3.4980056137 -1.0585410915 -2.5647227176
| 31> H 4.804778182 -2.2323112985 -2.7608955848
| 32> H 5.2244729887 -0.6013018842 -0.8882808649
| 33> H 5.1742428023 -2.2963873603 -0.3179312411
| 34> H 1.2651333138 -0.1663234917 3.3347659467
| 35> H 0.1917942434 -0.4447670559 1.9407582402
| 36> H 1.5248837507 -2.4523770603 1.305916046
| 37> H 2.6123766956 -2.1729121816 2.6707357922
| 38> H 0.9189136332 -2.6054330827 2.9652932456
| 39> H -0.4727280641 0.7159688098 -2.2841418104
| 40> H 1.0914019664 1.5149317077 -1.8735724591
| 41> H -3.8881184218 0.320525517 2.2681214957
| 42> H -4.3430529025 2.0465440297 2.3584418244
| 43> H -5.2127737762 0.083831385 0.1678392359
| 44> H -6.2390227015 0.6657851959 1.4906537174
| 45> H -5.6606031232 1.7875972801 0.2463194442
| 46> H -2.249677977 -2.0021635007 -0.7344859214
| 47> H -1.0512935927 -2.419958857 0.517488163
| 48> H -3.0933867073 -3.798081177 0.7999339489
| 49> H -2.9287753999 -2.6924579178 2.1730915355
| 50> H -4.0951613865 -2.3439044597 0.8876005295
| 51> *
| 52>
| 53>                          ****END OF INPUT****

CARTESIAN COORDINATES (ANGSTROEM)
---------------------------------
  C      4.006381   -1.903740   -2.103337
  C      4.596160   -1.489640   -0.770604
  O      3.583979   -1.203499    0.210495
  P      2.598360    0.035376    0.085602
  S      3.412140    1.669226   -0.619575
  O      2.103048    0.244926    1.565992
  C      1.202610   -0.590929    2.331446
  C      1.591996   -2.053128    2.316399
  S      0.931604   -0.719341   -1.022389
  C      0.275455    0.889843   -1.509291
  S     -0.485230    1.775269   -0.118790
  P     -2.277063    0.645978   -0.093353
  S     -3.033681    0.243820   -1.860165
  O     -3.050428    1.616387    0.888568
  C     -4.179122    1.200362    1.689237
  C     -5.404090    0.916172    0.843729
  O     -2.002074   -0.638188    0.807332
  C     -2.043366   -2.001454    0.340772
  C     -3.112883   -2.756890    1.104413
  H      3.292829   -2.712529   -1.968988
  H      3.498006   -1.058541   -2.564723
  H      4.804778   -2.232311   -2.760896
  H      5.224473   -0.601302   -0.888281
  H      5.174243   -2.296387   -0.317931
  H      1.265133   -0.166323    3.334766
  H      0.191794   -0.444767    1.940758
  H      1.524884   -2.452377    1.305916
  H      2.612377   -2.172912    2.670736
  H      0.918914   -2.605433    2.965293
  H     -0.472728    0.715969   -2.284142
  H      1.091402    1.514932   -1.873572
  H     -3.888118    0.320526    2.268121
  H     -4.343053    2.046544    2.358442
  H     -5.212774    0.083831    0.167839
  H     -6.239023    0.665785    1.490654
  H     -5.660603    1.787597    0.246319
  H     -2.249678   -2.002164   -0.734486
  H     -1.051294   -2.419959    0.517488
  H     -3.093387   -3.798081    0.799934
  H     -2.928775   -2.692458    2.173092
  H     -4.095161   -2.343904    0.887601

 Total Charge           Charge          ....    0
 Multiplicity           Mult            ....    1
 Number of Electrons    NEL             ....  202
 Basis Dimension        Dim             ....  539

ORBITAL ENERGIES
----------------

  NO   OCC          E(Eh)            E(eV)
   0   2.0000     -88.579271     -2410.3645
   1   2.0000     -88.578472     -2410.3428
   2   2.0000     -88.529698     -2409.0156
   3   2.0000     -88.529168     -2409.0011
   4   2.0000     -76.921473     -2093.1397
   5   2.0000     -76.921140     -2093.1306
   6   2.0000     -18.996881      -516.9314
   7   2.0000     -18.996293      -516.9154
   8   2.0000     -18.995664      -516.8983
   9   2.0000     -18.994386      -516.8635
  10   2.0000     -10.102665      -274.9075
  11   2.0000     -10.092190      -274.6225
  12   2.0000     -10.091322      -274.5988
  13   2.0000     -10.090400      -274.5738
  14   2.0000     -10.087865      -274.5048
  15   2.0000     -10.020630      -272.6752
  16   2.0000     -10.018604      -272.6201
  17   2.0000     -10.018438      -272.6156
  18   2.0000     -10.018388      -272.6142
  19   2.0000      -7.873381      -214.2456
  20   2.0000      -7.872913      -214.2328
  21   2.0000      -7.824842      -212.9248
  22   2.0000      -7.824351      -212.9114
  23   2.0000      -6.599813      -179.5900
  24   2.0000      -6.599395      -179.5787
  25   2.0000      -5.820206      -158.3759
  26   2.0000      -5.819713      -158.3624
  27   2.0000      -5.817266      -158.2958
  28   2.0000      -5.816790      -158.2829
  29   2.0000      -5.810589      -158.1142
  30   2.0000      -5.810076      -158.1002
  31   2.0000      -5.772361      -157.0739
  32   2.0000      -5.771912      -157.0617
  33   2.0000      -5.765242      -156.8802
  34   2.0000      -5.764786      -156.8678
  35   2.0000      -5.764620      -156.8633
  36   2.0000      -5.764368      -156.8564
  37   2.0000      -4.745494      -129.1315
  38   2.0000      -4.745186      -129.1231
  39   2.0000      -4.744765      -129.1116
  40   2.0000      -4.744061      -129.0925
  41   2.0000      -4.743429      -129.0753
  42   2.0000      -4.743164      -129.0681
  43   2.0000      -1.053526       -28.6679
  44   2.0000      -1.053242       -28.6602
  45   2.0000      -1.013696       -27.5841
  46   2.0000      -1.012343       -27.5472
  47   2.0000      -0.804708       -21.8972
  48   2.0000      -0.757995       -20.6261
  49   2.0000      -0.746002       -20.2997
  50   2.0000      -0.726574       -19.7711
  51   2.0000      -0.724990       -19.7280
  52   2.0000      -0.710557       -19.3352
  53   2.0000      -0.690303       -18.7841
  54   2.0000      -0.674458       -18.3529
  55   2.0000      -0.631720       -17.1900
  56   2.0000      -0.622004       -16.9256
  57   2.0000      -0.603873       -16.4322
  58   2.0000      -0.602664       -16.3993
  59   2.0000      -0.588748       -16.0207
  60   2.0000      -0.525607       -14.3025
  61   2.0000      -0.512697       -13.9512
  62   2.0000      -0.491927       -13.3860
  63   2.0000      -0.487957       -13.2780
  64   2.0000      -0.479278       -13.0418
  65   2.0000      -0.460073       -12.5192
  66   2.0000      -0.457226       -12.4418
  67   2.0000      -0.450526       -12.2594
  68   2.0000      -0.444805       -12.1038
  69   2.0000      -0.431850       -11.7512
  70   2.0000      -0.427509       -11.6331
  71   2.0000      -0.411251       -11.1907
  72   2.0000      -0.402531       -10.9534
  73   2.0000      -0.397485       -10.8161
  74   2.0000      -0.392417       -10.6782
  75   2.0000      -0.388484       -10.5712
  76   2.0000      -0.383284       -10.4297
  77   2.0000      -0.376668       -10.2497
  78   2.0000      -0.360473        -9.8090
  79   2.0000      -0.359753        -9.7894
  80   2.0000      -0.357514        -9.7284
  81   2.0000      -0.353890        -9.6298
  82   2.0000      -0.352713        -9.5978
  83   2.0000      -0.348047        -9.4708
  84   2.0000      -0.346260        -9.4222
  85   2.0000      -0.334152        -9.0927
  86   2.0000      -0.318011        -8.6535
  87   2.0000      -0.308413        -8.3923
  88   2.0000      -0.307784        -8.3752
  89   2.0000      -0.304211        -8.2780
  90   2.0000      -0.302475        -8.2308
  91   2.0000      -0.291378        -7.9288
  92   2.0000      -0.284419        -7.7394
  93   2.0000      -0.281131        -7.6500
  94   2.0000      -0.277667        -7.5557
  95   2.0000      -0.251304        -6.8383
  96   2.0000      -0.237913        -6.4740
  97   2.0000      -0.234525        -6.3817
  98   2.0000      -0.226698        -6.1688
  99   2.0000      -0.225597        -6.1388
 100   2.0000      -0.219018        -5.9598
 101   0.0000      -0.053183        -1.4472
 102   0.0000      -0.032500        -0.8844
 103   0.0000      -0.007005        -0.1906
 104   0.0000      -0.005018        -0.1365
 105   0.0000       0.013455         0.3661

MULLIKEN ATOMIC CHARGES
-----------------------
   0 C :   -0.482139
   1 C :   -0.160903
   2 O :   -0.286284
   3 P :    0.663118
   4 S :   -0.514990
   5 O :   -0.291728
   6 C :   -0.147836
   7 C :   -0.478891
   8 S :   -0.157848
   9 C :   -0.250910
  10 S :   -0.141640
  11 P :    0.699185
  12 S :   -0.519309
  13 O :   -0.338928
  14 C :   -0.138681
  15 C :   -0.480450
  16 O :   -0.297867
  17 C :   -0.094147
  18 C :   -0.518808
  19 H :    0.169158
  20 H :    0.173198
  21 H :    0.172348
  22 H :    0.179059
  23 H :    0.176111
  24 H :    0.177188
  25 H :    0.185631
  26 H :    0.165214
  27 H :    0.170616
  28 H :    0.177444
  29 H :    0.232065
  30 H :    0.236991
  31 H :    0.177127
  32 H :    0.175599
  33 H :    0.165650
  34 H :    0.172652
  35 H :    0.170265
  36 H :    0.177669
  37 H :    0.176722
  38 H :    0.170183
  39 H :    0.170036
  40 H :    0.168128
Sum of atomic charges:   -0.0000000

LOEWDIN ATOMIC CHARGES
----------------------
   0 C :   -0.410786
   1 C :    0.027425
   2 O :   -0.676911
   3 P :    0.389085
   4 S :   -0.151283
   5 O :   -0.674798
   6 C :    0.028128
   7 C :   -0.402999
   8 S :    0.150183
   9 C :   -0.422394
  10 S :    0.158798
  11 P :    0.386455
  12 S :   -0.165562
  13 O :   -0.677827
  14 C :    0.038838
  15 C :   -0.405914
  16 O :   -0.688546
  17 C :    0.010826
  18 C :   -0.394213
  19 H :    0.163622
  20 H :    0.161659
  21 H :    0.168316
  22 H :    0.181852
  23 H :    0.191305
  24 H :    0.193166
  25 H :    0.192197
  26 H :    0.163372
  27 H :    0.166003
  28 H :    0.171044
  29 H :    0.197924
  30 H :    0.197549
  31 H :    0.183955
  32 H :    0.192150
  33 H :    0.162447
  34 H :    0.168847
  35 H :    0.163617
  36 H :    0.184094
  37 H :    0.184036
  38 H :    0.168577
  39 H :    0.163486
  40 H :    0.162275

  Mayer bond orders larger than 0.100000
B(  0-C ,  1-C ) :   0.9029 B(  0-C , 19-H ) :   0.9658 B(  0-C , 20-H ) :   0.9652
B(  0-C , 21-H ) :   0.9517 B(  1-C ,  2-O ) :   0.7979 B(  1-C , 22-H ) :   0.9659
B(  1-C , 23-H ) :   0.9504 B(  2-O ,  3-P ) :   1.0527 B(  3-P ,  4-S ) :   1.7880
B(  3-P ,  5-O ) :   1.1874 B(  3-P ,  8-S ) :   1.0039 B(  5-O ,  6-C ) :   0.8042
B(  6-C ,  7-C ) :   0.8987 B(  6-C , 24-H ) :   0.9493 B(  6-C , 25-H ) :   0.9482
B(  7-C , 26-H ) :   0.9607 B(  7-C , 27-H ) :   0.9656 B(  7-C , 28-H ) :   0.9514
B(  8-S ,  9-C ) :   0.8988 B(  9-C , 10-S ) :   0.8990 B(  9-C , 29-H ) :   0.8987
B(  9-C , 30-H ) :   0.8975 B( 10-S , 11-P ) :   1.1007 B( 11-P , 12-S ) :   1.7401
B( 11-P , 13-O ) :   1.1608 B( 11-P , 16-O ) :   1.0626 B( 13-O , 14-C ) :   0.7853
B( 14-C , 15-C ) :   0.9247 B( 14-C , 31-H ) :   0.9582 B( 14-C , 32-H ) :   0.9512
B( 15-C , 33-H ) :   0.9545 B( 15-C , 34-H ) :   0.9585 B( 15-C , 35-H ) :   0.9701
B( 16-O , 17-C ) :   0.7150 B( 17-C , 18-C ) :   0.9378 B( 17-C , 36-H ) :   0.9428
B( 17-C , 37-H ) :   0.9458 B( 18-C , 38-H ) :   0.9595 B( 18-C , 39-H ) :   0.9747
B( 18-C , 40-H ) :   0.9674

Dispersion correction           -0.021936131
FINAL SINGLE POINT ENERGY     -2932.470496984043

DIPOLE MOMENT
-------------

Method             : SCF
Type of density    : Electron Density
Multiplicity       :   1
Irrep              :   0
Energy             : -2932.4953213689618678 Eh
Relativity type    :
Basis              : AO
                                X                 Y                 Z
Electronic contribution:      8.404225932      19.136049160      -7.702230926
Nuclear contribution   :     -9.341559258     -22.145055954       9.295276579
                        -----------------------------------------
Total Dipole Moment    :     -0.937333327      -3.009006794       1.593045653
                        -----------------------------------------
Magnitude (a.u.)       :      3.531360942
Magnitude (Debye)      :      8.976006180

Rotational constants in cm-1:             0.013953             0.004648             0.004401
Rotational constants in MHz :           418.306899           139.348920           131.952882

                             ****ORCA TERMINATED NORMALLY****
TOTAL RUN TIME: 0 days 0 hours 1 minutes 57 seconds 406 msec
