                         Program Version 6.0.0  -   RELEASE  -
|  1> ! pbe def2-sv(p) def2/J RI DEFGRID1 loosescf d4 GCP(DFT/SV(P)) printgap
|  2> %output
|  3>     printlevel normal
|  4> end
|  5> * xyz 0 1
|  6> C 4.5429126234 -2.0983771455 0.1480483983
|  7> C 4.4576931026 -0.5882025691 0.2421674596
|  8> O 3.7129311435 -0.0626717319 -0.8895283339
|  9> P 2.2836918395 0.5847534058 -0.7585514831
| 10> S 1.5932447335 1.0991935242 -2.5131001394
| 11> O 2.5839948455 1.765769664 0.2667905522
| 12> C 1.6347621231 2.7821986807 0.6351074456
| 13> C 1.0045422438 2.4748113564 1.9795463164
| 14> S 1.1323697251 -0.8136830077 0.3584419971
| 15> C 0.0817245231 -1.4617912655 -0.9843303282
| 16> S -1.54734906 -1.9434903227 -0.3829464473
| 17> P -2.1638544256 -0.0410697731 0.3610067914
| 18> S -1.5884730946 1.5430232501 -0.6340979644
| 19> O -1.6977220479 0.0074558678 1.865148441
| 20> C -2.0322409371 -1.0256510611 2.8323670745
| 21> C -0.7778708059 -1.7602014985 3.2592927484
| 22> O -3.7379734702 -0.2186687014 0.5213420587
| 23> C -4.6739823832 0.066752872 -0.5320016121
| 24> C -4.5142169166 -0.8624994192 -1.7179662149
| 25> H 3.5586622286 -2.5437377696 0.2686987913
| 26> H 4.9459733937 -2.3869728978 -0.8186521362
| 27> H 5.1964711539 -2.4649260866 0.9331195586
| 28> H 5.4433338246 -0.1267491804 0.1676311675
| 29> H 3.9735600367 -0.2722431769 1.1686098032
| 30> H 2.2191963831 3.7034928106 0.6751096809
| 31> H 0.8753736588 2.8720887938 -0.1484557422
| 32> H 1.7776007116 2.3007146549 2.7225935564
| 33> H 0.3954035827 3.3207260231 2.2818360164
| 34> H 0.3661726774 1.5960953777 1.9141349206
| 35> H 0.5310354223 -2.3602507328 -1.4002502088
| 36> H -0.0131275965 -0.6803744103 -1.7440845579
| 37> H -2.4873114444 -0.4919440226 3.6678323165
| 38> H -2.7624262553 -1.7061200436 2.3895178347
| 39> H -0.0460136879 -1.0576188718 3.646829766
| 40> H -1.0347543795 -2.4763277571 4.0330611676
| 41> H -0.3370022403 -2.2865148965 2.4159891064
| 42> H -5.6463403014 -0.0558323022 -0.0526419999
| 43> H -4.5397314902 1.1085612875 -0.8392594343
| 44> H -4.5307216592 -1.8998537201 -1.3931482762
| 45> H -5.3249670103 -0.6901249629 -2.4186347317
| 46> H -3.5689858732 -0.6656682899 -2.2222996235
| 47> *
| 48>
| 49>                          ****END OF INPUT****

CARTESIAN COORDINATES (ANGSTROEM)
---------------------------------
  C      4.542913   -2.098377    0.148048
  C      4.457693   -0.588203    0.242167
  O      3.712931   -0.062672   -0.889528
  P      2.283692    0.584753   -0.758551
  S      1.593245    1.099194   -2.513100
  O      2.583995    1.765770    0.266791
  C      1.634762    2.782199    0.635107
  C      1.004542    2.474811    1.979546
  S      1.132370   -0.813683    0.358442
  C      0.081725   -1.461791   -0.984330
  S     -1.547349   -1.943490   -0.382946
  P     -2.163854   -0.041070    0.361007
  S     -1.588473    1.543023   -0.634098
  O     -1.697722    0.007456    1.865148
  C     -2.032241   -1.025651    2.832367
  C     -0.777871   -1.760201    3.259293
  O     -3.737973   -0.218669    0.521342
  C     -4.673982    0.066753   -0.532002
  C     -4.514217   -0.862499   -1.717966
  H      3.558662   -2.543738    0.268699
  H      4.945973   -2.386973   -0.818652
  H      5.196471   -2.464926    0.933120
  H      5.443334   -0.126749    0.167631
  H      3.973560   -0.272243    1.168610
  H      2.219196    3.703493    0.675110
  H      0.875374    2.872089   -0.148456
  H      1.777601    2.300715    2.722594
  H      0.395404    3.320726    2.281836
  H      0.366173    1.596095    1.914135
  H      0.531035   -2.360251   -1.400250
  H     -0.013128   -0.680374   -1.744085
  H     -2.487311   -0.491944    3.667832
  H     -2.762426   -1.706120    2.389518
  H     -0.046014   -1.057619    3.646830
  H     -1.034754   -2.476328    4.033061
  H     -0.337002   -2.286515    2.415989
  H     -5.646340   -0.055832   -0.052642
  H     -4.539731    1.108561   -0.839259
  H     -4.530722   -1.899854   -1.393148
  H     -5.324967   -0.690125   -2.418635
  H     -3.568986   -0.665668   -2.222300

 Total Charge           Charge          ....    0
 Multiplicity           Mult            ....    1
 Number of Electrons    NEL             ....  202
 Basis Dimension        Dim             ....  334

ORBITAL ENERGIES
----------------

  NO   OCC          E(Eh)            E(eV)
   0   2.0000     -88.049099     -2395.9378
   1   2.0000     -88.041481     -2395.7305
   2   2.0000     -87.986316     -2394.2294
   3   2.0000     -87.978665     -2394.0212
   4   2.0000     -76.428844     -2079.7346
   5   2.0000     -76.420006     -2079.4941
   6   2.0000     -18.795220      -511.4439
   7   2.0000     -18.793701      -511.4026
   8   2.0000     -18.785427      -511.1775
   9   2.0000     -18.784779      -511.1598
  10   2.0000      -9.959904      -271.0228
  11   2.0000      -9.955508      -270.9031
  12   2.0000      -9.954757      -270.8827
  13   2.0000      -9.953556      -270.8500
  14   2.0000      -9.940630      -270.4983
  15   2.0000      -9.888514      -269.0801
  16   2.0000      -9.885801      -269.0063
  17   2.0000      -9.885437      -268.9964
  18   2.0000      -9.871370      -268.6136
  19   2.0000      -7.693832      -209.3598
  20   2.0000      -7.685632      -209.1367
  21   2.0000      -7.631138      -207.6538
  22   2.0000      -7.623977      -207.4590
  23   2.0000      -6.426013      -174.8607
  24   2.0000      -6.417638      -174.6328
  25   2.0000      -5.721696      -155.6953
  26   2.0000      -5.718246      -155.6014
  27   2.0000      -5.713404      -155.4696
  28   2.0000      -5.710979      -155.4036
  29   2.0000      -5.710182      -155.3820
  30   2.0000      -5.702758      -155.1799
  31   2.0000      -5.660175      -154.0212
  32   2.0000      -5.653056      -153.8275
  33   2.0000      -5.651484      -153.7847
  34   2.0000      -5.651455      -153.7839
  35   2.0000      -5.644430      -153.5927
  36   2.0000      -5.644078      -153.5832
  37   2.0000      -4.648844      -126.5015
  38   2.0000      -4.647799      -126.4731
  39   2.0000      -4.646275      -126.4316
  40   2.0000      -4.640335      -126.2699
  41   2.0000      -4.639420      -126.2450
  42   2.0000      -4.637967      -126.2055
  43   2.0000      -0.990790       -26.9608
  44   2.0000      -0.981342       -26.7037
  45   2.0000      -0.947079       -25.7713
  46   2.0000      -0.936864       -25.4934
  47   2.0000      -0.763345       -20.7717
  48   2.0000      -0.720494       -19.6056
  49   2.0000      -0.711303       -19.3555
  50   2.0000      -0.691569       -18.8186
  51   2.0000      -0.683098       -18.5880
  52   2.0000      -0.675605       -18.3841
  53   2.0000      -0.650460       -17.6999
  54   2.0000      -0.632165       -17.2021
  55   2.0000      -0.596643       -16.2355
  56   2.0000      -0.582894       -15.8613
  57   2.0000      -0.578382       -15.7386
  58   2.0000      -0.570492       -15.5239
  59   2.0000      -0.559130       -15.2147
  60   2.0000      -0.506251       -13.7758
  61   2.0000      -0.498752       -13.5717
  62   2.0000      -0.474685       -12.9168
  63   2.0000      -0.471099       -12.8193
  64   2.0000      -0.452041       -12.3007
  65   2.0000      -0.447992       -12.1905
  66   2.0000      -0.444928       -12.1071
  67   2.0000      -0.436025       -11.8648
  68   2.0000      -0.431633       -11.7453
  69   2.0000      -0.416879       -11.3438
  70   2.0000      -0.412685       -11.2297
  71   2.0000      -0.395054       -10.7500
  72   2.0000      -0.392694       -10.6858
  73   2.0000      -0.378614       -10.3026
  74   2.0000      -0.375080       -10.2065
  75   2.0000      -0.369461       -10.0535
  76   2.0000      -0.362849        -9.8736
  77   2.0000      -0.360311        -9.8046
  78   2.0000      -0.355197        -9.6654
  79   2.0000      -0.352032        -9.5793
  80   2.0000      -0.348625        -9.4866
  81   2.0000      -0.343575        -9.3492
  82   2.0000      -0.342387        -9.3168
  83   2.0000      -0.338473        -9.2103
  84   2.0000      -0.326236        -8.8773
  85   2.0000      -0.316422        -8.6103
  86   2.0000      -0.309750        -8.4287
  87   2.0000      -0.304151        -8.2764
  88   2.0000      -0.295816        -8.0496
  89   2.0000      -0.294817        -8.0224
  90   2.0000      -0.283087        -7.7032
  91   2.0000      -0.275598        -7.4994
  92   2.0000      -0.269588        -7.3359
  93   2.0000      -0.264403        -7.1948
  94   2.0000      -0.254603        -6.9281
  95   2.0000      -0.232938        -6.3386
  96   2.0000      -0.223461        -6.0807
  97   2.0000      -0.209291        -5.6951
  98   2.0000      -0.201988        -5.4964
  99   2.0000      -0.195786        -5.3276
 100   2.0000      -0.187445        -5.1006
 101   0.0000      -0.046587        -1.2677
 102   0.0000      -0.034247        -0.9319
 103   0.0000      -0.011378        -0.3096
 104   0.0000       0.006408         0.1744
 105   0.0000       0.013806         0.3757

MULLIKEN ATOMIC CHARGES
-----------------------
   0 C :   -0.284502
   1 C :   -0.011959
   2 O :   -0.358752
   3 P :    0.611624
   4 S :   -0.292365
   5 O :   -0.380862
   6 C :   -0.009698
   7 C :   -0.320060
   8 S :   -0.143434
   9 C :   -0.333401
  10 S :   -0.114103
  11 P :    0.595862
  12 S :   -0.295342
  13 O :   -0.350959
  14 C :   -0.013381
  15 C :   -0.284552
  16 O :   -0.379744
  17 C :    0.001927
  18 C :   -0.321586
  19 H :    0.114661
  20 H :    0.120061
  21 H :    0.107410
  22 H :    0.112389
  23 H :    0.103905
  24 H :    0.100801
  25 H :    0.124230
  26 H :    0.100161
  27 H :    0.107065
  28 H :    0.150550
  29 H :    0.178284
  30 H :    0.210867
  31 H :    0.112745
  32 H :    0.106309
  33 H :    0.120912
  34 H :    0.109167
  35 H :    0.121291
  36 H :    0.104877
  37 H :    0.113803
  38 H :    0.116727
  39 H :    0.115495
  40 H :    0.133572
Sum of atomic charges:   -0.0000000

LOEWDIN ATOMIC CHARGES
----------------------
   0 C :   -0.359706
   1 C :   -0.112820
   2 O :   -0.241853
   3 P :    0.565044
   4 S :   -0.288259
   5 O :   -0.247077
   6 C :   -0.116936
   7 C :   -0.369319
   8 S :    0.065538
   9 C :   -0.479007
  10 S :    0.077519
  11 P :    0.566412
  12 S :   -0.288543
  13 O :   -0.233444
  14 C :   -0.111564
  15 C :   -0.359561
  16 O :   -0.250497
  17 C :   -0.115717
  18 C :   -0.371255
  19 H :    0.118784
  20 H :    0.129219
  21 H :    0.128505
  22 H :    0.122331
  23 H :    0.106305
  24 H :    0.116360
  25 H :    0.108556
  26 H :    0.118134
  27 H :    0.130173
  28 H :    0.121129
  29 H :    0.133728
  30 H :    0.123425
  31 H :    0.122259
  32 H :    0.108341
  33 H :    0.128336
  34 H :    0.129146
  35 H :    0.115307
  36 H :    0.118732
  37 H :    0.113833
  38 H :    0.122463
  39 H :    0.132284
  40 H :    0.123694

  Mayer bond orders larger than 0.100000
B(  0-C ,  1-C ) :   1.1626 B(  0-C , 19-H ) :   0.9395 B(  0-C , 20-H ) :   0.9461
B(  0-C , 21-H ) :   0.9403 B(  1-C ,  2-O ) :   0.8912 B(  1-C , 22-H ) :   0.9344
B(  1-C , 23-H ) :   0.9179 B(  2-O ,  3-P ) :   1.1349 B(  3-P ,  4-S ) :   1.6654
B(  3-P ,  5-O ) :   1.1039 B(  3-P ,  8-S ) :   0.9253 B(  4-S ,  8-S ) :   0.1151
B(  4-S , 30-H ) :   0.1014 B(  5-O ,  6-C ) :   0.8978 B(  6-C ,  7-C ) :   1.1710
B(  6-C , 24-H ) :   0.9346 B(  6-C , 25-H ) :   0.9030 B(  7-C , 26-H ) :   0.9467
B(  7-C , 27-H ) :   0.9398 B(  7-C , 28-H ) :   0.9232 B(  8-S ,  9-C ) :   0.9927
B(  9-C , 10-S ) :   1.0099 B(  9-C , 29-H ) :   0.9089 B(  9-C , 30-H ) :   0.8453
B( 10-S , 11-P ) :   0.9313 B( 10-S , 12-S ) :   0.1085 B( 11-P , 12-S ) :   1.6483
B( 11-P , 13-O ) :   1.1227 B( 11-P , 16-O ) :   1.0896 B( 13-O , 14-C ) :   0.8860
B( 14-C , 15-C ) :   1.1654 B( 14-C , 31-H ) :   0.9340 B( 14-C , 32-H ) :   0.9170
B( 15-C , 33-H ) :   0.9465 B( 15-C , 34-H ) :   0.9390 B( 15-C , 35-H ) :   0.9327
B( 16-O , 17-C ) :   0.9059 B( 17-C , 18-C ) :   1.1661 B( 17-C , 36-H ) :   0.9345
B( 17-C , 37-H ) :   0.9187 B( 18-C , 38-H ) :   0.9434 B( 18-C , 39-H ) :   0.9369
B( 18-C , 40-H ) :   0.9351

Dispersion correction           -0.066653445
FINAL SINGLE POINT ENERGY     -2929.519474420014

DIPOLE MOMENT
-------------

Method             : SCF
Type of density    : Electron Density
Multiplicity       :   1
Irrep              :   0
Energy             : -2929.6378451622122157 Eh
Relativity type    :
Basis              : AO
                                X                 Y                 Z
Electronic contribution:      0.527292744       6.152575803     -13.193081772
Nuclear contribution   :     -1.028685090      -7.274847454      14.777951067
                        -----------------------------------------
Total Dipole Moment    :     -0.501392346      -1.122271652       1.584869295
                        -----------------------------------------
Magnitude (a.u.)       :      2.005666629
Magnitude (Debye)      :      5.097999427

Rotational constants in cm-1:             0.011882             0.005293             0.005012
Rotational constants in MHz :           356.213385           158.681299           150.258967

                             ****ORCA TERMINATED NORMALLY****
TOTAL RUN TIME: 0 days 0 hours 0 minutes 21 seconds 679 msec
