                         Program Version 6.0.1  -  RELEASE   -
|  1> ! pbe def2-sv(p) def2/J RI DEFGRID1 loosescf d4 GCP(DFT/SV(P)) printgap
|  2> %output
|  3>     printlevel normal
|  4> end
|  5> * xyz 0 1
|  6> C 1.4896851292 -3.7550925798 0.4167736312
|  7> C 2.4164225574 -2.5542716383 0.4467493428
|  8> O 2.119859909 -1.722074939 -0.6896084169
|  9> C 2.1715732112 -0.4129630109 -0.5778808027
| 10> O 2.4613899203 0.1969299511 0.4300572287
| 11> C 1.7968110118 0.266377352 -1.8841979915
| 12> C 0.4076643583 0.8982790652 -1.7553829245
| 13> H 0.1935059187 1.4980632842 -2.6442503909
| 14> C 0.3114388889 1.7774552709 -0.5271167195
| 15> O -0.557673448 1.6252922269 0.315515699
| 16> O 1.2245042606 2.6978869032 -0.4930829631
| 17> C 1.2899605075 3.5468985035 0.6742236255
| 18> C 2.4977812243 4.4478531754 0.5213630666
| 19> S -0.9137990766 -0.354957354 -1.6911249737
| 20> P -1.4721755219 -0.6132662148 0.3602927114
| 21> S -0.3108163255 -0.742099673 1.936046453
| 22> O -2.8553238801 0.1787100517 0.541813484
| 23> C -3.0769173444 1.3143887827 1.3739035318
| 24> O -2.0551337723 -2.0955066445 0.1829741287
| 25> C -3.0849280195 -2.4622256733 -0.749748832
| 26> H 0.4588387261 -3.4333725589 0.5530188269
| 27> H 1.5779991961 -4.2694524284 -0.5353540377
| 28> H 1.7536005509 -4.4303722449 1.2234721692
| 29> H 3.4634967886 -2.856076768 0.3573680414
| 30> H 2.2820163131 -1.9650997579 1.3592575531
| 31> H 1.7905703653 -0.4687285866 -2.6869135483
| 32> H 2.5217072011 1.0566688036 -2.0826265055
| 33> H 0.3577175783 4.11603982 0.7360004725
| 34> H 1.3679697638 2.9009741611 1.5542819479
| 35> H 3.4011242029 3.8477633958 0.4687175018
| 36> H 2.4100593619 5.0396932328 -0.3845274837
| 37> H 2.5590117172 5.10892894 1.3791451109
| 38> H -2.3498439857 1.3362060624 2.186603733
| 39> H -4.0849296591 1.2029505739 1.7681901334
| 40> H -2.9909243173 2.2225891241 0.7798313178
| 41> H -3.3754766902 -3.4711864922 -0.467405309
| 42> H -2.6884957688 -2.4467074433 -1.7646491177
| 43> H -3.9293212887 -1.7808127267 -0.6650212568
| 44> *
| 45>
| 46>                          ****END OF INPUT****

CARTESIAN COORDINATES (ANGSTROEM)
---------------------------------
  C      1.489685   -3.755093    0.416774
  C      2.416423   -2.554272    0.446749
  O      2.119860   -1.722075   -0.689608
  C      2.171573   -0.412963   -0.577881
  O      2.461390    0.196930    0.430057
  C      1.796811    0.266377   -1.884198
  C      0.407664    0.898279   -1.755383
  H      0.193506    1.498063   -2.644250
  C      0.311439    1.777455   -0.527117
  O     -0.557673    1.625292    0.315516
  O      1.224504    2.697887   -0.493083
  C      1.289961    3.546899    0.674224
  C      2.497781    4.447853    0.521363
  S     -0.913799   -0.354957   -1.691125
  P     -1.472176   -0.613266    0.360293
  S     -0.310816   -0.742100    1.936046
  O     -2.855324    0.178710    0.541813
  C     -3.076917    1.314389    1.373904
  O     -2.055134   -2.095507    0.182974
  C     -3.084928   -2.462226   -0.749749
  H      0.458839   -3.433373    0.553019
  H      1.577999   -4.269452   -0.535354
  H      1.753601   -4.430372    1.223472
  H      3.463497   -2.856077    0.357368
  H      2.282016   -1.965100    1.359258
  H      1.790570   -0.468729   -2.686914
  H      2.521707    1.056669   -2.082627
  H      0.357718    4.116040    0.736000
  H      1.367970    2.900974    1.554282
  H      3.401124    3.847763    0.468718
  H      2.410059    5.039693   -0.384527
  H      2.559012    5.108929    1.379145
  H     -2.349844    1.336206    2.186604
  H     -4.084930    1.202951    1.768190
  H     -2.990924    2.222589    0.779831
  H     -3.375477   -3.471186   -0.467405
  H     -2.688496   -2.446707   -1.764649
  H     -3.929321   -1.780813   -0.665021

 Total Charge           Charge          ....    0
 Multiplicity           Mult            ....    1
 Number of Electrons    NEL             ....  174
 Basis Dimension        Dim             ....  316

ORBITAL ENERGIES
----------------

  NO   OCC          E(Eh)            E(eV)
   0   2.0000     -88.032618     -2395.4893
   1   2.0000     -87.961466     -2393.5532
   2   2.0000     -76.417338     -2079.4215
   3   2.0000     -18.822346      -512.1821
   4   2.0000     -18.797987      -511.5192
   5   2.0000     -18.775450      -510.9060
   6   2.0000     -18.770860      -510.7811
   7   2.0000     -18.766675      -510.6672
   8   2.0000     -18.730248      -509.6760
   9   2.0000     -10.032240      -272.9911
  10   2.0000     -10.006513      -272.2911
  11   2.0000      -9.958830      -270.9935
  12   2.0000      -9.956424      -270.9281
  13   2.0000      -9.935055      -270.3466
  14   2.0000      -9.931271      -270.2436
  15   2.0000      -9.930650      -270.2267
  16   2.0000      -9.913862      -269.7699
  17   2.0000      -9.893663      -269.2203
  18   2.0000      -9.867667      -268.5129
  19   2.0000      -7.677760      -208.9225
  20   2.0000      -7.606791      -206.9913
  21   2.0000      -6.411949      -174.4780
  22   2.0000      -5.706030      -155.2690
  23   2.0000      -5.702056      -155.1608
  24   2.0000      -5.694499      -154.9552
  25   2.0000      -5.636301      -153.3715
  26   2.0000      -5.627516      -153.1325
  27   2.0000      -5.626142      -153.0951
  28   2.0000      -4.635029      -126.1255
  29   2.0000      -4.633859      -126.0937
  30   2.0000      -4.632449      -126.0553
  31   2.0000      -1.035620       -28.1806
  32   2.0000      -1.002883       -27.2898
  33   2.0000      -0.966367       -26.2962
  34   2.0000      -0.941462       -25.6185
  35   2.0000      -0.921497       -25.0752
  36   2.0000      -0.909537       -24.7498
  37   2.0000      -0.769479       -20.9386
  38   2.0000      -0.717238       -19.5170
  39   2.0000      -0.700893       -19.0723
  40   2.0000      -0.684397       -18.6234
  41   2.0000      -0.651993       -17.7416
  42   2.0000      -0.624942       -17.0055
  43   2.0000      -0.622461       -16.9380
  44   2.0000      -0.601375       -16.3643
  45   2.0000      -0.582937       -15.8625
  46   2.0000      -0.559447       -15.2233
  47   2.0000      -0.521581       -14.1930
  48   2.0000      -0.502964       -13.6863
  49   2.0000      -0.497119       -13.5273
  50   2.0000      -0.489504       -13.3201
  51   2.0000      -0.468075       -12.7370
  52   2.0000      -0.462315       -12.5802
  53   2.0000      -0.449800       -12.2397
  54   2.0000      -0.441386       -12.0107
  55   2.0000      -0.430922       -11.7260
  56   2.0000      -0.414251       -11.2723
  57   2.0000      -0.412463       -11.2237
  58   2.0000      -0.410031       -11.1575
  59   2.0000      -0.406828       -11.0704
  60   2.0000      -0.400495       -10.8980
  61   2.0000      -0.387907       -10.5555
  62   2.0000      -0.383780       -10.4432
  63   2.0000      -0.379671       -10.3314
  64   2.0000      -0.370982       -10.0949
  65   2.0000      -0.365645        -9.9497
  66   2.0000      -0.363557        -9.8929
  67   2.0000      -0.351012        -9.5515
  68   2.0000      -0.340516        -9.2659
  69   2.0000      -0.334484        -9.1018
  70   2.0000      -0.331273        -9.0144
  71   2.0000      -0.326406        -8.8820
  72   2.0000      -0.317092        -8.6285
  73   2.0000      -0.308143        -8.3850
  74   2.0000      -0.301105        -8.1935
  75   2.0000      -0.289959        -7.8902
  76   2.0000      -0.284595        -7.7442
  77   2.0000      -0.283607        -7.7173
  78   2.0000      -0.280094        -7.6217
  79   2.0000      -0.259651        -7.0655
  80   2.0000      -0.252085        -6.8596
  81   2.0000      -0.248875        -6.7722
  82   2.0000      -0.243567        -6.6278
  83   2.0000      -0.217709        -5.9242
  84   2.0000      -0.211833        -5.7643
  85   2.0000      -0.182439        -4.9644
  86   2.0000      -0.171157        -4.6574
  87   0.0000      -0.045173        -1.2292
  88   0.0000      -0.038115        -1.0372
  89   0.0000      -0.025476        -0.6932
  90   0.0000      -0.003562        -0.0969
  91   0.0000       0.034670         0.9434

MULLIKEN ATOMIC CHARGES
-----------------------
   0 C :   -0.293205
   1 C :   -0.029354
   2 O :   -0.220096
   3 C :    0.093171
   4 O :   -0.199367
   5 C :   -0.028653
   6 C :   -0.297745
   7 H :    0.154273
   8 C :    0.227774
   9 O :   -0.206576
  10 O :   -0.212054
  11 C :   -0.030349
  12 C :   -0.278744
  13 S :   -0.129519
  14 P :    0.646029
  15 S :   -0.316109
  16 O :   -0.400971
  17 C :   -0.079950
  18 O :   -0.378696
  19 C :   -0.117389
  20 H :    0.134676
  21 H :    0.100869
  22 H :    0.103063
  23 H :    0.094277
  24 H :    0.131326
  25 H :    0.114148
  26 H :    0.120499
  27 H :    0.105498
  28 H :    0.134431
  29 H :    0.128661
  30 H :    0.112913
  31 H :    0.115366
  32 H :    0.117580
  33 H :    0.113847
  34 H :    0.103347
  35 H :    0.125642
  36 H :    0.122166
  37 H :    0.119221
Sum of atomic charges:   -0.0000000

LOEWDIN ATOMIC CHARGES
----------------------
   0 C :   -0.356431
   1 C :   -0.112785
   2 O :   -0.046518
   3 C :    0.021094
   4 O :   -0.163173
   5 C :   -0.246315
   6 C :   -0.256646
   7 H :    0.149433
   8 C :    0.029680
   9 O :   -0.145656
  10 O :   -0.029810
  11 C :   -0.100920
  12 C :   -0.350254
  13 S :    0.085124
  14 P :    0.581167
  15 S :   -0.308024
  16 O :   -0.261370
  17 C :   -0.209376
  18 O :   -0.260240
  19 C :   -0.217940
  20 H :    0.127511
  21 H :    0.119579
  22 H :    0.127510
  23 H :    0.111411
  24 H :    0.120523
  25 H :    0.135686
  26 H :    0.143346
  27 H :    0.116508
  28 H :    0.131906
  29 H :    0.133073
  30 H :    0.125547
  31 H :    0.133592
  32 H :    0.110664
  33 H :    0.114729
  34 H :    0.107320
  35 H :    0.122781
  36 H :    0.105430
  37 H :    0.111844

  Mayer bond orders larger than 0.100000
B(  0-C ,  1-C ) :   1.1692 B(  0-C , 20-H ) :   0.9326 B(  0-C , 21-H ) :   0.9480
B(  0-C , 22-H ) :   0.9434 B(  1-C ,  2-O ) :   0.8962 B(  1-C , 23-H ) :   0.9339
B(  1-C , 24-H ) :   0.9038 B(  2-O ,  3-C ) :   1.2586 B(  2-O ,  4-O ) :   0.1063
B(  3-C ,  4-O ) :   2.0153 B(  3-C ,  5-C ) :   0.9888 B(  5-C ,  6-C ) :   1.0373
B(  5-C , 25-H ) :   0.9018 B(  5-C , 26-H ) :   0.8805 B(  6-C ,  7-H ) :   0.8736
B(  6-C ,  8-C ) :   0.9219 B(  6-C , 13-S ) :   1.0536 B(  8-C ,  9-O ) :   1.8778
B(  8-C , 10-O ) :   1.2872 B(  9-O , 14-P ) :   0.1521 B( 10-O , 11-C ) :   0.8821
B( 11-C , 12-C ) :   1.1585 B( 11-C , 27-H ) :   0.9335 B( 11-C , 28-H ) :   0.9242
B( 12-C , 29-H ) :   0.9485 B( 12-C , 30-H ) :   0.9498 B( 12-C , 31-H ) :   0.9421
B( 13-S , 14-P ) :   0.9152 B( 13-S , 15-S ) :   0.1134 B( 14-P , 15-S ) :   1.5785
B( 14-P , 16-O ) :   1.0690 B( 14-P , 18-O ) :   1.0613 B( 16-O , 17-C ) :   0.9354
B( 17-C , 32-H ) :   0.9354 B( 17-C , 33-H ) :   0.9548 B( 17-C , 34-H ) :   0.9545
B( 18-O , 19-C ) :   0.9359 B( 19-C , 35-H ) :   0.9603 B( 19-C , 36-H ) :   0.9405
B( 19-C , 37-H ) :   0.9432

Dispersion correction           -0.054717302
FINAL SINGLE POINT ENERGY     -1979.004870793084

DIPOLE MOMENT
-------------

Method             : SCF
Type of density    : Electron Density
Multiplicity       :   1
Irrep              :   0
Energy             : -1979.1342198095376261 Eh
Relativity type    :
Basis              : AO
                                X                 Y                 Z
Electronic contribution:     -5.795606450      -2.517068255      -1.868649968
Nuclear contribution   :      5.782729161       3.602484765       0.740201231
                        -----------------------------------------
Total Dipole Moment    :     -0.012877289       1.085416510      -1.128448737
                        -----------------------------------------
Magnitude (a.u.)       :      1.565787781
Magnitude (Debye)      :      3.979916251

Rotational constants in cm-1:             0.012163             0.009201             0.006947
Rotational constants in MHz :           364.648824           275.835168           208.278868

                             ****ORCA TERMINATED NORMALLY****
TOTAL RUN TIME: 0 days 0 hours 0 minutes 38 seconds 803 msec
