                         Program Version 6.0.0  -   RELEASE  -
|  1> ! pbe def2-sv(p) def2/J RI DEFGRID1 loosescf d4 GCP(DFT/SV(P)) printgap
|  2> %output
|  3>     printlevel normal
|  4> end
|  5> * xyz 0 1
|  6> C 3.8197319225 -0.3713055085 -2.3380490617
|  7> C 2.5194785819 0.3870373919 -2.1842183996
|  8> O 1.7923624561 -0.0585370838 -1.0241761841
|  9> P 2.2647958221 0.2732978665 0.4467511834
| 10> S 3.2738002584 1.9328753018 0.6923588039
| 11> O 2.9950898338 -1.0953359683 0.8305471009
| 12> C 3.5819565326 -1.2944103066 2.1313362907
| 13> C 5.0506918873 -0.9179672418 2.1304257932
| 14> S 0.4523288904 0.1934541799 1.507814028
| 15> C -0.2321833863 -1.3734839598 0.8284697849
| 16> S -2.0262589568 -1.3367394681 0.8622143462
| 17> P -2.2896454538 0.0921650058 -0.7042813972
| 18> S -1.1623208962 -0.2280139233 -2.2739816275
| 19> O -1.9962028107 1.5452536009 -0.1659629288
| 20> C -2.8305301412 2.3315489642 0.7198097983
| 21> C -2.9923245763 1.706101751 2.0897266316
| 22> O -3.8638582838 0.1289999374 -0.8992313671
| 23> C -4.7095637034 -1.0310645535 -1.0206857731
| 24> C -4.2904245534 -1.9445174703 -2.1528350138
| 25> H 4.474267113 -0.1454675549 -1.4967022566
| 26> H 3.629479563 -1.4409523507 -2.3620737524
| 27> H 4.306502275 -0.0678062798 -3.259332761
| 28> H 1.8274436776 0.2015101764 -3.0080537983
| 29> H 2.7030484367 1.4621108723 -2.0888789465
| 30> H 3.0280391229 -0.7049411164 2.8697415225
| 31> H 3.4468900168 -2.3584599678 2.3350673866
| 32> H 5.1675852302 0.1425149897 1.9180760126
| 33> H 5.4749885425 -1.1317796145 3.1060556227
| 34> H 5.5818211144 -1.488628595 1.373799178
| 35> H 0.0793815287 -2.2029521879 1.4572120966
| 36> H 0.1093855679 -1.4834007613 -0.2009505586
| 37> H -2.2970643502 3.2818943242 0.7768631825
| 38> H -3.7976004944 2.4750917284 0.2344187992
| 39> H -3.5010707433 2.4128468768 2.7379740261
| 40> H -3.582126983 0.7941709198 2.0299885609
| 41> H -2.0183770915 1.4708481767 2.5146843737
| 42> H -4.6938968713 -1.5656032863 -0.0670831755
| 43> H -5.7001146326 -0.6071665574 -1.1948825395
| 44> H -3.30366027 -2.3599879752 -1.9540799049
| 45> H -5.0048120887 -2.7561696524 -2.2443723782
| 46> H -4.247523595 -1.3940323529 -3.0897224321
| 47> *
| 48>
| 49>                          ****END OF INPUT****

CARTESIAN COORDINATES (ANGSTROEM)
---------------------------------
  C      3.819732   -0.371306   -2.338049
  C      2.519479    0.387037   -2.184218
  O      1.792362   -0.058537   -1.024176
  P      2.264796    0.273298    0.446751
  S      3.273800    1.932875    0.692359
  O      2.995090   -1.095336    0.830547
  C      3.581957   -1.294410    2.131336
  C      5.050692   -0.917967    2.130426
  S      0.452329    0.193454    1.507814
  C     -0.232183   -1.373484    0.828470
  S     -2.026259   -1.336739    0.862214
  P     -2.289645    0.092165   -0.704281
  S     -1.162321   -0.228014   -2.273982
  O     -1.996203    1.545254   -0.165963
  C     -2.830530    2.331549    0.719810
  C     -2.992325    1.706102    2.089727
  O     -3.863858    0.129000   -0.899231
  C     -4.709564   -1.031065   -1.020686
  C     -4.290425   -1.944517   -2.152835
  H      4.474267   -0.145468   -1.496702
  H      3.629480   -1.440952   -2.362074
  H      4.306502   -0.067806   -3.259333
  H      1.827444    0.201510   -3.008054
  H      2.703048    1.462111   -2.088879
  H      3.028039   -0.704941    2.869742
  H      3.446890   -2.358460    2.335067
  H      5.167585    0.142515    1.918076
  H      5.474989   -1.131780    3.106056
  H      5.581821   -1.488629    1.373799
  H      0.079382   -2.202952    1.457212
  H      0.109386   -1.483401   -0.200951
  H     -2.297064    3.281894    0.776863
  H     -3.797600    2.475092    0.234419
  H     -3.501071    2.412847    2.737974
  H     -3.582127    0.794171    2.029989
  H     -2.018377    1.470848    2.514684
  H     -4.693897   -1.565603   -0.067083
  H     -5.700115   -0.607167   -1.194883
  H     -3.303660   -2.359988   -1.954080
  H     -5.004812   -2.756170   -2.244372
  H     -4.247524   -1.394032   -3.089722

 Total Charge           Charge          ....    0
 Multiplicity           Mult            ....    1
 Number of Electrons    NEL             ....  202
 Basis Dimension        Dim             ....  334

ORBITAL ENERGIES
----------------

  NO   OCC          E(Eh)            E(eV)
   0   2.0000     -88.050415     -2395.9736
   1   2.0000     -88.038190     -2395.6409
   2   2.0000     -87.983499     -2394.1527
   3   2.0000     -87.979460     -2394.0428
   4   2.0000     -76.427560     -2079.6996
   5   2.0000     -76.421282     -2079.5288
   6   2.0000     -18.800587      -511.5900
   7   2.0000     -18.787344      -511.2296
   8   2.0000     -18.786665      -511.2111
   9   2.0000     -18.783242      -511.1180
  10   2.0000      -9.964759      -271.1549
  11   2.0000      -9.956408      -270.9276
  12   2.0000      -9.953630      -270.8520
  13   2.0000      -9.952612      -270.8243
  14   2.0000      -9.942498      -270.5491
  15   2.0000      -9.886665      -269.0298
  16   2.0000      -9.885992      -269.0115
  17   2.0000      -9.879013      -268.8216
  18   2.0000      -9.876937      -268.7651
  19   2.0000      -7.695231      -209.3979
  20   2.0000      -7.683260      -209.0721
  21   2.0000      -7.628653      -207.5862
  22   2.0000      -7.624641      -207.4770
  23   2.0000      -6.424540      -174.8206
  24   2.0000      -6.419126      -174.6733
  25   2.0000      -5.722945      -155.7292
  26   2.0000      -5.719715      -155.6413
  27   2.0000      -5.712451      -155.4437
  28   2.0000      -5.711641      -155.4216
  29   2.0000      -5.707530      -155.3098
  30   2.0000      -5.699965      -155.1039
  31   2.0000      -5.657663      -153.9528
  32   2.0000      -5.653731      -153.8459
  33   2.0000      -5.649298      -153.7252
  34   2.0000      -5.648708      -153.7092
  35   2.0000      -5.645156      -153.6125
  36   2.0000      -5.644699      -153.6001
  37   2.0000      -4.647594      -126.4675
  38   2.0000      -4.646498      -126.4376
  39   2.0000      -4.644446      -126.3818
  40   2.0000      -4.641440      -126.3000
  41   2.0000      -4.641150      -126.2921
  42   2.0000      -4.639586      -126.2496
  43   2.0000      -0.990581       -26.9551
  44   2.0000      -0.981691       -26.7132
  45   2.0000      -0.944720       -25.7071
  46   2.0000      -0.940097       -25.5813
  47   2.0000      -0.764397       -20.8003
  48   2.0000      -0.720911       -19.6170
  49   2.0000      -0.709578       -19.3086
  50   2.0000      -0.693467       -18.8702
  51   2.0000      -0.682072       -18.5601
  52   2.0000      -0.673194       -18.3185
  53   2.0000      -0.651917       -17.7396
  54   2.0000      -0.636435       -17.3183
  55   2.0000      -0.592433       -16.1209
  56   2.0000      -0.589789       -16.0490
  57   2.0000      -0.582915       -15.8619
  58   2.0000      -0.566643       -15.4191
  59   2.0000      -0.561104       -15.2684
  60   2.0000      -0.500785       -13.6271
  61   2.0000      -0.496478       -13.5099
  62   2.0000      -0.472310       -12.8522
  63   2.0000      -0.469769       -12.7831
  64   2.0000      -0.456391       -12.4190
  65   2.0000      -0.445669       -12.1273
  66   2.0000      -0.437918       -11.9163
  67   2.0000      -0.434902       -11.8343
  68   2.0000      -0.432384       -11.7658
  69   2.0000      -0.415935       -11.3182
  70   2.0000      -0.412325       -11.2199
  71   2.0000      -0.407826       -11.0975
  72   2.0000      -0.397798       -10.8246
  73   2.0000      -0.388135       -10.5617
  74   2.0000      -0.380946       -10.3661
  75   2.0000      -0.366742        -9.9796
  76   2.0000      -0.355735        -9.6801
  77   2.0000      -0.355246        -9.6667
  78   2.0000      -0.354674        -9.6512
  79   2.0000      -0.348728        -9.4894
  80   2.0000      -0.344526        -9.3750
  81   2.0000      -0.342317        -9.3149
  82   2.0000      -0.340571        -9.2674
  83   2.0000      -0.334747        -9.1089
  84   2.0000      -0.328883        -8.9494
  85   2.0000      -0.323509        -8.8031
  86   2.0000      -0.315571        -8.5871
  87   2.0000      -0.301224        -8.1967
  88   2.0000      -0.293565        -7.9883
  89   2.0000      -0.289148        -7.8681
  90   2.0000      -0.282461        -7.6862
  91   2.0000      -0.278823        -7.5872
  92   2.0000      -0.269251        -7.3267
  93   2.0000      -0.262271        -7.1368
  94   2.0000      -0.256559        -6.9813
  95   2.0000      -0.236022        -6.4225
  96   2.0000      -0.218366        -5.9420
  97   2.0000      -0.204757        -5.5717
  98   2.0000      -0.197644        -5.3782
  99   2.0000      -0.195672        -5.3245
 100   2.0000      -0.192955        -5.2506
 101   0.0000      -0.045806        -1.2464
 102   0.0000      -0.020397        -0.5550
 103   0.0000      -0.018646        -0.5074
 104   0.0000       0.001036         0.0282
 105   0.0000       0.014014         0.3813

MULLIKEN ATOMIC CHARGES
-----------------------
   0 C :   -0.306479
   1 C :   -0.002361
   2 O :   -0.362103
   3 P :    0.614133
   4 S :   -0.324247
   5 O :   -0.381195
   6 C :   -0.013070
   7 C :   -0.291737
   8 S :   -0.088841
   9 C :   -0.352694
  10 S :   -0.124091
  11 P :    0.611977
  12 S :   -0.306521
  13 O :   -0.346896
  14 C :    0.007068
  15 C :   -0.325789
  16 O :   -0.381819
  17 C :   -0.017859
  18 C :   -0.306615
  19 H :    0.120977
  20 H :    0.114456
  21 H :    0.110610
  22 H :    0.111993
  23 H :    0.113169
  24 H :    0.098970
  25 H :    0.102373
  26 H :    0.130646
  27 H :    0.105951
  28 H :    0.113065
  29 H :    0.179899
  30 H :    0.215499
  31 H :    0.114118
  32 H :    0.107789
  33 H :    0.112679
  34 H :    0.116234
  35 H :    0.136316
  36 H :    0.115664
  37 H :    0.111390
  38 H :    0.127180
  39 H :    0.111983
  40 H :    0.128178
Sum of atomic charges:   -0.0000000

LOEWDIN ATOMIC CHARGES
----------------------
   0 C :   -0.364912
   1 C :   -0.114567
   2 O :   -0.229455
   3 P :    0.565665
   4 S :   -0.319660
   5 O :   -0.253773
   6 C :   -0.118957
   7 C :   -0.364416
   8 S :    0.077754
   9 C :   -0.474927
  10 S :    0.075585
  11 P :    0.570671
  12 S :   -0.301403
  13 O :   -0.229821
  14 C :   -0.108086
  15 C :   -0.371629
  16 O :   -0.244444
  17 C :   -0.114664
  18 C :   -0.368913
  19 H :    0.121173
  20 H :    0.125424
  21 H :    0.129801
  22 H :    0.117701
  23 H :    0.111876
  24 H :    0.105595
  25 H :    0.115744
  26 H :    0.124686
  27 H :    0.127945
  28 H :    0.124813
  29 H :    0.132647
  30 H :    0.130425
  31 H :    0.125026
  32 H :    0.113368
  33 H :    0.130876
  34 H :    0.114488
  35 H :    0.123984
  36 H :    0.107722
  37 H :    0.122229
  38 H :    0.122147
  39 H :    0.130537
  40 H :    0.131743

  Mayer bond orders larger than 0.100000
B(  0-C ,  1-C ) :   1.1617 B(  0-C , 19-H ) :   0.9350 B(  0-C , 20-H ) :   0.9469
B(  0-C , 21-H ) :   0.9393 B(  1-C ,  2-O ) :   0.8997 B(  1-C , 22-H ) :   0.9275
B(  1-C , 23-H ) :   0.9180 B(  2-O ,  3-P ) :   1.1281 B(  3-P ,  4-S ) :   1.6366
B(  3-P ,  5-O ) :   1.0675 B(  3-P ,  8-S ) :   0.9818 B(  5-O ,  6-C ) :   0.9129
B(  6-C ,  7-C ) :   1.1688 B(  6-C , 24-H ) :   0.9116 B(  6-C , 25-H ) :   0.9357
B(  7-C , 26-H ) :   0.9304 B(  7-C , 27-H ) :   0.9395 B(  7-C , 28-H ) :   0.9463
B(  8-S ,  9-C ) :   0.9563 B(  9-C , 10-S ) :   1.0271 B(  9-C , 29-H ) :   0.9099
B(  9-C , 30-H ) :   0.8566 B( 10-S , 11-P ) :   0.9146 B( 10-S , 12-S ) :   0.1105
B( 11-P , 12-S ) :   1.6639 B( 11-P , 13-O ) :   1.1467 B( 11-P , 16-O ) :   1.0804
B( 13-O , 14-C ) :   0.8973 B( 14-C , 15-C ) :   1.1685 B( 14-C , 31-H ) :   0.9340
B( 14-C , 32-H ) :   0.9293 B( 15-C , 33-H ) :   0.9355 B( 15-C , 34-H ) :   0.9409
B( 15-C , 35-H ) :   0.9375 B( 16-O , 17-C ) :   0.9114 B( 17-C , 18-C ) :   1.1672
B( 17-C , 36-H ) :   0.9254 B( 17-C , 37-H ) :   0.9332 B( 18-C , 38-H ) :   0.9309
B( 18-C , 39-H ) :   0.9346 B( 18-C , 40-H ) :   0.9432

Dispersion correction           -0.064806440
FINAL SINGLE POINT ENERGY     -2929.512163215270

DIPOLE MOMENT
-------------

Method             : SCF
Type of density    : Electron Density
Multiplicity       :   1
Irrep              :   0
Energy             : -2929.6328566197666987 Eh
Relativity type    :
Basis              : AO
                                X                 Y                 Z
Electronic contribution:     -2.689286256       6.301651951       0.074946811
Nuclear contribution   :      1.569310925      -7.339820636       0.552413569
                        -----------------------------------------
Total Dipole Moment    :     -1.119975331      -1.038168685       0.627360380
                        -----------------------------------------
Magnitude (a.u.)       :      1.650975472
Magnitude (Debye)      :      4.196446152

Rotational constants in cm-1:             0.013460             0.004615             0.004308
Rotational constants in MHz :           403.505796           138.358691           129.164171

                             ****ORCA TERMINATED NORMALLY****
TOTAL RUN TIME: 0 days 0 hours 0 minutes 20 seconds 464 msec
