                         Program Version 6.0.0  -   RELEASE  -
|  1> ! r2scan-3c def2/J RI DEFGRID2 scfconv6 printgap
|  2> %output
|  3>     printlevel normal
|  4> end
|  5> * xyz 0 1
|  6> C 4.6562092564 -1.373298131 -0.9001908977
|  7> C 4.6165192261 0.0920722341 -0.5177541723
|  8> O 3.4623097661 0.4127728977 0.2778778552
|  9> P 1.9819580386 0.3908902408 -0.3106012301
| 10> S 1.8697340946 1.0532092513 -2.1583948685
| 11> O 1.2195305307 1.1991697554 0.8161841965
| 12> C 1.314900248 2.6370676783 0.8989175487
| 13> C 0.5002722174 3.0797005479 2.095241296
| 14> S 1.2939755538 -1.5507109664 0.0749224292
| 15> C 0.0526390683 -1.7232420314 -1.2535899554
| 16> S -1.6186427945 -1.9994605109 -0.6290877915
| 17> P -1.9817022116 -0.0646450363 0.178723407
| 18> S -1.5056772605 1.4599404428 -0.950928753
| 19> O -1.2583328815 -0.0403323224 1.577567993
| 20> C -1.5176145379 -1.0228177666 2.6152935403
| 21> C -0.3204007935 -1.0469114064 3.5416597657
| 22> O -3.5105407903 -0.138279204 0.6139767423
| 23> C -4.5987714336 0.1717042463 -0.2745902052
| 24> C -4.7166499165 -0.820204067 -1.4133349526
| 25> H 4.549813246 -1.9978987861 -0.0169627413
| 26> H 3.8447199451 -1.5975802054 -1.591112174
| 27> H 5.6017821397 -1.590738026 -1.3862808979
| 28> H 4.6033907319 0.7224618576 -1.4127213118
| 29> H 5.4575347258 0.3668861123 0.1202322013
| 30> H 2.3684828152 2.9112362211 1.000950944
| 31> H 0.9211459759 3.0590114597 -0.0324484451
| 32> H -0.5295282025 2.7522264803 1.9741209527
| 33> H 0.9059978226 2.642786886 3.0029371794
| 34> H 0.5278602027 4.1621107072 2.1658576908
| 35> H 0.3030208261 -2.6072502957 -1.8342321608
| 36> H 0.078982582 -0.8230135122 -1.8740680575
| 37> H -2.427422503 -0.7175131133 3.135007989
| 38> H -1.6787521818 -1.9968846465 2.1441022671
| 39> H -0.1642783023 -0.0633515947 3.9751097988
| 40> H -0.4992582613 -1.7667984559 4.33367887
| 41> H 0.573081688 -1.3320480722 2.9918305535
| 42> H -5.4752298515 0.1459553811 0.3745722217
| 43> H -4.4501715096 1.1850251385 -0.6602797467
| 44> H -4.7353308011 -1.8372240005 -1.0298996609
| 45> H -5.6311672963 -0.6241934873 -1.9638622243
| 46> H -3.8702126958 -0.7147565586 -2.0900724308
| 47> *
| 48>
| 49>                          ****END OF INPUT****

CARTESIAN COORDINATES (ANGSTROEM)
---------------------------------
  C      4.656209   -1.373298   -0.900191
  C      4.616519    0.092072   -0.517754
  O      3.462310    0.412773    0.277878
  P      1.981958    0.390890   -0.310601
  S      1.869734    1.053209   -2.158395
  O      1.219531    1.199170    0.816184
  C      1.314900    2.637068    0.898918
  C      0.500272    3.079701    2.095241
  S      1.293976   -1.550711    0.074922
  C      0.052639   -1.723242   -1.253590
  S     -1.618643   -1.999461   -0.629088
  P     -1.981702   -0.064645    0.178723
  S     -1.505677    1.459940   -0.950929
  O     -1.258333   -0.040332    1.577568
  C     -1.517615   -1.022818    2.615294
  C     -0.320401   -1.046911    3.541660
  O     -3.510541   -0.138279    0.613977
  C     -4.598771    0.171704   -0.274590
  C     -4.716650   -0.820204   -1.413335
  H      4.549813   -1.997899   -0.016963
  H      3.844720   -1.597580   -1.591112
  H      5.601782   -1.590738   -1.386281
  H      4.603391    0.722462   -1.412721
  H      5.457535    0.366886    0.120232
  H      2.368483    2.911236    1.000951
  H      0.921146    3.059011   -0.032448
  H     -0.529528    2.752226    1.974121
  H      0.905998    2.642787    3.002937
  H      0.527860    4.162111    2.165858
  H      0.303021   -2.607250   -1.834232
  H      0.078983   -0.823014   -1.874068
  H     -2.427423   -0.717513    3.135008
  H     -1.678752   -1.996885    2.144102
  H     -0.164278   -0.063352    3.975110
  H     -0.499258   -1.766798    4.333679
  H      0.573082   -1.332048    2.991831
  H     -5.475230    0.145955    0.374572
  H     -4.450172    1.185025   -0.660280
  H     -4.735331   -1.837224   -1.029900
  H     -5.631167   -0.624193   -1.963862
  H     -3.870213   -0.714757   -2.090072

 Total Charge           Charge          ....    0
 Multiplicity           Mult            ....    1
 Number of Electrons    NEL             ....  202
 Basis Dimension        Dim             ....  539

ORBITAL ENERGIES
----------------

  NO   OCC          E(Eh)            E(eV)
   0   2.0000     -88.575620     -2410.2651
   1   2.0000     -88.574345     -2410.2305
   2   2.0000     -88.515111     -2408.6186
   3   2.0000     -88.512671     -2408.5522
   4   2.0000     -76.910992     -2092.8545
   5   2.0000     -76.907084     -2092.7481
   6   2.0000     -18.991686      -516.7901
   7   2.0000     -18.986975      -516.6619
   8   2.0000     -18.985999      -516.6353
   9   2.0000     -18.977726      -516.4102
  10   2.0000     -10.106690      -275.0170
  11   2.0000     -10.098685      -274.7992
  12   2.0000     -10.098039      -274.7816
  13   2.0000     -10.092860      -274.6407
  14   2.0000     -10.085797      -274.4485
  15   2.0000     -10.028710      -272.8951
  16   2.0000     -10.028204      -272.8813
  17   2.0000     -10.024999      -272.7941
  18   2.0000     -10.019475      -272.6438
  19   2.0000      -7.870188      -214.1587
  20   2.0000      -7.869152      -214.1305
  21   2.0000      -7.809813      -212.5158
  22   2.0000      -7.807361      -212.4491
  23   2.0000      -6.589405      -179.3068
  24   2.0000      -6.585662      -179.2050
  25   2.0000      -5.817091      -158.2911
  26   2.0000      -5.815965      -158.2605
  27   2.0000      -5.813801      -158.2016
  28   2.0000      -5.813050      -158.1811
  29   2.0000      -5.807456      -158.0289
  30   2.0000      -5.806179      -157.9942
  31   2.0000      -5.757590      -156.6720
  32   2.0000      -5.755009      -156.6017
  33   2.0000      -5.749961      -156.4644
  34   2.0000      -5.749842      -156.4612
  35   2.0000      -5.747871      -156.4075
  36   2.0000      -5.747147      -156.3878
  37   2.0000      -4.735286      -128.8537
  38   2.0000      -4.734371      -128.8288
  39   2.0000      -4.732770      -128.7852
  40   2.0000      -4.731080      -128.7392
  41   2.0000      -4.730470      -128.7226
  42   2.0000      -4.729569      -128.6981
  43   2.0000      -1.049071       -28.5467
  44   2.0000      -1.042039       -28.3553
  45   2.0000      -1.007420       -27.4133
  46   2.0000      -1.000586       -27.2273
  47   2.0000      -0.799834       -21.7646
  48   2.0000      -0.756432       -20.5836
  49   2.0000      -0.746482       -20.3128
  50   2.0000      -0.732378       -19.9290
  51   2.0000      -0.724959       -19.7271
  52   2.0000      -0.709703       -19.3120
  53   2.0000      -0.682729       -18.5780
  54   2.0000      -0.661258       -17.9937
  55   2.0000      -0.628407       -17.0998
  56   2.0000      -0.617761       -16.8101
  57   2.0000      -0.602365       -16.3912
  58   2.0000      -0.597226       -16.2514
  59   2.0000      -0.586448       -15.9581
  60   2.0000      -0.527916       -14.3653
  61   2.0000      -0.520716       -14.1694
  62   2.0000      -0.492595       -13.4042
  63   2.0000      -0.485622       -13.2144
  64   2.0000      -0.468522       -12.7491
  65   2.0000      -0.463048       -12.6002
  66   2.0000      -0.454019       -12.3545
  67   2.0000      -0.451710       -12.2916
  68   2.0000      -0.441950       -12.0261
  69   2.0000      -0.436641       -11.8816
  70   2.0000      -0.429480       -11.6867
  71   2.0000      -0.409245       -11.1361
  72   2.0000      -0.404461       -11.0059
  73   2.0000      -0.399642       -10.8748
  74   2.0000      -0.394008       -10.7215
  75   2.0000      -0.381265       -10.3747
  76   2.0000      -0.377996       -10.2858
  77   2.0000      -0.370041       -10.0693
  78   2.0000      -0.365395        -9.9429
  79   2.0000      -0.364390        -9.9156
  80   2.0000      -0.359394        -9.7796
  81   2.0000      -0.354748        -9.6532
  82   2.0000      -0.350685        -9.5426
  83   2.0000      -0.348448        -9.4818
  84   2.0000      -0.339762        -9.2454
  85   2.0000      -0.327086        -8.9005
  86   2.0000      -0.321325        -8.7437
  87   2.0000      -0.316956        -8.6248
  88   2.0000      -0.307910        -8.3787
  89   2.0000      -0.305081        -8.3017
  90   2.0000      -0.294964        -8.0264
  91   2.0000      -0.281377        -7.6566
  92   2.0000      -0.278338        -7.5740
  93   2.0000      -0.275472        -7.4960
  94   2.0000      -0.271049        -7.3756
  95   2.0000      -0.248642        -6.7659
  96   2.0000      -0.231278        -6.2934
  97   2.0000      -0.226931        -6.1751
  98   2.0000      -0.216398        -5.8885
  99   2.0000      -0.205753        -5.5988
 100   2.0000      -0.196568        -5.3489
 101   0.0000      -0.043005        -1.1702
 102   0.0000      -0.030635        -0.8336
 103   0.0000      -0.010380        -0.2825
 104   0.0000       0.013638         0.3711
 105   0.0000       0.019424         0.5286

MULLIKEN ATOMIC CHARGES
-----------------------
   0 C :   -0.445389
   1 C :   -0.156434
   2 O :   -0.312633
   3 P :    0.649570
   4 S :   -0.464898
   5 O :   -0.241368
   6 C :   -0.128904
   7 C :   -0.469974
   8 S :   -0.126559
   9 C :   -0.232952
  10 S :   -0.150794
  11 P :    0.643137
  12 S :   -0.409041
  13 O :   -0.254125
  14 C :   -0.112844
  15 C :   -0.454290
  16 O :   -0.296622
  17 C :   -0.160559
  18 C :   -0.459806
  19 H :    0.152962
  20 H :    0.173019
  21 H :    0.146315
  22 H :    0.174562
  23 H :    0.145637
  24 H :    0.146064
  25 H :    0.174942
  26 H :    0.179509
  27 H :    0.144753
  28 H :    0.142752
  29 H :    0.196148
  30 H :    0.219492
  31 H :    0.154974
  32 H :    0.158814
  33 H :    0.152982
  34 H :    0.143299
  35 H :    0.169888
  36 H :    0.146843
  37 H :    0.174962
  38 H :    0.153853
  39 H :    0.148892
  40 H :    0.183825
Sum of atomic charges:   -0.0000000

LOEWDIN ATOMIC CHARGES
----------------------
   0 C :   -0.408014
   1 C :    0.017208
   2 O :   -0.666616
   3 P :    0.369582
   4 S :   -0.128149
   5 O :   -0.673604
   6 C :    0.018325
   7 C :   -0.389805
   8 S :    0.173767
   9 C :   -0.413711
  10 S :    0.126691
  11 P :    0.377809
  12 S :   -0.065223
  13 O :   -0.657053
  14 C :    0.021144
  15 C :   -0.389885
  16 O :   -0.666974
  17 C :    0.021204
  18 C :   -0.409304
  19 H :    0.159458
  20 H :    0.164110
  21 H :    0.158212
  22 H :    0.180358
  23 H :    0.178126
  24 H :    0.170597
  25 H :    0.182823
  26 H :    0.169657
  27 H :    0.156242
  28 H :    0.157833
  29 H :    0.180783
  30 H :    0.202715
  31 H :    0.174511
  32 H :    0.176559
  33 H :    0.160731
  34 H :    0.157896
  35 H :    0.166095
  36 H :    0.179202
  37 H :    0.180513
  38 H :    0.159303
  39 H :    0.159714
  40 H :    0.167168

  Mayer bond orders larger than 0.100000
B(  0-C ,  1-C ) :   0.9210 B(  0-C , 19-H ) :   0.9679 B(  0-C , 20-H ) :   0.9652
B(  0-C , 21-H ) :   0.9599 B(  1-C ,  2-O ) :   0.8269 B(  1-C , 22-H ) :   0.9670
B(  1-C , 23-H ) :   0.9595 B(  2-O ,  3-P ) :   1.0525 B(  3-P ,  4-S ) :   1.7515
B(  3-P ,  5-O ) :   1.1773 B(  3-P ,  8-S ) :   1.1309 B(  5-O ,  6-C ) :   0.7711
B(  6-C ,  7-C ) :   0.9352 B(  6-C , 24-H ) :   0.9445 B(  6-C , 25-H ) :   0.9507
B(  7-C , 26-H ) :   0.9705 B(  7-C , 27-H ) :   0.9722 B(  7-C , 28-H ) :   0.9661
B(  8-S ,  9-C ) :   0.8878 B(  9-C , 10-S ) :   0.9128 B(  9-C , 29-H ) :   0.9137
B(  9-C , 30-H ) :   0.9046 B( 10-S , 11-P ) :   1.0113 B( 11-P , 12-S ) :   1.8515
B( 11-P , 13-O ) :   1.1281 B( 11-P , 16-O ) :   1.0363 B( 13-O , 14-C ) :   0.7505
B( 14-C , 15-C ) :   0.9573 B( 14-C , 31-H ) :   0.9432 B( 14-C , 32-H ) :   0.9521
B( 15-C , 33-H ) :   0.9695 B( 15-C , 34-H ) :   0.9649 B( 15-C , 35-H ) :   0.9659
B( 16-O , 17-C ) :   0.8271 B( 17-C , 18-C ) :   0.9133 B( 17-C , 36-H ) :   0.9607
B( 17-C , 37-H ) :   0.9695 B( 18-C , 38-H ) :   0.9680 B( 18-C , 39-H ) :   0.9569
B( 18-C , 40-H ) :   0.9629

Dispersion correction           -0.022513809
FINAL SINGLE POINT ENERGY     -2932.459966378888

DIPOLE MOMENT
-------------

Method             : SCF
Type of density    : Electron Density
Multiplicity       :   1
Irrep              :   0
Energy             : -2932.4840715865129823 Eh
Relativity type    :
Basis              : AO
                                X                 Y                 Z
Electronic contribution:     -0.484878840      -0.826897665      -9.820446583
Nuclear contribution   :      0.254833838       0.020978477      10.898707996
                        -----------------------------------------
Total Dipole Moment    :     -0.230045002      -0.805919188       1.078261413
                        -----------------------------------------
Magnitude (a.u.)       :      1.365677164
Magnitude (Debye)      :      3.471275483

Rotational constants in cm-1:             0.012121             0.005572             0.005402
Rotational constants in MHz :           363.379887           167.033778           161.955737

                             ****ORCA TERMINATED NORMALLY****
TOTAL RUN TIME: 0 days 0 hours 1 minutes 23 seconds 637 msec
