                         Program Version 6.0.0  -   RELEASE  -
|  1> ! r2scan-3c def2/J RI DEFGRID2 scfconv6 printgap
|  2> %output
|  3>     printlevel normal
|  4> end
|  5> %cpcm
|  6>     smd true
|  7>     smdsolvent "water"
|  8> end
|  9> * xyz 0 1
| 10> C 4.6562092564 -1.373298131 -0.9001908977
| 11> C 4.6165192261 0.0920722341 -0.5177541723
| 12> O 3.4623097661 0.4127728977 0.2778778552
| 13> P 1.9819580386 0.3908902408 -0.3106012301
| 14> S 1.8697340946 1.0532092513 -2.1583948685
| 15> O 1.2195305307 1.1991697554 0.8161841965
| 16> C 1.314900248 2.6370676783 0.8989175487
| 17> C 0.5002722174 3.0797005479 2.095241296
| 18> S 1.2939755538 -1.5507109664 0.0749224292
| 19> C 0.0526390683 -1.7232420314 -1.2535899554
| 20> S -1.6186427945 -1.9994605109 -0.6290877915
| 21> P -1.9817022116 -0.0646450363 0.178723407
| 22> S -1.5056772605 1.4599404428 -0.950928753
| 23> O -1.2583328815 -0.0403323224 1.577567993
| 24> C -1.5176145379 -1.0228177666 2.6152935403
| 25> C -0.3204007935 -1.0469114064 3.5416597657
| 26> O -3.5105407903 -0.138279204 0.6139767423
| 27> C -4.5987714336 0.1717042463 -0.2745902052
| 28> C -4.7166499165 -0.820204067 -1.4133349526
| 29> H 4.549813246 -1.9978987861 -0.0169627413
| 30> H 3.8447199451 -1.5975802054 -1.591112174
| 31> H 5.6017821397 -1.590738026 -1.3862808979
| 32> H 4.6033907319 0.7224618576 -1.4127213118
| 33> H 5.4575347258 0.3668861123 0.1202322013
| 34> H 2.3684828152 2.9112362211 1.000950944
| 35> H 0.9211459759 3.0590114597 -0.0324484451
| 36> H -0.5295282025 2.7522264803 1.9741209527
| 37> H 0.9059978226 2.642786886 3.0029371794
| 38> H 0.5278602027 4.1621107072 2.1658576908
| 39> H 0.3030208261 -2.6072502957 -1.8342321608
| 40> H 0.078982582 -0.8230135122 -1.8740680575
| 41> H -2.427422503 -0.7175131133 3.135007989
| 42> H -1.6787521818 -1.9968846465 2.1441022671
| 43> H -0.1642783023 -0.0633515947 3.9751097988
| 44> H -0.4992582613 -1.7667984559 4.33367887
| 45> H 0.573081688 -1.3320480722 2.9918305535
| 46> H -5.4752298515 0.1459553811 0.3745722217
| 47> H -4.4501715096 1.1850251385 -0.6602797467
| 48> H -4.7353308011 -1.8372240005 -1.0298996609
| 49> H -5.6311672963 -0.6241934873 -1.9638622243
| 50> H -3.8702126958 -0.7147565586 -2.0900724308
| 51> *
| 52>
| 53>                          ****END OF INPUT****

CARTESIAN COORDINATES (ANGSTROEM)
---------------------------------
  C      4.656209   -1.373298   -0.900191
  C      4.616519    0.092072   -0.517754
  O      3.462310    0.412773    0.277878
  P      1.981958    0.390890   -0.310601
  S      1.869734    1.053209   -2.158395
  O      1.219531    1.199170    0.816184
  C      1.314900    2.637068    0.898918
  C      0.500272    3.079701    2.095241
  S      1.293976   -1.550711    0.074922
  C      0.052639   -1.723242   -1.253590
  S     -1.618643   -1.999461   -0.629088
  P     -1.981702   -0.064645    0.178723
  S     -1.505677    1.459940   -0.950929
  O     -1.258333   -0.040332    1.577568
  C     -1.517615   -1.022818    2.615294
  C     -0.320401   -1.046911    3.541660
  O     -3.510541   -0.138279    0.613977
  C     -4.598771    0.171704   -0.274590
  C     -4.716650   -0.820204   -1.413335
  H      4.549813   -1.997899   -0.016963
  H      3.844720   -1.597580   -1.591112
  H      5.601782   -1.590738   -1.386281
  H      4.603391    0.722462   -1.412721
  H      5.457535    0.366886    0.120232
  H      2.368483    2.911236    1.000951
  H      0.921146    3.059011   -0.032448
  H     -0.529528    2.752226    1.974121
  H      0.905998    2.642787    3.002937
  H      0.527860    4.162111    2.165858
  H      0.303021   -2.607250   -1.834232
  H      0.078983   -0.823014   -1.874068
  H     -2.427423   -0.717513    3.135008
  H     -1.678752   -1.996885    2.144102
  H     -0.164278   -0.063352    3.975110
  H     -0.499258   -1.766798    4.333679
  H      0.573082   -1.332048    2.991831
  H     -5.475230    0.145955    0.374572
  H     -4.450172    1.185025   -0.660280
  H     -4.735331   -1.837224   -1.029900
  H     -5.631167   -0.624193   -1.963862
  H     -3.870213   -0.714757   -2.090072

 Total Charge           Charge          ....    0
 Multiplicity           Mult            ....    1
 Number of Electrons    NEL             ....  202
 Basis Dimension        Dim             ....  539

ORBITAL ENERGIES
----------------

  NO   OCC          E(Eh)            E(eV)
   0   2.0000     -88.578317     -2410.3385
   1   2.0000     -88.577977     -2410.3293
   2   2.0000     -88.524251     -2408.8673
   3   2.0000     -88.523789     -2408.8548
   4   2.0000     -76.916848     -2093.0138
   5   2.0000     -76.915822     -2092.9859
   6   2.0000     -18.993674      -516.8441
   7   2.0000     -18.991826      -516.7939
   8   2.0000     -18.991437      -516.7833
   9   2.0000     -18.987036      -516.6635
  10   2.0000     -10.105226      -274.9772
  11   2.0000     -10.090394      -274.5736
  12   2.0000     -10.089639      -274.5530
  13   2.0000     -10.087221      -274.4872
  14   2.0000     -10.086398      -274.4648
  15   2.0000     -10.018688      -272.6224
  16   2.0000     -10.018530      -272.6181
  17   2.0000     -10.017548      -272.5913
  18   2.0000     -10.017225      -272.5826
  19   2.0000      -7.873048      -214.2365
  20   2.0000      -7.872463      -214.2206
  21   2.0000      -7.819297      -212.7739
  22   2.0000      -7.818822      -212.7610
  23   2.0000      -6.595302      -179.4673
  24   2.0000      -6.594442      -179.4439
  25   2.0000      -5.819893      -158.3673
  26   2.0000      -5.819389      -158.3536
  27   2.0000      -5.816950      -158.2873
  28   2.0000      -5.816094      -158.2640
  29   2.0000      -5.810054      -158.0996
  30   2.0000      -5.809706      -158.0901
  31   2.0000      -5.766975      -156.9274
  32   2.0000      -5.766389      -156.9114
  33   2.0000      -5.759486      -156.7236
  34   2.0000      -5.759343      -156.7197
  35   2.0000      -5.759318      -156.7190
  36   2.0000      -5.758615      -156.6999
  37   2.0000      -4.741146      -129.0132
  38   2.0000      -4.740232      -128.9883
  39   2.0000      -4.739833      -128.9774
  40   2.0000      -4.739234      -128.9611
  41   2.0000      -4.738773      -128.9486
  42   2.0000      -4.738423      -128.9391
  43   2.0000      -1.052155       -28.6306
  44   2.0000      -1.049063       -28.5464
  45   2.0000      -1.010081       -27.4857
  46   2.0000      -1.007375       -27.4121
  47   2.0000      -0.801347       -21.8058
  48   2.0000      -0.755902       -20.5691
  49   2.0000      -0.744764       -20.2661
  50   2.0000      -0.724575       -19.7167
  51   2.0000      -0.721597       -19.6357
  52   2.0000      -0.710849       -19.3432
  53   2.0000      -0.687956       -18.7202
  54   2.0000      -0.669112       -18.2075
  55   2.0000      -0.629404       -17.1269
  56   2.0000      -0.615452       -16.7473
  57   2.0000      -0.598202       -16.2779
  58   2.0000      -0.595848       -16.2138
  59   2.0000      -0.586195       -15.9512
  60   2.0000      -0.525468       -14.2987
  61   2.0000      -0.522721       -14.2240
  62   2.0000      -0.490067       -13.3354
  63   2.0000      -0.486972       -13.2512
  64   2.0000      -0.469483       -12.7753
  65   2.0000      -0.464965       -12.6523
  66   2.0000      -0.451002       -12.2724
  67   2.0000      -0.449045       -12.2191
  68   2.0000      -0.439617       -11.9626
  69   2.0000      -0.436184       -11.8692
  70   2.0000      -0.425603       -11.5812
  71   2.0000      -0.413287       -11.2461
  72   2.0000      -0.404341       -11.0027
  73   2.0000      -0.399247       -10.8641
  74   2.0000      -0.390737       -10.6325
  75   2.0000      -0.382918       -10.4197
  76   2.0000      -0.376561       -10.2468
  77   2.0000      -0.365690        -9.9509
  78   2.0000      -0.361567        -9.8387
  79   2.0000      -0.357854        -9.7377
  80   2.0000      -0.356091        -9.6897
  81   2.0000      -0.351182        -9.5562
  82   2.0000      -0.347484        -9.4555
  83   2.0000      -0.344800        -9.3825
  84   2.0000      -0.339957        -9.2507
  85   2.0000      -0.326337        -8.8801
  86   2.0000      -0.320947        -8.7334
  87   2.0000      -0.317182        -8.6310
  88   2.0000      -0.304609        -8.2888
  89   2.0000      -0.303479        -8.2581
  90   2.0000      -0.300330        -8.1724
  91   2.0000      -0.282979        -7.7003
  92   2.0000      -0.280579        -7.6349
  93   2.0000      -0.277433        -7.5493
  94   2.0000      -0.274677        -7.4743
  95   2.0000      -0.251664        -6.8481
  96   2.0000      -0.239320        -6.5122
  97   2.0000      -0.236016        -6.4223
  98   2.0000      -0.226872        -6.1735
  99   2.0000      -0.214215        -5.8291
 100   2.0000      -0.207738        -5.6528
 101   0.0000      -0.047294        -1.2869
 102   0.0000      -0.036523        -0.9939
 103   0.0000      -0.013817        -0.3760
 104   0.0000       0.008019         0.2182
 105   0.0000       0.014347         0.3904

MULLIKEN ATOMIC CHARGES
-----------------------
   0 C :   -0.480092
   1 C :   -0.155011
   2 O :   -0.338843
   3 P :    0.686040
   4 S :   -0.524512
   5 O :   -0.268727
   6 C :   -0.129896
   7 C :   -0.510959
   8 S :   -0.121678
   9 C :   -0.232532
  10 S :   -0.148641
  11 P :    0.658799
  12 S :   -0.463114
  13 O :   -0.283966
  14 C :   -0.100078
  15 C :   -0.506551
  16 O :   -0.319833
  17 C :   -0.156001
  18 C :   -0.494240
  19 H :    0.166461
  20 H :    0.171076
  21 H :    0.170973
  22 H :    0.176587
  23 H :    0.172561
  24 H :    0.169783
  25 H :    0.174372
  26 H :    0.171172
  27 H :    0.166608
  28 H :    0.169520
  29 H :    0.238055
  30 H :    0.212365
  31 H :    0.175543
  32 H :    0.172499
  33 H :    0.168964
  34 H :    0.170440
  35 H :    0.170775
  36 H :    0.174369
  37 H :    0.178496
  38 H :    0.169437
  39 H :    0.173421
  40 H :    0.176357
Sum of atomic charges:   -0.0000000

LOEWDIN ATOMIC CHARGES
----------------------
   0 C :   -0.410529
   1 C :    0.022317
   2 O :   -0.677996
   3 P :    0.374940
   4 S :   -0.165873
   5 O :   -0.692206
   6 C :    0.019629
   7 C :   -0.393772
   8 S :    0.180255
   9 C :   -0.407447
  10 S :    0.135592
  11 P :    0.380513
  12 S :   -0.102848
  13 O :   -0.677525
  14 C :    0.027359
  15 C :   -0.394464
  16 O :   -0.675511
  17 C :    0.026188
  18 C :   -0.411843
  19 H :    0.163105
  20 H :    0.161056
  21 H :    0.167249
  22 H :    0.180915
  23 H :    0.189488
  24 H :    0.179615
  25 H :    0.182001
  26 H :    0.164296
  27 H :    0.162705
  28 H :    0.167951
  29 H :    0.197615
  30 H :    0.199652
  31 H :    0.183608
  32 H :    0.181886
  33 H :    0.163706
  34 H :    0.168912
  35 H :    0.163256
  36 H :    0.190892
  37 H :    0.181152
  38 H :    0.163575
  39 H :    0.168620
  40 H :    0.161966

  Mayer bond orders larger than 0.100000
B(  0-C ,  1-C ) :   0.9109 B(  0-C , 19-H ) :   0.9656 B(  0-C , 20-H ) :   0.9650
B(  0-C , 21-H ) :   0.9547 B(  1-C ,  2-O ) :   0.8141 B(  1-C , 22-H ) :   0.9646
B(  1-C , 23-H ) :   0.9499 B(  2-O ,  3-P ) :   1.0616 B(  3-P ,  4-S ) :   1.6964
B(  3-P ,  5-O ) :   1.1779 B(  3-P ,  8-S ) :   1.1566 B(  5-O ,  6-C ) :   0.7631
B(  6-C ,  7-C ) :   0.9267 B(  6-C , 24-H ) :   0.9365 B(  6-C , 25-H ) :   0.9479
B(  7-C , 26-H ) :   0.9720 B(  7-C , 27-H ) :   0.9684 B(  7-C , 28-H ) :   0.9601
B(  8-S ,  9-C ) :   0.8806 B(  9-C , 10-S ) :   0.9071 B(  9-C , 29-H ) :   0.8972
B(  9-C , 30-H ) :   0.9094 B( 10-S , 11-P ) :   1.0308 B( 11-P , 12-S ) :   1.8203
B( 11-P , 13-O ) :   1.1327 B( 11-P , 16-O ) :   1.0446 B( 13-O , 14-C ) :   0.7439
B( 14-C , 15-C ) :   0.9408 B( 14-C , 31-H ) :   0.9334 B( 14-C , 32-H ) :   0.9457
B( 15-C , 33-H ) :   0.9674 B( 15-C , 34-H ) :   0.9579 B( 15-C , 35-H ) :   0.9679
B( 16-O , 17-C ) :   0.8157 B( 17-C , 18-C ) :   0.9015 B( 17-C , 36-H ) :   0.9505
B( 17-C , 37-H ) :   0.9681 B( 18-C , 38-H ) :   0.9647 B( 18-C , 39-H ) :   0.9517
B( 18-C , 40-H ) :   0.9651

Dispersion correction           -0.022513809
FINAL SINGLE POINT ENERGY     -2932.468624132770

DIPOLE MOMENT
-------------

Method             : SCF
Type of density    : Electron Density
Multiplicity       :   1
Irrep              :   0
Energy             : -2932.4927293403952717 Eh
Relativity type    :
Basis              : AO
                                X                 Y                 Z
Electronic contribution:     -0.523467359      -1.359297696      -9.487252061
Nuclear contribution   :      0.254833838       0.020978477      10.898707996
                        -----------------------------------------
Total Dipole Moment    :     -0.268633521      -1.338319219       1.411455936
                        -----------------------------------------
Magnitude (a.u.)       :      1.963535118
Magnitude (Debye)      :      4.990909635

Rotational constants in cm-1:             0.012121             0.005572             0.005402
Rotational constants in MHz :           363.379887           167.033778           161.955737

                             ****ORCA TERMINATED NORMALLY****
TOTAL RUN TIME: 0 days 0 hours 1 minutes 51 seconds 489 msec
