                         Program Version 6.0.0  -   RELEASE  -
|  1> ! pbe def2-sv(p) def2/J RI DEFGRID1 loosescf d4 GCP(DFT/SV(P)) printgap
|  2> %output
|  3>     printlevel normal
|  4> end
|  5> * xyz 0 1
|  6> C 5.1896291756 -0.429017315 -2.4124708384
|  7> C 3.6792380135 -0.5227000719 -2.3196862554
|  8> O 3.3223219233 -0.6673676005 -0.9341542953
|  9> P 1.9453958631 -0.1545472277 -0.3204141265
| 10> S 1.4208517889 1.5851734993 -1.0679691125
| 11> O 2.2189717059 -0.2665891398 1.2306207679
| 12> C 2.7278599771 0.8441633254 1.9989437608
| 13> C 4.1309651168 1.2218248437 1.5788585759
| 14> S 0.753834179 -1.8897886835 -0.6137480328
| 15> C -0.1863798806 -2.109448002 0.9354160921
| 16> S -1.9666629177 -1.8815856636 0.7236370452
| 17> P -1.9023045394 0.2275500474 0.4686950581
| 18> S -0.7505901219 1.1521836916 1.7503042098
| 19> O -3.4336215344 0.6331486853 0.5156013317
| 20> C -4.1850179809 0.5657008216 1.7472331346
| 21> C -5.4965829505 1.2917012338 1.5300425439
| 22> O -1.5053886542 0.4888198454 -1.0282635493
| 23> C -2.2312168582 -0.0553342987 -2.1611431142
| 24> C -3.2195811417 0.9579123297 -2.6972465459
| 25> H 5.5441318104 0.4548188503 -1.8895219076
| 26> H 5.6423406462 -1.3090226121 -1.9651852489
| 27> H 5.4775827648 -0.3660307012 -3.456634996
| 28> H 3.3011057894 -1.39722452 -2.8558117604
| 29> H 3.1966346055 0.3791761298 -2.7128712685
| 30> H 2.0395176768 1.6879989001 1.8846359563
| 31> H 2.6892468745 0.4835431161 3.0277790168
| 32> H 4.5095544976 1.9893461878 2.2464834594
| 33> H 4.7803867144 0.3511622085 1.6160881962
| 34> H 4.117044483 1.6120971579 0.5618409627
| 35> H 0.182209685 -1.4056994119 1.6812943622
| 36> H -0.0411273377 -3.1395501618 1.2488156079
| 37> H -4.3444988854 -0.4881204657 1.9901632743
| 38> H -3.5918455313 1.0311454246 2.5408824704
| 39> H -6.0556791016 0.8189163033 0.7278792381
| 40> H -6.0787822786 1.2527966067 2.4447075079
| 41> H -5.3104225541 2.3295103374 1.2678628293
| 42> H -1.4530422657 -0.2837022845 -2.892504638
| 43> H -2.73009103 -0.9780719393 -1.8508998738
| 44> H -3.9776361823 1.1771198498 -1.9500631814
| 45> H -2.7021653853 1.8788911355 -2.9529563848
| 46> H -3.6939524239 0.5528030003 -3.5855706851
| 47> *
| 48>
| 49>                          ****END OF INPUT****

CARTESIAN COORDINATES (ANGSTROEM)
---------------------------------
  C      5.189629   -0.429017   -2.412471
  C      3.679238   -0.522700   -2.319686
  O      3.322322   -0.667368   -0.934154
  P      1.945396   -0.154547   -0.320414
  S      1.420852    1.585173   -1.067969
  O      2.218972   -0.266589    1.230621
  C      2.727860    0.844163    1.998944
  C      4.130965    1.221825    1.578859
  S      0.753834   -1.889789   -0.613748
  C     -0.186380   -2.109448    0.935416
  S     -1.966663   -1.881586    0.723637
  P     -1.902305    0.227550    0.468695
  S     -0.750590    1.152184    1.750304
  O     -3.433622    0.633149    0.515601
  C     -4.185018    0.565701    1.747233
  C     -5.496583    1.291701    1.530043
  O     -1.505389    0.488820   -1.028264
  C     -2.231217   -0.055334   -2.161143
  C     -3.219581    0.957912   -2.697247
  H      5.544132    0.454819   -1.889522
  H      5.642341   -1.309023   -1.965185
  H      5.477583   -0.366031   -3.456635
  H      3.301106   -1.397225   -2.855812
  H      3.196635    0.379176   -2.712871
  H      2.039518    1.687999    1.884636
  H      2.689247    0.483543    3.027779
  H      4.509554    1.989346    2.246483
  H      4.780387    0.351162    1.616088
  H      4.117044    1.612097    0.561841
  H      0.182210   -1.405699    1.681294
  H     -0.041127   -3.139550    1.248816
  H     -4.344499   -0.488120    1.990163
  H     -3.591846    1.031145    2.540882
  H     -6.055679    0.818916    0.727879
  H     -6.078782    1.252797    2.444708
  H     -5.310423    2.329510    1.267863
  H     -1.453042   -0.283702   -2.892505
  H     -2.730091   -0.978072   -1.850900
  H     -3.977636    1.177120   -1.950063
  H     -2.702165    1.878891   -2.952956
  H     -3.693952    0.552803   -3.585571

 Total Charge           Charge          ....    0
 Multiplicity           Mult            ....    1
 Number of Electrons    NEL             ....  202
 Basis Dimension        Dim             ....  334

ORBITAL ENERGIES
----------------

  NO   OCC          E(Eh)            E(eV)
   0   2.0000     -88.040412     -2395.7014
   1   2.0000     -88.033098     -2395.5024
   2   2.0000     -87.981108     -2394.0877
   3   2.0000     -87.972730     -2393.8597
   4   2.0000     -76.423299     -2079.5837
   5   2.0000     -76.416967     -2079.4114
   6   2.0000     -18.796011      -511.4655
   7   2.0000     -18.787851      -511.2434
   8   2.0000     -18.786309      -511.2015
   9   2.0000     -18.779490      -511.0159
  10   2.0000      -9.955694      -270.9082
  11   2.0000      -9.954767      -270.8830
  12   2.0000      -9.949986      -270.7529
  13   2.0000      -9.944303      -270.5982
  14   2.0000      -9.943968      -270.5891
  15   2.0000      -9.891104      -269.1506
  16   2.0000      -9.882565      -268.9183
  17   2.0000      -9.881753      -268.8962
  18   2.0000      -9.877049      -268.7682
  19   2.0000      -7.685877      -209.1434
  20   2.0000      -7.678624      -208.9460
  21   2.0000      -7.626198      -207.5194
  22   2.0000      -7.617671      -207.2874
  23   2.0000      -6.421008      -174.7245
  24   2.0000      -6.414427      -174.5454
  25   2.0000      -5.713521      -155.4728
  26   2.0000      -5.710308      -155.3854
  27   2.0000      -5.706913      -155.2930
  28   2.0000      -5.703113      -155.1896
  29   2.0000      -5.702987      -155.1862
  30   2.0000      -5.695234      -154.9752
  31   2.0000      -5.655073      -153.8824
  32   2.0000      -5.646811      -153.6575
  33   2.0000      -5.646650      -153.6532
  34   2.0000      -5.646331      -153.6445
  35   2.0000      -5.638479      -153.4308
  36   2.0000      -5.637601      -153.4069
  37   2.0000      -4.643875      -126.3663
  38   2.0000      -4.642872      -126.3390
  39   2.0000      -4.641045      -126.2892
  40   2.0000      -4.636991      -126.1789
  41   2.0000      -4.636305      -126.1603
  42   2.0000      -4.634776      -126.1187
  43   2.0000      -0.988574       -26.9005
  44   2.0000      -0.978823       -26.6351
  45   2.0000      -0.944997       -25.7147
  46   2.0000      -0.937684       -25.5157
  47   2.0000      -0.758320       -20.6349
  48   2.0000      -0.718459       -19.5503
  49   2.0000      -0.707697       -19.2574
  50   2.0000      -0.691612       -18.8197
  51   2.0000      -0.682186       -18.5632
  52   2.0000      -0.667240       -18.1565
  53   2.0000      -0.645352       -17.5609
  54   2.0000      -0.628700       -17.1078
  55   2.0000      -0.591886       -16.1060
  56   2.0000      -0.586191       -15.9511
  57   2.0000      -0.568320       -15.4648
  58   2.0000      -0.564272       -15.3546
  59   2.0000      -0.559398       -15.2220
  60   2.0000      -0.508300       -13.8315
  61   2.0000      -0.494045       -13.4436
  62   2.0000      -0.479352       -13.0438
  63   2.0000      -0.470761       -12.8101
  64   2.0000      -0.449433       -12.2297
  65   2.0000      -0.445740       -12.1292
  66   2.0000      -0.437653       -11.9091
  67   2.0000      -0.431581       -11.7439
  68   2.0000      -0.424833       -11.5603
  69   2.0000      -0.417050       -11.3485
  70   2.0000      -0.404034       -10.9943
  71   2.0000      -0.393645       -10.7116
  72   2.0000      -0.387428       -10.5425
  73   2.0000      -0.381555       -10.3826
  74   2.0000      -0.377573       -10.2743
  75   2.0000      -0.367947       -10.0124
  76   2.0000      -0.363543        -9.8925
  77   2.0000      -0.356337        -9.6964
  78   2.0000      -0.351973        -9.5777
  79   2.0000      -0.350049        -9.5253
  80   2.0000      -0.343173        -9.3382
  81   2.0000      -0.342119        -9.3095
  82   2.0000      -0.340607        -9.2684
  83   2.0000      -0.334877        -9.1125
  84   2.0000      -0.324998        -8.8436
  85   2.0000      -0.317188        -8.6311
  86   2.0000      -0.307957        -8.3799
  87   2.0000      -0.301565        -8.2060
  88   2.0000      -0.291718        -7.9381
  89   2.0000      -0.287881        -7.8336
  90   2.0000      -0.278951        -7.5906
  91   2.0000      -0.271220        -7.3803
  92   2.0000      -0.267243        -7.2721
  93   2.0000      -0.260827        -7.0975
  94   2.0000      -0.251270        -6.8374
  95   2.0000      -0.235558        -6.4099
  96   2.0000      -0.216443        -5.8897
  97   2.0000      -0.209921        -5.7122
  98   2.0000      -0.198458        -5.4003
  99   2.0000      -0.187125        -5.0919
 100   2.0000      -0.174857        -4.7581
 101   0.0000      -0.040131        -1.0920
 102   0.0000      -0.024528        -0.6674
 103   0.0000      -0.016574        -0.4510
 104   0.0000       0.007087         0.1928
 105   0.0000       0.022059         0.6003

MULLIKEN ATOMIC CHARGES
-----------------------
   0 C :   -0.286537
   1 C :   -0.006485
   2 O :   -0.378842
   3 P :    0.618658
   4 S :   -0.306235
   5 O :   -0.370882
   6 C :   -0.005424
   7 C :   -0.308835
   8 S :   -0.115362
   9 C :   -0.355847
  10 S :   -0.109521
  11 P :    0.601120
  12 S :   -0.309746
  13 O :   -0.381564
  14 C :   -0.013151
  15 C :   -0.282741
  16 O :   -0.330053
  17 C :   -0.004559
  18 C :   -0.291813
  19 H :    0.120188
  20 H :    0.115310
  21 H :    0.108539
  22 H :    0.095777
  23 H :    0.100977
  24 H :    0.127730
  25 H :    0.101863
  26 H :    0.110305
  27 H :    0.114566
  28 H :    0.126203
  29 H :    0.208814
  30 H :    0.182536
  31 H :    0.104770
  32 H :    0.107713
  33 H :    0.116579
  34 H :    0.113855
  35 H :    0.124360
  36 H :    0.109175
  37 H :    0.097531
  38 H :    0.119208
  39 H :    0.124253
  40 H :    0.107565
Sum of atomic charges:    0.0000000

LOEWDIN ATOMIC CHARGES
----------------------
   0 C :   -0.351411
   1 C :   -0.123989
   2 O :   -0.251366
   3 P :    0.565550
   4 S :   -0.303377
   5 O :   -0.234945
   6 C :   -0.116796
   7 C :   -0.367061
   8 S :    0.057932
   9 C :   -0.475036
  10 S :    0.056536
  11 P :    0.567246
  12 S :   -0.297451
  13 O :   -0.247574
  14 C :   -0.119700
  15 C :   -0.350600
  16 O :   -0.217759
  17 C :   -0.113330
  18 C :   -0.359877
  19 H :    0.127294
  20 H :    0.125859
  21 H :    0.128985
  22 H :    0.108692
  23 H :    0.102959
  24 H :    0.111946
  25 H :    0.117792
  26 H :    0.130020
  27 H :    0.125055
  28 H :    0.121555
  29 H :    0.130919
  30 H :    0.137840
  31 H :    0.108548
  32 H :    0.111087
  33 H :    0.125994
  34 H :    0.131901
  35 H :    0.130483
  36 H :    0.120538
  37 H :    0.101898
  38 H :    0.124118
  39 H :    0.130970
  40 H :    0.128558

  Mayer bond orders larger than 0.100000
B(  0-C ,  1-C ) :   1.1608 B(  0-C , 19-H ) :   0.9512 B(  0-C , 20-H ) :   0.9506
B(  0-C , 21-H ) :   0.9422 B(  1-C ,  2-O ) :   0.9158 B(  1-C , 22-H ) :   0.9310
B(  1-C , 23-H ) :   0.8984 B(  2-O ,  3-P ) :   1.0810 B(  3-P ,  4-S ) :   1.6413
B(  3-P ,  5-O ) :   1.1270 B(  3-P ,  8-S ) :   0.9418 B(  4-S ,  8-S ) :   0.1057
B(  5-O ,  6-C ) :   0.8920 B(  6-C ,  7-C ) :   1.1647 B(  6-C , 24-H ) :   0.9116
B(  6-C , 25-H ) :   0.9361 B(  7-C , 26-H ) :   0.9381 B(  7-C , 27-H ) :   0.9447
B(  7-C , 28-H ) :   0.9311 B(  8-S ,  9-C ) :   1.0010 B(  9-C , 10-S ) :   1.0013
B(  9-C , 29-H ) :   0.8626 B(  9-C , 30-H ) :   0.9113 B( 10-S , 11-P ) :   0.9453
B( 10-S , 12-S ) :   0.1058 B( 11-P , 12-S ) :   1.6420 B( 11-P , 13-O ) :   1.0837
B( 11-P , 16-O ) :   1.1658 B( 13-O , 14-C ) :   0.9028 B( 14-C , 15-C ) :   1.1593
B( 14-C , 31-H ) :   0.9276 B( 14-C , 32-H ) :   0.9114 B( 15-C , 33-H ) :   0.9506
B( 15-C , 34-H ) :   0.9416 B( 15-C , 35-H ) :   0.9506 B( 16-O , 17-C ) :   0.8866
B( 17-C , 18-C ) :   1.1641 B( 17-C , 36-H ) :   0.9311 B( 17-C , 37-H ) :   0.9125
B( 18-C , 38-H ) :   0.9418 B( 18-C , 39-H ) :   0.9462 B( 18-C , 40-H ) :   0.9401

Dispersion correction           -0.065933444
FINAL SINGLE POINT ENERGY     -2929.512373085271

DIPOLE MOMENT
-------------

Method             : SCF
Type of density    : Electron Density
Multiplicity       :   1
Irrep              :   0
Energy             : -2929.6312630885699946 Eh
Relativity type    :
Basis              : AO
                                X                 Y                 Z
Electronic contribution:     -1.906666890      -6.878697716       4.662515884
Nuclear contribution   :      1.393861877       6.189352518      -4.730886376
                        -----------------------------------------
Total Dipole Moment    :     -0.512805013      -0.689345198      -0.068370492
                        -----------------------------------------
Magnitude (a.u.)       :      0.861881840
Magnitude (Debye)      :      2.190729538

Rotational constants in cm-1:             0.013600             0.004917             0.004627
Rotational constants in MHz :           407.716877           147.404571           138.725950

                             ****ORCA TERMINATED NORMALLY****
TOTAL RUN TIME: 0 days 0 hours 0 minutes 21 seconds 98 msec
