                         Program Version 6.0.0  -   RELEASE  -
|  1> ! pbe def2-sv(p) def2/J RI DEFGRID1 loosescf d4 GCP(DFT/SV(P)) printgap
|  2> %output
|  3>     printlevel normal
|  4> end
|  5> * xyz 0 1
|  6> C 4.871445784 0.7736272257 -2.0020536099
|  7> C 4.1486181186 -0.5540972911 -2.1115447606
|  8> O 3.407804648 -0.8648200402 -0.9169590139
|  9> P 2.0664126402 -0.08241426 -0.5155168551
| 10> S 1.0114075572 0.5058976048 -2.0499385292
| 11> O 2.5159221282 1.1348594049 0.390440867
| 12> C 3.4505574341 1.0330458665 1.4909067194
| 13> C 2.7333698797 0.8178763929 2.8086251431
| 14> S 1.2634311745 -1.5829504601 0.7360233691
| 15> C -0.1512002406 -2.1090793872 -0.2859722879
| 16> S -1.7385403774 -1.9229015925 0.5648408771
| 17> P -2.0030809769 0.1633875365 0.4747444339
| 18> S -0.6509733138 1.3853221428 1.182408021
| 19> O -3.3674492132 0.3974043015 1.2454235369
| 20> C -4.5924412768 -0.3107316968 0.9309922845
| 21> C -4.8584679589 -1.3942904073 1.9563230037
| 22> O -2.3032180239 0.2925408534 -1.0936099279
| 23> C -2.2703920229 1.559109474 -1.772760084
| 24> C -3.4810139626 2.4053504046 -1.4372699821
| 25> H 4.1471747332 1.579272951 -1.8813887828
| 26> H 5.5449118513 0.7729333155 -1.1487916262
| 27> H 5.4416856816 0.9470877886 -2.9092728507
| 28> H 4.8439273614 -1.3883324711 -2.213761364
| 29> H 3.4527532438 -0.5429521438 -2.9564090555
| 30> H 4.1556871419 0.2232442039 1.2851342982
| 31> H 3.9680356108 1.9940984311 1.4794504275
| 32> H 1.9264662052 1.5402286248 2.9097836037
| 33> H 2.3078514309 -0.1816374272 2.8612442426
| 34> H 3.4390734883 0.9476367649 3.6229090419
| 35> H -0.0483390461 -3.1728236954 -0.4829126611
| 36> H -0.1582033749 -1.5273004473 -1.2112133989
| 37> H -5.3676704355 0.4572721201 0.959617423
| 38> H -4.5178317228 -0.7260137407 -0.0770258586
| 39> H -4.8686776836 -0.9648190793 2.9541253017
| 40> H -5.8228677765 -1.8475352534 1.750048899
| 41> H -4.0867031595 -2.1594537808 1.9107329271
| 42> H -1.3451473245 2.0781266433 -1.5019297276
| 43> H -2.2320854763 1.2924890032 -2.8301409545
| 44> H -4.3954784916 1.8675000537 -1.6735134474
| 45> H -3.4745358698 2.6545546236 -0.3765629487
| 46> H -3.443815073 3.3235359795 -2.014982599
| 47> *
| 48>
| 49>                          ****END OF INPUT****

CARTESIAN COORDINATES (ANGSTROEM)
---------------------------------
  C      4.871446    0.773627   -2.002054
  C      4.148618   -0.554097   -2.111545
  O      3.407805   -0.864820   -0.916959
  P      2.066413   -0.082414   -0.515517
  S      1.011408    0.505898   -2.049939
  O      2.515922    1.134859    0.390441
  C      3.450557    1.033046    1.490907
  C      2.733370    0.817876    2.808625
  S      1.263431   -1.582950    0.736023
  C     -0.151200   -2.109079   -0.285972
  S     -1.738540   -1.922902    0.564841
  P     -2.003081    0.163388    0.474744
  S     -0.650973    1.385322    1.182408
  O     -3.367449    0.397404    1.245424
  C     -4.592441   -0.310732    0.930992
  C     -4.858468   -1.394290    1.956323
  O     -2.303218    0.292541   -1.093610
  C     -2.270392    1.559109   -1.772760
  C     -3.481014    2.405350   -1.437270
  H      4.147175    1.579273   -1.881389
  H      5.544912    0.772933   -1.148792
  H      5.441686    0.947088   -2.909273
  H      4.843927   -1.388332   -2.213761
  H      3.452753   -0.542952   -2.956409
  H      4.155687    0.223244    1.285134
  H      3.968036    1.994098    1.479450
  H      1.926466    1.540229    2.909784
  H      2.307851   -0.181637    2.861244
  H      3.439073    0.947637    3.622909
  H     -0.048339   -3.172824   -0.482913
  H     -0.158203   -1.527300   -1.211213
  H     -5.367670    0.457272    0.959617
  H     -4.517832   -0.726014   -0.077026
  H     -4.868678   -0.964819    2.954125
  H     -5.822868   -1.847535    1.750049
  H     -4.086703   -2.159454    1.910733
  H     -1.345147    2.078127   -1.501930
  H     -2.232085    1.292489   -2.830141
  H     -4.395478    1.867500   -1.673513
  H     -3.474536    2.654555   -0.376563
  H     -3.443815    3.323536   -2.014983

 Total Charge           Charge          ....    0
 Multiplicity           Mult            ....    1
 Number of Electrons    NEL             ....  202
 Basis Dimension        Dim             ....  334

ORBITAL ENERGIES
----------------

  NO   OCC          E(Eh)            E(eV)
   0   2.0000     -88.039832     -2395.6856
   1   2.0000     -88.035813     -2395.5763
   2   2.0000     -87.984350     -2394.1759
   3   2.0000     -87.973950     -2393.8929
   4   2.0000     -76.421847     -2079.5442
   5   2.0000     -76.416898     -2079.4095
   6   2.0000     -18.788667      -511.2656
   7   2.0000     -18.788024      -511.2481
   8   2.0000     -18.782877      -511.1081
   9   2.0000     -18.781068      -511.0588
  10   2.0000      -9.955249      -270.8961
  11   2.0000      -9.954214      -270.8679
  12   2.0000      -9.954202      -270.8676
  13   2.0000      -9.947798      -270.6933
  14   2.0000      -9.937949      -270.4253
  15   2.0000      -9.887227      -269.0451
  16   2.0000      -9.884181      -268.9622
  17   2.0000      -9.879129      -268.8248
  18   2.0000      -9.878858      -268.8174
  19   2.0000      -7.685346      -209.1289
  20   2.0000      -7.681250      -209.0174
  21   2.0000      -7.629417      -207.6070
  22   2.0000      -7.618903      -207.3209
  23   2.0000      -6.419687      -174.6886
  24   2.0000      -6.414845      -174.5568
  25   2.0000      -5.713194      -155.4639
  26   2.0000      -5.709803      -155.3716
  27   2.0000      -5.709244      -155.3564
  28   2.0000      -5.706023      -155.2688
  29   2.0000      -5.702299      -155.1674
  30   2.0000      -5.697734      -155.0432
  31   2.0000      -5.658305      -153.9703
  32   2.0000      -5.650326      -153.7532
  33   2.0000      -5.649189      -153.7223
  34   2.0000      -5.648020      -153.6904
  35   2.0000      -5.639508      -153.4588
  36   2.0000      -5.638847      -153.4408
  37   2.0000      -4.642563      -126.3306
  38   2.0000      -4.640990      -126.2877
  39   2.0000      -4.640335      -126.2699
  40   2.0000      -4.637838      -126.2020
  41   2.0000      -4.636383      -126.1624
  42   2.0000      -4.635125      -126.1282
  43   2.0000      -0.980027       -26.6679
  44   2.0000      -0.978087       -26.6151
  45   2.0000      -0.938176       -25.5291
  46   2.0000      -0.936961       -25.4960
  47   2.0000      -0.759391       -20.6641
  48   2.0000      -0.718390       -19.5484
  49   2.0000      -0.706883       -19.2353
  50   2.0000      -0.689111       -18.7517
  51   2.0000      -0.685594       -18.6560
  52   2.0000      -0.669038       -18.2055
  53   2.0000      -0.647900       -17.6303
  54   2.0000      -0.632099       -17.2003
  55   2.0000      -0.593880       -16.1603
  56   2.0000      -0.578677       -15.7466
  57   2.0000      -0.575117       -15.6497
  58   2.0000      -0.573524       -15.6064
  59   2.0000      -0.556608       -15.1461
  60   2.0000      -0.497312       -13.5326
  61   2.0000      -0.493182       -13.4202
  62   2.0000      -0.474044       -12.8994
  63   2.0000      -0.471269       -12.8239
  64   2.0000      -0.450122       -12.2485
  65   2.0000      -0.447181       -12.1684
  66   2.0000      -0.437480       -11.9044
  67   2.0000      -0.432336       -11.7645
  68   2.0000      -0.422094       -11.4858
  69   2.0000      -0.412880       -11.2350
  70   2.0000      -0.401664       -10.9298
  71   2.0000      -0.394782       -10.7426
  72   2.0000      -0.393010       -10.6943
  73   2.0000      -0.381348       -10.3770
  74   2.0000      -0.374984       -10.2038
  75   2.0000      -0.369281       -10.0486
  76   2.0000      -0.363286        -9.8855
  77   2.0000      -0.354751        -9.6533
  78   2.0000      -0.350886        -9.5481
  79   2.0000      -0.347885        -9.4664
  80   2.0000      -0.345680        -9.4064
  81   2.0000      -0.344269        -9.3680
  82   2.0000      -0.339759        -9.2453
  83   2.0000      -0.334731        -9.1085
  84   2.0000      -0.333596        -9.0776
  85   2.0000      -0.312610        -8.5065
  86   2.0000      -0.308819        -8.4034
  87   2.0000      -0.302589        -8.2339
  88   2.0000      -0.299274        -8.1437
  89   2.0000      -0.274539        -7.4706
  90   2.0000      -0.272654        -7.4193
  91   2.0000      -0.268801        -7.3145
  92   2.0000      -0.264892        -7.2081
  93   2.0000      -0.262987        -7.1562
  94   2.0000      -0.259414        -7.0590
  95   2.0000      -0.233088        -6.3426
  96   2.0000      -0.216663        -5.8957
  97   2.0000      -0.206516        -5.6196
  98   2.0000      -0.200997        -5.4694
  99   2.0000      -0.186810        -5.0834
 100   2.0000      -0.181566        -4.9406
 101   0.0000      -0.038382        -1.0444
 102   0.0000      -0.028629        -0.7790
 103   0.0000      -0.008464        -0.2303
 104   0.0000       0.010174         0.2768
 105   0.0000       0.025322         0.6890

MULLIKEN ATOMIC CHARGES
-----------------------
   0 C :   -0.318134
   1 C :   -0.004480
   2 O :   -0.387997
   3 P :    0.641263
   4 S :   -0.314361
   5 O :   -0.359386
   6 C :   -0.037193
   7 C :   -0.295006
   8 S :   -0.090566
   9 C :   -0.337268
  10 S :   -0.113113
  11 P :    0.614713
  12 S :   -0.302792
  13 O :   -0.367014
  14 C :   -0.035171
  15 C :   -0.289914
  16 O :   -0.384977
  17 C :   -0.018399
  18 C :   -0.308245
  19 H :    0.131587
  20 H :    0.112776
  21 H :    0.112509
  22 H :    0.102621
  23 H :    0.109709
  24 H :    0.106577
  25 H :    0.109531
  26 H :    0.138208
  27 H :    0.131929
  28 H :    0.106646
  29 H :    0.182890
  30 H :    0.198156
  31 H :    0.110271
  32 H :    0.111007
  33 H :    0.123057
  34 H :    0.110352
  35 H :    0.131338
  36 H :    0.130476
  37 H :    0.101050
  38 H :    0.107339
  39 H :    0.127987
  40 H :    0.112024
Sum of atomic charges:   -0.0000000

LOEWDIN ATOMIC CHARGES
----------------------
   0 C :   -0.366339
   1 C :   -0.121185
   2 O :   -0.261595
   3 P :    0.578322
   4 S :   -0.288621
   5 O :   -0.232141
   6 C :   -0.116342
   7 C :   -0.362657
   8 S :    0.084686
   9 C :   -0.475584
  10 S :    0.080752
  11 P :    0.561672
  12 S :   -0.300827
  13 O :   -0.242276
  14 C :   -0.121808
  15 C :   -0.359816
  16 O :   -0.252959
  17 C :   -0.127451
  18 C :   -0.365614
  19 H :    0.126552
  20 H :    0.122092
  21 H :    0.130776
  22 H :    0.117144
  23 H :    0.108169
  24 H :    0.107422
  25 H :    0.120894
  26 H :    0.133020
  27 H :    0.120546
  28 H :    0.128261
  29 H :    0.137685
  30 H :    0.124552
  31 H :    0.120039
  32 H :    0.109306
  33 H :    0.130689
  34 H :    0.130458
  35 H :    0.119817
  36 H :    0.110066
  37 H :    0.116233
  38 H :    0.119788
  39 H :    0.125441
  40 H :    0.130834

  Mayer bond orders larger than 0.100000
B(  0-C ,  1-C ) :   1.1597 B(  0-C , 19-H ) :   0.9365 B(  0-C , 20-H ) :   0.9464
B(  0-C , 21-H ) :   0.9395 B(  1-C ,  2-O ) :   0.9188 B(  1-C , 22-H ) :   0.9348
B(  1-C , 23-H ) :   0.9126 B(  2-O ,  3-P ) :   1.0676 B(  3-P ,  4-S ) :   1.6059
B(  3-P ,  5-O ) :   1.1234 B(  3-P ,  8-S ) :   0.9574 B(  4-S ,  8-S ) :   0.1093
B(  4-S , 30-H ) :   0.1070 B(  5-O ,  6-C ) :   0.9044 B(  6-C ,  7-C ) :   1.1704
B(  6-C , 24-H ) :   0.9157 B(  6-C , 25-H ) :   0.9344 B(  7-C , 26-H ) :   0.9391
B(  7-C , 27-H ) :   0.9352 B(  7-C , 28-H ) :   0.9376 B(  8-S ,  9-C ) :   1.0056
B(  9-C , 10-S ) :   0.9977 B(  9-C , 29-H ) :   0.9124 B(  9-C , 30-H ) :   0.8502
B( 10-S , 11-P ) :   0.9612 B( 10-S , 12-S ) :   0.1120 B( 11-P , 12-S ) :   1.6665
B( 11-P , 13-O ) :   1.1089 B( 11-P , 16-O ) :   1.0728 B( 13-O , 14-C ) :   0.8981
B( 14-C , 15-C ) :   1.1667 B( 14-C , 31-H ) :   0.9323 B( 14-C , 32-H ) :   0.9142
B( 15-C , 33-H ) :   0.9455 B( 15-C , 34-H ) :   0.9390 B( 15-C , 35-H ) :   0.9371
B( 16-O , 17-C ) :   0.9051 B( 17-C , 18-C ) :   1.1570 B( 17-C , 36-H ) :   0.9045
B( 17-C , 37-H ) :   0.9360 B( 18-C , 38-H ) :   0.9454 B( 18-C , 39-H ) :   0.9375
B( 18-C , 40-H ) :   0.9405

Dispersion correction           -0.067254844
FINAL SINGLE POINT ENERGY     -2929.512435597912

DIPOLE MOMENT
-------------

Method             : SCF
Type of density    : Electron Density
Multiplicity       :   1
Irrep              :   0
Energy             : -2929.6308707366060844 Eh
Relativity type    :
Basis              : AO
                                X                 Y                 Z
Electronic contribution:      0.645685397      -7.145275995       1.132732144
Nuclear contribution   :     -0.550305264       6.712589459      -1.431006082
                        -----------------------------------------
Total Dipole Moment    :      0.095380133      -0.432686536      -0.298273938
                        -----------------------------------------
Magnitude (a.u.)       :      0.534118292
Magnitude (Debye)      :      1.357620807

Rotational constants in cm-1:             0.013645             0.004965             0.004679
Rotational constants in MHz :           409.079280           148.860980           140.261762

                             ****ORCA TERMINATED NORMALLY****
TOTAL RUN TIME: 0 days 0 hours 0 minutes 21 seconds 70 msec
