                         Program Version 6.0.0  -   RELEASE  -
|  1> ! pbe def2-sv(p) def2/J RI DEFGRID1 loosescf d4 GCP(DFT/SV(P)) printgap
|  2> %output
|  3>     printlevel normal
|  4> end
|  5> * xyz 0 1
|  6> C 4.4735045861 0.0819000547 -1.8537323289
|  7> C 4.7638756539 -0.1134707928 -0.379311064
|  8> O 3.6652626372 -0.7229162324 0.3175269911
|  9> P 2.277208351 0.0261393672 0.5323454665
| 10> S 2.4504465441 1.9338082497 0.9211911952
| 11> O 1.6462182629 -0.7616123552 1.7473052468
| 12> C 1.1604978084 -2.125797535 1.740489864
| 13> C 2.2049037888 -3.1299557628 1.3045632654
| 14> S 1.0934912781 -0.5259024291 -1.163670063
| 15> C 0.2387126988 1.0530968303 -1.4030331614
| 16> S -0.919905542 1.4592932138 -0.0757158448
| 17> P -2.3209433318 -0.1191480574 -0.4229002133
| 18> S -2.3582870737 -0.8254213805 -2.2473326913
| 19> O -3.7041393662 0.4420798147 0.123432861
| 20> C -4.6168407657 1.1743906673 -0.7139097439
| 21> C -4.0536435963 2.510556318 -1.1518190731
| 22> O -1.9812767882 -1.2405837914 0.6432214722
| 23> C -2.4177926978 -1.2375824683 2.0250507967
| 24> C -1.8611636251 -0.0692963057 2.8121660841
| 25> H 4.1411409179 -0.8504757432 -2.3032993663
| 26> H 3.6948942916 0.8322615392 -1.9833888164
| 27> H 5.3739655361 0.4224620476 -2.3546612574
| 28> H 4.9864825338 0.8459847692 0.0982075332
| 29> H 5.5901783493 -0.8077783559 -0.2210048935
| 30> H 0.8618873201 -2.2847405369 2.7782155975
| 31> H 0.2847546634 -2.1757132926 1.0869965584
| 32> H 1.8106513637 -4.1315766743 1.4477676997
| 33> H 2.4448652943 -2.9924239982 0.2523411114
| 34> H 3.1113684238 -3.0111449938 1.8921756476
| 35> H -0.2972601842 0.9596086749 -2.3468559034
| 36> H 0.9619052421 1.8669408055 -1.4255805787
| 37> H -4.8568927027 0.5558608651 -1.5841433799
| 38> H -5.5015999437 1.2961962444 -0.0874089917
| 39> H -3.7089304405 3.0798773997 -0.2921551518
| 40> H -3.2155811941 2.356717879 -1.829994004
| 41> H -4.8249342842 3.0713945256 -1.6698250192
| 42> H -3.5090381885 -1.2264388947 2.036953747
| 43> H -2.051765572 -2.1925442637 2.4054127172
| 44> H -2.2650915369 0.8683976187 2.4346945905
| 45> H -2.1415700078 -0.1793458625 3.855089953
| 46> H -0.7761980352 -0.0311572575 2.7385607647
| 47> *
| 48>
| 49>                          ****END OF INPUT****

CARTESIAN COORDINATES (ANGSTROEM)
---------------------------------
  C      4.473505    0.081900   -1.853732
  C      4.763876   -0.113471   -0.379311
  O      3.665263   -0.722916    0.317527
  P      2.277208    0.026139    0.532345
  S      2.450447    1.933808    0.921191
  O      1.646218   -0.761612    1.747305
  C      1.160498   -2.125798    1.740490
  C      2.204904   -3.129956    1.304563
  S      1.093491   -0.525902   -1.163670
  C      0.238713    1.053097   -1.403033
  S     -0.919906    1.459293   -0.075716
  P     -2.320943   -0.119148   -0.422900
  S     -2.358287   -0.825421   -2.247333
  O     -3.704139    0.442080    0.123433
  C     -4.616841    1.174391   -0.713910
  C     -4.053644    2.510556   -1.151819
  O     -1.981277   -1.240584    0.643221
  C     -2.417793   -1.237582    2.025051
  C     -1.861164   -0.069296    2.812166
  H      4.141141   -0.850476   -2.303299
  H      3.694894    0.832262   -1.983389
  H      5.373966    0.422462   -2.354661
  H      4.986483    0.845985    0.098208
  H      5.590178   -0.807778   -0.221005
  H      0.861887   -2.284741    2.778216
  H      0.284755   -2.175713    1.086997
  H      1.810651   -4.131577    1.447768
  H      2.444865   -2.992424    0.252341
  H      3.111368   -3.011145    1.892176
  H     -0.297260    0.959609   -2.346856
  H      0.961905    1.866941   -1.425581
  H     -4.856893    0.555861   -1.584143
  H     -5.501600    1.296196   -0.087409
  H     -3.708930    3.079877   -0.292155
  H     -3.215581    2.356718   -1.829994
  H     -4.824934    3.071395   -1.669825
  H     -3.509038   -1.226439    2.036954
  H     -2.051766   -2.192544    2.405413
  H     -2.265092    0.868398    2.434695
  H     -2.141570   -0.179346    3.855090
  H     -0.776198   -0.031157    2.738561

 Total Charge           Charge          ....    0
 Multiplicity           Mult            ....    1
 Number of Electrons    NEL             ....  202
 Basis Dimension        Dim             ....  334

ORBITAL ENERGIES
----------------

  NO   OCC          E(Eh)            E(eV)
   0   2.0000     -88.041326     -2395.7263
   1   2.0000     -88.039694     -2395.6819
   2   2.0000     -87.987078     -2394.2501
   3   2.0000     -87.985084     -2394.1959
   4   2.0000     -76.427898     -2079.7088
   5   2.0000     -76.425599     -2079.6463
   6   2.0000     -18.798897      -511.5440
   7   2.0000     -18.791834      -511.3518
   8   2.0000     -18.791396      -511.3399
   9   2.0000     -18.790948      -511.3277
  10   2.0000      -9.958193      -270.9762
  11   2.0000      -9.956782      -270.9378
  12   2.0000      -9.954075      -270.8642
  13   2.0000      -9.952609      -270.8242
  14   2.0000      -9.951710      -270.7998
  15   2.0000      -9.886880      -269.0357
  16   2.0000      -9.885777      -269.0057
  17   2.0000      -9.885633      -269.0017
  18   2.0000      -9.883614      -268.9468
  19   2.0000      -7.685623      -209.1364
  20   2.0000      -7.684107      -209.0952
  21   2.0000      -7.632298      -207.6854
  22   2.0000      -7.630346      -207.6323
  23   2.0000      -6.425256      -174.8401
  24   2.0000      -6.422946      -174.7772
  25   2.0000      -5.713455      -155.4710
  26   2.0000      -5.711996      -155.4313
  27   2.0000      -5.710200      -155.3824
  28   2.0000      -5.708723      -155.3423
  29   2.0000      -5.702692      -155.1781
  30   2.0000      -5.701070      -155.1340
  31   2.0000      -5.661291      -154.0516
  32   2.0000      -5.659328      -153.9981
  33   2.0000      -5.652829      -153.8213
  34   2.0000      -5.652456      -153.8111
  35   2.0000      -5.650887      -153.7685
  36   2.0000      -5.650484      -153.7575
  37   2.0000      -4.648355      -126.4882
  38   2.0000      -4.646689      -126.4428
  39   2.0000      -4.645638      -126.4142
  40   2.0000      -4.645570      -126.4124
  41   2.0000      -4.644701      -126.3887
  42   2.0000      -4.643354      -126.3521
  43   2.0000      -0.991231       -26.9728
  44   2.0000      -0.985665       -26.8213
  45   2.0000      -0.946521       -25.7562
  46   2.0000      -0.944340       -25.6968
  47   2.0000      -0.761642       -20.7253
  48   2.0000      -0.719315       -19.5736
  49   2.0000      -0.711132       -19.3509
  50   2.0000      -0.692730       -18.8502
  51   2.0000      -0.689776       -18.7698
  52   2.0000      -0.676110       -18.3979
  53   2.0000      -0.650577       -17.7031
  54   2.0000      -0.637955       -17.3596
  55   2.0000      -0.600952       -16.3527
  56   2.0000      -0.594373       -16.1737
  57   2.0000      -0.581067       -15.8116
  58   2.0000      -0.575387       -15.6571
  59   2.0000      -0.559562       -15.2265
  60   2.0000      -0.499329       -13.5874
  61   2.0000      -0.491687       -13.3795
  62   2.0000      -0.472820       -12.8661
  63   2.0000      -0.470746       -12.8096
  64   2.0000      -0.461271       -12.5518
  65   2.0000      -0.451087       -12.2747
  66   2.0000      -0.444136       -12.0856
  67   2.0000      -0.436737       -11.8842
  68   2.0000      -0.427861       -11.6427
  69   2.0000      -0.424070       -11.5395
  70   2.0000      -0.409653       -11.1472
  71   2.0000      -0.402097       -10.9416
  72   2.0000      -0.396223       -10.7818
  73   2.0000      -0.380624       -10.3573
  74   2.0000      -0.377166       -10.2632
  75   2.0000      -0.374495       -10.1905
  76   2.0000      -0.368769       -10.0347
  77   2.0000      -0.362148        -9.8546
  78   2.0000      -0.355902        -9.6846
  79   2.0000      -0.351639        -9.5686
  80   2.0000      -0.349743        -9.5170
  81   2.0000      -0.346120        -9.4184
  82   2.0000      -0.345066        -9.3897
  83   2.0000      -0.339525        -9.2389
  84   2.0000      -0.336963        -9.1692
  85   2.0000      -0.321418        -8.7462
  86   2.0000      -0.309121        -8.4116
  87   2.0000      -0.299170        -8.1408
  88   2.0000      -0.297495        -8.0952
  89   2.0000      -0.293799        -7.9947
  90   2.0000      -0.290826        -7.9138
  91   2.0000      -0.275625        -7.5001
  92   2.0000      -0.270856        -7.3704
  93   2.0000      -0.261606        -7.1187
  94   2.0000      -0.258658        -7.0385
  95   2.0000      -0.234250        -6.3743
  96   2.0000      -0.213548        -5.8109
  97   2.0000      -0.209985        -5.7140
  98   2.0000      -0.207458        -5.6452
  99   2.0000      -0.200786        -5.4637
 100   2.0000      -0.194477        -5.2920
 101   0.0000      -0.045073        -1.2265
 102   0.0000      -0.028913        -0.7868
 103   0.0000      -0.005093        -0.1386
 104   0.0000       0.001933         0.0526
 105   0.0000       0.007339         0.1997

MULLIKEN ATOMIC CHARGES
-----------------------
   0 C :   -0.312243
   1 C :   -0.002460
   2 O :   -0.375396
   3 P :    0.608995
   4 S :   -0.318268
   5 O :   -0.362265
   6 C :   -0.059042
   7 C :   -0.287169
   8 S :   -0.096909
   9 C :   -0.347110
  10 S :   -0.080967
  11 P :    0.618471
  12 S :   -0.319911
  13 O :   -0.386823
  14 C :   -0.001019
  15 C :   -0.314862
  16 O :   -0.368875
  17 C :    0.005585
  18 C :   -0.344999
  19 H :    0.118530
  20 H :    0.122336
  21 H :    0.112451
  22 H :    0.113475
  23 H :    0.104248
  24 H :    0.106489
  25 H :    0.149980
  26 H :    0.112887
  27 H :    0.119932
  28 H :    0.120082
  29 H :    0.190088
  30 H :    0.189189
  31 H :    0.114697
  32 H :    0.104877
  33 H :    0.119728
  34 H :    0.126248
  35 H :    0.114088
  36 H :    0.111567
  37 H :    0.104532
  38 H :    0.123671
  39 H :    0.112533
  40 H :    0.153637
Sum of atomic charges:    0.0000000

LOEWDIN ATOMIC CHARGES
----------------------
   0 C :   -0.368756
   1 C :   -0.118967
   2 O :   -0.243650
   3 P :    0.573153
   4 S :   -0.310833
   5 O :   -0.235465
   6 C :   -0.124513
   7 C :   -0.362917
   8 S :    0.080096
   9 C :   -0.483680
  10 S :    0.091088
  11 P :    0.574563
  12 S :   -0.312291
  13 O :   -0.246813
  14 C :   -0.116722
  15 C :   -0.369917
  16 O :   -0.241109
  17 C :   -0.110013
  18 C :   -0.373182
  19 H :    0.124447
  20 H :    0.119521
  21 H :    0.130557
  22 H :    0.111626
  23 H :    0.118448
  24 H :    0.118427
  25 H :    0.115296
  26 H :    0.131482
  27 H :    0.120330
  28 H :    0.127993
  29 H :    0.129021
  30 H :    0.129050
  31 H :    0.113197
  32 H :    0.118610
  33 H :    0.124757
  34 H :    0.121080
  35 H :    0.131657
  36 H :    0.115114
  37 H :    0.117046
  38 H :    0.118842
  39 H :    0.131417
  40 H :    0.132008

  Mayer bond orders larger than 0.100000
B(  0-C ,  1-C ) :   1.1641 B(  0-C , 19-H ) :   0.9442 B(  0-C , 20-H ) :   0.9364
B(  0-C , 21-H ) :   0.9376 B(  1-C ,  2-O ) :   0.9102 B(  1-C , 22-H ) :   0.9155
B(  1-C , 23-H ) :   0.9338 B(  2-O ,  3-P ) :   1.0854 B(  3-P ,  4-S ) :   1.6206
B(  3-P ,  5-O ) :   1.1348 B(  3-P ,  8-S ) :   0.9356 B(  4-S ,  8-S ) :   0.1097
B(  5-O ,  6-C ) :   0.8887 B(  6-C ,  7-C ) :   1.1730 B(  6-C , 24-H ) :   0.9313
B(  6-C , 25-H ) :   0.8991 B(  7-C , 26-H ) :   0.9356 B(  7-C , 27-H ) :   0.9388
B(  7-C , 28-H ) :   0.9432 B(  8-S ,  9-C ) :   1.0044 B(  9-C , 10-S ) :   1.0118
B(  9-C , 29-H ) :   0.8789 B(  9-C , 30-H ) :   0.8823 B( 10-S , 11-P ) :   0.9446
B( 10-S , 12-S ) :   0.1132 B( 11-P , 12-S ) :   1.6291 B( 11-P , 13-O ) :   1.0746
B( 11-P , 16-O ) :   1.1102 B( 13-O , 14-C ) :   0.9035 B( 14-C , 15-C ) :   1.1665
B( 14-C , 31-H ) :   0.9175 B( 14-C , 32-H ) :   0.9341 B( 15-C , 33-H ) :   0.9440
B( 15-C , 34-H ) :   0.9347 B( 15-C , 35-H ) :   0.9366 B( 16-O , 17-C ) :   0.8908
B( 17-C , 18-C ) :   1.1712 B( 17-C , 36-H ) :   0.9269 B( 17-C , 37-H ) :   0.9318
B( 18-C , 38-H ) :   0.9361 B( 18-C , 39-H ) :   0.9353 B( 18-C , 40-H ) :   0.9299

Dispersion correction           -0.067696372
FINAL SINGLE POINT ENERGY     -2929.519937853392

DIPOLE MOMENT
-------------

Method             : SCF
Type of density    : Electron Density
Multiplicity       :   1
Irrep              :   0
Energy             : -2929.6394514727894602 Eh
Relativity type    :
Basis              : AO
                                X                 Y                 Z
Electronic contribution:     -0.456561479       3.074088170      -4.163772886
Nuclear contribution   :      0.132077663      -3.506976642       4.641813006
                        -----------------------------------------
Total Dipole Moment    :     -0.324483816      -0.432888472       0.478040120
                        -----------------------------------------
Magnitude (a.u.)       :      0.721944965
Magnitude (Debye)      :      1.835038268

Rotational constants in cm-1:             0.013112             0.005123             0.004781
Rotational constants in MHz :           393.096537           153.581867           143.345484

                             ****ORCA TERMINATED NORMALLY****
TOTAL RUN TIME: 0 days 0 hours 0 minutes 21 seconds 709 msec
