                         Program Version 6.0.0  -   RELEASE  -
|  1> ! pbe def2-sv(p) def2/J RI DEFGRID1 loosescf d4 GCP(DFT/SV(P)) printgap
|  2> %output
|  3>     printlevel normal
|  4> end
|  5> * xyz 0 1
|  6> C 4.1188290689 -1.8206762392 -1.1748193609
|  7> C 4.6065737561 -0.4169638683 -0.8792411753
|  8> O 3.7437762788 0.2870983994 0.0293490863
|  9> P 2.2348703197 0.6641852481 -0.3266728991
| 10> S 1.9699580384 1.200998196 -2.1930511942
| 11> O 1.9601981235 1.8242915206 0.7048688171
| 12> C 2.5640266876 1.9363557585 2.0182182219
| 13> C 2.2397008553 0.7600436019 2.9143873948
| 14> S 1.1088688654 -1.0187843341 0.3297802447
| 15> C 0.0977642995 -1.3513034563 -1.1501330923
| 16> S -1.6164650285 -1.7469566749 -0.7579863481
| 17> P -2.3414813662 0.1445886177 -0.0929372272
| 18> S -1.1032082506 1.6496313369 -0.3367060852
| 19> O -2.853277177 -0.0632762659 1.4004343734
| 20> C -1.9784522066 -0.0387630086 2.5416211755
| 21> C -1.5061154424 -1.432177031 2.9090294892
| 22> O -3.6940663123 0.3770077692 -0.8639109971
| 23> C -4.956081572 -0.2652822316 -0.5486203344
| 24> C -4.8929533999 -1.7706673963 -0.6898349794
| 25> H 3.9260195296 -2.3604341872 -0.2512200961
| 26> H 3.2016870824 -1.7746406065 -1.7607346195
| 27> H 4.8740206346 -2.3463574703 -1.7502198732
| 28> H 4.6800152066 0.1643716896 -1.8035665721
| 29> H 5.5692294343 -0.4241609042 -0.3659320863
| 30> H 3.6428177715 2.0423369028 1.8868649371
| 31> H 2.1417543361 2.8664099832 2.4023614664
| 32> H 2.6549638578 -0.1565424066 2.4987270599
| 33> H 2.6722467083 0.9340064179 3.8946523744
| 34> H 1.1637342936 0.6423390442 3.0134767232
| 35> H 0.4872267386 -2.2341457582 -1.6516063476
| 36> H 0.1478578473 -0.4729370347 -1.7987798171
| 37> H -1.1383987891 0.6292941928 2.3214368107
| 38> H -2.5848061241 0.3966467694 3.3383860449
| 39> H -0.8538868352 -1.8365284969 2.1380839289
| 40> H -0.9548765357 -1.3842178223 3.8426260356
| 41> H -2.3606564244 -2.0912624209 3.0319567188
| 42> H -5.2383640593 0.0225075144 0.4655348881
| 43> H -5.6450267676 0.179745485 -1.2680655309
| 44> H -4.1989901465 -2.1897020013 0.0366646931
| 45> H -5.8815093901 -2.1836988697 -0.5146471293
| 46> H -4.5604920789 -2.046585103 -1.6870725156
| 47> *
| 48>
| 49>                          ****END OF INPUT****

CARTESIAN COORDINATES (ANGSTROEM)
---------------------------------
  C      4.118829   -1.820676   -1.174819
  C      4.606574   -0.416964   -0.879241
  O      3.743776    0.287098    0.029349
  P      2.234870    0.664185   -0.326673
  S      1.969958    1.200998   -2.193051
  O      1.960198    1.824292    0.704869
  C      2.564027    1.936356    2.018218
  C      2.239701    0.760044    2.914387
  S      1.108869   -1.018784    0.329780
  C      0.097764   -1.351303   -1.150133
  S     -1.616465   -1.746957   -0.757986
  P     -2.341481    0.144589   -0.092937
  S     -1.103208    1.649631   -0.336706
  O     -2.853277   -0.063276    1.400434
  C     -1.978452   -0.038763    2.541621
  C     -1.506115   -1.432177    2.909029
  O     -3.694066    0.377008   -0.863911
  C     -4.956082   -0.265282   -0.548620
  C     -4.892953   -1.770667   -0.689835
  H      3.926020   -2.360434   -0.251220
  H      3.201687   -1.774641   -1.760735
  H      4.874021   -2.346357   -1.750220
  H      4.680015    0.164372   -1.803567
  H      5.569229   -0.424161   -0.365932
  H      3.642818    2.042337    1.886865
  H      2.141754    2.866410    2.402361
  H      2.654964   -0.156542    2.498727
  H      2.672247    0.934006    3.894652
  H      1.163734    0.642339    3.013477
  H      0.487227   -2.234146   -1.651606
  H      0.147858   -0.472937   -1.798780
  H     -1.138399    0.629294    2.321437
  H     -2.584806    0.396647    3.338386
  H     -0.853887   -1.836528    2.138084
  H     -0.954877   -1.384218    3.842626
  H     -2.360656   -2.091262    3.031957
  H     -5.238364    0.022508    0.465535
  H     -5.645027    0.179745   -1.268066
  H     -4.198990   -2.189702    0.036665
  H     -5.881509   -2.183699   -0.514647
  H     -4.560492   -2.046585   -1.687073

 Total Charge           Charge          ....    0
 Multiplicity           Mult            ....    1
 Number of Electrons    NEL             ....  202
 Basis Dimension        Dim             ....  334

ORBITAL ENERGIES
----------------

  NO   OCC          E(Eh)            E(eV)
   0   2.0000     -88.042137     -2395.7483
   1   2.0000     -88.037644     -2395.6261
   2   2.0000     -87.979990     -2394.0572
   3   2.0000     -87.976057     -2393.9502
   4   2.0000     -76.423089     -2079.5780
   5   2.0000     -76.420906     -2079.5186
   6   2.0000     -18.789356      -511.2844
   7   2.0000     -18.788357      -511.2572
   8   2.0000     -18.787882      -511.2443
   9   2.0000     -18.785695      -511.1847
  10   2.0000      -9.956662      -270.9346
  11   2.0000      -9.955644      -270.9069
  12   2.0000      -9.951760      -270.8012
  13   2.0000      -9.951499      -270.7940
  14   2.0000      -9.949800      -270.7478
  15   2.0000      -9.891876      -269.1716
  16   2.0000      -9.891436      -269.1597
  17   2.0000      -9.883923      -268.9552
  18   2.0000      -9.883048      -268.9314
  19   2.0000      -7.686847      -209.1697
  20   2.0000      -7.681913      -209.0355
  21   2.0000      -7.625088      -207.4892
  22   2.0000      -7.620699      -207.3698
  23   2.0000      -6.419997      -174.6970
  24   2.0000      -6.418451      -174.6549
  25   2.0000      -5.714866      -155.5094
  26   2.0000      -5.711086      -155.4066
  27   2.0000      -5.709842      -155.3727
  28   2.0000      -5.706570      -155.2837
  29   2.0000      -5.704021      -155.2143
  30   2.0000      -5.698818      -155.0727
  31   2.0000      -5.654167      -153.8577
  32   2.0000      -5.649860      -153.7405
  33   2.0000      -5.645490      -153.6216
  34   2.0000      -5.645275      -153.6157
  35   2.0000      -5.641137      -153.5031
  36   2.0000      -5.640853      -153.4954
  37   2.0000      -4.643002      -126.3425
  38   2.0000      -4.641465      -126.3007
  39   2.0000      -4.641378      -126.2983
  40   2.0000      -4.640442      -126.2729
  41   2.0000      -4.640063      -126.2625
  42   2.0000      -4.638674      -126.2247
  43   2.0000      -0.985497       -26.8167
  44   2.0000      -0.984123       -26.7794
  45   2.0000      -0.941188       -25.6110
  46   2.0000      -0.939063       -25.5532
  47   2.0000      -0.757724       -20.6187
  48   2.0000      -0.718090       -19.5402
  49   2.0000      -0.710544       -19.3349
  50   2.0000      -0.691521       -18.8173
  51   2.0000      -0.690095       -18.7784
  52   2.0000      -0.676824       -18.4173
  53   2.0000      -0.648044       -17.6342
  54   2.0000      -0.629112       -17.1190
  55   2.0000      -0.597678       -16.2636
  56   2.0000      -0.589648       -16.0451
  57   2.0000      -0.579211       -15.7611
  58   2.0000      -0.577487       -15.7142
  59   2.0000      -0.556165       -15.1340
  60   2.0000      -0.497225       -13.5302
  61   2.0000      -0.492839       -13.4108
  62   2.0000      -0.472387       -12.8543
  63   2.0000      -0.467183       -12.7127
  64   2.0000      -0.451250       -12.2791
  65   2.0000      -0.448666       -12.2088
  66   2.0000      -0.444979       -12.1085
  67   2.0000      -0.439365       -11.9557
  68   2.0000      -0.426576       -11.6077
  69   2.0000      -0.423935       -11.5359
  70   2.0000      -0.412332       -11.2201
  71   2.0000      -0.400394       -10.8953
  72   2.0000      -0.394322       -10.7301
  73   2.0000      -0.386440       -10.5156
  74   2.0000      -0.380431       -10.3520
  75   2.0000      -0.367423        -9.9981
  76   2.0000      -0.365171        -9.9368
  77   2.0000      -0.359509        -9.7827
  78   2.0000      -0.357601        -9.7308
  79   2.0000      -0.351595        -9.5674
  80   2.0000      -0.349685        -9.5154
  81   2.0000      -0.344356        -9.3704
  82   2.0000      -0.342389        -9.3169
  83   2.0000      -0.338519        -9.2116
  84   2.0000      -0.334113        -9.0917
  85   2.0000      -0.313010        -8.5174
  86   2.0000      -0.308608        -8.3977
  87   2.0000      -0.296446        -8.0667
  88   2.0000      -0.294090        -8.0026
  89   2.0000      -0.292606        -7.9622
  90   2.0000      -0.291571        -7.9340
  91   2.0000      -0.273287        -7.4365
  92   2.0000      -0.270799        -7.3688
  93   2.0000      -0.258346        -7.0300
  94   2.0000      -0.253881        -6.9085
  95   2.0000      -0.231209        -6.2915
  96   2.0000      -0.215740        -5.8706
  97   2.0000      -0.208935        -5.6854
  98   2.0000      -0.195080        -5.3084
  99   2.0000      -0.188993        -5.1428
 100   2.0000      -0.181234        -4.9316
 101   0.0000      -0.040537        -1.1031
 102   0.0000      -0.034078        -0.9273
 103   0.0000      -0.010706        -0.2913
 104   0.0000       0.004594         0.1250
 105   0.0000       0.008976         0.2443

MULLIKEN ATOMIC CHARGES
-----------------------
   0 C :   -0.318078
   1 C :    0.005580
   2 O :   -0.389608
   3 P :    0.630794
   4 S :   -0.295850
   5 O :   -0.358944
   6 C :    0.015311
   7 C :   -0.354894
   8 S :   -0.138939
   9 C :   -0.317364
  10 S :   -0.137893
  11 P :    0.607664
  12 S :   -0.285592
  13 O :   -0.386395
  14 C :   -0.025432
  15 C :   -0.304672
  16 O :   -0.359696
  17 C :    0.007022
  18 C :   -0.336648
  19 H :    0.117894
  20 H :    0.120876
  21 H :    0.111976
  22 H :    0.111871
  23 H :    0.101196
  24 H :    0.109288
  25 H :    0.112267
  26 H :    0.129150
  27 H :    0.115212
  28 H :    0.142841
  29 H :    0.178635
  30 H :    0.208632
  31 H :    0.123903
  32 H :    0.103195
  33 H :    0.134518
  34 H :    0.108074
  35 H :    0.110129
  36 H :    0.111006
  37 H :    0.112560
  38 H :    0.131567
  39 H :    0.117852
  40 H :    0.130992
Sum of atomic charges:   -0.0000000

LOEWDIN ATOMIC CHARGES
----------------------
   0 C :   -0.371382
   1 C :   -0.116649
   2 O :   -0.253258
   3 P :    0.578492
   4 S :   -0.292129
   5 O :   -0.232704
   6 C :   -0.105953
   7 C :   -0.372218
   8 S :    0.067650
   9 C :   -0.480969
  10 S :    0.074086
  11 P :    0.562513
  12 S :   -0.287294
  13 O :   -0.250400
  14 C :   -0.119268
  15 C :   -0.366606
  16 O :   -0.237331
  17 C :   -0.108405
  18 C :   -0.372578
  19 H :    0.122876
  20 H :    0.119243
  21 H :    0.130216
  22 H :    0.112061
  23 H :    0.116844
  24 H :    0.114810
  25 H :    0.124246
  26 H :    0.118225
  27 H :    0.133081
  28 H :    0.126303
  29 H :    0.132607
  30 H :    0.126254
  31 H :    0.106314
  32 H :    0.117776
  33 H :    0.112442
  34 H :    0.127908
  35 H :    0.123728
  36 H :    0.115143
  37 H :    0.123708
  38 H :    0.117416
  39 H :    0.133803
  40 H :    0.129397

  Mayer bond orders larger than 0.100000
B(  0-C ,  1-C ) :   1.1656 B(  0-C , 19-H ) :   0.9420 B(  0-C , 20-H ) :   0.9349
B(  0-C , 21-H ) :   0.9365 B(  1-C ,  2-O ) :   0.9141 B(  1-C , 22-H ) :   0.9170
B(  1-C , 23-H ) :   0.9346 B(  2-O ,  3-P ) :   1.0573 B(  3-P ,  4-S ) :   1.6275
B(  3-P ,  5-O ) :   1.1321 B(  3-P ,  8-S ) :   0.9376 B(  4-S ,  8-S ) :   0.1164
B(  5-O ,  6-C ) :   0.9051 B(  6-C ,  7-C ) :   1.1697 B(  6-C , 24-H ) :   0.9271
B(  6-C , 25-H ) :   0.9324 B(  7-C , 26-H ) :   0.9311 B(  7-C , 27-H ) :   0.9338
B(  7-C , 28-H ) :   0.9329 B(  8-S ,  9-C ) :   0.9893 B(  9-C , 10-S ) :   1.0147
B(  9-C , 29-H ) :   0.9030 B(  9-C , 30-H ) :   0.8477 B( 10-S , 11-P ) :   0.9295
B( 10-S , 12-S ) :   0.1126 B( 11-P , 12-S ) :   1.6747 B( 11-P , 13-O ) :   1.0628
B( 11-P , 16-O ) :   1.1395 B( 13-O , 14-C ) :   0.9107 B( 14-C , 15-C ) :   1.1695
B( 14-C , 31-H ) :   0.8940 B( 14-C , 32-H ) :   0.9336 B( 15-C , 33-H ) :   0.9276
B( 15-C , 34-H ) :   0.9385 B( 15-C , 35-H ) :   0.9452 B( 16-O , 17-C ) :   0.9012
B( 17-C , 18-C ) :   1.1697 B( 17-C , 36-H ) :   0.9269 B( 17-C , 37-H ) :   0.9336
B( 18-C , 38-H ) :   0.9308 B( 18-C , 39-H ) :   0.9351 B( 18-C , 40-H ) :   0.9416

Dispersion correction           -0.067640397
FINAL SINGLE POINT ENERGY     -2929.509385167480

DIPOLE MOMENT
-------------

Method             : SCF
Type of density    : Electron Density
Multiplicity       :   1
Irrep              :   0
Energy             : -2929.6279826416857759 Eh
Relativity type    :
Basis              : AO
                                X                 Y                 Z
Electronic contribution:     -1.695201520      12.128307771     -13.978523440
Nuclear contribution   :      1.709073424     -13.470419641      15.507874375
                        -----------------------------------------
Total Dipole Moment    :      0.013871904      -1.342111870       1.529350935
                        -----------------------------------------
Magnitude (a.u.)       :      2.034790157
Magnitude (Debye)      :      5.172025552

Rotational constants in cm-1:             0.013466             0.005037             0.004732
Rotational constants in MHz :           403.703546           151.001778           141.852222

                             ****ORCA TERMINATED NORMALLY****
TOTAL RUN TIME: 0 days 0 hours 0 minutes 21 seconds 716 msec
