                         Program Version 6.0.0  -   RELEASE  -
|  1> ! r2scan-3c def2/J RI DEFGRID2 scfconv6 printgap
|  2> %output
|  3>     printlevel normal
|  4> end
|  5> * xyz 0 1
|  6> C 3.6543878315 2.4789963799 1.7672107157
|  7> C 2.2242919833 1.9818156599 1.7817410082
|  8> O 1.9115477504 1.2759385117 0.5673453314
|  9> P 2.4672131604 -0.1769766731 0.2666213153
| 10> S 2.8354465285 -1.243558332 1.8768106534
| 11> O 3.6886759961 0.1646854913 -0.6878417972
| 12> C 4.2828105815 -0.7299264523 -1.6461603212
| 13> C 4.6609739973 -2.0691498331 -1.0478953154
| 14> S 0.996644856 -0.9396219792 -1.0493303787
| 15> C -0.1080864135 -1.5628800108 0.2432460504
| 16> S -0.9620667269 -0.2405440923 1.1518647794
| 17> P -2.6119739276 0.0251129486 -0.1502378371
| 18> S -2.6032794789 -0.9116756596 -1.8762323157
| 19> O -2.840021385 1.5971163845 -0.2411660267
| 20> C -2.279312542 2.4041707661 -1.2892157888
| 21> C -0.7958451844 2.6392335961 -1.0908007877
| 22> O -3.7484030108 -0.4109097234 0.8625658085
| 23> C -5.0754532159 -0.7721114906 0.4260333444
| 24> C -5.8380909544 0.4146504814 -0.1248479615
| 25> H 3.8489847728 3.0548617215 2.6663827102
| 26> H 4.3341352184 1.628027939 1.734052221
| 27> H 3.8271495274 3.0984738131 0.891456232
| 28> H 1.5062062751 2.8020233516 1.8085083644
| 29> H 2.0516301581 1.3130778824 2.6315382586
| 30> H 3.5770437747 -0.8603008212 -2.4713823494
| 31> H 5.1626404233 -0.1852811329 -1.9935943068
| 32> H 3.7670099486 -2.6052477733 -0.7314529254
| 33> H 5.1827617831 -2.6621482931 -1.7921384974
| 34> H 5.3041326099 -1.9310706639 -0.1818826168
| 35> H 0.480083348 -2.1146432443 0.9769491593
| 36> H -0.8357191232 -2.2025544971 -0.2524198576
| 37> H -2.4668100115 1.9099341624 -2.2484339828
| 38> H -2.8425055175 3.3370406937 -1.2348916334
| 39> H -0.2443884914 1.7074338346 -1.2098370689
| 40> H -0.4399875189 3.3498083455 -1.829792522
| 41> H -0.6070086701 3.0297532017 -0.094015197
| 42> H -4.9873529622 -1.5589819315 -0.3299316619
| 43> H -5.543730606 -1.1720952214 1.3263273128
| 44> H -5.3798196565 0.7529200705 -1.0530230896
| 45> H -6.8637462466 0.1205471813 -0.3248190624
| 46> H -5.8279737878 1.2320567712 0.5913323728
| 47> *
| 48>
| 49>                          ****END OF INPUT****

CARTESIAN COORDINATES (ANGSTROEM)
---------------------------------
  C      3.654388    2.478996    1.767211
  C      2.224292    1.981816    1.781741
  O      1.911548    1.275939    0.567345
  P      2.467213   -0.176977    0.266621
  S      2.835447   -1.243558    1.876811
  O      3.688676    0.164685   -0.687842
  C      4.282811   -0.729926   -1.646160
  C      4.660974   -2.069150   -1.047895
  S      0.996645   -0.939622   -1.049330
  C     -0.108086   -1.562880    0.243246
  S     -0.962067   -0.240544    1.151865
  P     -2.611974    0.025113   -0.150238
  S     -2.603279   -0.911676   -1.876232
  O     -2.840021    1.597116   -0.241166
  C     -2.279313    2.404171   -1.289216
  C     -0.795845    2.639234   -1.090801
  O     -3.748403   -0.410910    0.862566
  C     -5.075453   -0.772111    0.426033
  C     -5.838091    0.414650   -0.124848
  H      3.848985    3.054862    2.666383
  H      4.334135    1.628028    1.734052
  H      3.827150    3.098474    0.891456
  H      1.506206    2.802023    1.808508
  H      2.051630    1.313078    2.631538
  H      3.577044   -0.860301   -2.471382
  H      5.162640   -0.185281   -1.993594
  H      3.767010   -2.605248   -0.731453
  H      5.182762   -2.662148   -1.792138
  H      5.304133   -1.931071   -0.181883
  H      0.480083   -2.114643    0.976949
  H     -0.835719   -2.202554   -0.252420
  H     -2.466810    1.909934   -2.248434
  H     -2.842506    3.337041   -1.234892
  H     -0.244388    1.707434   -1.209837
  H     -0.439988    3.349808   -1.829793
  H     -0.607009    3.029753   -0.094015
  H     -4.987353   -1.558982   -0.329932
  H     -5.543731   -1.172095    1.326327
  H     -5.379820    0.752920   -1.053023
  H     -6.863746    0.120547   -0.324819
  H     -5.827974    1.232057    0.591332

 Total Charge           Charge          ....    0
 Multiplicity           Mult            ....    1
 Number of Electrons    NEL             ....  202
 Basis Dimension        Dim             ....  539

ORBITAL ENERGIES
----------------

  NO   OCC          E(Eh)            E(eV)
   0   2.0000     -88.576364     -2410.2854
   1   2.0000     -88.573332     -2410.2029
   2   2.0000     -88.525023     -2408.8884
   3   2.0000     -88.519345     -2408.7338
   4   2.0000     -76.914294     -2092.9443
   5   2.0000     -76.914283     -2092.9440
   6   2.0000     -18.993655      -516.8436
   7   2.0000     -18.991768      -516.7923
   8   2.0000     -18.988310      -516.6982
   9   2.0000     -18.987402      -516.6735
  10   2.0000     -10.105154      -274.9752
  11   2.0000     -10.104194      -274.9491
  12   2.0000     -10.097489      -274.7667
  13   2.0000     -10.096350      -274.7357
  14   2.0000     -10.094254      -274.6786
  15   2.0000     -10.029077      -272.9051
  16   2.0000     -10.028360      -272.8855
  17   2.0000     -10.026584      -272.8372
  18   2.0000     -10.022691      -272.7313
  19   2.0000      -7.870582      -214.1694
  20   2.0000      -7.867521      -214.0861
  21   2.0000      -7.819755      -212.7864
  22   2.0000      -7.814173      -212.6345
  23   2.0000      -6.592895      -179.4018
  24   2.0000      -6.592701      -179.3965
  25   2.0000      -5.817376      -158.2988
  26   2.0000      -5.814474      -158.2199
  27   2.0000      -5.814375      -158.2172
  28   2.0000      -5.811554      -158.1404
  29   2.0000      -5.807870      -158.0402
  30   2.0000      -5.804392      -157.9455
  31   2.0000      -5.767354      -156.9377
  32   2.0000      -5.761815      -156.7869
  33   2.0000      -5.760106      -156.7405
  34   2.0000      -5.759739      -156.7305
  35   2.0000      -5.754525      -156.5886
  36   2.0000      -5.754114      -156.5774
  37   2.0000      -4.738234      -128.9339
  38   2.0000      -4.738099      -128.9302
  39   2.0000      -4.737769      -128.9212
  40   2.0000      -4.737765      -128.9211
  41   2.0000      -4.736946      -128.8989
  42   2.0000      -4.736272      -128.8805
  43   2.0000      -1.050114       -28.5751
  44   2.0000      -1.049064       -28.5465
  45   2.0000      -1.010880       -27.5074
  46   2.0000      -1.010225       -27.4896
  47   2.0000      -0.800575       -21.7847
  48   2.0000      -0.758295       -20.6343
  49   2.0000      -0.747985       -20.3537
  50   2.0000      -0.731137       -19.8953
  51   2.0000      -0.729777       -19.8582
  52   2.0000      -0.710952       -19.3460
  53   2.0000      -0.687328       -18.7031
  54   2.0000      -0.670506       -18.2454
  55   2.0000      -0.634043       -17.2532
  56   2.0000      -0.626906       -17.0590
  57   2.0000      -0.606715       -16.5096
  58   2.0000      -0.603980       -16.4351
  59   2.0000      -0.590223       -16.0608
  60   2.0000      -0.521819       -14.1994
  61   2.0000      -0.516008       -14.0413
  62   2.0000      -0.493022       -13.4158
  63   2.0000      -0.489227       -13.3126
  64   2.0000      -0.478451       -13.0193
  65   2.0000      -0.463417       -12.6102
  66   2.0000      -0.456384       -12.4188
  67   2.0000      -0.454004       -12.3541
  68   2.0000      -0.447475       -12.1764
  69   2.0000      -0.436224       -11.8702
  70   2.0000      -0.423350       -11.5199
  71   2.0000      -0.411128       -11.1873
  72   2.0000      -0.409482       -11.1426
  73   2.0000      -0.406847       -11.0709
  74   2.0000      -0.400288       -10.8924
  75   2.0000      -0.391686       -10.6583
  76   2.0000      -0.385931       -10.5017
  77   2.0000      -0.369758       -10.0616
  78   2.0000      -0.364471        -9.9178
  79   2.0000      -0.362359        -9.8603
  80   2.0000      -0.361062        -9.8250
  81   2.0000      -0.359587        -9.7849
  82   2.0000      -0.357475        -9.7274
  83   2.0000      -0.353705        -9.6248
  84   2.0000      -0.348328        -9.4785
  85   2.0000      -0.332436        -9.0461
  86   2.0000      -0.323404        -8.8003
  87   2.0000      -0.313370        -8.5272
  88   2.0000      -0.307508        -8.3677
  89   2.0000      -0.301360        -8.2004
  90   2.0000      -0.300336        -8.1725
  91   2.0000      -0.290037        -7.8923
  92   2.0000      -0.288298        -7.8450
  93   2.0000      -0.281241        -7.6529
  94   2.0000      -0.272205        -7.4071
  95   2.0000      -0.243511        -6.6263
  96   2.0000      -0.231247        -6.2926
  97   2.0000      -0.226265        -6.1570
  98   2.0000      -0.220271        -5.9939
  99   2.0000      -0.215770        -5.8714
 100   2.0000      -0.213984        -5.8228
 101   0.0000      -0.045789        -1.2460
 102   0.0000      -0.029887        -0.8133
 103   0.0000      -0.007144        -0.1944
 104   0.0000       0.001932         0.0526
 105   0.0000       0.015517         0.4222

MULLIKEN ATOMIC CHARGES
-----------------------
   0 C :   -0.441849
   1 C :   -0.149387
   2 O :   -0.269775
   3 P :    0.637371
   4 S :   -0.467668
   5 O :   -0.276560
   6 C :   -0.160002
   7 C :   -0.423176
   8 S :   -0.122660
   9 C :   -0.240870
  10 S :   -0.100966
  11 P :    0.662555
  12 S :   -0.476420
  13 O :   -0.278905
  14 C :   -0.152136
  15 C :   -0.442120
  16 O :   -0.292072
  17 C :   -0.156575
  18 C :   -0.434227
  19 H :    0.146707
  20 H :    0.167660
  21 H :    0.154383
  22 H :    0.149666
  23 H :    0.175431
  24 H :    0.154254
  25 H :    0.150378
  26 H :    0.169577
  27 H :    0.147527
  28 H :    0.164780
  29 H :    0.218166
  30 H :    0.206528
  31 H :    0.168664
  32 H :    0.146271
  33 H :    0.184005
  34 H :    0.144946
  35 H :    0.148358
  36 H :    0.169962
  37 H :    0.150079
  38 H :    0.164525
  39 H :    0.146953
  40 H :    0.156619
Sum of atomic charges:   -0.0000000

LOEWDIN ATOMIC CHARGES
----------------------
   0 C :   -0.398091
   1 C :    0.015148
   2 O :   -0.674897
   3 P :    0.379384
   4 S :   -0.134402
   5 O :   -0.657552
   6 C :    0.024895
   7 C :   -0.406653
   8 S :    0.150698
   9 C :   -0.420342
  10 S :    0.188684
  11 P :    0.387150
  12 S :   -0.124979
  13 O :   -0.664895
  14 C :    0.019240
  15 C :   -0.404783
  16 O :   -0.668286
  17 C :    0.022919
  18 C :   -0.399450
  19 H :    0.159235
  20 H :    0.165695
  21 H :    0.159534
  22 H :    0.178505
  23 H :    0.181650
  24 H :    0.172454
  25 H :    0.181796
  26 H :    0.166390
  27 H :    0.158496
  28 H :    0.165375
  29 H :    0.193527
  30 H :    0.191498
  31 H :    0.179600
  32 H :    0.178336
  33 H :    0.171318
  34 H :    0.158616
  35 H :    0.159795
  36 H :    0.179044
  37 H :    0.180528
  38 H :    0.163872
  39 H :    0.159174
  40 H :    0.161778

  Mayer bond orders larger than 0.100000
B(  0-C ,  1-C ) :   0.9253 B(  0-C , 19-H ) :   0.9640 B(  0-C , 20-H ) :   0.9599
B(  0-C , 21-H ) :   0.9734 B(  1-C ,  2-O ) :   0.7847 B(  1-C , 22-H ) :   0.9628
B(  1-C , 23-H ) :   0.9596 B(  2-O ,  3-P ) :   1.1278 B(  3-P ,  4-S ) :   1.7706
B(  3-P ,  5-O ) :   1.0904 B(  3-P ,  8-S ) :   1.0726 B(  5-O ,  6-C ) :   0.8028
B(  6-C ,  7-C ) :   0.9372 B(  6-C , 24-H ) :   0.9652 B(  6-C , 25-H ) :   0.9583
B(  7-C , 26-H ) :   0.9535 B(  7-C , 27-H ) :   0.9614 B(  7-C , 28-H ) :   0.9661
B(  8-S ,  9-C ) :   0.9223 B(  9-C , 10-S ) :   0.9015 B(  9-C , 29-H ) :   0.9044
B(  9-C , 30-H ) :   0.9077 B( 10-S , 11-P ) :   1.0919 B( 11-P , 12-S ) :   1.7336
B( 11-P , 13-O ) :   1.0686 B( 11-P , 16-O ) :   1.1832 B( 13-O , 14-C ) :   0.7978
B( 14-C , 15-C ) :   0.9375 B( 14-C , 31-H ) :   0.9618 B( 14-C , 32-H ) :   0.9609
B( 15-C , 33-H ) :   0.9509 B( 15-C , 34-H ) :   0.9618 B( 15-C , 35-H ) :   0.9689
B( 16-O , 17-C ) :   0.8136 B( 17-C , 18-C ) :   0.9279 B( 17-C , 36-H ) :   0.9664
B( 17-C , 37-H ) :   0.9608 B( 18-C , 38-H ) :   0.9604 B( 18-C , 39-H ) :   0.9616
B( 18-C , 40-H ) :   0.9705

Dispersion correction           -0.021327502
FINAL SINGLE POINT ENERGY     -2932.461128743588

DIPOLE MOMENT
-------------

Method             : SCF
Type of density    : Electron Density
Multiplicity       :   1
Irrep              :   0
Energy             : -2932.4862975725309298 Eh
Relativity type    :
Basis              : AO
                                X                 Y                 Z
Electronic contribution:     -3.000223480     -10.644275743       2.594288637
Nuclear contribution   :      2.924069073      11.570144623      -3.027653786
                        -----------------------------------------
Total Dipole Moment    :     -0.076154408       0.925868880      -0.433365149
                        -----------------------------------------
Magnitude (a.u.)       :      1.025103911
Magnitude (Debye)      :      2.605607071

Rotational constants in cm-1:             0.014467             0.004306             0.004097
Rotational constants in MHz :           433.703458           129.079988           122.836204

                             ****ORCA TERMINATED NORMALLY****
TOTAL RUN TIME: 0 days 0 hours 1 minutes 20 seconds 989 msec
