                         Program Version 6.0.0  -   RELEASE  -
|  1> ! r2scan-3c def2/J RI DEFGRID2 scfconv6 printgap
|  2> %output
|  3>     printlevel normal
|  4> end
|  5> %cpcm
|  6>     smd true
|  7>     smdsolvent "water"
|  8> end
|  9> * xyz 0 1
| 10> C 3.6543878315 2.4789963799 1.7672107157
| 11> C 2.2242919833 1.9818156599 1.7817410082
| 12> O 1.9115477504 1.2759385117 0.5673453314
| 13> P 2.4672131604 -0.1769766731 0.2666213153
| 14> S 2.8354465285 -1.243558332 1.8768106534
| 15> O 3.6886759961 0.1646854913 -0.6878417972
| 16> C 4.2828105815 -0.7299264523 -1.6461603212
| 17> C 4.6609739973 -2.0691498331 -1.0478953154
| 18> S 0.996644856 -0.9396219792 -1.0493303787
| 19> C -0.1080864135 -1.5628800108 0.2432460504
| 20> S -0.9620667269 -0.2405440923 1.1518647794
| 21> P -2.6119739276 0.0251129486 -0.1502378371
| 22> S -2.6032794789 -0.9116756596 -1.8762323157
| 23> O -2.840021385 1.5971163845 -0.2411660267
| 24> C -2.279312542 2.4041707661 -1.2892157888
| 25> C -0.7958451844 2.6392335961 -1.0908007877
| 26> O -3.7484030108 -0.4109097234 0.8625658085
| 27> C -5.0754532159 -0.7721114906 0.4260333444
| 28> C -5.8380909544 0.4146504814 -0.1248479615
| 29> H 3.8489847728 3.0548617215 2.6663827102
| 30> H 4.3341352184 1.628027939 1.734052221
| 31> H 3.8271495274 3.0984738131 0.891456232
| 32> H 1.5062062751 2.8020233516 1.8085083644
| 33> H 2.0516301581 1.3130778824 2.6315382586
| 34> H 3.5770437747 -0.8603008212 -2.4713823494
| 35> H 5.1626404233 -0.1852811329 -1.9935943068
| 36> H 3.7670099486 -2.6052477733 -0.7314529254
| 37> H 5.1827617831 -2.6621482931 -1.7921384974
| 38> H 5.3041326099 -1.9310706639 -0.1818826168
| 39> H 0.480083348 -2.1146432443 0.9769491593
| 40> H -0.8357191232 -2.2025544971 -0.2524198576
| 41> H -2.4668100115 1.9099341624 -2.2484339828
| 42> H -2.8425055175 3.3370406937 -1.2348916334
| 43> H -0.2443884914 1.7074338346 -1.2098370689
| 44> H -0.4399875189 3.3498083455 -1.829792522
| 45> H -0.6070086701 3.0297532017 -0.094015197
| 46> H -4.9873529622 -1.5589819315 -0.3299316619
| 47> H -5.543730606 -1.1720952214 1.3263273128
| 48> H -5.3798196565 0.7529200705 -1.0530230896
| 49> H -6.8637462466 0.1205471813 -0.3248190624
| 50> H -5.8279737878 1.2320567712 0.5913323728
| 51> *
| 52>
| 53>                          ****END OF INPUT****

CARTESIAN COORDINATES (ANGSTROEM)
---------------------------------
  C      3.654388    2.478996    1.767211
  C      2.224292    1.981816    1.781741
  O      1.911548    1.275939    0.567345
  P      2.467213   -0.176977    0.266621
  S      2.835447   -1.243558    1.876811
  O      3.688676    0.164685   -0.687842
  C      4.282811   -0.729926   -1.646160
  C      4.660974   -2.069150   -1.047895
  S      0.996645   -0.939622   -1.049330
  C     -0.108086   -1.562880    0.243246
  S     -0.962067   -0.240544    1.151865
  P     -2.611974    0.025113   -0.150238
  S     -2.603279   -0.911676   -1.876232
  O     -2.840021    1.597116   -0.241166
  C     -2.279313    2.404171   -1.289216
  C     -0.795845    2.639234   -1.090801
  O     -3.748403   -0.410910    0.862566
  C     -5.075453   -0.772111    0.426033
  C     -5.838091    0.414650   -0.124848
  H      3.848985    3.054862    2.666383
  H      4.334135    1.628028    1.734052
  H      3.827150    3.098474    0.891456
  H      1.506206    2.802023    1.808508
  H      2.051630    1.313078    2.631538
  H      3.577044   -0.860301   -2.471382
  H      5.162640   -0.185281   -1.993594
  H      3.767010   -2.605248   -0.731453
  H      5.182762   -2.662148   -1.792138
  H      5.304133   -1.931071   -0.181883
  H      0.480083   -2.114643    0.976949
  H     -0.835719   -2.202554   -0.252420
  H     -2.466810    1.909934   -2.248434
  H     -2.842506    3.337041   -1.234892
  H     -0.244388    1.707434   -1.209837
  H     -0.439988    3.349808   -1.829793
  H     -0.607009    3.029753   -0.094015
  H     -4.987353   -1.558982   -0.329932
  H     -5.543731   -1.172095    1.326327
  H     -5.379820    0.752920   -1.053023
  H     -6.863746    0.120547   -0.324819
  H     -5.827974    1.232057    0.591332

 Total Charge           Charge          ....    0
 Multiplicity           Mult            ....    1
 Number of Electrons    NEL             ....  202
 Basis Dimension        Dim             ....  539

ORBITAL ENERGIES
----------------

  NO   OCC          E(Eh)            E(eV)
   0   2.0000     -88.581033     -2410.4125
   1   2.0000     -88.579408     -2410.3682
   2   2.0000     -88.532067     -2409.0800
   3   2.0000     -88.527186     -2408.9472
   4   2.0000     -76.920186     -2093.1047
   5   2.0000     -76.919980     -2093.0991
   6   2.0000     -18.995972      -516.9067
   7   2.0000     -18.995302      -516.8885
   8   2.0000     -18.992947      -516.8243
   9   2.0000     -18.991925      -516.7965
  10   2.0000     -10.105876      -274.9949
  11   2.0000     -10.093681      -274.6630
  12   2.0000     -10.089499      -274.5492
  13   2.0000     -10.089228      -274.5418
  14   2.0000     -10.087962      -274.5074
  15   2.0000     -10.018935      -272.6291
  16   2.0000     -10.018695      -272.6226
  17   2.0000     -10.018268      -272.6109
  18   2.0000     -10.016591      -272.5653
  19   2.0000      -7.875273      -214.2971
  20   2.0000      -7.873684      -214.2538
  21   2.0000      -7.827021      -212.9841
  22   2.0000      -7.822296      -212.8555
  23   2.0000      -6.598845      -179.5637
  24   2.0000      -6.598451      -179.5530
  25   2.0000      -5.822063      -158.4264
  26   2.0000      -5.820594      -158.3864
  27   2.0000      -5.819067      -158.3449
  28   2.0000      -5.817672      -158.3069
  29   2.0000      -5.812565      -158.1679
  30   2.0000      -5.810643      -158.1156
  31   2.0000      -5.774592      -157.1346
  32   2.0000      -5.769880      -157.0064
  33   2.0000      -5.767356      -156.9377
  34   2.0000      -5.767007      -156.9283
  35   2.0000      -5.762648      -156.8096
  36   2.0000      -5.762240      -156.7985
  37   2.0000      -4.744030      -129.0916
  38   2.0000      -4.743936      -129.0891
  39   2.0000      -4.743705      -129.0828
  40   2.0000      -4.743520      -129.0777
  41   2.0000      -4.742944      -129.0621
  42   2.0000      -4.742090      -129.0388
  43   2.0000      -1.053123       -28.6569
  44   2.0000      -1.052801       -28.6482
  45   2.0000      -1.013362       -27.5750
  46   2.0000      -1.013258       -27.5722
  47   2.0000      -0.804365       -21.8879
  48   2.0000      -0.756895       -20.5961
  49   2.0000      -0.743341       -20.2273
  50   2.0000      -0.724058       -19.7026
  51   2.0000      -0.723384       -19.6843
  52   2.0000      -0.711019       -19.3478
  53   2.0000      -0.691153       -18.8072
  54   2.0000      -0.676843       -18.4178
  55   2.0000      -0.634223       -17.2581
  56   2.0000      -0.624841       -17.0028
  57   2.0000      -0.601432       -16.3658
  58   2.0000      -0.599155       -16.3038
  59   2.0000      -0.590551       -16.0697
  60   2.0000      -0.519317       -14.1313
  61   2.0000      -0.513402       -13.9704
  62   2.0000      -0.491164       -13.3652
  63   2.0000      -0.486252       -13.2316
  64   2.0000      -0.478932       -13.0324
  65   2.0000      -0.460709       -12.5365
  66   2.0000      -0.454059       -12.3556
  67   2.0000      -0.450249       -12.2519
  68   2.0000      -0.445681       -12.1276
  69   2.0000      -0.433688       -11.8012
  70   2.0000      -0.422155       -11.4874
  71   2.0000      -0.408965       -11.1285
  72   2.0000      -0.407286       -11.0828
  73   2.0000      -0.404310       -11.0018
  74   2.0000      -0.398899       -10.8546
  75   2.0000      -0.391877       -10.6635
  76   2.0000      -0.385894       -10.5007
  77   2.0000      -0.365945        -9.9579
  78   2.0000      -0.364857        -9.9283
  79   2.0000      -0.355561        -9.6753
  80   2.0000      -0.354552        -9.6479
  81   2.0000      -0.353009        -9.6059
  82   2.0000      -0.352013        -9.5787
  83   2.0000      -0.349212        -9.5025
  84   2.0000      -0.345744        -9.4082
  85   2.0000      -0.330541        -8.9945
  86   2.0000      -0.322054        -8.7635
  87   2.0000      -0.309820        -8.4306
  88   2.0000      -0.305191        -8.3047
  89   2.0000      -0.300532        -8.1779
  90   2.0000      -0.298463        -8.1216
  91   2.0000      -0.291310        -7.9270
  92   2.0000      -0.288416        -7.8482
  93   2.0000      -0.282881        -7.6976
  94   2.0000      -0.274017        -7.4564
  95   2.0000      -0.247932        -6.7466
  96   2.0000      -0.238646        -6.4939
  97   2.0000      -0.233508        -6.3541
  98   2.0000      -0.227597        -6.1932
  99   2.0000      -0.224003        -6.0954
 100   2.0000      -0.221615        -6.0304
 101   0.0000      -0.052228        -1.4212
 102   0.0000      -0.036658        -0.9975
 103   0.0000      -0.011275        -0.3068
 104   0.0000      -0.003386        -0.0921
 105   0.0000       0.011601         0.3157

MULLIKEN ATOMIC CHARGES
-----------------------
   0 C :   -0.484160
   1 C :   -0.145072
   2 O :   -0.298023
   3 P :    0.674697
   4 S :   -0.515809
   5 O :   -0.307054
   6 C :   -0.159803
   7 C :   -0.462728
   8 S :   -0.130953
   9 C :   -0.248366
  10 S :   -0.127456
  11 P :    0.699562
  12 S :   -0.511160
  13 O :   -0.302798
  14 C :   -0.148413
  15 C :   -0.484547
  16 O :   -0.327464
  17 C :   -0.152768
  18 C :   -0.474546
  19 H :    0.171802
  20 H :    0.165974
  21 H :    0.169971
  22 H :    0.178665
  23 H :    0.176375
  24 H :    0.173958
  25 H :    0.177454
  26 H :    0.165734
  27 H :    0.173834
  28 H :    0.170936
  29 H :    0.234154
  30 H :    0.228583
  31 H :    0.174033
  32 H :    0.174781
  33 H :    0.169319
  34 H :    0.171573
  35 H :    0.169548
  36 H :    0.176257
  37 H :    0.175198
  38 H :    0.167617
  39 H :    0.172173
  40 H :    0.168921
Sum of atomic charges:   -0.0000000

LOEWDIN ATOMIC CHARGES
----------------------
   0 C :   -0.401697
   1 C :    0.018949
   2 O :   -0.689324
   3 P :    0.384345
   4 S :   -0.164084
   5 O :   -0.669900
   6 C :    0.031171
   7 C :   -0.409928
   8 S :    0.147842
   9 C :   -0.414462
  10 S :    0.173759
  11 P :    0.391521
  12 S :   -0.145599
  13 O :   -0.675552
  14 C :    0.025649
  15 C :   -0.410060
  16 O :   -0.686020
  17 C :    0.027635
  18 C :   -0.402568
  19 H :    0.168557
  20 H :    0.162517
  21 H :    0.163651
  22 H :    0.189871
  23 H :    0.181906
  24 H :    0.179960
  25 H :    0.193348
  26 H :    0.161809
  27 H :    0.168462
  28 H :    0.164487
  29 H :    0.198137
  30 H :    0.198814
  31 H :    0.181690
  32 H :    0.190575
  33 H :    0.163522
  34 H :    0.168259
  35 H :    0.164407
  36 H :    0.181567
  37 H :    0.190957
  38 H :    0.162656
  39 H :    0.168787
  40 H :    0.164385

  Mayer bond orders larger than 0.100000
B(  0-C ,  1-C ) :   0.9147 B(  0-C , 19-H ) :   0.9579 B(  0-C , 20-H ) :   0.9602
B(  0-C , 21-H ) :   0.9718 B(  1-C ,  2-O ) :   0.7722 B(  1-C , 22-H ) :   0.9527
B(  1-C , 23-H ) :   0.9558 B(  2-O ,  3-P ) :   1.1331 B(  3-P ,  4-S ) :   1.7270
B(  3-P ,  5-O ) :   1.1004 B(  3-P ,  8-S ) :   1.0852 B(  5-O ,  6-C ) :   0.7930
B(  6-C ,  7-C ) :   0.9188 B(  6-C , 24-H ) :   0.9598 B(  6-C , 25-H ) :   0.9482
B(  7-C , 26-H ) :   0.9561 B(  7-C , 27-H ) :   0.9553 B(  7-C , 28-H ) :   0.9670
B(  8-S ,  9-C ) :   0.9144 B(  9-C , 10-S ) :   0.8924 B(  9-C , 29-H ) :   0.9007
B(  9-C , 30-H ) :   0.9019 B( 10-S , 11-P ) :   1.0930 B( 11-P , 12-S ) :   1.7089
B( 11-P , 13-O ) :   1.0760 B( 11-P , 16-O ) :   1.1847 B( 13-O , 14-C ) :   0.7865
B( 14-C , 15-C ) :   0.9254 B( 14-C , 31-H ) :   0.9597 B( 14-C , 32-H ) :   0.9515
B( 15-C , 33-H ) :   0.9549 B( 15-C , 34-H ) :   0.9552 B( 15-C , 35-H ) :   0.9656
B( 16-O , 17-C ) :   0.8024 B( 17-C , 18-C ) :   0.9151 B( 17-C , 36-H ) :   0.9617
B( 17-C , 37-H ) :   0.9512 B( 18-C , 38-H ) :   0.9590 B( 18-C , 39-H ) :   0.9554
B( 18-C , 40-H ) :   0.9699

Dispersion correction           -0.021327502
FINAL SINGLE POINT ENERGY     -2932.468798782949

DIPOLE MOMENT
-------------

Method             : SCF
Type of density    : Electron Density
Multiplicity       :   1
Irrep              :   0
Energy             : -2932.4939676118924581 Eh
Relativity type    :
Basis              : AO
                                X                 Y                 Z
Electronic contribution:     -3.100069856     -10.385169566       2.352784011
Nuclear contribution   :      2.924069073      11.570144623      -3.027653786
                        -----------------------------------------
Total Dipole Moment    :     -0.176000783       1.184975056      -0.674869775
                        -----------------------------------------
Magnitude (a.u.)       :      1.374987772
Magnitude (Debye)      :      3.494941169

Rotational constants in cm-1:             0.014467             0.004306             0.004097
Rotational constants in MHz :           433.703458           129.079988           122.836204

                             ****ORCA TERMINATED NORMALLY****
TOTAL RUN TIME: 0 days 0 hours 1 minutes 41 seconds 390 msec
