                         Program Version 6.0.0  -   RELEASE  -
|  1> ! r2scan-3c def2/J RI DEFGRID2 scfconv6 printgap
|  2> %output
|  3>     printlevel normal
|  4> end
|  5> * xyz 0 1
|  6> C 1.1344594228 -2.8680218408 1.1268879932
|  7> C 2.1643598228 -1.832101216 1.5314504506
|  8> O 1.7995636479 -0.5245454081 1.0460514477
|  9> P 2.4372457283 0.138997379 -0.2614865545
| 10> S 3.1226661468 -1.1182751286 -1.5899715524
| 11> O 3.6146651265 1.0846247149 0.2275060716
| 12> C 3.4722920701 2.3600627039 0.8942903017
| 13> C 2.7407137714 2.2495958965 2.2156003912
| 14> S 0.9031133195 1.4786368166 -0.8233497717
| 15> C 0.1222957649 0.4250522296 -2.0717861441
| 16> S -0.6033941817 -1.0841244318 -1.383822866
| 17> P -1.9828684684 -0.1372627689 -0.0859884459
| 18> S -2.7898690346 1.5188548728 -0.7688305925
| 19> O -1.1568935439 -0.0079787687 1.2554119672
| 20> C -1.3993481922 1.046067411 2.2071756633
| 21> C -2.7176833381 0.8450600739 2.9238333567
| 22> O -2.9596668765 -1.3299840638 0.2972529397
| 23> C -3.8864980091 -1.9169117231 -0.6373033473
| 24> C -5.2295017488 -1.213460758 -0.5922835081
| 25> H 1.15542402 -3.0194030566 0.0496411813
| 26> H 1.3588436332 -3.8073431425 1.6219033079
| 27> H 0.1393614383 -2.5356165032 1.4134467299
| 28> H 3.1534981829 -2.0971410826 1.1458597959
| 29> H 2.2091539174 -1.7210143309 2.6164294824
| 30> H 4.504266853 2.6880861547 1.0291845717
| 31> H 2.9516947869 3.0431133354 0.2179202799
| 32> H 1.7186269766 1.9155073972 2.0478402556
| 33> H 3.2437977609 1.5407841172 2.8683948911
| 34> H 2.7202491883 3.2247150426 2.6920204873
| 35> H 0.8673783665 0.1040620654 -2.7990392628
| 36> H -0.6561520697 1.0316449582 -2.534162197
| 37> H -0.5512290762 0.984741205 2.8907218745
| 38> H -1.3852624445 2.0054180677 1.6791312123
| 39> H -2.8413273741 1.6150613573 3.6787135805
| 40> H -3.5358047709 0.9146044035 2.2076207284
| 41> H -2.7453639456 -0.1344405284 3.3935803716
| 42> H -3.456213408 -1.8816389106 -1.64246758
| 43> H -3.9720869056 -2.956909765 -0.3166568641
| 44> H -5.631814026 -1.2400211678 0.4165933619
| 45> H -5.1239539816 -0.1757307336 -0.9007737521
| 46> H -5.9175558065 -1.7138509139 -1.2659934269
| 47> *
| 48>
| 49>                          ****END OF INPUT****

CARTESIAN COORDINATES (ANGSTROEM)
---------------------------------
  C      1.134459   -2.868022    1.126888
  C      2.164360   -1.832101    1.531450
  O      1.799564   -0.524545    1.046051
  P      2.437246    0.138997   -0.261487
  S      3.122666   -1.118275   -1.589972
  O      3.614665    1.084625    0.227506
  C      3.472292    2.360063    0.894290
  C      2.740714    2.249596    2.215600
  S      0.903113    1.478637   -0.823350
  C      0.122296    0.425052   -2.071786
  S     -0.603394   -1.084124   -1.383823
  P     -1.982868   -0.137263   -0.085988
  S     -2.789869    1.518855   -0.768831
  O     -1.156894   -0.007979    1.255412
  C     -1.399348    1.046067    2.207176
  C     -2.717683    0.845060    2.923833
  O     -2.959667   -1.329984    0.297253
  C     -3.886498   -1.916912   -0.637303
  C     -5.229502   -1.213461   -0.592284
  H      1.155424   -3.019403    0.049641
  H      1.358844   -3.807343    1.621903
  H      0.139361   -2.535617    1.413447
  H      3.153498   -2.097141    1.145860
  H      2.209154   -1.721014    2.616429
  H      4.504267    2.688086    1.029185
  H      2.951695    3.043113    0.217920
  H      1.718627    1.915507    2.047840
  H      3.243798    1.540784    2.868395
  H      2.720249    3.224715    2.692020
  H      0.867378    0.104062   -2.799039
  H     -0.656152    1.031645   -2.534162
  H     -0.551229    0.984741    2.890722
  H     -1.385262    2.005418    1.679131
  H     -2.841327    1.615061    3.678714
  H     -3.535805    0.914604    2.207621
  H     -2.745364   -0.134441    3.393580
  H     -3.456213   -1.881639   -1.642468
  H     -3.972087   -2.956910   -0.316657
  H     -5.631814   -1.240021    0.416593
  H     -5.123954   -0.175731   -0.900774
  H     -5.917556   -1.713851   -1.265993

 Total Charge           Charge          ....    0
 Multiplicity           Mult            ....    1
 Number of Electrons    NEL             ....  202
 Basis Dimension        Dim             ....  539

ORBITAL ENERGIES
----------------

  NO   OCC          E(Eh)            E(eV)
   0   2.0000     -88.577198     -2410.3081
   1   2.0000     -88.575694     -2410.2672
   2   2.0000     -88.523029     -2408.8341
   3   2.0000     -88.515872     -2408.6393
   4   2.0000     -76.916073     -2092.9928
   5   2.0000     -76.912253     -2092.8888
   6   2.0000     -18.995384      -516.8907
   7   2.0000     -18.990079      -516.7463
   8   2.0000     -18.988968      -516.7161
   9   2.0000     -18.983113      -516.5568
  10   2.0000     -10.107637      -275.0428
  11   2.0000     -10.105989      -274.9979
  12   2.0000     -10.103360      -274.9264
  13   2.0000     -10.099088      -274.8102
  14   2.0000     -10.093790      -274.6660
  15   2.0000     -10.037612      -273.1373
  16   2.0000     -10.029860      -272.9264
  17   2.0000     -10.028022      -272.8763
  18   2.0000     -10.018783      -272.6249
  19   2.0000      -7.871741      -214.2010
  20   2.0000      -7.870029      -214.1544
  21   2.0000      -7.817879      -212.7353
  22   2.0000      -7.810787      -212.5423
  23   2.0000      -6.594503      -179.4455
  24   2.0000      -6.590402      -179.3340
  25   2.0000      -5.818654      -158.3336
  26   2.0000      -5.816924      -158.2866
  27   2.0000      -5.815591      -158.2503
  28   2.0000      -5.813846      -158.2028
  29   2.0000      -5.808765      -158.0645
  30   2.0000      -5.807150      -158.0206
  31   2.0000      -5.765502      -156.8873
  32   2.0000      -5.758617      -156.6999
  33   2.0000      -5.758101      -156.6859
  34   2.0000      -5.757956      -156.6820
  35   2.0000      -5.751316      -156.5013
  36   2.0000      -5.750332      -156.4745
  37   2.0000      -4.739912      -128.9796
  38   2.0000      -4.739454      -128.9671
  39   2.0000      -4.738310      -128.9360
  40   2.0000      -4.736208      -128.8788
  41   2.0000      -4.735138      -128.8496
  42   2.0000      -4.734088      -128.8211
  43   2.0000      -1.052500       -28.6400
  44   2.0000      -1.041951       -28.3529
  45   2.0000      -1.012900       -27.5624
  46   2.0000      -1.004943       -27.3459
  47   2.0000      -0.804398       -21.8888
  48   2.0000      -0.759515       -20.6675
  49   2.0000      -0.751369       -20.4458
  50   2.0000      -0.733273       -19.9534
  51   2.0000      -0.731961       -19.9177
  52   2.0000      -0.709816       -19.3151
  53   2.0000      -0.686558       -18.6822
  54   2.0000      -0.671503       -18.2725
  55   2.0000      -0.631389       -17.1810
  56   2.0000      -0.622918       -16.9505
  57   2.0000      -0.612116       -16.6565
  58   2.0000      -0.604048       -16.4370
  59   2.0000      -0.591301       -16.0901
  60   2.0000      -0.528681       -14.3861
  61   2.0000      -0.519599       -14.1390
  62   2.0000      -0.497311       -13.5325
  63   2.0000      -0.493821       -13.4376
  64   2.0000      -0.474969       -12.9246
  65   2.0000      -0.464693       -12.6450
  66   2.0000      -0.460169       -12.5218
  67   2.0000      -0.453670       -12.3450
  68   2.0000      -0.447376       -12.1737
  69   2.0000      -0.425083       -11.5671
  70   2.0000      -0.424433       -11.5494
  71   2.0000      -0.418182       -11.3793
  72   2.0000      -0.410521       -11.1708
  73   2.0000      -0.409035       -11.1304
  74   2.0000      -0.397482       -10.8160
  75   2.0000      -0.388981       -10.5847
  76   2.0000      -0.383129       -10.4255
  77   2.0000      -0.371738       -10.1155
  78   2.0000      -0.370137       -10.0719
  79   2.0000      -0.367523       -10.0008
  80   2.0000      -0.363064        -9.8795
  81   2.0000      -0.360632        -9.8133
  82   2.0000      -0.357666        -9.7326
  83   2.0000      -0.352376        -9.5886
  84   2.0000      -0.350265        -9.5312
  85   2.0000      -0.336097        -9.1457
  86   2.0000      -0.322920        -8.7871
  87   2.0000      -0.315684        -8.5902
  88   2.0000      -0.313691        -8.5360
  89   2.0000      -0.303794        -8.2666
  90   2.0000      -0.293201        -7.9784
  91   2.0000      -0.292987        -7.9726
  92   2.0000      -0.288471        -7.8497
  93   2.0000      -0.282206        -7.6792
  94   2.0000      -0.271512        -7.3882
  95   2.0000      -0.244215        -6.6454
  96   2.0000      -0.230295        -6.2666
  97   2.0000      -0.227329        -6.1859
  98   2.0000      -0.219770        -5.9803
  99   2.0000      -0.212521        -5.7830
 100   2.0000      -0.208629        -5.6771
 101   0.0000      -0.048673        -1.3245
 102   0.0000      -0.026801        -0.7293
 103   0.0000      -0.003030        -0.0825
 104   0.0000       0.006359         0.1730
 105   0.0000       0.008011         0.2180

MULLIKEN ATOMIC CHARGES
-----------------------
   0 C :   -0.470925
   1 C :   -0.132173
   2 O :   -0.239392
   3 P :    0.645368
   4 S :   -0.455530
   5 O :   -0.261393
   6 C :   -0.172727
   7 C :   -0.426791
   8 S :   -0.162219
   9 C :   -0.236403
  10 S :   -0.129218
  11 P :    0.686723
  12 S :   -0.484001
  13 O :   -0.245770
  14 C :   -0.160460
  15 C :   -0.452457
  16 O :   -0.300441
  17 C :   -0.138338
  18 C :   -0.453220
  19 H :    0.180333
  20 H :    0.139177
  21 H :    0.163489
  22 H :    0.161229
  23 H :    0.143545
  24 H :    0.156135
  25 H :    0.164813
  26 H :    0.160445
  27 H :    0.156003
  28 H :    0.152517
  29 H :    0.211597
  30 H :    0.210784
  31 H :    0.152986
  32 H :    0.178123
  33 H :    0.147053
  34 H :    0.170189
  35 H :    0.155685
  36 H :    0.154627
  37 H :    0.151202
  38 H :    0.151803
  39 H :    0.181721
  40 H :    0.145913
Sum of atomic charges:    0.0000000

LOEWDIN ATOMIC CHARGES
----------------------
   0 C :   -0.406452
   1 C :    0.022840
   2 O :   -0.686063
   3 P :    0.387479
   4 S :   -0.102138
   5 O :   -0.662688
   6 C :    0.020695
   7 C :   -0.401018
   8 S :    0.164964
   9 C :   -0.418047
  10 S :    0.169405
  11 P :    0.378546
  12 S :   -0.130273
  13 O :   -0.667247
  14 C :    0.012863
  15 C :   -0.399214
  16 O :   -0.659176
  17 C :    0.022489
  18 C :   -0.402024
  19 H :    0.167152
  20 H :    0.155192
  21 H :    0.164022
  22 H :    0.178297
  23 H :    0.174556
  24 H :    0.183860
  25 H :    0.174892
  26 H :    0.165084
  27 H :    0.161685
  28 H :    0.160240
  29 H :    0.191836
  30 H :    0.190509
  31 H :    0.179464
  32 H :    0.181538
  33 H :    0.159489
  34 H :    0.166197
  35 H :    0.160030
  36 H :    0.175818
  37 H :    0.179550
  38 H :    0.158225
  39 H :    0.169098
  40 H :    0.158322

  Mayer bond orders larger than 0.100000
B(  0-C ,  1-C ) :   0.9437 B(  0-C , 19-H ) :   0.9623 B(  0-C , 20-H ) :   0.9621
B(  0-C , 21-H ) :   0.9690 B(  1-C ,  2-O ) :   0.7761 B(  1-C , 22-H ) :   0.9629
B(  1-C , 23-H ) :   0.9641 B(  2-O ,  3-P ) :   1.0640 B(  3-P ,  4-S ) :   1.8307
B(  3-P ,  5-O ) :   1.1381 B(  3-P ,  8-S ) :   1.0406 B(  5-O ,  6-C ) :   0.8034
B(  6-C ,  7-C ) :   0.9263 B(  6-C , 24-H ) :   0.9557 B(  6-C , 25-H ) :   0.9690
B(  7-C , 26-H ) :   0.9568 B(  7-C , 27-H ) :   0.9703 B(  7-C , 28-H ) :   0.9632
B(  8-S ,  9-C ) :   0.9022 B(  9-C , 10-S ) :   0.8981 B(  9-C , 29-H ) :   0.9107
B(  9-C , 30-H ) :   0.9116 B( 10-S , 11-P ) :   1.0870 B( 11-P , 12-S ) :   1.7382
B( 11-P , 13-O ) :   1.1466 B( 11-P , 16-O ) :   1.0658 B( 13-O , 14-C ) :   0.7779
B( 14-C , 15-C ) :   0.9284 B( 14-C , 31-H ) :   0.9598 B( 14-C , 32-H ) :   0.9602
B( 15-C , 33-H ) :   0.9632 B( 15-C , 34-H ) :   0.9590 B( 15-C , 35-H ) :   0.9735
B( 16-O , 17-C ) :   0.7842 B( 17-C , 18-C ) :   0.9541 B( 17-C , 36-H ) :   0.9629
B( 17-C , 37-H ) :   0.9629 B( 18-C , 38-H ) :   0.9744 B( 18-C , 39-H ) :   0.9562
B( 18-C , 40-H ) :   0.9645

Dispersion correction           -0.022398979
FINAL SINGLE POINT ENERGY     -2932.459065122941

DIPOLE MOMENT
-------------

Method             : SCF
Type of density    : Electron Density
Multiplicity       :   1
Irrep              :   0
Energy             : -2932.4830971655110261 Eh
Relativity type    :
Basis              : AO
                                X                 Y                 Z
Electronic contribution:     10.855931133       2.160141886     -18.199658187
Nuclear contribution   :    -11.470317220      -2.114485741      19.726318259
                        -----------------------------------------
Total Dipole Moment    :     -0.614386087       0.045656146       1.526660072
                        -----------------------------------------
Magnitude (a.u.)       :      1.646282395
Magnitude (Debye)      :      4.184517298

Rotational constants in cm-1:             0.012383             0.005503             0.005107
Rotational constants in MHz :           371.235858           164.964015           153.103631

                             ****ORCA TERMINATED NORMALLY****
TOTAL RUN TIME: 0 days 0 hours 1 minutes 23 seconds 673 msec
