                         Program Version 6.0.0  -   RELEASE  -
|  1> ! r2scan-3c def2/J RI DEFGRID2 scfconv6 printgap
|  2> %output
|  3>     printlevel normal
|  4> end
|  5> %cpcm
|  6>     smd true
|  7>     smdsolvent "water"
|  8> end
|  9> * xyz 0 1
| 10> C 1.1344594228 -2.8680218408 1.1268879932
| 11> C 2.1643598228 -1.832101216 1.5314504506
| 12> O 1.7995636479 -0.5245454081 1.0460514477
| 13> P 2.4372457283 0.138997379 -0.2614865545
| 14> S 3.1226661468 -1.1182751286 -1.5899715524
| 15> O 3.6146651265 1.0846247149 0.2275060716
| 16> C 3.4722920701 2.3600627039 0.8942903017
| 17> C 2.7407137714 2.2495958965 2.2156003912
| 18> S 0.9031133195 1.4786368166 -0.8233497717
| 19> C 0.1222957649 0.4250522296 -2.0717861441
| 20> S -0.6033941817 -1.0841244318 -1.383822866
| 21> P -1.9828684684 -0.1372627689 -0.0859884459
| 22> S -2.7898690346 1.5188548728 -0.7688305925
| 23> O -1.1568935439 -0.0079787687 1.2554119672
| 24> C -1.3993481922 1.046067411 2.2071756633
| 25> C -2.7176833381 0.8450600739 2.9238333567
| 26> O -2.9596668765 -1.3299840638 0.2972529397
| 27> C -3.8864980091 -1.9169117231 -0.6373033473
| 28> C -5.2295017488 -1.213460758 -0.5922835081
| 29> H 1.15542402 -3.0194030566 0.0496411813
| 30> H 1.3588436332 -3.8073431425 1.6219033079
| 31> H 0.1393614383 -2.5356165032 1.4134467299
| 32> H 3.1534981829 -2.0971410826 1.1458597959
| 33> H 2.2091539174 -1.7210143309 2.6164294824
| 34> H 4.504266853 2.6880861547 1.0291845717
| 35> H 2.9516947869 3.0431133354 0.2179202799
| 36> H 1.7186269766 1.9155073972 2.0478402556
| 37> H 3.2437977609 1.5407841172 2.8683948911
| 38> H 2.7202491883 3.2247150426 2.6920204873
| 39> H 0.8673783665 0.1040620654 -2.7990392628
| 40> H -0.6561520697 1.0316449582 -2.534162197
| 41> H -0.5512290762 0.984741205 2.8907218745
| 42> H -1.3852624445 2.0054180677 1.6791312123
| 43> H -2.8413273741 1.6150613573 3.6787135805
| 44> H -3.5358047709 0.9146044035 2.2076207284
| 45> H -2.7453639456 -0.1344405284 3.3935803716
| 46> H -3.456213408 -1.8816389106 -1.64246758
| 47> H -3.9720869056 -2.956909765 -0.3166568641
| 48> H -5.631814026 -1.2400211678 0.4165933619
| 49> H -5.1239539816 -0.1757307336 -0.9007737521
| 50> H -5.9175558065 -1.7138509139 -1.2659934269
| 51> *
| 52>
| 53>                          ****END OF INPUT****

CARTESIAN COORDINATES (ANGSTROEM)
---------------------------------
  C      1.134459   -2.868022    1.126888
  C      2.164360   -1.832101    1.531450
  O      1.799564   -0.524545    1.046051
  P      2.437246    0.138997   -0.261487
  S      3.122666   -1.118275   -1.589972
  O      3.614665    1.084625    0.227506
  C      3.472292    2.360063    0.894290
  C      2.740714    2.249596    2.215600
  S      0.903113    1.478637   -0.823350
  C      0.122296    0.425052   -2.071786
  S     -0.603394   -1.084124   -1.383823
  P     -1.982868   -0.137263   -0.085988
  S     -2.789869    1.518855   -0.768831
  O     -1.156894   -0.007979    1.255412
  C     -1.399348    1.046067    2.207176
  C     -2.717683    0.845060    2.923833
  O     -2.959667   -1.329984    0.297253
  C     -3.886498   -1.916912   -0.637303
  C     -5.229502   -1.213461   -0.592284
  H      1.155424   -3.019403    0.049641
  H      1.358844   -3.807343    1.621903
  H      0.139361   -2.535617    1.413447
  H      3.153498   -2.097141    1.145860
  H      2.209154   -1.721014    2.616429
  H      4.504267    2.688086    1.029185
  H      2.951695    3.043113    0.217920
  H      1.718627    1.915507    2.047840
  H      3.243798    1.540784    2.868395
  H      2.720249    3.224715    2.692020
  H      0.867378    0.104062   -2.799039
  H     -0.656152    1.031645   -2.534162
  H     -0.551229    0.984741    2.890722
  H     -1.385262    2.005418    1.679131
  H     -2.841327    1.615061    3.678714
  H     -3.535805    0.914604    2.207621
  H     -2.745364   -0.134441    3.393580
  H     -3.456213   -1.881639   -1.642468
  H     -3.972087   -2.956910   -0.316657
  H     -5.631814   -1.240021    0.416593
  H     -5.123954   -0.175731   -0.900774
  H     -5.917556   -1.713851   -1.265993

 Total Charge           Charge          ....    0
 Multiplicity           Mult            ....    1
 Number of Electrons    NEL             ....  202
 Basis Dimension        Dim             ....  539

ORBITAL ENERGIES
----------------

  NO   OCC          E(Eh)            E(eV)
   0   2.0000     -88.581079     -2410.4137
   1   2.0000     -88.578351     -2410.3395
   2   2.0000     -88.528040     -2408.9704
   3   2.0000     -88.527225     -2408.9483
   4   2.0000     -76.919616     -2093.0892
   5   2.0000     -76.919544     -2093.0872
   6   2.0000     -18.996037      -516.9084
   7   2.0000     -18.992748      -516.8190
   8   2.0000     -18.992318      -516.8072
   9   2.0000     -18.987604      -516.6790
  10   2.0000     -10.106569      -275.0137
  11   2.0000     -10.093682      -274.6630
  12   2.0000     -10.091717      -274.6096
  13   2.0000     -10.089189      -274.5408
  14   2.0000     -10.087551      -274.4962
  15   2.0000     -10.020946      -272.6838
  16   2.0000     -10.018290      -272.6115
  17   2.0000     -10.016692      -272.5680
  18   2.0000     -10.014175      -272.4995
  19   2.0000      -7.875573      -214.3052
  20   2.0000      -7.872736      -214.2280
  21   2.0000      -7.823150      -212.8787
  22   2.0000      -7.822506      -212.8612
  23   2.0000      -6.598009      -179.5410
  24   2.0000      -6.597801      -179.5353
  25   2.0000      -5.822490      -158.4380
  26   2.0000      -5.819612      -158.3597
  27   2.0000      -5.819402      -158.3540
  28   2.0000      -5.816550      -158.2764
  29   2.0000      -5.812625      -158.1696
  30   2.0000      -5.809881      -158.0949
  31   2.0000      -5.770729      -157.0295
  32   2.0000      -5.770220      -157.0157
  33   2.0000      -5.763367      -156.8292
  34   2.0000      -5.763227      -156.8254
  35   2.0000      -5.762965      -156.8182
  36   2.0000      -5.762166      -156.7965
  37   2.0000      -4.743551      -129.0786
  38   2.0000      -4.743378      -129.0739
  39   2.0000      -4.742969      -129.0627
  40   2.0000      -4.742511      -129.0503
  41   2.0000      -4.741874      -129.0329
  42   2.0000      -4.741608      -129.0257
  43   2.0000      -1.053613       -28.6703
  44   2.0000      -1.045548       -28.4508
  45   2.0000      -1.013358       -27.5749
  46   2.0000      -1.008115       -27.4322
  47   2.0000      -0.806180       -21.9373
  48   2.0000      -0.756167       -20.5764
  49   2.0000      -0.744252       -20.2521
  50   2.0000      -0.726322       -19.7642
  51   2.0000      -0.722574       -19.6622
  52   2.0000      -0.708925       -19.2908
  53   2.0000      -0.689259       -18.7557
  54   2.0000      -0.676683       -18.4135
  55   2.0000      -0.629390       -17.1266
  56   2.0000      -0.620526       -16.8854
  57   2.0000      -0.606126       -16.4935
  58   2.0000      -0.596363       -16.2279
  59   2.0000      -0.589071       -16.0294
  60   2.0000      -0.524725       -14.2785
  61   2.0000      -0.516045       -14.0423
  62   2.0000      -0.493379       -13.4255
  63   2.0000      -0.489892       -13.3306
  64   2.0000      -0.473687       -12.8897
  65   2.0000      -0.460219       -12.5232
  66   2.0000      -0.454976       -12.3805
  67   2.0000      -0.448811       -12.2128
  68   2.0000      -0.442387       -12.0380
  69   2.0000      -0.422915       -11.5081
  70   2.0000      -0.419554       -11.4166
  71   2.0000      -0.414340       -11.2748
  72   2.0000      -0.407660       -11.0930
  73   2.0000      -0.404035       -10.9943
  74   2.0000      -0.393975       -10.7206
  75   2.0000      -0.385920       -10.5014
  76   2.0000      -0.383744       -10.4422
  77   2.0000      -0.369290       -10.0489
  78   2.0000      -0.362221        -9.8565
  79   2.0000      -0.358400        -9.7526
  80   2.0000      -0.353614        -9.6223
  81   2.0000      -0.352758        -9.5990
  82   2.0000      -0.352252        -9.5853
  83   2.0000      -0.346861        -9.4386
  84   2.0000      -0.345627        -9.4050
  85   2.0000      -0.333404        -9.0724
  86   2.0000      -0.317536        -8.6406
  87   2.0000      -0.313745        -8.5374
  88   2.0000      -0.306561        -8.3419
  89   2.0000      -0.300643        -8.1809
  90   2.0000      -0.295174        -8.0321
  91   2.0000      -0.291343        -7.9278
  92   2.0000      -0.286858        -7.8058
  93   2.0000      -0.282579        -7.6894
  94   2.0000      -0.272855        -7.4248
  95   2.0000      -0.247001        -6.7212
  96   2.0000      -0.236921        -6.4469
  97   2.0000      -0.234294        -6.3755
  98   2.0000      -0.226366        -6.1597
  99   2.0000      -0.220940        -6.0121
 100   2.0000      -0.218792        -5.9536
 101   0.0000      -0.052627        -1.4320
 102   0.0000      -0.032462        -0.8833
 103   0.0000      -0.005833        -0.1587
 104   0.0000       0.001729         0.0470
 105   0.0000       0.007889         0.2147

MULLIKEN ATOMIC CHARGES
-----------------------
   0 C :   -0.494096
   1 C :   -0.128559
   2 O :   -0.260319
   3 P :    0.659322
   4 S :   -0.513455
   5 O :   -0.299261
   6 C :   -0.167120
   7 C :   -0.459909
   8 S :   -0.166007
   9 C :   -0.247943
  10 S :   -0.140334
  11 P :    0.717003
  12 S :   -0.522471
  13 O :   -0.281551
  14 C :   -0.146027
  15 C :   -0.493611
  16 O :   -0.329712
  17 C :   -0.130662
  18 C :   -0.491263
  19 H :    0.172101
  20 H :    0.164803
  21 H :    0.164397
  22 H :    0.167371
  23 H :    0.174136
  24 H :    0.179774
  25 H :    0.177102
  26 H :    0.161726
  27 H :    0.171638
  28 H :    0.177378
  29 H :    0.231517
  30 H :    0.233663
  31 H :    0.180391
  32 H :    0.179456
  33 H :    0.172802
  34 H :    0.167219
  35 H :    0.170374
  36 H :    0.164389
  37 H :    0.177038
  38 H :    0.167630
  39 H :    0.171195
  40 H :    0.169872
Sum of atomic charges:    0.0000000

LOEWDIN ATOMIC CHARGES
----------------------
   0 C :   -0.408827
   1 C :    0.027969
   2 O :   -0.695594
   3 P :    0.389255
   4 S :   -0.144304
   5 O :   -0.683444
   6 C :    0.027032
   7 C :   -0.400851
   8 S :    0.166165
   9 C :   -0.412743
  10 S :    0.163909
  11 P :    0.382834
  12 S :   -0.154169
  13 O :   -0.684586
  14 C :    0.018633
  15 C :   -0.402701
  16 O :   -0.671641
  17 C :    0.028245
  18 C :   -0.406048
  19 H :    0.162250
  20 H :    0.164337
  21 H :    0.163393
  22 H :    0.180717
  23 H :    0.187350
  24 H :    0.194106
  25 H :    0.180432
  26 H :    0.164160
  27 H :    0.165661
  28 H :    0.170508
  29 H :    0.197625
  30 H :    0.197680
  31 H :    0.190929
  32 H :    0.182769
  33 H :    0.169039
  34 H :    0.162637
  35 H :    0.163915
  36 H :    0.180011
  37 H :    0.190666
  38 H :    0.162399
  39 H :    0.162949
  40 H :    0.167335

  Mayer bond orders larger than 0.100000
B(  0-C ,  1-C ) :   0.9334 B(  0-C , 19-H ) :   0.9647 B(  0-C , 20-H ) :   0.9584
B(  0-C , 21-H ) :   0.9670 B(  1-C ,  2-O ) :   0.7632 B(  1-C , 22-H ) :   0.9610
B(  1-C , 23-H ) :   0.9545 B(  2-O ,  3-P ) :   1.0698 B(  3-P ,  4-S ) :   1.8024
B(  3-P ,  5-O ) :   1.1468 B(  3-P ,  8-S ) :   1.0611 B(  5-O ,  6-C ) :   0.7912
B(  6-C ,  7-C ) :   0.9156 B(  6-C , 24-H ) :   0.9453 B(  6-C , 25-H ) :   0.9590
B(  7-C , 26-H ) :   0.9535 B(  7-C , 27-H ) :   0.9692 B(  7-C , 28-H ) :   0.9567
B(  8-S ,  9-C ) :   0.8889 B(  9-C , 10-S ) :   0.8896 B(  9-C , 29-H ) :   0.9052
B(  9-C , 30-H ) :   0.9053 B( 10-S , 11-P ) :   1.0956 B( 11-P , 12-S ) :   1.7096
B( 11-P , 13-O ) :   1.1496 B( 11-P , 16-O ) :   1.0713 B( 13-O , 14-C ) :   0.7681
B( 14-C , 15-C ) :   0.9159 B( 14-C , 31-H ) :   0.9491 B( 14-C , 32-H ) :   0.9559
B( 15-C , 33-H ) :   0.9572 B( 15-C , 34-H ) :   0.9594 B( 15-C , 35-H ) :   0.9718
B( 16-O , 17-C ) :   0.7734 B( 17-C , 18-C ) :   0.9435 B( 17-C , 36-H ) :   0.9562
B( 17-C , 37-H ) :   0.9530 B( 18-C , 38-H ) :   0.9719 B( 18-C , 39-H ) :   0.9606
B( 18-C , 40-H ) :   0.9593

Dispersion correction           -0.022398979
FINAL SINGLE POINT ENERGY     -2932.469151183111

DIPOLE MOMENT
-------------

Method             : SCF
Type of density    : Electron Density
Multiplicity       :   1
Irrep              :   0
Energy             : -2932.4931832256806956 Eh
Relativity type    :
Basis              : AO
                                X                 Y                 Z
Electronic contribution:     10.666265674       2.239173044     -17.703974835
Nuclear contribution   :    -11.470317220      -2.114485741      19.726318259
                        -----------------------------------------
Total Dipole Moment    :     -0.804051547       0.124687303       2.022343423
                        -----------------------------------------
Magnitude (a.u.)       :      2.179889615
Magnitude (Debye)      :      5.540839065

Rotational constants in cm-1:             0.012383             0.005503             0.005107
Rotational constants in MHz :           371.235858           164.964015           153.103631

                             ****ORCA TERMINATED NORMALLY****
TOTAL RUN TIME: 0 days 0 hours 1 minutes 46 seconds 299 msec
