                         Program Version 6.0.0  -   RELEASE  -
|  1> ! r2scan-3c def2/J RI DEFGRID2 scfconv6 printgap
|  2> %output
|  3>     printlevel normal
|  4> end
|  5> * xyz 0 1
|  6> C 0.1728546507 0.3817296226 -0.5731720067
|  7> H 0.1936094423 0.3693457381 -1.666328183
|  8> C 1.2244638956 -0.5766048056 -0.02316439
|  9> F 2.4536461799 -0.2267492156 -0.4247830909
| 10> F 1.2442068293 -0.6191960587 1.3068857376
| 11> F 1.022202326 -1.8239027591 -0.4578737962
| 12> Cl 0.5342122608 2.0232259705 0.0118772755
| 13> Br -1.5717814031 -0.2382640607 0.0045210019
| 14> *
| 15>
| 16>                          ****END OF INPUT****

CARTESIAN COORDINATES (ANGSTROEM)
---------------------------------
  C      0.172855    0.381730   -0.573172
  H      0.193609    0.369346   -1.666328
  C      1.224464   -0.576605   -0.023164
  F      2.453646   -0.226749   -0.424783
  F      1.244207   -0.619196    1.306886
  F      1.022202   -1.823903   -0.457874
  Cl     0.534212    2.023226    0.011877
  Br    -1.571781   -0.238264    0.004521

 Total Charge           Charge          ....    0
 Multiplicity           Mult            ....    1
 Number of Electrons    NEL             ....   92
 Basis Dimension        Dim             ....  178

ORBITAL ENERGIES
----------------

  NO   OCC          E(Eh)            E(eV)
   0   2.0000    -482.257103    -13122.8829
   1   2.0000    -101.249978     -2755.1520
   2   2.0000     -62.328592     -1696.0472
   3   2.0000     -56.109279     -1526.8111
   4   2.0000     -56.106261     -1526.7290
   5   2.0000     -56.106189     -1526.7270
   6   2.0000     -24.539915      -667.7650
   7   2.0000     -24.538546      -667.7278
   8   2.0000     -24.537701      -667.7048
   9   2.0000     -10.311507      -280.5904
  10   2.0000     -10.194168      -277.3974
  11   2.0000      -9.405329      -255.9320
  12   2.0000      -8.660249      -235.6574
  13   2.0000      -7.152498      -194.6294
  14   2.0000      -7.141111      -194.3195
  15   2.0000      -7.140793      -194.3109
  16   2.0000      -6.469139      -176.0342
  17   2.0000      -6.453435      -175.6069
  18   2.0000      -6.453142      -175.5989
  19   2.0000      -2.566327       -69.8333
  20   2.0000      -2.562473       -69.7284
  21   2.0000      -2.562252       -69.7224
  22   2.0000      -2.550598       -69.4053
  23   2.0000      -2.550592       -69.4051
  24   2.0000      -1.301617       -35.4188
  25   2.0000      -1.210084       -32.9281
  26   2.0000      -1.208507       -32.8851
  27   2.0000      -0.885684       -24.1007
  28   2.0000      -0.784340       -21.3430
  29   2.0000      -0.724010       -19.7013
  30   2.0000      -0.640902       -17.4398
  31   2.0000      -0.581986       -15.8366
  32   2.0000      -0.579130       -15.7589
  33   2.0000      -0.545763       -14.8510
  34   2.0000      -0.469379       -12.7724
  35   2.0000      -0.452513       -12.3135
  36   2.0000      -0.446045       -12.1375
  37   2.0000      -0.435749       -11.8573
  38   2.0000      -0.404494       -11.0068
  39   2.0000      -0.400661       -10.9025
  40   2.0000      -0.396174       -10.7804
  41   2.0000      -0.386577       -10.5193
  42   2.0000      -0.318658        -8.6711
  43   2.0000      -0.312905        -8.5146
  44   2.0000      -0.288899        -7.8613
  45   2.0000      -0.286107        -7.7854
  46   0.0000      -0.079294        -2.1577
  47   0.0000      -0.039933        -1.0866
  48   0.0000       0.061668         1.6781
  49   0.0000       0.097445         2.6516
  50   0.0000       0.118378         3.2212

MULLIKEN ATOMIC CHARGES
-----------------------
   0 C :   -0.034957
   1 H :    0.214618
   2 C :    0.544456
   3 F :   -0.197559
   4 F :   -0.191730
   5 F :   -0.195717
   6 Cl:   -0.084260
   7 Br:   -0.054850
Sum of atomic charges:   -0.0000000

LOEWDIN ATOMIC CHARGES
----------------------
   0 C :   -0.359615
   1 H :    0.187856
   2 C :    0.442874
   3 F :   -0.203597
   4 F :   -0.197355
   5 F :   -0.203109
   6 Cl:    0.124709
   7 Br:    0.208236

  Mayer bond orders larger than 0.100000
B(  0-C ,  1-H ) :   0.9126 B(  0-C ,  2-C ) :   0.9501 B(  0-C ,  6-Cl) :   1.0351
B(  0-C ,  7-Br) :   1.0324 B(  2-C ,  3-F ) :   1.0227 B(  2-C ,  4-F ) :   1.0435
B(  2-C ,  5-F ) :   1.0243

Dispersion correction           -0.002404913
FINAL SINGLE POINT ENERGY     -3410.646074473609

DIPOLE MOMENT
-------------

Method             : SCF
Type of density    : Electron Density
Multiplicity       :   1
Irrep              :   0
Energy             : -3410.6550066014124241 Eh
Relativity type    :
Basis              : AO
                                X                 Y                 Z
Electronic contribution:     -9.881329959      -2.180533888       1.525880449
Nuclear contribution   :      9.685578886       2.317036935      -2.014319404
                        -----------------------------------------
Total Dipole Moment    :     -0.195751073       0.136503047      -0.488438955
                        -----------------------------------------
Magnitude (a.u.)       :      0.543621355
Magnitude (Debye)      :      1.381775672

Rotational constants in cm-1:             0.061610             0.038649             0.027342
Rotational constants in MHz :          1847.025236          1158.681624           819.685502

                             ****ORCA TERMINATED NORMALLY****
TOTAL RUN TIME: 0 days 0 hours 0 minutes 14 seconds 490 msec
