                         Program Version 6.0.0  -   RELEASE  -
|  1> ! r2scan-3c def2/J RI DEFGRID2 scfconv6 printgap
|  2> %output
|  3>     printlevel normal
|  4> end
|  5> %cpcm
|  6>     smd true
|  7>     smdsolvent "water"
|  8> end
|  9> * xyz 0 1
| 10> C 0.1728546507 0.3817296226 -0.5731720067
| 11> H 0.1936094423 0.3693457381 -1.666328183
| 12> C 1.2244638956 -0.5766048056 -0.02316439
| 13> F 2.4536461799 -0.2267492156 -0.4247830909
| 14> F 1.2442068293 -0.6191960587 1.3068857376
| 15> F 1.022202326 -1.8239027591 -0.4578737962
| 16> Cl 0.5342122608 2.0232259705 0.0118772755
| 17> Br -1.5717814031 -0.2382640607 0.0045210019
| 18> *
| 19>
| 20>                          ****END OF INPUT****

CARTESIAN COORDINATES (ANGSTROEM)
---------------------------------
  C      0.172855    0.381730   -0.573172
  H      0.193609    0.369346   -1.666328
  C      1.224464   -0.576605   -0.023164
  F      2.453646   -0.226749   -0.424783
  F      1.244207   -0.619196    1.306886
  F      1.022202   -1.823903   -0.457874
  Cl     0.534212    2.023226    0.011877
  Br    -1.571781   -0.238264    0.004521

 Total Charge           Charge          ....    0
 Multiplicity           Mult            ....    1
 Number of Electrons    NEL             ....   92
 Basis Dimension        Dim             ....  178

ORBITAL ENERGIES
----------------

  NO   OCC          E(Eh)            E(eV)
   0   2.0000    -482.251794    -13122.7384
   1   2.0000    -101.245592     -2755.0326
   2   2.0000     -62.323394     -1695.9058
   3   2.0000     -56.104032     -1526.6683
   4   2.0000     -56.101069     -1526.5877
   5   2.0000     -56.100992     -1526.5856
   6   2.0000     -24.537441      -667.6977
   7   2.0000     -24.537202      -667.6912
   8   2.0000     -24.535905      -667.6559
   9   2.0000     -10.309682      -280.5407
  10   2.0000     -10.184942      -277.1464
  11   2.0000      -9.400997      -255.8141
  12   2.0000      -8.655308      -235.5229
  13   2.0000      -7.148046      -194.5082
  14   2.0000      -7.136860      -194.2038
  15   2.0000      -7.136494      -194.1939
  16   2.0000      -6.464016      -175.8948
  17   2.0000      -6.448620      -175.4759
  18   2.0000      -6.448271      -175.4664
  19   2.0000      -2.561261       -69.6954
  20   2.0000      -2.557496       -69.5930
  21   2.0000      -2.557227       -69.5857
  22   2.0000      -2.545802       -69.2748
  23   2.0000      -2.545797       -69.2747
  24   2.0000      -1.300301       -35.3830
  25   2.0000      -1.209524       -32.9128
  26   2.0000      -1.206676       -32.8353
  27   2.0000      -0.879799       -23.9406
  28   2.0000      -0.779594       -21.2138
  29   2.0000      -0.720170       -19.5968
  30   2.0000      -0.636943       -17.3321
  31   2.0000      -0.580656       -15.8005
  32   2.0000      -0.577760       -15.7217
  33   2.0000      -0.538959       -14.6658
  34   2.0000      -0.462649       -12.5893
  35   2.0000      -0.450623       -12.2621
  36   2.0000      -0.443706       -12.0738
  37   2.0000      -0.432237       -11.7618
  38   2.0000      -0.402496       -10.9525
  39   2.0000      -0.398658       -10.8480
  40   2.0000      -0.393149       -10.6981
  41   2.0000      -0.385742       -10.4966
  42   2.0000      -0.314944        -8.5701
  43   2.0000      -0.308520        -8.3953
  44   2.0000      -0.284327        -7.7369
  45   2.0000      -0.282351        -7.6832
  46   0.0000      -0.073350        -1.9959
  47   0.0000      -0.033733        -0.9179
  48   0.0000       0.075360         2.0507
  49   0.0000       0.107260         2.9187
  50   0.0000       0.122966         3.3461

MULLIKEN ATOMIC CHARGES
-----------------------
   0 C :   -0.040792
   1 H :    0.271675
   2 C :    0.542648
   3 F :   -0.200726
   4 F :   -0.197292
   5 F :   -0.199259
   6 Cl:   -0.102405
   7 Br:   -0.073850
Sum of atomic charges:    0.0000000

LOEWDIN ATOMIC CHARGES
----------------------
   0 C :   -0.352482
   1 H :    0.209123
   2 C :    0.443759
   3 F :   -0.204943
   4 F :   -0.204460
   5 F :   -0.204275
   6 Cl:    0.115546
   7 Br:    0.197731

  Mayer bond orders larger than 0.100000
B(  0-C ,  1-H ) :   0.8949 B(  0-C ,  2-C ) :   0.9494 B(  0-C ,  6-Cl) :   1.0134
B(  0-C ,  7-Br) :   1.0076 B(  2-C ,  3-F ) :   1.0238 B(  2-C ,  4-F ) :   1.0353
B(  2-C ,  5-F ) :   1.0253

Dispersion correction           -0.002404913
FINAL SINGLE POINT ENERGY     -3410.646805268059

DIPOLE MOMENT
-------------

Method             : SCF
Type of density    : Electron Density
Multiplicity       :   1
Irrep              :   0
Energy             : -3410.6557373958630706 Eh
Relativity type    :
Basis              : AO
                                X                 Y                 Z
Electronic contribution:     -9.873319456      -2.170439143       1.306582402
Nuclear contribution   :      9.685578886       2.317036935      -2.014319404
                        -----------------------------------------
Total Dipole Moment    :     -0.187740569       0.146597792      -0.707737002
                        -----------------------------------------
Magnitude (a.u.)       :      0.746745671
Magnitude (Debye)      :      1.898076654

Rotational constants in cm-1:             0.061610             0.038649             0.027342
Rotational constants in MHz :          1847.025236          1158.681624           819.685502

                             ****ORCA TERMINATED NORMALLY****
TOTAL RUN TIME: 0 days 0 hours 0 minutes 18 seconds 607 msec
