                         Program Version 6.0.0  -   RELEASE  -
|  1> ! r2scan-3c def2/J RI DEFGRID2 scfconv6 printgap
|  2> %output
|  3>     printlevel normal
|  4> end
|  5> * xyz 0 1
|  6> C 2.0058058957 3.2547034766 -0.1197370434
|  7> C 1.6816084283 2.0708134248 0.7676344442
|  8> O 2.259652799 0.9025117426 0.153070437
|  9> P 2.3160059876 -0.4888859819 0.9077216353
| 10> S 2.8495868041 -0.4318145413 2.789588351
| 11> O 3.3093567214 -1.1938087064 -0.1066722342
| 12> C 4.1014165281 -2.3278032788 0.2913422359
| 13> C 3.2582982793 -3.5750360152 0.4691821015
| 14> S 0.4173299228 -1.3890180877 0.5455960899
| 15> C 0.3412984298 -1.1101520856 -1.249321154
| 16> S -0.2394031338 0.5447213058 -1.7127366525
| 17> P -2.0883833692 0.4527947021 -0.698661042
| 18> S -3.0179272241 -1.2789563973 -0.6956114193
| 19> O -2.8785842291 1.7134021287 -1.2512703327
| 20> C -3.0883283143 2.0317276381 -2.6399650133
| 21> C -3.6630325344 0.8754338952 -3.4316002939
| 22> O -1.6897972087 0.9883779914 0.7456329236
| 23> C -2.3986749023 0.5931658978 1.93298086
| 24> C -3.7433532417 1.2836616138 2.015399583
| 25> H 1.5835385479 3.0969661409 -1.1085425182
| 26> H 1.5824578861 4.1534683948 0.3161984884
| 27> H 3.0821832228 3.3676327416 -0.2091190516
| 28> H 0.5994471813 1.9298765165 0.856575165
| 29> H 2.1064207264 2.1829049033 1.7706992199
| 30> H 4.8244382364 -2.4399117956 -0.5178006328
| 31> H 4.6205838331 -2.0804260893 1.2225700082
| 32> H 3.9058468908 -4.4154289519 0.6979032863
| 33> H 2.5583417283 -3.4357004001 1.2928689002
| 34> H 2.6969209013 -3.7912223517 -0.4362685774
| 35> H -0.356342382 -1.853195675 -1.6333246021
| 36> H 1.332557618 -1.2241909101 -1.6820701727
| 37> H -3.7798068977 2.8755911187 -2.6070123761
| 38> H -2.1318718219 2.3522349893 -3.0622137775
| 39> H -4.578142319 0.5143035851 -2.9681456687
| 40> H -3.8783705724 1.2036212742 -4.4433998016
| 41> H -2.9494155623 0.0534657994 -3.4694954468
| 42> H -2.5167344113 -0.4959191077 1.9245736764
| 43> H -1.7375278997 0.8806344787 2.7522518346
| 44> H -4.2350652627 1.0105629581 2.9435923315
| 45> H -3.6149395151 2.3618672529 1.9734581652
| 46> H -4.3640731934 0.9706774985 1.1762654095
| 47> *
| 48>
| 49>                          ****END OF INPUT****

CARTESIAN COORDINATES (ANGSTROEM)
---------------------------------
  C      2.005806    3.254703   -0.119737
  C      1.681608    2.070813    0.767634
  O      2.259653    0.902512    0.153070
  P      2.316006   -0.488886    0.907722
  S      2.849587   -0.431815    2.789588
  O      3.309357   -1.193809   -0.106672
  C      4.101417   -2.327803    0.291342
  C      3.258298   -3.575036    0.469182
  S      0.417330   -1.389018    0.545596
  C      0.341298   -1.110152   -1.249321
  S     -0.239403    0.544721   -1.712737
  P     -2.088383    0.452795   -0.698661
  S     -3.017927   -1.278956   -0.695611
  O     -2.878584    1.713402   -1.251270
  C     -3.088328    2.031728   -2.639965
  C     -3.663033    0.875434   -3.431600
  O     -1.689797    0.988378    0.745633
  C     -2.398675    0.593166    1.932981
  C     -3.743353    1.283662    2.015400
  H      1.583539    3.096966   -1.108543
  H      1.582458    4.153468    0.316198
  H      3.082183    3.367633   -0.209119
  H      0.599447    1.929877    0.856575
  H      2.106421    2.182905    1.770699
  H      4.824438   -2.439912   -0.517801
  H      4.620584   -2.080426    1.222570
  H      3.905847   -4.415429    0.697903
  H      2.558342   -3.435700    1.292869
  H      2.696921   -3.791222   -0.436269
  H     -0.356342   -1.853196   -1.633325
  H      1.332558   -1.224191   -1.682070
  H     -3.779807    2.875591   -2.607012
  H     -2.131872    2.352235   -3.062214
  H     -4.578142    0.514304   -2.968146
  H     -3.878371    1.203621   -4.443400
  H     -2.949416    0.053466   -3.469495
  H     -2.516734   -0.495919    1.924574
  H     -1.737528    0.880634    2.752252
  H     -4.235065    1.010563    2.943592
  H     -3.614940    2.361867    1.973458
  H     -4.364073    0.970677    1.176265

 Total Charge           Charge          ....    0
 Multiplicity           Mult            ....    1
 Number of Electrons    NEL             ....  202
 Basis Dimension        Dim             ....  539

ORBITAL ENERGIES
----------------

  NO   OCC          E(Eh)            E(eV)
   0   2.0000     -88.581018     -2410.4120
   1   2.0000     -88.574713     -2410.2405
   2   2.0000     -88.523697     -2408.8523
   3   2.0000     -88.521219     -2408.7848
   4   2.0000     -76.918832     -2093.0678
   5   2.0000     -76.912391     -2092.8925
   6   2.0000     -18.997136      -516.9384
   7   2.0000     -18.992460      -516.8111
   8   2.0000     -18.988899      -516.7142
   9   2.0000     -18.987889      -516.6867
  10   2.0000     -10.112053      -275.1629
  11   2.0000     -10.108644      -275.0702
  12   2.0000     -10.099576      -274.8234
  13   2.0000     -10.093476      -274.6574
  14   2.0000     -10.090580      -274.5787
  15   2.0000     -10.031947      -272.9831
  16   2.0000     -10.029165      -272.9075
  17   2.0000     -10.027140      -272.8523
  18   2.0000     -10.026409      -272.8324
  19   2.0000      -7.875593      -214.3058
  20   2.0000      -7.868507      -214.1130
  21   2.0000      -7.818385      -212.7491
  22   2.0000      -7.815810      -212.6790
  23   2.0000      -6.597037      -179.5145
  24   2.0000      -6.590984      -179.3498
  25   2.0000      -5.822386      -158.4352
  26   2.0000      -5.819367      -158.3530
  27   2.0000      -5.815761      -158.2549
  28   2.0000      -5.812830      -158.1751
  29   2.0000      -5.812075      -158.1546
  30   2.0000      -5.805634      -157.9793
  31   2.0000      -5.766081      -156.9030
  32   2.0000      -5.763415      -156.8305
  33   2.0000      -5.758740      -156.7033
  34   2.0000      -5.758298      -156.6913
  35   2.0000      -5.756063      -156.6304
  36   2.0000      -5.755916      -156.6264
  37   2.0000      -4.742576      -129.0521
  38   2.0000      -4.742104      -129.0392
  39   2.0000      -4.740632      -128.9992
  40   2.0000      -4.736343      -128.8824
  41   2.0000      -4.736200      -128.8786
  42   2.0000      -4.734548      -128.8336
  43   2.0000      -1.052459       -28.6389
  44   2.0000      -1.051832       -28.6218
  45   2.0000      -1.012430       -27.5496
  46   2.0000      -1.009844       -27.4793
  47   2.0000      -0.803995       -21.8778
  48   2.0000      -0.759637       -20.6708
  49   2.0000      -0.751228       -20.4420
  50   2.0000      -0.732355       -19.9284
  51   2.0000      -0.727844       -19.8056
  52   2.0000      -0.712681       -19.3930
  53   2.0000      -0.690944       -18.8015
  54   2.0000      -0.671315       -18.2674
  55   2.0000      -0.631775       -17.1915
  56   2.0000      -0.627265       -17.0688
  57   2.0000      -0.609253       -16.5786
  58   2.0000      -0.597211       -16.2509
  59   2.0000      -0.593934       -16.1618
  60   2.0000      -0.529149       -14.3989
  61   2.0000      -0.520545       -14.1648
  62   2.0000      -0.491621       -13.3777
  63   2.0000      -0.490471       -13.3464
  64   2.0000      -0.482861       -13.1393
  65   2.0000      -0.464134       -12.6297
  66   2.0000      -0.458095       -12.4654
  67   2.0000      -0.456167       -12.4129
  68   2.0000      -0.444400       -12.0928
  69   2.0000      -0.441254       -12.0071
  70   2.0000      -0.430532       -11.7154
  71   2.0000      -0.415881       -11.3167
  72   2.0000      -0.408553       -11.1173
  73   2.0000      -0.404185       -10.9984
  74   2.0000      -0.398353       -10.8397
  75   2.0000      -0.393104       -10.6969
  76   2.0000      -0.385738       -10.4965
  77   2.0000      -0.372763       -10.1434
  78   2.0000      -0.367278        -9.9941
  79   2.0000      -0.364666        -9.9231
  80   2.0000      -0.361895        -9.8477
  81   2.0000      -0.361185        -9.8283
  82   2.0000      -0.358894        -9.7660
  83   2.0000      -0.354096        -9.6354
  84   2.0000      -0.347209        -9.4480
  85   2.0000      -0.332890        -9.0584
  86   2.0000      -0.328360        -8.9351
  87   2.0000      -0.317812        -8.6481
  88   2.0000      -0.315815        -8.5938
  89   2.0000      -0.305692        -8.3183
  90   2.0000      -0.303149        -8.2491
  91   2.0000      -0.292133        -7.9493
  92   2.0000      -0.282695        -7.6925
  93   2.0000      -0.280824        -7.6416
  94   2.0000      -0.269043        -7.3210
  95   2.0000      -0.247117        -6.7244
  96   2.0000      -0.232714        -6.3325
  97   2.0000      -0.221949        -6.0396
  98   2.0000      -0.219477        -5.9723
  99   2.0000      -0.219092        -5.9618
 100   2.0000      -0.216375        -5.8879
 101   0.0000      -0.048370        -1.3162
 102   0.0000      -0.022762        -0.6194
 103   0.0000      -0.013638        -0.3711
 104   0.0000       0.001538         0.0418
 105   0.0000       0.003522         0.0958

MULLIKEN ATOMIC CHARGES
-----------------------
   0 C :   -0.460601
   1 C :   -0.125177
   2 O :   -0.293549
   3 P :    0.690126
   4 S :   -0.460476
   5 O :   -0.312656
   6 C :   -0.155442
   7 C :   -0.430403
   8 S :   -0.136316
   9 C :   -0.235913
  10 S :   -0.124794
  11 P :    0.620610
  12 S :   -0.448946
  13 O :   -0.275888
  14 C :   -0.155226
  15 C :   -0.424811
  16 O :   -0.273669
  17 C :   -0.149804
  18 C :   -0.441987
  19 H :    0.157978
  20 H :    0.146006
  21 H :    0.153844
  22 H :    0.174807
  23 H :    0.165442
  24 H :    0.149164
  25 H :    0.173725
  26 H :    0.147762
  27 H :    0.175233
  28 H :    0.148458
  29 H :    0.215610
  30 H :    0.199979
  31 H :    0.151495
  32 H :    0.152203
  33 H :    0.165997
  34 H :    0.148210
  35 H :    0.168085
  36 H :    0.176596
  37 H :    0.157139
  38 H :    0.147945
  39 H :    0.153081
  40 H :    0.166163
Sum of atomic charges:    0.0000000

LOEWDIN ATOMIC CHARGES
----------------------
   0 C :   -0.387564
   1 C :    0.013541
   2 O :   -0.673622
   3 P :    0.370002
   4 S :   -0.111717
   5 O :   -0.667999
   6 C :    0.022037
   7 C :   -0.403300
   8 S :    0.172194
   9 C :   -0.410852
  10 S :    0.172175
  11 P :    0.376460
  12 S :   -0.119555
  13 O :   -0.656810
  14 C :    0.024607
  15 C :   -0.406630
  16 O :   -0.693764
  17 C :    0.012938
  18 C :   -0.397869
  19 H :    0.160222
  20 H :    0.159361
  21 H :    0.159920
  22 H :    0.187957
  23 H :    0.178906
  24 H :    0.179540
  25 H :    0.180915
  26 H :    0.159595
  27 H :    0.166739
  28 H :    0.157389
  29 H :    0.191326
  30 H :    0.191978
  31 H :    0.182267
  32 H :    0.171583
  33 H :    0.165759
  34 H :    0.158588
  35 H :    0.165687
  36 H :    0.182663
  37 H :    0.181544
  38 H :    0.159884
  39 H :    0.159042
  40 H :    0.164862

  Mayer bond orders larger than 0.100000
B(  0-C ,  1-C ) :   0.9369 B(  0-C , 19-H ) :   0.9756 B(  0-C , 20-H ) :   0.9677
B(  0-C , 21-H ) :   0.9735 B(  1-C ,  2-O ) :   0.7532 B(  1-C , 22-H ) :   0.9356
B(  1-C , 23-H ) :   0.9402 B(  2-O ,  3-P ) :   1.1257 B(  3-P ,  4-S ) :   1.8065
B(  3-P ,  5-O ) :   1.0962 B(  3-P ,  8-S ) :   1.0459 B(  5-O ,  6-C ) :   0.8082
B(  6-C ,  7-C ) :   0.9283 B(  6-C , 24-H ) :   0.9599 B(  6-C , 25-H ) :   0.9658
B(  7-C , 26-H ) :   0.9606 B(  7-C , 27-H ) :   0.9614 B(  7-C , 28-H ) :   0.9686
B(  8-S ,  9-C ) :   0.8961 B(  9-C , 10-S ) :   0.9128 B(  9-C , 29-H ) :   0.9154
B(  9-C , 30-H ) :   0.9161 B( 10-S , 11-P ) :   1.0681 B( 11-P , 12-S ) :   1.7802
B( 11-P , 13-O ) :   1.0951 B( 11-P , 16-O ) :   1.1265 B( 13-O , 14-C ) :   0.8030
B( 14-C , 15-C ) :   0.9377 B( 14-C , 31-H ) :   0.9579 B( 14-C , 32-H ) :   0.9651
B( 15-C , 33-H ) :   0.9658 B( 15-C , 34-H ) :   0.9616 B( 15-C , 35-H ) :   0.9541
B( 16-O , 17-C ) :   0.7922 B( 17-C , 18-C ) :   0.9257 B( 17-C , 36-H ) :   0.9599
B( 17-C , 37-H ) :   0.9596 B( 18-C , 38-H ) :   0.9640 B( 18-C , 39-H ) :   0.9728
B( 18-C , 40-H ) :   0.9608

Dispersion correction           -0.021634115
FINAL SINGLE POINT ENERGY     -2932.462370478927

DIPOLE MOMENT
-------------

Method             : SCF
Type of density    : Electron Density
Multiplicity       :   1
Irrep              :   0
Energy             : -2932.4872377156098082 Eh
Relativity type    :
Basis              : AO
                                X                 Y                 Z
Electronic contribution:      4.958199925      -6.253136858       3.989154134
Nuclear contribution   :     -5.113822662       6.913457638      -5.108711678
                        -----------------------------------------
Total Dipole Moment    :     -0.155622737       0.660320781      -1.119557544
                        -----------------------------------------
Magnitude (a.u.)       :      1.309064957
Magnitude (Debye)      :      3.327378691

Rotational constants in cm-1:             0.012463             0.004839             0.004726
Rotational constants in MHz :           373.626595           145.084135           141.678486

                             ****ORCA TERMINATED NORMALLY****
TOTAL RUN TIME: 0 days 0 hours 1 minutes 20 seconds 257 msec
