                         Program Version 6.0.0  -   RELEASE  -
|  1> ! r2scan-3c def2/J RI DEFGRID2 scfconv6 printgap
|  2> %output
|  3>     printlevel normal
|  4> end
|  5> %cpcm
|  6>     smd true
|  7>     smdsolvent "water"
|  8> end
|  9> * xyz 0 1
| 10> C 2.0058058957 3.2547034766 -0.1197370434
| 11> C 1.6816084283 2.0708134248 0.7676344442
| 12> O 2.259652799 0.9025117426 0.153070437
| 13> P 2.3160059876 -0.4888859819 0.9077216353
| 14> S 2.8495868041 -0.4318145413 2.789588351
| 15> O 3.3093567214 -1.1938087064 -0.1066722342
| 16> C 4.1014165281 -2.3278032788 0.2913422359
| 17> C 3.2582982793 -3.5750360152 0.4691821015
| 18> S 0.4173299228 -1.3890180877 0.5455960899
| 19> C 0.3412984298 -1.1101520856 -1.249321154
| 20> S -0.2394031338 0.5447213058 -1.7127366525
| 21> P -2.0883833692 0.4527947021 -0.698661042
| 22> S -3.0179272241 -1.2789563973 -0.6956114193
| 23> O -2.8785842291 1.7134021287 -1.2512703327
| 24> C -3.0883283143 2.0317276381 -2.6399650133
| 25> C -3.6630325344 0.8754338952 -3.4316002939
| 26> O -1.6897972087 0.9883779914 0.7456329236
| 27> C -2.3986749023 0.5931658978 1.93298086
| 28> C -3.7433532417 1.2836616138 2.015399583
| 29> H 1.5835385479 3.0969661409 -1.1085425182
| 30> H 1.5824578861 4.1534683948 0.3161984884
| 31> H 3.0821832228 3.3676327416 -0.2091190516
| 32> H 0.5994471813 1.9298765165 0.856575165
| 33> H 2.1064207264 2.1829049033 1.7706992199
| 34> H 4.8244382364 -2.4399117956 -0.5178006328
| 35> H 4.6205838331 -2.0804260893 1.2225700082
| 36> H 3.9058468908 -4.4154289519 0.6979032863
| 37> H 2.5583417283 -3.4357004001 1.2928689002
| 38> H 2.6969209013 -3.7912223517 -0.4362685774
| 39> H -0.356342382 -1.853195675 -1.6333246021
| 40> H 1.332557618 -1.2241909101 -1.6820701727
| 41> H -3.7798068977 2.8755911187 -2.6070123761
| 42> H -2.1318718219 2.3522349893 -3.0622137775
| 43> H -4.578142319 0.5143035851 -2.9681456687
| 44> H -3.8783705724 1.2036212742 -4.4433998016
| 45> H -2.9494155623 0.0534657994 -3.4694954468
| 46> H -2.5167344113 -0.4959191077 1.9245736764
| 47> H -1.7375278997 0.8806344787 2.7522518346
| 48> H -4.2350652627 1.0105629581 2.9435923315
| 49> H -3.6149395151 2.3618672529 1.9734581652
| 50> H -4.3640731934 0.9706774985 1.1762654095
| 51> *
| 52>
| 53>                          ****END OF INPUT****

CARTESIAN COORDINATES (ANGSTROEM)
---------------------------------
  C      2.005806    3.254703   -0.119737
  C      1.681608    2.070813    0.767634
  O      2.259653    0.902512    0.153070
  P      2.316006   -0.488886    0.907722
  S      2.849587   -0.431815    2.789588
  O      3.309357   -1.193809   -0.106672
  C      4.101417   -2.327803    0.291342
  C      3.258298   -3.575036    0.469182
  S      0.417330   -1.389018    0.545596
  C      0.341298   -1.110152   -1.249321
  S     -0.239403    0.544721   -1.712737
  P     -2.088383    0.452795   -0.698661
  S     -3.017927   -1.278956   -0.695611
  O     -2.878584    1.713402   -1.251270
  C     -3.088328    2.031728   -2.639965
  C     -3.663033    0.875434   -3.431600
  O     -1.689797    0.988378    0.745633
  C     -2.398675    0.593166    1.932981
  C     -3.743353    1.283662    2.015400
  H      1.583539    3.096966   -1.108543
  H      1.582458    4.153468    0.316198
  H      3.082183    3.367633   -0.209119
  H      0.599447    1.929877    0.856575
  H      2.106421    2.182905    1.770699
  H      4.824438   -2.439912   -0.517801
  H      4.620584   -2.080426    1.222570
  H      3.905847   -4.415429    0.697903
  H      2.558342   -3.435700    1.292869
  H      2.696921   -3.791222   -0.436269
  H     -0.356342   -1.853196   -1.633325
  H      1.332558   -1.224191   -1.682070
  H     -3.779807    2.875591   -2.607012
  H     -2.131872    2.352235   -3.062214
  H     -4.578142    0.514304   -2.968146
  H     -3.878371    1.203621   -4.443400
  H     -2.949416    0.053466   -3.469495
  H     -2.516734   -0.495919    1.924574
  H     -1.737528    0.880634    2.752252
  H     -4.235065    1.010563    2.943592
  H     -3.614940    2.361867    1.973458
  H     -4.364073    0.970677    1.176265

 Total Charge           Charge          ....    0
 Multiplicity           Mult            ....    1
 Number of Electrons    NEL             ....  202
 Basis Dimension        Dim             ....  539

ORBITAL ENERGIES
----------------

  NO   OCC          E(Eh)            E(eV)
   0   2.0000     -88.579887     -2410.3813
   1   2.0000     -88.577522     -2410.3169
   2   2.0000     -88.531323     -2409.0598
   3   2.0000     -88.527535     -2408.9567
   4   2.0000     -76.920118     -2093.1028
   5   2.0000     -76.918914     -2093.0701
   6   2.0000     -18.995539      -516.8949
   7   2.0000     -18.994871      -516.8767
   8   2.0000     -18.993589      -516.8418
   9   2.0000     -18.989677      -516.7354
  10   2.0000     -10.107035      -275.0264
  11   2.0000     -10.093482      -274.6576
  12   2.0000     -10.090508      -274.5767
  13   2.0000     -10.087715      -274.5007
  14   2.0000     -10.087013      -274.4816
  15   2.0000     -10.018908      -272.6284
  16   2.0000     -10.018686      -272.6223
  17   2.0000     -10.018556      -272.6188
  18   2.0000     -10.017763      -272.5972
  19   2.0000      -7.874372      -214.2725
  20   2.0000      -7.871405      -214.1918
  21   2.0000      -7.826277      -212.9638
  22   2.0000      -7.822538      -212.8621
  23   2.0000      -6.598400      -179.5516
  24   2.0000      -6.597587      -179.5295
  25   2.0000      -5.821188      -158.4026
  26   2.0000      -5.818630      -158.3330
  27   2.0000      -5.818157      -158.3201
  28   2.0000      -5.814955      -158.2330
  29   2.0000      -5.811593      -158.1415
  30   2.0000      -5.808579      -158.0595
  31   2.0000      -5.773775      -157.1124
  32   2.0000      -5.770157      -157.0140
  33   2.0000      -5.766490      -156.9142
  34   2.0000      -5.766462      -156.9134
  35   2.0000      -5.762890      -156.8162
  36   2.0000      -5.762472      -156.8048
  37   2.0000      -4.743897      -129.0880
  38   2.0000      -4.743468      -129.0763
  39   2.0000      -4.742901      -129.0609
  40   2.0000      -4.742814      -129.0585
  41   2.0000      -4.742062      -129.0381
  42   2.0000      -4.741216      -129.0151
  43   2.0000      -1.055638       -28.7254
  44   2.0000      -1.051538       -28.6138
  45   2.0000      -1.013063       -27.5669
  46   2.0000      -1.011255       -27.5177
  47   2.0000      -0.802342       -21.8328
  48   2.0000      -0.756572       -20.5874
  49   2.0000      -0.744670       -20.2635
  50   2.0000      -0.723249       -19.6806
  51   2.0000      -0.720665       -19.6103
  52   2.0000      -0.711536       -19.3619
  53   2.0000      -0.693741       -18.8776
  54   2.0000      -0.675631       -18.3848
  55   2.0000      -0.628893       -17.1131
  56   2.0000      -0.623281       -16.9603
  57   2.0000      -0.601979       -16.3807
  58   2.0000      -0.593548       -16.1513
  59   2.0000      -0.588834       -16.0230
  60   2.0000      -0.527782       -14.3617
  61   2.0000      -0.514939       -14.0122
  62   2.0000      -0.488971       -13.3056
  63   2.0000      -0.485766       -13.2184
  64   2.0000      -0.480266       -13.0687
  65   2.0000      -0.458888       -12.4870
  66   2.0000      -0.456336       -12.4175
  67   2.0000      -0.450470       -12.2579
  68   2.0000      -0.441442       -12.0122
  69   2.0000      -0.435064       -11.8387
  70   2.0000      -0.425719       -11.5844
  71   2.0000      -0.413437       -11.2502
  72   2.0000      -0.403400       -10.9771
  73   2.0000      -0.398358       -10.8399
  74   2.0000      -0.395851       -10.7717
  75   2.0000      -0.391136       -10.6433
  76   2.0000      -0.383743       -10.4422
  77   2.0000      -0.369949       -10.0668
  78   2.0000      -0.359423        -9.7804
  79   2.0000      -0.354780        -9.6540
  80   2.0000      -0.354203        -9.6384
  81   2.0000      -0.352671        -9.5967
  82   2.0000      -0.352124        -9.5818
  83   2.0000      -0.348343        -9.4789
  84   2.0000      -0.343732        -9.3534
  85   2.0000      -0.330499        -8.9933
  86   2.0000      -0.323681        -8.8078
  87   2.0000      -0.315680        -8.5901
  88   2.0000      -0.309109        -8.4113
  89   2.0000      -0.304376        -8.2825
  90   2.0000      -0.298252        -8.1159
  91   2.0000      -0.290403        -7.9023
  92   2.0000      -0.281984        -7.6732
  93   2.0000      -0.279883        -7.6160
  94   2.0000      -0.270221        -7.3531
  95   2.0000      -0.248026        -6.7491
  96   2.0000      -0.238319        -6.4850
  97   2.0000      -0.231736        -6.3059
  98   2.0000      -0.227109        -6.1800
  99   2.0000      -0.222566        -6.0563
 100   2.0000      -0.222139        -6.0447
 101   0.0000      -0.048917        -1.3311
 102   0.0000      -0.028326        -0.7708
 103   0.0000      -0.015244        -0.4148
 104   0.0000      -0.002838        -0.0772
 105   0.0000       0.003387         0.0922

MULLIKEN ATOMIC CHARGES
-----------------------
   0 C :   -0.496843
   1 C :   -0.119694
   2 O :   -0.314509
   3 P :    0.712490
   4 S :   -0.515243
   5 O :   -0.331247
   6 C :   -0.147088
   7 C :   -0.470693
   8 S :   -0.160708
   9 C :   -0.243105
  10 S :   -0.120876
  11 P :    0.661456
  12 S :   -0.503506
  13 O :   -0.308166
  14 C :   -0.155857
  15 C :   -0.465163
  16 O :   -0.295727
  17 C :   -0.144414
  18 C :   -0.487033
  19 H :    0.166838
  20 H :    0.170580
  21 H :    0.165182
  22 H :    0.178606
  23 H :    0.171389
  24 H :    0.175953
  25 H :    0.176240
  26 H :    0.171454
  27 H :    0.167719
  28 H :    0.168871
  29 H :    0.237280
  30 H :    0.233886
  31 H :    0.177275
  32 H :    0.173263
  33 H :    0.171047
  34 H :    0.173936
  35 H :    0.166197
  36 H :    0.176374
  37 H :    0.177709
  38 H :    0.171092
  39 H :    0.169059
  40 H :    0.165969
Sum of atomic charges:    0.0000000

LOEWDIN ATOMIC CHARGES
----------------------
   0 C :   -0.390917
   1 C :    0.016786
   2 O :   -0.686446
   3 P :    0.374340
   4 S :   -0.151838
   5 O :   -0.675402
   6 C :    0.027703
   7 C :   -0.406630
   8 S :    0.160689
   9 C :   -0.400508
  10 S :    0.179460
  11 P :    0.381843
  12 S :   -0.153570
  13 O :   -0.670465
  14 C :    0.030821
  15 C :   -0.410185
  16 O :   -0.703894
  17 C :    0.014742
  18 C :   -0.402143
  19 H :    0.162288
  20 H :    0.168835
  21 H :    0.162912
  22 H :    0.189190
  23 H :    0.181298
  24 H :    0.191220
  25 H :    0.181380
  26 H :    0.168079
  27 H :    0.161436
  28 H :    0.163302
  29 H :    0.198895
  30 H :    0.204284
  31 H :    0.193208
  32 H :    0.179641
  33 H :    0.164366
  34 H :    0.168318
  35 H :    0.161871
  36 H :    0.181933
  37 H :    0.189311
  38 H :    0.168147
  39 H :    0.163344
  40 H :    0.162355

  Mayer bond orders larger than 0.100000
B(  0-C ,  1-C ) :   0.9344 B(  0-C , 19-H ) :   0.9716 B(  0-C , 20-H ) :   0.9612
B(  0-C , 21-H ) :   0.9710 B(  1-C ,  2-O ) :   0.7478 B(  1-C , 22-H ) :   0.9303
B(  1-C , 23-H ) :   0.9377 B(  2-O ,  3-P ) :   1.1284 B(  3-P ,  4-S ) :   1.7734
B(  3-P ,  5-O ) :   1.1053 B(  3-P ,  8-S ) :   1.0618 B(  5-O ,  6-C ) :   0.7964
B(  6-C ,  7-C ) :   0.9180 B(  6-C , 24-H ) :   0.9492 B(  6-C , 25-H ) :   0.9637
B(  7-C , 26-H ) :   0.9555 B(  7-C , 27-H ) :   0.9634 B(  7-C , 28-H ) :   0.9656
B(  8-S ,  9-C ) :   0.8907 B(  9-C , 10-S ) :   0.9063 B(  9-C , 29-H ) :   0.9071
B(  9-C , 30-H ) :   0.9053 B( 10-S , 11-P ) :   1.0866 B( 11-P , 12-S ) :   1.7287
B( 11-P , 13-O ) :   1.1032 B( 11-P , 16-O ) :   1.1302 B( 13-O , 14-C ) :   0.7938
B( 14-C , 15-C ) :   0.9189 B( 14-C , 31-H ) :   0.9482 B( 14-C , 32-H ) :   0.9597
B( 15-C , 33-H ) :   0.9669 B( 15-C , 34-H ) :   0.9556 B( 15-C , 35-H ) :   0.9563
B( 16-O , 17-C ) :   0.7804 B( 17-C , 18-C ) :   0.9179 B( 17-C , 36-H ) :   0.9571
B( 17-C , 37-H ) :   0.9514 B( 18-C , 38-H ) :   0.9583 B( 18-C , 39-H ) :   0.9710
B( 18-C , 40-H ) :   0.9615

Dispersion correction           -0.021634115
FINAL SINGLE POINT ENERGY     -2932.470619515977

DIPOLE MOMENT
-------------

Method             : SCF
Type of density    : Electron Density
Multiplicity       :   1
Irrep              :   0
Energy             : -2932.4954867526594171 Eh
Relativity type    :
Basis              : AO
                                X                 Y                 Z
Electronic contribution:      5.036190889      -6.055131289       3.480074147
Nuclear contribution   :     -5.113822662       6.913457638      -5.108711678
                        -----------------------------------------
Total Dipole Moment    :     -0.077631773       0.858326350      -1.628637531
                        -----------------------------------------
Magnitude (a.u.)       :      1.842609840
Magnitude (Debye)      :      4.683542006

Rotational constants in cm-1:             0.012463             0.004839             0.004726
Rotational constants in MHz :           373.626595           145.084135           141.678486

                             ****ORCA TERMINATED NORMALLY****
TOTAL RUN TIME: 0 days 0 hours 1 minutes 50 seconds 385 msec
