                         Program Version 6.0.0  -   RELEASE  -
|  1> ! pbe def2-sv(p) def2/J RI DEFGRID1 loosescf d4 GCP(DFT/SV(P)) printgap
|  2> %output
|  3>     printlevel normal
|  4> end
|  5> * xyz 0 1
|  6> C 3.4413564357 -0.7493160539 -2.3809059801
|  7> C 2.0021881313 -0.3151122788 -2.2120961648
|  8> O 1.5231557779 -0.607972411 -0.8855904307
|  9> P 2.0395667812 0.1876569164 0.3802794699
| 10> S 2.7311551701 1.9982708194 0.1232123862
| 11> O 3.0639489572 -0.8907477732 0.9628150114
| 12> C 3.8376481274 -0.630780307 2.1496458225
| 13> C 5.2162187516 -0.1116888825 1.7904379957
| 14> S 0.4065236481 0.0359588274 1.7185345343
| 15> C -0.0923994263 -1.6743359063 1.3963910756
| 16> S -1.0394924019 -1.9260107614 -0.1502870645
| 17> P -1.8873191779 -0.0236205036 -0.4790681786
| 18> S -0.8593028598 1.4996519517 -1.1616752726
| 19> O -2.6111950637 0.1835256725 0.9313023824
| 20> C -2.9037407242 1.4885714323 1.462486876
| 21> C -4.0871616038 2.1136538117 0.7527800571
| 22> O -3.0091220788 -0.3705652857 -1.5427583695
| 23> C -4.0521232909 -1.350246185 -1.2977534337
| 24> C -5.3090849541 -0.8856775558 -2.004606885
| 25> H 3.7496821774 -0.581425104 -3.4078455219
| 26> H 4.0774204222 -0.1640149655 -1.7176016553
| 27> H 3.545500011 -1.8026340338 -2.1346881502
| 28> H 1.3233291548 -0.8689555598 -2.8630863695
| 29> H 1.8863551016 0.7586104204 -2.3946910712
| 30> H 3.3019138986 0.0871408055 2.779224865
| 31> H 3.8974792914 -1.5933653365 2.6611673402
| 32> H 5.7969997754 0.0195193525 2.6976037397
| 33> H 5.7218945537 -0.8169845314 1.1370704939
| 34> H 5.1340059572 0.8456474533 1.2803212032
| 35> H -0.7235927689 -1.9611350985 2.2340885486
| 36> H 0.7892052052 -2.3081359128 1.3233021227
| 37> H -3.1057925395 1.3072568732 2.5188520369
| 38> H -2.0127184394 2.1167975048 1.3605676508
| 39> H -3.8497881908 2.2485834783 -0.3025955794
| 40> H -4.9627015455 1.4759090755 0.8433093822
| 41> H -4.300545289 3.0830145748 1.1918725608
| 42> H -3.6992405798 -2.3043342737 -1.6949117574
| 43> H -4.2074490077 -1.440669109 -0.2200081604
| 44> H -6.0880135579 -1.6291912232 -1.8697321585
| 45> H -5.6436684466 0.0647094891 -1.5976787599
| 46> H -5.1117795281 -0.7585592367 -3.0651663754
| 47> *
| 48>
| 49>                          ****END OF INPUT****

CARTESIAN COORDINATES (ANGSTROEM)
---------------------------------
  C      3.441356   -0.749316   -2.380906
  C      2.002188   -0.315112   -2.212096
  O      1.523156   -0.607972   -0.885590
  P      2.039567    0.187657    0.380279
  S      2.731155    1.998271    0.123212
  O      3.063949   -0.890748    0.962815
  C      3.837648   -0.630780    2.149646
  C      5.216219   -0.111689    1.790438
  S      0.406524    0.035959    1.718535
  C     -0.092399   -1.674336    1.396391
  S     -1.039492   -1.926011   -0.150287
  P     -1.887319   -0.023621   -0.479068
  S     -0.859303    1.499652   -1.161675
  O     -2.611195    0.183526    0.931302
  C     -2.903741    1.488571    1.462487
  C     -4.087162    2.113654    0.752780
  O     -3.009122   -0.370565   -1.542758
  C     -4.052123   -1.350246   -1.297753
  C     -5.309085   -0.885678   -2.004607
  H      3.749682   -0.581425   -3.407846
  H      4.077420   -0.164015   -1.717602
  H      3.545500   -1.802634   -2.134688
  H      1.323329   -0.868956   -2.863086
  H      1.886355    0.758610   -2.394691
  H      3.301914    0.087141    2.779225
  H      3.897479   -1.593365    2.661167
  H      5.797000    0.019519    2.697604
  H      5.721895   -0.816985    1.137070
  H      5.134006    0.845647    1.280321
  H     -0.723593   -1.961135    2.234089
  H      0.789205   -2.308136    1.323302
  H     -3.105793    1.307257    2.518852
  H     -2.012718    2.116798    1.360568
  H     -3.849788    2.248583   -0.302596
  H     -4.962702    1.475909    0.843309
  H     -4.300545    3.083015    1.191873
  H     -3.699241   -2.304334   -1.694912
  H     -4.207449   -1.440669   -0.220008
  H     -6.088014   -1.629191   -1.869732
  H     -5.643668    0.064709   -1.597679
  H     -5.111780   -0.758559   -3.065166

 Total Charge           Charge          ....    0
 Multiplicity           Mult            ....    1
 Number of Electrons    NEL             ....  202
 Basis Dimension        Dim             ....  334

ORBITAL ENERGIES
----------------

  NO   OCC          E(Eh)            E(eV)
   0   2.0000     -88.044406     -2395.8101
   1   2.0000     -88.036703     -2395.6005
   2   2.0000     -87.983533     -2394.1536
   3   2.0000     -87.975039     -2393.9225
   4   2.0000     -76.422764     -2079.5691
   5   2.0000     -76.421025     -2079.5218
   6   2.0000     -18.790531      -511.3164
   7   2.0000     -18.789733      -511.2946
   8   2.0000     -18.787231      -511.2265
   9   2.0000     -18.783054      -511.1129
  10   2.0000      -9.960714      -271.0448
  11   2.0000      -9.954688      -270.8808
  12   2.0000      -9.951976      -270.8070
  13   2.0000      -9.948013      -270.6992
  14   2.0000      -9.941198      -270.5138
  15   2.0000      -9.890079      -269.1227
  16   2.0000      -9.883531      -268.9445
  17   2.0000      -9.878853      -268.8173
  18   2.0000      -9.876045      -268.7408
  19   2.0000      -7.688949      -209.2269
  20   2.0000      -7.682040      -209.0389
  21   2.0000      -7.628687      -207.5871
  22   2.0000      -7.619984      -207.3503
  23   2.0000      -6.420113      -174.7002
  24   2.0000      -6.418240      -174.6492
  25   2.0000      -5.717270      -155.5748
  26   2.0000      -5.713170      -155.4632
  27   2.0000      -5.710241      -155.3836
  28   2.0000      -5.706498      -155.2817
  29   2.0000      -5.705769      -155.2619
  30   2.0000      -5.698680      -155.0690
  31   2.0000      -5.657657      -153.9527
  32   2.0000      -5.649462      -153.7297
  33   2.0000      -5.649238      -153.7236
  34   2.0000      -5.648649      -153.7076
  35   2.0000      -5.640414      -153.4835
  36   2.0000      -5.639985      -153.4718
  37   2.0000      -4.642420      -126.3267
  38   2.0000      -4.642128      -126.3187
  39   2.0000      -4.641374      -126.2982
  40   2.0000      -4.640648      -126.2784
  41   2.0000      -4.639796      -126.2553
  42   2.0000      -4.638466      -126.2191
  43   2.0000      -0.982425       -26.7331
  44   2.0000      -0.981742       -26.7146
  45   2.0000      -0.942380       -25.6435
  46   2.0000      -0.939464       -25.5641
  47   2.0000      -0.762118       -20.7383
  48   2.0000      -0.718738       -19.5579
  49   2.0000      -0.705923       -19.2091
  50   2.0000      -0.689730       -18.7685
  51   2.0000      -0.680227       -18.5099
  52   2.0000      -0.669338       -18.2136
  53   2.0000      -0.650314       -17.6959
  54   2.0000      -0.635870       -17.3029
  55   2.0000      -0.591785       -16.1033
  56   2.0000      -0.585690       -15.9374
  57   2.0000      -0.572598       -15.5812
  58   2.0000      -0.567286       -15.4366
  59   2.0000      -0.560106       -15.2413
  60   2.0000      -0.503889       -13.7115
  61   2.0000      -0.496363       -13.5067
  62   2.0000      -0.478174       -13.0118
  63   2.0000      -0.468437       -12.7468
  64   2.0000      -0.453130       -12.3303
  65   2.0000      -0.441955       -12.0262
  66   2.0000      -0.437501       -11.9050
  67   2.0000      -0.434790       -11.8312
  68   2.0000      -0.421241       -11.4626
  69   2.0000      -0.410802       -11.1785
  70   2.0000      -0.403808       -10.9882
  71   2.0000      -0.396488       -10.7890
  72   2.0000      -0.394218       -10.7272
  73   2.0000      -0.388661       -10.5760
  74   2.0000      -0.380742       -10.3605
  75   2.0000      -0.367361        -9.9964
  76   2.0000      -0.361330        -9.8323
  77   2.0000      -0.357098        -9.7171
  78   2.0000      -0.354741        -9.6530
  79   2.0000      -0.345978        -9.4145
  80   2.0000      -0.345444        -9.4000
  81   2.0000      -0.342722        -9.3259
  82   2.0000      -0.342388        -9.3169
  83   2.0000      -0.333236        -9.0678
  84   2.0000      -0.324159        -8.8208
  85   2.0000      -0.321054        -8.7363
  86   2.0000      -0.312832        -8.5126
  87   2.0000      -0.307309        -8.3623
  88   2.0000      -0.292875        -7.9695
  89   2.0000      -0.284395        -7.7388
  90   2.0000      -0.277660        -7.5555
  91   2.0000      -0.269196        -7.3252
  92   2.0000      -0.266731        -7.2581
  93   2.0000      -0.265150        -7.2151
  94   2.0000      -0.256811        -6.9882
  95   2.0000      -0.232284        -6.3208
  96   2.0000      -0.217057        -5.9064
  97   2.0000      -0.206033        -5.6064
  98   2.0000      -0.196600        -5.3498
  99   2.0000      -0.190499        -5.1837
 100   2.0000      -0.183091        -4.9822
 101   0.0000      -0.048137        -1.3099
 102   0.0000      -0.022901        -0.6232
 103   0.0000      -0.009177        -0.2497
 104   0.0000       0.001258         0.0342
 105   0.0000       0.022149         0.6027

MULLIKEN ATOMIC CHARGES
-----------------------
   0 C :   -0.302960
   1 C :   -0.001632
   2 O :   -0.366539
   3 P :    0.614828
   4 S :   -0.305183
   5 O :   -0.375805
   6 C :   -0.010437
   7 C :   -0.289390
   8 S :   -0.089861
   9 C :   -0.311283
  10 S :   -0.109800
  11 P :    0.607151
  12 S :   -0.295288
  13 O :   -0.393056
  14 C :   -0.007356
  15 C :   -0.314638
  16 O :   -0.367799
  17 C :   -0.026759
  18 C :   -0.282010
  19 H :    0.110158
  20 H :    0.122923
  21 H :    0.110992
  22 H :    0.102375
  23 H :    0.121378
  24 H :    0.098162
  25 H :    0.100802
  26 H :    0.106023
  27 H :    0.112302
  28 H :    0.128969
  29 H :    0.183289
  30 H :    0.182822
  31 H :    0.098905
  32 H :    0.121252
  33 H :    0.132751
  34 H :    0.111297
  35 H :    0.113490
  36 H :    0.110709
  37 H :    0.107307
  38 H :    0.110133
  39 H :    0.118819
  40 H :    0.122961
Sum of atomic charges:   -0.0000000

LOEWDIN ATOMIC CHARGES
----------------------
   0 C :   -0.365962
   1 C :   -0.116611
   2 O :   -0.234554
   3 P :    0.572571
   4 S :   -0.304134
   5 O :   -0.253285
   6 C :   -0.119556
   7 C :   -0.363397
   8 S :    0.100587
   9 C :   -0.466768
  10 S :    0.069385
  11 P :    0.556604
  12 S :   -0.295409
  13 O :   -0.257538
  14 C :   -0.123053
  15 C :   -0.365427
  16 O :   -0.246835
  17 C :   -0.122285
  18 C :   -0.351004
  19 H :    0.129704
  20 H :    0.121122
  21 H :    0.123803
  22 H :    0.117971
  23 H :    0.112280
  24 H :    0.105401
  25 H :    0.115084
  26 H :    0.127847
  27 H :    0.124554
  28 H :    0.124483
  29 H :    0.135918
  30 H :    0.133610
  31 H :    0.115301
  32 H :    0.112118
  33 H :    0.126403
  34 H :    0.120201
  35 H :    0.131667
  36 H :    0.113767
  37 H :    0.108223
  38 H :    0.129783
  39 H :    0.126675
  40 H :    0.130759

  Mayer bond orders larger than 0.100000
B(  0-C ,  1-C ) :   1.1600 B(  0-C , 19-H ) :   0.9395 B(  0-C , 20-H ) :   0.9334
B(  0-C , 21-H ) :   0.9456 B(  1-C ,  2-O ) :   0.8915 B(  1-C , 22-H ) :   0.9333
B(  1-C , 23-H ) :   0.9161 B(  2-O ,  3-P ) :   1.1303 B(  3-P ,  4-S ) :   1.6455
B(  3-P ,  5-O ) :   1.0714 B(  3-P ,  8-S ) :   0.9459 B(  5-O ,  6-C ) :   0.9097
B(  6-C ,  7-C ) :   1.1687 B(  6-C , 24-H ) :   0.9124 B(  6-C , 25-H ) :   0.9357
B(  7-C , 26-H ) :   0.9399 B(  7-C , 27-H ) :   0.9464 B(  7-C , 28-H ) :   0.9309
B(  8-S ,  9-C ) :   1.0081 B(  9-C , 10-S ) :   0.9683 B(  9-C , 29-H ) :   0.9112
B(  9-C , 30-H ) :   0.9028 B( 10-S , 11-P ) :   0.9852 B( 10-S , 12-S ) :   0.1110
B( 11-P , 12-S ) :   1.6285 B( 11-P , 13-O ) :   1.0554 B( 11-P , 16-O ) :   1.1174
B( 13-O , 14-C ) :   0.9015 B( 14-C , 15-C ) :   1.1644 B( 14-C , 31-H ) :   0.9346
B( 14-C , 32-H ) :   0.9100 B( 15-C , 33-H ) :   0.9336 B( 15-C , 34-H ) :   0.9441
B( 15-C , 35-H ) :   0.9392 B( 16-O , 17-C ) :   0.8972 B( 17-C , 18-C ) :   1.1631
B( 17-C , 36-H ) :   0.9314 B( 17-C , 37-H ) :   0.9156 B( 18-C , 38-H ) :   0.9409
B( 18-C , 39-H ) :   0.9480 B( 18-C , 40-H ) :   0.9485

Dispersion correction           -0.067623578
FINAL SINGLE POINT ENERGY     -2929.513192921940

DIPOLE MOMENT
-------------

Method             : SCF
Type of density    : Electron Density
Multiplicity       :   1
Irrep              :   0
Energy             : -2929.6304333557404789 Eh
Relativity type    :
Basis              : AO
                                X                 Y                 Z
Electronic contribution:      3.601464093       2.730862044       1.911001217
Nuclear contribution   :     -4.391619319      -4.179240530      -1.098899593
                        -----------------------------------------
Total Dipole Moment    :     -0.790155227      -1.448378486       0.812101624
                        -----------------------------------------
Magnitude (a.u.)       :      1.838927560
Magnitude (Debye)      :      4.674182393

Rotational constants in cm-1:             0.014571             0.004861             0.004700
Rotational constants in MHz :           436.839208           145.727410           140.889460

                             ****ORCA TERMINATED NORMALLY****
TOTAL RUN TIME: 0 days 0 hours 0 minutes 21 seconds 160 msec
