                         Program Version 6.0.1  -  RELEASE   -
|  1> ! pbe def2-sv(p) def2/J RI DEFGRID1 loosescf d4 GCP(DFT/SV(P)) printgap
|  2> %output
|  3>     printlevel normal
|  4> end
|  5> * xyz 0 1
|  6> C 5.363968082 -2.1837997123 -0.8029786366
|  7> C 4.6376617697 -1.0858528395 -0.042164502
|  8> O 3.2143019049 -1.3099048186 -0.047208708
|  9> C 2.50952768 -0.8344652439 -1.0502500371
| 10> O 2.9624297654 -0.1973655263 -1.9761796362
| 11> C 1.0392786893 -1.1902683061 -0.912639205
| 12> C 0.1945128023 -0.0061227338 -1.3623818177
| 13> H 0.5385651871 0.3219768577 -2.3505446369
| 14> C 0.2878278619 1.1855125238 -0.4291855912
| 15> O -0.6336879878 1.9652217253 -0.2773316914
| 16> O 1.4535433201 1.2826239429 0.1459416725
| 17> C 1.6534815992 2.3528883017 1.0954901371
| 18> C 2.9145383497 2.0500758831 1.8781847046
| 19> S -1.5681600456 -0.4124677052 -1.576190657
| 20> P -2.2255547518 -0.1425483941 0.4050852752
| 21> S -1.0211410586 -0.3007076213 1.9371702273
| 22> O -3.1243829102 1.1685059612 0.5429973651
| 23> C -3.9538936772 1.6377722594 -0.5338590232
| 24> O -3.2928676438 -1.3481447327 0.3097675321
| 25> C -4.067581639 -1.7122033884 1.4578062086
| 26> H 5.0822202977 -2.1601193062 -1.8531214818
| 27> H 6.4346939416 -2.0283703255 -0.7219309749
| 28> H 5.1101845985 -3.1558031699 -0.3893419076
| 29> H 4.8365033424 -0.10816477 -0.4899177874
| 30> H 4.9105372845 -1.0859646013 1.0131474409
| 31> H 0.8314171489 -1.4674286047 0.1217164862
| 32> H 0.8301439546 -2.0428131506 -1.5618183554
| 33> H 1.7305178502 3.2902236342 0.5372441091
| 34> H 0.7711668927 2.3971856008 1.7419792068
| 35> H 3.7655832605 1.9944318711 1.206005501
| 36> H 3.0802882142 2.837967412 2.6049894369
| 37> H 2.807014758 1.1008376823 2.3954196414
| 38> H -4.7119231806 2.261139908 -0.0662759875
| 39> H -4.4089897232 0.7990808703 -1.0620683687
| 40> H -3.3423533017 2.2260339491 -1.2172439594
| 41> H -4.6600469801 -2.5689490303 1.1478207765
| 42> H -4.7120201954 -0.8869455955 1.7634099887
| 43> H -3.4063262301 -1.9814651611 2.2830906876
| 44> *
| 45>
| 46>                          ****END OF INPUT****

CARTESIAN COORDINATES (ANGSTROEM)
---------------------------------
  C      5.363968   -2.183800   -0.802979
  C      4.637662   -1.085853   -0.042165
  O      3.214302   -1.309905   -0.047209
  C      2.509528   -0.834465   -1.050250
  O      2.962430   -0.197366   -1.976180
  C      1.039279   -1.190268   -0.912639
  C      0.194513   -0.006123   -1.362382
  H      0.538565    0.321977   -2.350545
  C      0.287828    1.185513   -0.429186
  O     -0.633688    1.965222   -0.277332
  O      1.453543    1.282624    0.145942
  C      1.653482    2.352888    1.095490
  C      2.914538    2.050076    1.878185
  S     -1.568160   -0.412468   -1.576191
  P     -2.225555   -0.142548    0.405085
  S     -1.021141   -0.300708    1.937170
  O     -3.124383    1.168506    0.542997
  C     -3.953894    1.637772   -0.533859
  O     -3.292868   -1.348145    0.309768
  C     -4.067582   -1.712203    1.457806
  H      5.082220   -2.160119   -1.853121
  H      6.434694   -2.028370   -0.721931
  H      5.110185   -3.155803   -0.389342
  H      4.836503   -0.108165   -0.489918
  H      4.910537   -1.085965    1.013147
  H      0.831417   -1.467429    0.121716
  H      0.830144   -2.042813   -1.561818
  H      1.730518    3.290224    0.537244
  H      0.771167    2.397186    1.741979
  H      3.765583    1.994432    1.206006
  H      3.080288    2.837967    2.604989
  H      2.807015    1.100838    2.395420
  H     -4.711923    2.261140   -0.066276
  H     -4.408990    0.799081   -1.062068
  H     -3.342353    2.226034   -1.217244
  H     -4.660047   -2.568949    1.147821
  H     -4.712020   -0.886946    1.763410
  H     -3.406326   -1.981465    2.283091

 Total Charge           Charge          ....    0
 Multiplicity           Mult            ....    1
 Number of Electrons    NEL             ....  174
 Basis Dimension        Dim             ....  316

ORBITAL ENERGIES
----------------

  NO   OCC          E(Eh)            E(eV)
   0   2.0000     -88.039221     -2395.6690
   1   2.0000     -87.981510     -2394.0986
   2   2.0000     -76.421685     -2079.5398
   3   2.0000     -18.812126      -511.9040
   4   2.0000     -18.800451      -511.5863
   5   2.0000     -18.785489      -511.1791
   6   2.0000     -18.784349      -511.1481
   7   2.0000     -18.739924      -509.9393
   8   2.0000     -18.736842      -509.8554
   9   2.0000     -10.018549      -272.6186
  10   2.0000     -10.007976      -272.3309
  11   2.0000      -9.948558      -270.7140
  12   2.0000      -9.948011      -270.6991
  13   2.0000      -9.946629      -270.6615
  14   2.0000      -9.943113      -270.5659
  15   2.0000      -9.940734      -270.5011
  16   2.0000      -9.901982      -269.4466
  17   2.0000      -9.888689      -269.0849
  18   2.0000      -9.887801      -269.0607
  19   2.0000      -7.684493      -209.1057
  20   2.0000      -7.626768      -207.5349
  21   2.0000      -6.418995      -174.6697
  22   2.0000      -5.712614      -155.4481
  23   2.0000      -5.709193      -155.3550
  24   2.0000      -5.700949      -155.1307
  25   2.0000      -5.655890      -153.9046
  26   2.0000      -5.647610      -153.6793
  27   2.0000      -5.646366      -153.6454
  28   2.0000      -4.641846      -126.3110
  29   2.0000      -4.640767      -126.2817
  30   2.0000      -4.639385      -126.2441
  31   2.0000      -1.021398       -27.7937
  32   2.0000      -1.008627       -27.4461
  33   2.0000      -0.976684       -26.5769
  34   2.0000      -0.934371       -25.4255
  35   2.0000      -0.921325       -25.0705
  36   2.0000      -0.914071       -24.8731
  37   2.0000      -0.764331       -20.7985
  38   2.0000      -0.713043       -19.4029
  39   2.0000      -0.709438       -19.3048
  40   2.0000      -0.690676       -18.7942
  41   2.0000      -0.656967       -17.8770
  42   2.0000      -0.635128       -17.2827
  43   2.0000      -0.617541       -16.8041
  44   2.0000      -0.614558       -16.7230
  45   2.0000      -0.592317       -16.1178
  46   2.0000      -0.560285       -15.2461
  47   2.0000      -0.514818       -14.0089
  48   2.0000      -0.506102       -13.7717
  49   2.0000      -0.500202       -13.6112
  50   2.0000      -0.474962       -12.9244
  51   2.0000      -0.470528       -12.8037
  52   2.0000      -0.462912       -12.5965
  53   2.0000      -0.445242       -12.1157
  54   2.0000      -0.436091       -11.8666
  55   2.0000      -0.432606       -11.7718
  56   2.0000      -0.425669       -11.5830
  57   2.0000      -0.417528       -11.3615
  58   2.0000      -0.409341       -11.1387
  59   2.0000      -0.405156       -11.0249
  60   2.0000      -0.399571       -10.8729
  61   2.0000      -0.397001       -10.8030
  62   2.0000      -0.385613       -10.4931
  63   2.0000      -0.378219       -10.2919
  64   2.0000      -0.375255       -10.2112
  65   2.0000      -0.362559        -9.8657
  66   2.0000      -0.359864        -9.7924
  67   2.0000      -0.357407        -9.7256
  68   2.0000      -0.346375        -9.4253
  69   2.0000      -0.340939        -9.2774
  70   2.0000      -0.331294        -9.0150
  71   2.0000      -0.326212        -8.8767
  72   2.0000      -0.319475        -8.6934
  73   2.0000      -0.318771        -8.6742
  74   2.0000      -0.310627        -8.4526
  75   2.0000      -0.299470        -8.1490
  76   2.0000      -0.292407        -7.9568
  77   2.0000      -0.278132        -7.5684
  78   2.0000      -0.271365        -7.3842
  79   2.0000      -0.268840        -7.3155
  80   2.0000      -0.258568        -7.0360
  81   2.0000      -0.253637        -6.9018
  82   2.0000      -0.233970        -6.3666
  83   2.0000      -0.227148        -6.1810
  84   2.0000      -0.211854        -5.7648
  85   2.0000      -0.202277        -5.5042
  86   2.0000      -0.194687        -5.2977
  87   0.0000      -0.045503        -1.2382
  88   0.0000      -0.030521        -0.8305
  89   0.0000      -0.014034        -0.3819
  90   0.0000       0.008058         0.2193
  91   0.0000       0.029210         0.7949

MULLIKEN ATOMIC CHARGES
-----------------------
   0 C :   -0.298899
   1 C :   -0.023614
   2 O :   -0.223562
   3 C :    0.116709
   4 O :   -0.217259
   5 C :   -0.044446
   6 C :   -0.313174
   7 H :    0.166733
   8 C :    0.175990
   9 O :   -0.198644
  10 O :   -0.214455
  11 C :   -0.023714
  12 C :   -0.288623
  13 S :   -0.056200
  14 P :    0.618397
  15 S :   -0.326689
  16 O :   -0.368769
  17 C :   -0.107238
  18 O :   -0.392734
  19 C :   -0.104440
  20 H :    0.125652
  21 H :    0.112285
  22 H :    0.115396
  23 H :    0.112228
  24 H :    0.104233
  25 H :    0.119795
  26 H :    0.118419
  27 H :    0.107051
  28 H :    0.123860
  29 H :    0.118930
  30 H :    0.112848
  31 H :    0.125460
  32 H :    0.126393
  33 H :    0.112634
  34 H :    0.133244
  35 H :    0.124673
  36 H :    0.109861
  37 H :    0.121672
Sum of atomic charges:    0.0000000

LOEWDIN ATOMIC CHARGES
----------------------
   0 C :   -0.355276
   1 C :   -0.111684
   2 O :   -0.051603
   3 C :    0.027694
   4 O :   -0.178852
   5 C :   -0.257994
   6 C :   -0.264986
   7 H :    0.157326
   8 C :    0.001731
   9 O :   -0.171516
  10 O :   -0.029046
  11 C :   -0.102690
  12 C :   -0.351563
  13 S :    0.128666
  14 P :    0.588016
  15 S :   -0.306706
  16 O :   -0.244814
  17 C :   -0.212540
  18 O :   -0.273832
  19 C :   -0.215832
  20 H :    0.130304
  21 H :    0.130471
  22 H :    0.125637
  23 H :    0.119025
  24 H :    0.117739
  25 H :    0.133537
  26 H :    0.145732
  27 H :    0.118223
  28 H :    0.123800
  29 H :    0.125175
  30 H :    0.131947
  31 H :    0.130642
  32 H :    0.123145
  33 H :    0.106738
  34 H :    0.120114
  35 H :    0.121487
  36 H :    0.109233
  37 H :    0.112552

  Mayer bond orders larger than 0.100000
B(  0-C ,  1-C ) :   1.1730 B(  0-C , 20-H ) :   0.9462 B(  0-C , 21-H ) :   0.9444
B(  0-C , 22-H ) :   0.9484 B(  1-C ,  2-O ) :   0.9169 B(  1-C , 23-H ) :   0.9100
B(  1-C , 24-H ) :   0.9361 B(  2-O ,  3-C ) :   1.2451 B(  3-C ,  4-O ) :   2.0245
B(  3-C ,  5-C ) :   0.9920 B(  5-C ,  6-C ) :   1.0257 B(  5-C , 25-H ) :   0.8869
B(  5-C , 26-H ) :   0.8789 B(  6-C ,  7-H ) :   0.8503 B(  6-C ,  8-C ) :   0.9068
B(  6-C , 13-S ) :   1.0262 B(  8-C ,  9-O ) :   2.0024 B(  8-C , 10-O ) :   1.2718
B( 10-O , 11-C ) :   0.8890 B( 11-C , 12-C ) :   1.1601 B( 11-C , 27-H ) :   0.9345
B( 11-C , 28-H ) :   0.9177 B( 12-C , 29-H ) :   0.9454 B( 12-C , 30-H ) :   0.9417
B( 12-C , 31-H ) :   0.9479 B( 13-S , 14-P ) :   0.9605 B( 13-S , 15-S ) :   0.1086
B( 14-P , 15-S ) :   1.6019 B( 14-P , 16-O ) :   1.1059 B( 14-P , 18-O ) :   1.0631
B( 16-O , 17-C ) :   0.9230 B( 17-C , 32-H ) :   0.9575 B( 17-C , 33-H ) :   0.9416
B( 17-C , 34-H ) :   0.9463 B( 18-O , 19-C ) :   0.9366 B( 19-C , 35-H ) :   0.9593
B( 19-C , 36-H ) :   0.9480 B( 19-C , 37-H ) :   0.9399

Dispersion correction           -0.052583181
FINAL SINGLE POINT ENERGY     -1979.016603133548

DIPOLE MOMENT
-------------

Method             : SCF
Type of density    : Electron Density
Multiplicity       :   1
Irrep              :   0
Energy             : -1979.1469848078299947 Eh
Relativity type    :
Basis              : AO
                                X                 Y                 Z
Electronic contribution:    -16.488960215       0.024988344      -4.225243600
Nuclear contribution   :     16.601709971      -0.070115939       4.395396184
                        -----------------------------------------
Total Dipole Moment    :      0.112749756      -0.045127595       0.170152585
                        -----------------------------------------
Magnitude (a.u.)       :      0.209047625
Magnitude (Debye)      :      0.531356834

Rotational constants in cm-1:             0.017242             0.005864             0.005504
Rotational constants in MHz :           516.897361           175.785071           164.999966

                             ****ORCA TERMINATED NORMALLY****
TOTAL RUN TIME: 0 days 0 hours 0 minutes 30 seconds 489 msec
