                         Program Version 6.0.0  -   RELEASE  -
|  1> ! pbe def2-sv(p) def2/J RI DEFGRID1 loosescf d4 GCP(DFT/SV(P)) printgap
|  2> %output
|  3>     printlevel normal
|  4> end
|  5> * xyz 0 1
|  6> C 5.1840146903 -0.8802220816 -1.4349173125
|  7> C 4.6571563279 -0.3392426035 -0.1212418929
|  8> O 3.5723119138 0.5957688248 -0.3482216991
|  9> P 2.043954189 0.2129698944 -0.1868272706
| 10> S 0.9191198808 1.7907633711 -0.442497067
| 11> O 1.9118024186 -0.5460610589 1.2154634939
| 12> C 1.510465215 0.1100471289 2.4313300223
| 13> C 2.5536740194 1.1035112286 2.9008733087
| 14> S 1.7600227782 -1.430380516 -1.4752613352
| 15> C -0.0451711225 -1.4223074085 -1.5639717739
| 16> S -0.8603613953 -1.6354382068 0.0573036562
| 17> P -2.2000514058 -0.0134528877 0.0058725662
| 18> S -2.4527237799 0.9333548977 -1.6979199638
| 19> O -1.6745386509 0.8261058876 1.2425503996
| 20> C -2.2912272148 2.0931031594 1.5736529478
| 21> C -1.3632921269 2.8434757788 2.5054893041
| 22> O -3.5601948587 -0.5788571652 0.6163012438
| 23> C -4.5970737939 -1.1472668805 -0.2013675956
| 24> C -4.1585561995 -2.436489867 -0.8653384934
| 25> H 4.4260973338 -1.4816011287 -1.9322533534
| 26> H 5.4643481376 -0.058671923 -2.0883213586
| 27> H 6.0558345299 -1.4964926166 -1.2391493115
| 28> H 5.4170622966 0.2501742753 0.3950871612
| 29> H 4.3046363109 -1.1442580061 0.5278101981
| 30> H 0.5506323984 0.6044534344 2.25782402
| 31> H 1.3780077317 -0.7107065559 3.1380517137
| 32> H 3.5061997373 0.6056796748 3.0637360557
| 33> H 2.6850880947 1.8804402567 2.1472751241
| 34> H 2.2243794517 1.5629143114 3.8275882979
| 35> H -0.3044117757 -2.2689657634 -2.1950944378
| 36> H -0.3926182227 -0.4828217376 -2.0035418268
| 37> H -2.4528647291 2.650518975 0.6444121922
| 38> H -3.2560318529 1.8845591706 2.0428082539
| 39> H -0.4146672554 3.0292323098 2.0074886179
| 40> H -1.8185456286 3.7930049352 2.7673040973
| 41> H -1.1890548696 2.2640725516 3.4075864325
| 42> H -5.4196606103 -1.3100492839 0.4961480866
| 43> H -4.8849494023 -0.4068227769 -0.9544667076
| 44> H -3.7652117674 -3.1290471705 -0.1255653523
| 45> H -5.0073029752 -2.8874885558 -1.369185775
| 46> H -3.3830421083 -2.2258831952 -1.6010271378
| 47> *
| 48>
| 49>                          ****END OF INPUT****

CARTESIAN COORDINATES (ANGSTROEM)
---------------------------------
  C      5.184015   -0.880222   -1.434917
  C      4.657156   -0.339243   -0.121242
  O      3.572312    0.595769   -0.348222
  P      2.043954    0.212970   -0.186827
  S      0.919120    1.790763   -0.442497
  O      1.911802   -0.546061    1.215463
  C      1.510465    0.110047    2.431330
  C      2.553674    1.103511    2.900873
  S      1.760023   -1.430381   -1.475261
  C     -0.045171   -1.422307   -1.563972
  S     -0.860361   -1.635438    0.057304
  P     -2.200051   -0.013453    0.005873
  S     -2.452724    0.933355   -1.697920
  O     -1.674539    0.826106    1.242550
  C     -2.291227    2.093103    1.573653
  C     -1.363292    2.843476    2.505489
  O     -3.560195   -0.578857    0.616301
  C     -4.597074   -1.147267   -0.201368
  C     -4.158556   -2.436490   -0.865338
  H      4.426097   -1.481601   -1.932253
  H      5.464348   -0.058672   -2.088321
  H      6.055835   -1.496493   -1.239149
  H      5.417062    0.250174    0.395087
  H      4.304636   -1.144258    0.527810
  H      0.550632    0.604453    2.257824
  H      1.378008   -0.710707    3.138052
  H      3.506200    0.605680    3.063736
  H      2.685088    1.880440    2.147275
  H      2.224379    1.562914    3.827588
  H     -0.304412   -2.268966   -2.195094
  H     -0.392618   -0.482822   -2.003542
  H     -2.452865    2.650519    0.644412
  H     -3.256032    1.884559    2.042808
  H     -0.414667    3.029232    2.007489
  H     -1.818546    3.793005    2.767304
  H     -1.189055    2.264073    3.407586
  H     -5.419661   -1.310049    0.496148
  H     -4.884949   -0.406823   -0.954467
  H     -3.765212   -3.129047   -0.125565
  H     -5.007303   -2.887489   -1.369186
  H     -3.383042   -2.225883   -1.601027

 Total Charge           Charge          ....    0
 Multiplicity           Mult            ....    1
 Number of Electrons    NEL             ....  202
 Basis Dimension        Dim             ....  334

ORBITAL ENERGIES
----------------

  NO   OCC          E(Eh)            E(eV)
   0   2.0000     -88.043203     -2395.7774
   1   2.0000     -88.041744     -2395.7376
   2   2.0000     -87.984716     -2394.1858
   3   2.0000     -87.979052     -2394.0317
   4   2.0000     -76.422925     -2079.5735
   5   2.0000     -76.421759     -2079.5418
   6   2.0000     -18.792348      -511.3658
   7   2.0000     -18.787592      -511.2364
   8   2.0000     -18.785922      -511.1909
   9   2.0000     -18.784143      -511.1425
  10   2.0000      -9.957749      -270.9641
  11   2.0000      -9.954526      -270.8764
  12   2.0000      -9.949337      -270.7352
  13   2.0000      -9.947414      -270.6829
  14   2.0000      -9.944252      -270.5969
  15   2.0000      -9.889228      -269.0996
  16   2.0000      -9.883006      -268.9303
  17   2.0000      -9.882121      -268.9062
  18   2.0000      -9.881920      -268.9007
  19   2.0000      -7.688073      -209.2031
  20   2.0000      -7.687325      -209.1827
  21   2.0000      -7.629629      -207.6128
  22   2.0000      -7.624064      -207.4613
  23   2.0000      -6.420612      -174.7137
  24   2.0000      -6.419400      -174.6807
  25   2.0000      -5.715951      -155.5389
  26   2.0000      -5.715287      -155.5209
  27   2.0000      -5.712696      -155.4504
  28   2.0000      -5.711766      -155.4251
  29   2.0000      -5.704897      -155.2381
  30   2.0000      -5.704187      -155.2188
  31   2.0000      -5.658472      -153.9748
  32   2.0000      -5.653155      -153.8302
  33   2.0000      -5.650491      -153.7577
  34   2.0000      -5.649623      -153.7341
  35   2.0000      -5.644714      -153.6005
  36   2.0000      -5.643961      -153.5800
  37   2.0000      -4.642941      -126.3409
  38   2.0000      -4.642283      -126.3229
  39   2.0000      -4.642218      -126.3212
  40   2.0000      -4.641393      -126.2987
  41   2.0000      -4.640842      -126.2837
  42   2.0000      -4.639931      -126.2590
  43   2.0000      -0.983193       -26.7540
  44   2.0000      -0.981799       -26.7161
  45   2.0000      -0.940033       -25.5796
  46   2.0000      -0.939411       -25.5627
  47   2.0000      -0.762206       -20.7407
  48   2.0000      -0.720407       -19.6033
  49   2.0000      -0.708428       -19.2773
  50   2.0000      -0.689758       -18.7693
  51   2.0000      -0.684448       -18.6248
  52   2.0000      -0.673562       -18.3285
  53   2.0000      -0.649414       -17.6714
  54   2.0000      -0.633220       -17.2308
  55   2.0000      -0.597183       -16.2502
  56   2.0000      -0.584700       -15.9105
  57   2.0000      -0.577451       -15.7132
  58   2.0000      -0.569440       -15.4952
  59   2.0000      -0.555661       -15.1203
  60   2.0000      -0.503135       -13.6910
  61   2.0000      -0.496034       -13.4978
  62   2.0000      -0.472544       -12.8586
  63   2.0000      -0.468659       -12.7528
  64   2.0000      -0.448586       -12.2066
  65   2.0000      -0.443950       -12.0805
  66   2.0000      -0.439412       -11.9570
  67   2.0000      -0.434971       -11.8362
  68   2.0000      -0.425587       -11.5808
  69   2.0000      -0.422575       -11.4989
  70   2.0000      -0.406540       -11.0625
  71   2.0000      -0.398218       -10.8361
  72   2.0000      -0.390959       -10.6385
  73   2.0000      -0.386505       -10.5173
  74   2.0000      -0.375873       -10.2280
  75   2.0000      -0.370955       -10.0942
  76   2.0000      -0.365280        -9.9398
  77   2.0000      -0.357022        -9.7151
  78   2.0000      -0.353198        -9.6110
  79   2.0000      -0.351424        -9.5627
  80   2.0000      -0.348915        -9.4945
  81   2.0000      -0.343360        -9.3433
  82   2.0000      -0.338478        -9.2105
  83   2.0000      -0.334732        -9.1085
  84   2.0000      -0.332084        -9.0365
  85   2.0000      -0.314779        -8.5656
  86   2.0000      -0.310410        -8.4467
  87   2.0000      -0.303311        -8.2535
  88   2.0000      -0.293906        -7.9976
  89   2.0000      -0.288865        -7.8604
  90   2.0000      -0.274280        -7.4635
  91   2.0000      -0.271457        -7.3867
  92   2.0000      -0.267539        -7.2801
  93   2.0000      -0.266531        -7.2527
  94   2.0000      -0.260618        -7.0918
  95   2.0000      -0.228913        -6.2290
  96   2.0000      -0.219900        -5.9838
  97   2.0000      -0.212211        -5.7746
  98   2.0000      -0.201895        -5.4938
  99   2.0000      -0.192760        -5.2453
 100   2.0000      -0.186853        -5.0845
 101   0.0000      -0.041025        -1.1163
 102   0.0000      -0.033328        -0.9069
 103   0.0000      -0.005174        -0.1408
 104   0.0000       0.009623         0.2618
 105   0.0000       0.020431         0.5560

MULLIKEN ATOMIC CHARGES
-----------------------
   0 C :   -0.294851
   1 C :   -0.032927
   2 O :   -0.365709
   3 P :    0.610143
   4 S :   -0.296666
   5 O :   -0.382741
   6 C :   -0.036438
   7 C :   -0.315908
   8 S :   -0.112821
   9 C :   -0.344916
  10 S :   -0.086510
  11 P :    0.621523
  12 S :   -0.316030
  13 O :   -0.360024
  14 C :   -0.008105
  15 C :   -0.297227
  16 O :   -0.381495
  17 C :   -0.000102
  18 C :   -0.312629
  19 H :    0.132683
  20 H :    0.124554
  21 H :    0.111411
  22 H :    0.111062
  23 H :    0.111282
  24 H :    0.149089
  25 H :    0.099986
  26 H :    0.107490
  27 H :    0.130272
  28 H :    0.110097
  29 H :    0.180720
  30 H :    0.212101
  31 H :    0.108542
  32 H :    0.100329
  33 H :    0.138894
  34 H :    0.112014
  35 H :    0.112910
  36 H :    0.102491
  37 H :    0.109291
  38 H :    0.118385
  39 H :    0.111885
  40 H :    0.117946
Sum of atomic charges:   -0.0000000

LOEWDIN ATOMIC CHARGES
----------------------
   0 C :   -0.360271
   1 C :   -0.119818
   2 O :   -0.242740
   3 P :    0.562038
   4 S :   -0.294934
   5 O :   -0.252352
   6 C :   -0.124027
   7 C :   -0.367336
   8 S :    0.080218
   9 C :   -0.476902
  10 S :    0.093654
  11 P :    0.572971
  12 S :   -0.303413
  13 O :   -0.238446
  14 C :   -0.115578
  15 C :   -0.356436
  16 O :   -0.250938
  17 C :   -0.120181
  18 C :   -0.369157
  19 H :    0.119502
  20 H :    0.131359
  21 H :    0.130949
  22 H :    0.120910
  23 H :    0.110344
  24 H :    0.115744
  25 H :    0.117401
  26 H :    0.120449
  27 H :    0.124121
  28 H :    0.129245
  29 H :    0.134861
  30 H :    0.126555
  31 H :    0.111171
  32 H :    0.110448
  33 H :    0.128232
  34 H :    0.130536
  35 H :    0.122431
  36 H :    0.117382
  37 H :    0.109405
  38 H :    0.124245
  39 H :    0.130035
  40 H :    0.118322

  Mayer bond orders larger than 0.100000
B(  0-C ,  1-C ) :   1.1674 B(  0-C , 19-H ) :   0.9352 B(  0-C , 20-H ) :   0.9457
B(  0-C , 21-H ) :   0.9386 B(  1-C ,  2-O ) :   0.9005 B(  1-C , 22-H ) :   0.9335
B(  1-C , 23-H ) :   0.9147 B(  2-O ,  3-P ) :   1.1170 B(  3-P ,  4-S ) :   1.6587
B(  3-P ,  5-O ) :   1.0723 B(  3-P ,  8-S ) :   0.9529 B(  4-S ,  8-S ) :   0.1033
B(  5-O ,  6-C ) :   0.8987 B(  6-C ,  7-C ) :   1.1609 B(  6-C , 24-H ) :   0.8999
B(  6-C , 25-H ) :   0.9341 B(  7-C , 26-H ) :   0.9460 B(  7-C , 27-H ) :   0.9316
B(  7-C , 28-H ) :   0.9401 B(  8-S ,  9-C ) :   1.0058 B(  9-C , 10-S ) :   0.9950
B(  9-C , 29-H ) :   0.9110 B(  9-C , 30-H ) :   0.8489 B( 10-S , 11-P ) :   0.9706
B( 10-S , 12-S ) :   0.1206 B( 11-P , 12-S ) :   1.6021 B( 11-P , 13-O ) :   1.1243
B( 11-P , 16-O ) :   1.0902 B( 13-O , 14-C ) :   0.9051 B( 14-C , 15-C ) :   1.1661
B( 14-C , 31-H ) :   0.9119 B( 14-C , 32-H ) :   0.9306 B( 15-C , 33-H ) :   0.9364
B( 15-C , 34-H ) :   0.9397 B( 15-C , 35-H ) :   0.9448 B( 16-O , 17-C ) :   0.9164
B( 17-C , 18-C ) :   1.1650 B( 17-C , 36-H ) :   0.9339 B( 17-C , 37-H ) :   0.9146
B( 18-C , 38-H ) :   0.9437 B( 18-C , 39-H ) :   0.9381 B( 18-C , 40-H ) :   0.9371

Dispersion correction           -0.067521130
FINAL SINGLE POINT ENERGY     -2929.518328111765

DIPOLE MOMENT
-------------

Method             : SCF
Type of density    : Electron Density
Multiplicity       :   1
Irrep              :   0
Energy             : -2929.6368006646357571 Eh
Relativity type    :
Basis              : AO
                                X                 Y                 Z
Electronic contribution:     -3.443750606      -1.576127964     -11.601160433
Nuclear contribution   :      3.655199190       0.701240419      12.702548399
                        -----------------------------------------
Total Dipole Moment    :      0.211448585      -0.874887546       1.101387966
                        -----------------------------------------
Magnitude (a.u.)       :      1.422390303
Magnitude (Debye)      :      3.615428827

Rotational constants in cm-1:             0.012552             0.005529             0.004669
Rotational constants in MHz :           376.304418           165.766701           139.976817

                             ****ORCA TERMINATED NORMALLY****
TOTAL RUN TIME: 0 days 0 hours 0 minutes 21 seconds 529 msec
