                         Program Version 6.0.0  -   RELEASE  -
|  1> ! pbe def2-sv(p) def2/J RI DEFGRID1 loosescf d4 GCP(DFT/SV(P)) printgap
|  2> %output
|  3>     printlevel normal
|  4> end
|  5> * xyz 0 1
|  6> C 1.885157041 -0.8320238215 -2.6636710493
|  7> C 2.9672324403 0.1237271498 -2.209604941
|  8> O 2.7104375298 0.6769161939 -0.8959960122
|  9> P 2.6081504583 -0.1394183808 0.4518013864
| 10> S 3.0882007877 0.9801937619 1.9856538225
| 11> O 3.5368046251 -1.397281267 0.1782097996
| 12> C 4.0804291638 -2.1985073734 1.2449558403
| 13> C 3.006799106 -2.9543840682 1.9996599344
| 14> S 0.6311071906 -0.9126773006 0.5432840242
| 15> C -0.1157781544 0.6494128573 1.1172063929
| 16> S -1.8698600279 0.4561910189 1.4572255567
| 17> P -2.5833321074 0.5240607694 -0.5600718797
| 18> S -1.298413362 1.2108515479 -1.8813568763
| 19> O -3.9838404773 1.2443912514 -0.451106513
| 20> C -4.2520167529 2.4358897913 0.3093715211
| 21> C -3.3591520841 3.5942412648 -0.088122976
| 22> O -3.1829443398 -0.8925968159 -0.9215472359
| 23> C -2.4112629381 -1.9861829052 -1.4502863595
| 24> C -2.1354743417 -3.0118263888 -0.368308063
| 25> H 0.9160197376 -0.3374785836 -2.6435522412
| 26> H 2.0976352079 -1.1481572595 -3.6800304967
| 27> H 1.8552982508 -1.7064883784 -2.0167534996
| 28> H 3.0103650869 1.0087645763 -2.8462103033
| 29> H 3.9409835291 -0.3691559554 -2.1845964498
| 30> H 4.7675272464 -2.8745629139 0.734074588
| 31> H 4.6360175653 -1.5411854494 1.9207039027
| 32> H 3.4764555242 -3.6336916032 2.7037412606
| 33> H 2.3775760649 -2.2572086789 2.5507527699
| 34> H 2.3847950922 -3.5205004522 1.311119583
| 35> H 0.0214852284 1.4011712931 0.3361857885
| 36> H 0.3668298573 0.9519793143 2.0459701001
| 37> H -5.2997426359 2.6483587649 0.0896855208
| 38> H -4.136669971 2.2023298913 1.3713972791
| 39> H -3.4233297906 3.7716061592 -1.1592904461
| 40> H -3.6680831833 4.4888310772 0.4430223338
| 41> H -2.3217215445 3.3754856641 0.1638055204
| 42> H -3.0306703493 -2.4069103008 -2.2448779075
| 43> H -1.4818163244 -1.6000886443 -1.8825026469
| 44> H -3.0701929373 -3.3317122224 0.0830348036
| 45> H -1.6356845716 -3.8676998599 -0.8092763374
| 46> H -1.4956306162 -2.5891922451 0.4035714121
| 47> *
| 48>
| 49>                          ****END OF INPUT****

CARTESIAN COORDINATES (ANGSTROEM)
---------------------------------
  C      1.885157   -0.832024   -2.663671
  C      2.967232    0.123727   -2.209605
  O      2.710438    0.676916   -0.895996
  P      2.608150   -0.139418    0.451801
  S      3.088201    0.980194    1.985654
  O      3.536805   -1.397281    0.178210
  C      4.080429   -2.198507    1.244956
  C      3.006799   -2.954384    1.999660
  S      0.631107   -0.912677    0.543284
  C     -0.115778    0.649413    1.117206
  S     -1.869860    0.456191    1.457226
  P     -2.583332    0.524061   -0.560072
  S     -1.298413    1.210852   -1.881357
  O     -3.983840    1.244391   -0.451107
  C     -4.252017    2.435890    0.309372
  C     -3.359152    3.594241   -0.088123
  O     -3.182944   -0.892597   -0.921547
  C     -2.411263   -1.986183   -1.450286
  C     -2.135474   -3.011826   -0.368308
  H      0.916020   -0.337479   -2.643552
  H      2.097635   -1.148157   -3.680030
  H      1.855298   -1.706488   -2.016753
  H      3.010365    1.008765   -2.846210
  H      3.940984   -0.369156   -2.184596
  H      4.767527   -2.874563    0.734075
  H      4.636018   -1.541185    1.920704
  H      3.476456   -3.633692    2.703741
  H      2.377576   -2.257209    2.550753
  H      2.384795   -3.520500    1.311120
  H      0.021485    1.401171    0.336186
  H      0.366830    0.951979    2.045970
  H     -5.299743    2.648359    0.089686
  H     -4.136670    2.202330    1.371397
  H     -3.423330    3.771606   -1.159290
  H     -3.668083    4.488831    0.443022
  H     -2.321722    3.375486    0.163806
  H     -3.030670   -2.406910   -2.244878
  H     -1.481816   -1.600089   -1.882503
  H     -3.070193   -3.331712    0.083035
  H     -1.635685   -3.867700   -0.809276
  H     -1.495631   -2.589192    0.403571

 Total Charge           Charge          ....    0
 Multiplicity           Mult            ....    1
 Number of Electrons    NEL             ....  202
 Basis Dimension        Dim             ....  334

ORBITAL ENERGIES
----------------

  NO   OCC          E(Eh)            E(eV)
   0   2.0000     -88.053177     -2396.0487
   1   2.0000     -88.040550     -2395.7052
   2   2.0000     -87.991529     -2394.3712
   3   2.0000     -87.983607     -2394.1557
   4   2.0000     -76.430614     -2079.7827
   5   2.0000     -76.427546     -2079.6992
   6   2.0000     -18.800452      -511.5863
   7   2.0000     -18.793868      -511.4071
   8   2.0000     -18.789054      -511.2761
   9   2.0000     -18.788836      -511.2702
  10   2.0000      -9.959794      -271.0198
  11   2.0000      -9.958221      -270.9770
  12   2.0000      -9.953320      -270.8436
  13   2.0000      -9.952048      -270.8090
  14   2.0000      -9.951354      -270.7901
  15   2.0000      -9.887840      -269.0618
  16   2.0000      -9.885931      -269.0099
  17   2.0000      -9.883187      -268.9352
  18   2.0000      -9.880672      -268.8668
  19   2.0000      -7.697726      -209.4658
  20   2.0000      -7.685127      -209.1229
  21   2.0000      -7.636129      -207.7896
  22   2.0000      -7.628944      -207.5941
  23   2.0000      -6.427785      -174.9089
  24   2.0000      -6.424835      -174.8286
  25   2.0000      -5.725459      -155.7977
  26   2.0000      -5.722176      -155.7083
  27   2.0000      -5.715030      -155.5139
  28   2.0000      -5.712870      -155.4551
  29   2.0000      -5.710001      -155.3770
  30   2.0000      -5.701965      -155.1583
  31   2.0000      -5.665014      -154.1529
  32   2.0000      -5.657923      -153.9599
  33   2.0000      -5.656594      -153.9237
  34   2.0000      -5.656524      -153.9219
  35   2.0000      -5.649664      -153.7352
  36   2.0000      -5.648905      -153.7145
  37   2.0000      -4.650105      -126.5358
  38   2.0000      -4.649882      -126.5297
  39   2.0000      -4.648151      -126.4826
  40   2.0000      -4.648033      -126.4794
  41   2.0000      -4.646333      -126.4331
  42   2.0000      -4.645005      -126.3970
  43   2.0000      -0.991467       -26.9792
  44   2.0000      -0.990623       -26.9562
  45   2.0000      -0.946147       -25.7460
  46   2.0000      -0.945875       -25.7386
  47   2.0000      -0.765067       -20.8185
  48   2.0000      -0.723694       -19.6927
  49   2.0000      -0.713408       -19.4128
  50   2.0000      -0.692698       -18.8493
  51   2.0000      -0.686229       -18.6732
  52   2.0000      -0.679811       -18.4986
  53   2.0000      -0.652772       -17.7628
  54   2.0000      -0.636067       -17.3083
  55   2.0000      -0.602160       -16.3856
  56   2.0000      -0.597295       -16.2532
  57   2.0000      -0.578624       -15.7452
  58   2.0000      -0.571718       -15.5572
  59   2.0000      -0.558602       -15.2003
  60   2.0000      -0.500699       -13.6247
  61   2.0000      -0.496935       -13.5223
  62   2.0000      -0.473169       -12.8756
  63   2.0000      -0.470570       -12.8049
  64   2.0000      -0.456991       -12.4354
  65   2.0000      -0.453429       -12.3384
  66   2.0000      -0.444347       -12.0913
  67   2.0000      -0.431981       -11.7548
  68   2.0000      -0.426476       -11.6050
  69   2.0000      -0.426140       -11.5959
  70   2.0000      -0.417040       -11.3482
  71   2.0000      -0.405256       -11.0276
  72   2.0000      -0.400053       -10.8860
  73   2.0000      -0.389321       -10.5940
  74   2.0000      -0.383943       -10.4476
  75   2.0000      -0.372457       -10.1351
  76   2.0000      -0.368150       -10.0179
  77   2.0000      -0.357953        -9.7404
  78   2.0000      -0.352395        -9.5891
  79   2.0000      -0.351587        -9.5672
  80   2.0000      -0.347098        -9.4450
  81   2.0000      -0.343304        -9.3418
  82   2.0000      -0.341734        -9.2990
  83   2.0000      -0.337944        -9.1959
  84   2.0000      -0.337211        -9.1760
  85   2.0000      -0.322185        -8.7671
  86   2.0000      -0.317381        -8.6364
  87   2.0000      -0.300563        -8.1787
  88   2.0000      -0.297806        -8.1037
  89   2.0000      -0.294453        -8.0125
  90   2.0000      -0.290689        -7.9101
  91   2.0000      -0.274720        -7.4755
  92   2.0000      -0.273528        -7.4431
  93   2.0000      -0.264574        -7.1994
  94   2.0000      -0.259020        -7.0483
  95   2.0000      -0.231526        -6.3002
  96   2.0000      -0.225040        -6.1237
  97   2.0000      -0.209313        -5.6957
  98   2.0000      -0.207747        -5.6531
  99   2.0000      -0.205310        -5.5868
 100   2.0000      -0.193949        -5.2776
 101   0.0000      -0.049929        -1.3586
 102   0.0000      -0.037103        -1.0096
 103   0.0000      -0.014270        -0.3883
 104   0.0000       0.000824         0.0224
 105   0.0000       0.013136         0.3574

MULLIKEN ATOMIC CHARGES
-----------------------
   0 C :   -0.352398
   1 C :    0.012914
   2 O :   -0.363479
   3 P :    0.624821
   4 S :   -0.324016
   5 O :   -0.384592
   6 C :   -0.001264
   7 C :   -0.321287
   8 S :   -0.118238
   9 C :   -0.350756
  10 S :   -0.106110
  11 P :    0.594298
  12 S :   -0.316533
  13 O :   -0.356546
  14 C :   -0.007113
  15 C :   -0.312863
  16 O :   -0.350105
  17 C :   -0.015346
  18 C :   -0.301707
  19 H :    0.161751
  20 H :    0.108834
  21 H :    0.115254
  22 H :    0.111068
  23 H :    0.105710
  24 H :    0.106017
  25 H :    0.116075
  26 H :    0.116126
  27 H :    0.133253
  28 H :    0.116100
  29 H :    0.200471
  30 H :    0.190206
  31 H :    0.112106
  32 H :    0.114340
  33 H :    0.128149
  34 H :    0.113715
  35 H :    0.125849
  36 H :    0.106561
  37 H :    0.116688
  38 H :    0.114868
  39 H :    0.106715
  40 H :    0.130463
Sum of atomic charges:   -0.0000000

LOEWDIN ATOMIC CHARGES
----------------------
   0 C :   -0.377721
   1 C :   -0.105537
   2 O :   -0.239273
   3 P :    0.577720
   4 S :   -0.315753
   5 O :   -0.245290
   6 C :   -0.115622
   7 C :   -0.371370
   8 S :    0.073755
   9 C :   -0.486591
  10 S :    0.083472
  11 P :    0.567987
  12 S :   -0.295075
  13 O :   -0.230724
  14 C :   -0.114764
  15 C :   -0.367587
  16 O :   -0.232824
  17 C :   -0.118740
  18 C :   -0.362593
  19 H :    0.123678
  20 H :    0.129594
  21 H :    0.114113
  22 H :    0.123706
  23 H :    0.112621
  24 H :    0.119070
  25 H :    0.114690
  26 H :    0.132899
  27 H :    0.123555
  28 H :    0.123214
  29 H :    0.121646
  30 H :    0.129544
  31 H :    0.123079
  32 H :    0.108358
  33 H :    0.131197
  34 H :    0.131149
  35 H :    0.121183
  36 H :    0.119099
  37 H :    0.107270
  38 H :    0.126355
  39 H :    0.128881
  40 H :    0.111628

  Mayer bond orders larger than 0.100000
B(  0-C ,  1-C ) :   1.1720 B(  0-C , 19-H ) :   0.9177 B(  0-C , 20-H ) :   0.9339
B(  0-C , 21-H ) :   0.9401 B(  1-C ,  2-O ) :   0.8972 B(  1-C , 22-H ) :   0.9334
B(  1-C , 23-H ) :   0.9293 B(  2-O ,  3-P ) :   1.1365 B(  3-P ,  4-S ) :   1.6274
B(  3-P ,  5-O ) :   1.0817 B(  3-P ,  8-S ) :   0.9510 B(  4-S ,  8-S ) :   0.1111
B(  5-O ,  6-C ) :   0.9002 B(  6-C ,  7-C ) :   1.1666 B(  6-C , 24-H ) :   0.9340
B(  6-C , 25-H ) :   0.9175 B(  7-C , 26-H ) :   0.9367 B(  7-C , 27-H ) :   0.9325
B(  7-C , 28-H ) :   0.9449 B(  8-S ,  9-C ) :   0.9777 B(  9-C , 10-S ) :   1.0192
B(  9-C , 29-H ) :   0.8614 B(  9-C , 30-H ) :   0.8753 B( 10-S , 11-P ) :   0.9157
B( 10-S , 12-S ) :   0.1233 B( 11-P , 12-S ) :   1.6145 B( 11-P , 13-O ) :   1.1376
B( 11-P , 16-O ) :   1.1356 B( 13-O , 14-C ) :   0.9144 B( 14-C , 15-C ) :   1.1630
B( 14-C , 31-H ) :   0.9333 B( 14-C , 32-H ) :   0.9245 B( 15-C , 33-H ) :   0.9432
B( 15-C , 34-H ) :   0.9360 B( 15-C , 35-H ) :   0.9361 B( 16-O , 17-C ) :   0.9088
B( 17-C , 18-C ) :   1.1669 B( 17-C , 36-H ) :   0.9343 B( 17-C , 37-H ) :   0.9035
B( 18-C , 38-H ) :   0.9456 B( 18-C , 39-H ) :   0.9409 B( 18-C , 40-H ) :   0.9312

Dispersion correction           -0.064797148
FINAL SINGLE POINT ENERGY     -2929.515900821888

DIPOLE MOMENT
-------------

Method             : SCF
Type of density    : Electron Density
Multiplicity       :   1
Irrep              :   0
Energy             : -2929.6359968472988839 Eh
Relativity type    :
Basis              : AO
                                X                 Y                 Z
Electronic contribution:     -0.457154091       9.983355175       4.703441386
Nuclear contribution   :      0.217929337     -11.034001236      -4.976864030
                        -----------------------------------------
Total Dipole Moment    :     -0.239224754      -1.050646060      -0.273422644
                        -----------------------------------------
Magnitude (a.u.)       :      1.111685913
Magnitude (Debye)      :      2.825681030

Rotational constants in cm-1:             0.012276             0.004668             0.004484
Rotational constants in MHz :           368.028913           139.941069           134.437353

                             ****ORCA TERMINATED NORMALLY****
TOTAL RUN TIME: 0 days 0 hours 0 minutes 21 seconds 116 msec
