                         Program Version 6.0.0  -   RELEASE  -
|  1> ! pbe def2-sv(p) def2/J RI DEFGRID1 loosescf d4 GCP(DFT/SV(P)) printgap
|  2> %output
|  3>     printlevel normal
|  4> end
|  5> * xyz 0 1
|  6> C 4.3114437373 -1.8760277115 -1.0673794823
|  7> C 4.6201001396 -0.584952124 -0.3367200188
|  8> O 3.5486138216 -0.1777399862 0.5301716236
|  9> P 2.1248430099 0.2752159301 -0.0181293965
| 10> S 2.1962725625 1.3229363987 -1.6780153823
| 11> O 1.5280225117 0.9676417797 1.2770549205
| 12> C 1.691517073 2.3763890745 1.5407722212
| 13> C 3.1438292357 2.7635997882 1.7177183239
| 14> S 1.0055667997 -1.5158741958 -0.029637796
| 15> C 0.092932305 -1.3149654524 -1.5990663056
| 16> S -1.6881680895 -1.5771074576 -1.4393110799
| 17> P -2.1308111892 -0.0344695372 -0.0782238653
| 18> S -1.2239146899 1.6823249574 -0.3079304806
| 19> O -1.8401825975 -0.8144346614 1.2892603215
| 20> C -1.5222563705 -0.1437501755 2.5208531862
| 21> C -2.7033026395 0.6427683648 3.0521475125
| 22> O -3.7005747224 0.1554140948 -0.1678766128
| 23> C -4.6463733199 -0.9212313372 0.054601171
| 24> C -5.1477107358 -1.4781644751 -1.2623608184
| 25> H 4.0086258301 -2.6469021751 -0.3633241778
| 26> H 3.5049272578 -1.7126030575 -1.7812783661
| 27> H 5.1952876904 -2.2035591357 -1.6052451736
| 28> H 4.8098653503 0.2220110056 -1.0516996381
| 29> H 5.4718215165 -0.6954502576 0.3356081206
| 30> H 1.22941976 2.9327410705 0.7182441533
| 31> H 1.1159779674 2.5386920546 2.4535160004
| 32> H 3.2011912197 3.8053721948 2.0172562023
| 33> H 3.6082334216 2.1390331996 2.4765159586
| 34> H 3.6795317263 2.6368338651 0.7775959088
| 35> H 0.4332400457 -2.0767868206 -2.2962089779
| 36> H 0.287698929 -0.3112001135 -1.9874462685
| 37> H -1.2330808392 -0.9540564377 3.1919329016
| 38> H -0.6639542185 0.5119891731 2.3468133862
| 39> H -2.9754963106 1.4221280226 2.3399630608
| 40> H -3.5574687183 -0.0122011617 3.2038789855
| 41> H -2.43334019 1.1057886173 3.9960855433
| 42> H -4.1688970242 -1.6967650767 0.6581673014
| 43> H -5.4562669139 -0.4553464051 0.6189587343
| 44> H -5.9247485048 -2.2095345008 -1.0635288917
| 45> H -5.5560851378 -0.6771346815 -1.8722549138
| 46> H -4.3378449451 -1.957345553 -1.8081370586
| 47> *
| 48>
| 49>                          ****END OF INPUT****

CARTESIAN COORDINATES (ANGSTROEM)
---------------------------------
  C      4.311444   -1.876028   -1.067379
  C      4.620100   -0.584952   -0.336720
  O      3.548614   -0.177740    0.530172
  P      2.124843    0.275216   -0.018129
  S      2.196273    1.322936   -1.678015
  O      1.528023    0.967642    1.277055
  C      1.691517    2.376389    1.540772
  C      3.143829    2.763600    1.717718
  S      1.005567   -1.515874   -0.029638
  C      0.092932   -1.314965   -1.599066
  S     -1.688168   -1.577107   -1.439311
  P     -2.130811   -0.034470   -0.078224
  S     -1.223915    1.682325   -0.307930
  O     -1.840183   -0.814435    1.289260
  C     -1.522256   -0.143750    2.520853
  C     -2.703303    0.642768    3.052148
  O     -3.700575    0.155414   -0.167877
  C     -4.646373   -0.921231    0.054601
  C     -5.147711   -1.478164   -1.262361
  H      4.008626   -2.646902   -0.363324
  H      3.504927   -1.712603   -1.781278
  H      5.195288   -2.203559   -1.605245
  H      4.809865    0.222011   -1.051700
  H      5.471822   -0.695450    0.335608
  H      1.229420    2.932741    0.718244
  H      1.115978    2.538692    2.453516
  H      3.201191    3.805372    2.017256
  H      3.608233    2.139033    2.476516
  H      3.679532    2.636834    0.777596
  H      0.433240   -2.076787   -2.296209
  H      0.287699   -0.311200   -1.987446
  H     -1.233081   -0.954056    3.191933
  H     -0.663954    0.511989    2.346813
  H     -2.975496    1.422128    2.339963
  H     -3.557469   -0.012201    3.203879
  H     -2.433340    1.105789    3.996086
  H     -4.168897   -1.696765    0.658167
  H     -5.456267   -0.455346    0.618959
  H     -5.924749   -2.209535   -1.063529
  H     -5.556085   -0.677135   -1.872255
  H     -4.337845   -1.957346   -1.808137

 Total Charge           Charge          ....    0
 Multiplicity           Mult            ....    1
 Number of Electrons    NEL             ....  202
 Basis Dimension        Dim             ....  334

ORBITAL ENERGIES
----------------

  NO   OCC          E(Eh)            E(eV)
   0   2.0000     -88.041771     -2395.7384
   1   2.0000     -88.040074     -2395.6922
   2   2.0000     -87.986708     -2394.2401
   3   2.0000     -87.979258     -2394.0373
   4   2.0000     -76.424037     -2079.6038
   5   2.0000     -76.421840     -2079.5440
   6   2.0000     -18.793121      -511.3868
   7   2.0000     -18.788475      -511.2604
   8   2.0000     -18.785440      -511.1778
   9   2.0000     -18.784431      -511.1503
  10   2.0000      -9.958269      -270.9783
  11   2.0000      -9.953753      -270.8554
  12   2.0000      -9.950390      -270.7639
  13   2.0000      -9.946663      -270.6625
  14   2.0000      -9.944970      -270.6164
  15   2.0000      -9.889526      -269.1077
  16   2.0000      -9.883012      -268.9304
  17   2.0000      -9.882597      -268.9191
  18   2.0000      -9.880053      -268.8499
  19   2.0000      -7.687391      -209.1845
  20   2.0000      -7.684967      -209.1186
  21   2.0000      -7.631564      -207.6654
  22   2.0000      -7.624232      -207.4659
  23   2.0000      -6.421446      -174.7364
  24   2.0000      -6.419560      -174.6851
  25   2.0000      -5.715339      -155.5223
  26   2.0000      -5.712848      -155.4545
  27   2.0000      -5.711838      -155.4270
  28   2.0000      -5.709656      -155.3676
  29   2.0000      -5.704255      -155.2207
  30   2.0000      -5.701725      -155.1518
  31   2.0000      -5.660394      -154.0272
  32   2.0000      -5.653324      -153.8348
  33   2.0000      -5.652417      -153.8101
  34   2.0000      -5.651599      -153.7878
  35   2.0000      -5.644880      -153.6050
  36   2.0000      -5.644144      -153.5850
  37   2.0000      -4.643687      -126.3611
  38   2.0000      -4.643095      -126.3450
  39   2.0000      -4.642460      -126.3278
  40   2.0000      -4.642334      -126.3243
  41   2.0000      -4.640988      -126.2877
  42   2.0000      -4.640078      -126.2629
  43   2.0000      -0.983239       -26.7553
  44   2.0000      -0.982232       -26.7279
  45   2.0000      -0.941062       -25.6076
  46   2.0000      -0.940312       -25.5872
  47   2.0000      -0.761208       -20.7135
  48   2.0000      -0.719780       -19.5862
  49   2.0000      -0.707696       -19.2574
  50   2.0000      -0.689995       -18.7757
  51   2.0000      -0.684248       -18.6193
  52   2.0000      -0.673204       -18.3188
  53   2.0000      -0.650475       -17.7003
  54   2.0000      -0.633994       -17.2519
  55   2.0000      -0.601318       -16.3627
  56   2.0000      -0.585750       -15.9391
  57   2.0000      -0.577928       -15.7262
  58   2.0000      -0.569444       -15.4954
  59   2.0000      -0.558833       -15.2066
  60   2.0000      -0.498810       -13.5733
  61   2.0000      -0.488925       -13.3043
  62   2.0000      -0.473257       -12.8780
  63   2.0000      -0.468203       -12.7404
  64   2.0000      -0.449440       -12.2299
  65   2.0000      -0.446851       -12.1594
  66   2.0000      -0.437742       -11.9116
  67   2.0000      -0.437117       -11.8946
  68   2.0000      -0.426026       -11.5928
  69   2.0000      -0.416305       -11.3282
  70   2.0000      -0.406562       -11.0631
  71   2.0000      -0.398081       -10.8323
  72   2.0000      -0.391020       -10.6402
  73   2.0000      -0.387359       -10.5406
  74   2.0000      -0.379561       -10.3284
  75   2.0000      -0.375399       -10.2151
  76   2.0000      -0.366791        -9.9809
  77   2.0000      -0.357371        -9.7246
  78   2.0000      -0.353524        -9.6199
  79   2.0000      -0.351499        -9.5648
  80   2.0000      -0.346318        -9.4238
  81   2.0000      -0.343718        -9.3530
  82   2.0000      -0.338991        -9.2244
  83   2.0000      -0.335144        -9.1197
  84   2.0000      -0.334197        -9.0940
  85   2.0000      -0.314735        -8.5644
  86   2.0000      -0.310111        -8.4386
  87   2.0000      -0.303576        -8.2607
  88   2.0000      -0.292656        -7.9636
  89   2.0000      -0.281944        -7.6721
  90   2.0000      -0.274124        -7.4593
  91   2.0000      -0.271980        -7.4010
  92   2.0000      -0.269293        -7.3278
  93   2.0000      -0.265856        -7.2343
  94   2.0000      -0.260803        -7.0968
  95   2.0000      -0.228040        -6.2053
  96   2.0000      -0.218753        -5.9526
  97   2.0000      -0.213799        -5.8178
  98   2.0000      -0.201660        -5.4874
  99   2.0000      -0.194049        -5.2803
 100   2.0000      -0.188114        -5.1188
 101   0.0000      -0.040000        -1.0885
 102   0.0000      -0.032201        -0.8762
 103   0.0000      -0.004625        -0.1259
 104   0.0000       0.010024         0.2728
 105   0.0000       0.021999         0.5986

MULLIKEN ATOMIC CHARGES
-----------------------
   0 C :   -0.310912
   1 C :   -0.001860
   2 O :   -0.372950
   3 P :    0.616001
   4 S :   -0.315410
   5 O :   -0.363086
   6 C :   -0.005750
   7 C :   -0.300145
   8 S :   -0.088166
   9 C :   -0.345327
  10 S :   -0.112419
  11 P :    0.615697
  12 S :   -0.306012
  13 O :   -0.381106
  14 C :   -0.024769
  15 C :   -0.316626
  16 O :   -0.366157
  17 C :   -0.033686
  18 C :   -0.294108
  19 H :    0.119295
  20 H :    0.118568
  21 H :    0.111606
  22 H :    0.108947
  23 H :    0.103781
  24 H :    0.123472
  25 H :    0.100808
  26 H :    0.110703
  27 H :    0.114392
  28 H :    0.122909
  29 H :    0.180341
  30 H :    0.211339
  31 H :    0.101299
  32 H :    0.140064
  33 H :    0.129185
  34 H :    0.108460
  35 H :    0.109847
  36 H :    0.111205
  37 H :    0.111540
  38 H :    0.111550
  39 H :    0.124553
  40 H :    0.132927
Sum of atomic charges:   -0.0000000

LOEWDIN ATOMIC CHARGES
----------------------
   0 C :   -0.369334
   1 C :   -0.119478
   2 O :   -0.246109
   3 P :    0.576320
   4 S :   -0.303538
   5 O :   -0.237055
   6 C :   -0.116372
   7 C :   -0.366688
   8 S :    0.089288
   9 C :   -0.476990
  10 S :    0.081390
  11 P :    0.563256
  12 S :   -0.296689
  13 O :   -0.252021
  14 C :   -0.122085
  15 C :   -0.367537
  16 O :   -0.242596
  17 C :   -0.119795
  18 C :   -0.360247
  19 H :    0.124420
  20 H :    0.118709
  21 H :    0.129906
  22 H :    0.109308
  23 H :    0.118081
  24 H :    0.112144
  25 H :    0.115020
  26 H :    0.130191
  27 H :    0.125220
  28 H :    0.121500
  29 H :    0.134574
  30 H :    0.126058
  31 H :    0.117741
  32 H :    0.115564
  33 H :    0.124576
  34 H :    0.120583
  35 H :    0.129417
  36 H :    0.110276
  37 H :    0.121009
  38 H :    0.131048
  39 H :    0.131408
  40 H :    0.119529

  Mayer bond orders larger than 0.100000
B(  0-C ,  1-C ) :   1.1667 B(  0-C , 19-H ) :   0.9429 B(  0-C , 20-H ) :   0.9376
B(  0-C , 21-H ) :   0.9377 B(  1-C ,  2-O ) :   0.9152 B(  1-C , 22-H ) :   0.9156
B(  1-C , 23-H ) :   0.9341 B(  2-O ,  3-P ) :   1.0975 B(  3-P ,  4-S ) :   1.5862
B(  3-P ,  5-O ) :   1.1274 B(  3-P ,  8-S ) :   0.9632 B(  4-S ,  8-S ) :   0.1183
B(  5-O ,  6-C ) :   0.8998 B(  6-C ,  7-C ) :   1.1642 B(  6-C , 24-H ) :   0.9174
B(  6-C , 25-H ) :   0.9324 B(  7-C , 26-H ) :   0.9380 B(  7-C , 27-H ) :   0.9444
B(  7-C , 28-H ) :   0.9343 B(  8-S ,  9-C ) :   0.9977 B(  9-C , 10-S ) :   1.0050
B(  9-C , 29-H ) :   0.9110 B(  9-C , 30-H ) :   0.8497 B( 10-S , 11-P ) :   0.9571
B( 10-S , 12-S ) :   0.1038 B( 11-P , 12-S ) :   1.6511 B( 11-P , 13-O ) :   1.0732
B( 11-P , 16-O ) :   1.1167 B( 13-O , 14-C ) :   0.9033 B( 14-C , 15-C ) :   1.1578
B( 14-C , 31-H ) :   0.9348 B( 14-C , 32-H ) :   0.9064 B( 15-C , 33-H ) :   0.9332
B( 15-C , 34-H ) :   0.9459 B( 15-C , 35-H ) :   0.9403 B( 16-O , 17-C ) :   0.8999
B( 17-C , 18-C ) :   1.1678 B( 17-C , 36-H ) :   0.9143 B( 17-C , 37-H ) :   0.9334
B( 18-C , 38-H ) :   0.9385 B( 18-C , 39-H ) :   0.9456 B( 18-C , 40-H ) :   0.9350

Dispersion correction           -0.067873739
FINAL SINGLE POINT ENERGY     -2929.517937928702

DIPOLE MOMENT
-------------

Method             : SCF
Type of density    : Electron Density
Multiplicity       :   1
Irrep              :   0
Energy             : -2929.6364075974338448 Eh
Relativity type    :
Basis              : AO
                                X                 Y                 Z
Electronic contribution:     -0.315872528      -0.419571012      -9.827597980
Nuclear contribution   :      0.213954557      -0.486730899      10.835894584
                        -----------------------------------------
Total Dipole Moment    :     -0.101917972      -0.906301911       1.008296604
                        -----------------------------------------
Magnitude (a.u.)       :      1.359570693
Magnitude (Debye)      :      3.455754069

Rotational constants in cm-1:             0.013375             0.005279             0.004603
Rotational constants in MHz :           400.979785           158.264302           138.000496

                             ****ORCA TERMINATED NORMALLY****
TOTAL RUN TIME: 0 days 0 hours 0 minutes 21 seconds 276 msec
