                         Program Version 6.0.0  -   RELEASE  -
|  1> ! r2scan-3c def2/J RI DEFGRID2 scfconv6 printgap
|  2> %output
|  3>     printlevel normal
|  4> end
|  5> * xyz 0 1
|  6> C 4.2211037349 1.2300351888 0.0002642736
|  7> C 2.9240387082 1.7183808581 0.0001869591
|  8> C 1.8506130814 0.8447832367 2.39425e-05
|  9> C 2.0725534289 -0.532085592 -6.15885e-05
| 10> C 3.3641080643 -1.0284348932 -0.0001107079
| 11> C 4.4285238145 -0.1378691805 7.9998e-05
| 12> Cl 6.0434094012 -0.7643894415 -3.04103e-05
| 13> O 1.0346385377 -1.4388717454 -8.89622e-05
| 14> C -0.2247086854 -0.9130089874 -3.18869e-05
| 15> C -1.2948775016 -1.790562057 -8.33088e-05
| 16> C -2.5928003731 -1.2995025243 -0.0001711882
| 17> C -2.8306030529 0.069317028 -0.000132155
| 18> C -1.7478865366 0.9495360743 -0.0001077435
| 19> C -0.4432107505 0.4696463089 -5.98963e-05
| 20> O 0.576096842 1.3757047321 2.36874e-05
| 21> Cl -2.0019753531 2.651156072 -7.45548e-05
| 22> Cl -4.4363884357 0.6883548909 6.45396e-05
| 23> Cl -3.9171431542 -2.3970492276 0.0001435142
| 24> H 5.056847693 1.9086424053 6.76475e-05
| 25> H 2.7273909587 2.7771092628 0.0001495288
| 26> H 3.517009164 -2.0941265907 -0.0002482784
| 27> H -1.1050458756 -2.850351969 -0.0001361622
| 28> *
| 29>
| 30>                          ****END OF INPUT****

CARTESIAN COORDINATES (ANGSTROEM)
---------------------------------
  C      4.221104    1.230035    0.000264
  C      2.924039    1.718381    0.000187
  C      1.850613    0.844783    0.000024
  C      2.072553   -0.532086   -0.000062
  C      3.364108   -1.028435   -0.000111
  C      4.428524   -0.137869    0.000080
  Cl     6.043409   -0.764389   -0.000030
  O      1.034639   -1.438872   -0.000089
  C     -0.224709   -0.913009   -0.000032
  C     -1.294878   -1.790562   -0.000083
  C     -2.592800   -1.299503   -0.000171
  C     -2.830603    0.069317   -0.000132
  C     -1.747887    0.949536   -0.000108
  C     -0.443211    0.469646   -0.000060
  O      0.576097    1.375705    0.000024
  Cl    -2.001975    2.651156   -0.000075
  Cl    -4.436388    0.688355    0.000065
  Cl    -3.917143   -2.397049    0.000144
  H      5.056848    1.908642    0.000068
  H      2.727391    2.777109    0.000150
  H      3.517009   -2.094127   -0.000248
  H     -1.105046   -2.850352   -0.000136

 Total Charge           Charge          ....    0
 Multiplicity           Mult            ....    1
 Number of Electrons    NEL             ....  160
 Basis Dimension        Dim             ....  404

ORBITAL ENERGIES
----------------

  NO   OCC          E(Eh)            E(eV)
   0   2.0000    -101.241238     -2754.9142
   1   2.0000    -101.238139     -2754.8298
   2   2.0000    -101.238043     -2754.8272
   3   2.0000    -101.232179     -2754.6676
   4   2.0000     -19.041500      -518.1456
   5   2.0000     -19.040378      -518.1150
   6   2.0000     -10.142365      -275.9878
   7   2.0000     -10.141201      -275.9561
   8   2.0000     -10.136920      -275.8396
   9   2.0000     -10.132672      -275.7240
  10   2.0000     -10.132469      -275.7185
  11   2.0000     -10.129712      -275.6435
  12   2.0000     -10.128910      -275.6216
  13   2.0000     -10.118945      -275.3505
  14   2.0000     -10.074825      -274.1499
  15   2.0000     -10.070354      -274.0283
  16   2.0000     -10.069635      -274.0087
  17   2.0000     -10.065930      -273.9079
  18   2.0000      -9.396768      -255.6990
  19   2.0000      -9.393889      -255.6207
  20   2.0000      -9.393771      -255.6175
  21   2.0000      -9.388080      -255.4627
  22   2.0000      -7.143512      -194.3848
  23   2.0000      -7.140497      -194.3028
  24   2.0000      -7.140434      -194.3011
  25   2.0000      -7.134375      -194.1362
  26   2.0000      -7.133039      -194.0999
  27   2.0000      -7.132061      -194.0732
  28   2.0000      -7.130090      -194.0196
  29   2.0000      -7.130002      -194.0172
  30   2.0000      -7.129400      -194.0008
  31   2.0000      -7.129093      -193.9925
  32   2.0000      -7.124285      -193.8616
  33   2.0000      -7.123859      -193.8501
  34   2.0000      -1.112134       -30.2627
  35   2.0000      -1.078481       -29.3470
  36   2.0000      -0.916540       -24.9403
  37   2.0000      -0.883634       -24.0449
  38   2.0000      -0.864931       -23.5360
  39   2.0000      -0.843248       -22.9459
  40   2.0000      -0.825630       -22.4665
  41   2.0000      -0.811128       -22.0719
  42   2.0000      -0.766400       -20.8548
  43   2.0000      -0.742604       -20.2073
  44   2.0000      -0.724308       -19.7094
  45   2.0000      -0.704610       -19.1734
  46   2.0000      -0.653420       -17.7805
  47   2.0000      -0.634066       -17.2538
  48   2.0000      -0.605008       -16.4631
  49   2.0000      -0.585414       -15.9299
  50   2.0000      -0.563129       -15.3235
  51   2.0000      -0.529292       -14.4028
  52   2.0000      -0.503304       -13.6956
  53   2.0000      -0.484476       -13.1833
  54   2.0000      -0.478205       -13.0126
  55   2.0000      -0.476437       -12.9645
  56   2.0000      -0.455948       -12.4070
  57   2.0000      -0.448746       -12.2110
  58   2.0000      -0.439701       -11.9649
  59   2.0000      -0.419862       -11.4250
  60   2.0000      -0.419226       -11.4077
  61   2.0000      -0.415032       -11.2936
  62   2.0000      -0.411334       -11.1930
  63   2.0000      -0.408457       -11.1147
  64   2.0000      -0.384686       -10.4678
  65   2.0000      -0.383874       -10.4457
  66   2.0000      -0.379480       -10.3262
  67   2.0000      -0.355756        -9.6806
  68   2.0000      -0.337059        -9.1718
  69   2.0000      -0.334106        -9.0915
  70   2.0000      -0.320281        -8.7153
  71   2.0000      -0.317180        -8.6309
  72   2.0000      -0.309168        -8.4129
  73   2.0000      -0.299482        -8.1493
  74   2.0000      -0.295565        -8.0427
  75   2.0000      -0.284110        -7.7310
  76   2.0000      -0.264510        -7.1977
  77   2.0000      -0.251432        -6.8418
  78   2.0000      -0.238159        -6.4806
  79   2.0000      -0.203781        -5.5452
  80   0.0000      -0.072965        -1.9855
  81   0.0000      -0.067427        -1.8348
  82   0.0000      -0.062398        -1.6979
  83   0.0000      -0.052091        -1.4175
  84   0.0000      -0.030561        -0.8316

MULLIKEN ATOMIC CHARGES
-----------------------
   0 C :   -0.205478
   1 C :   -0.301633
   2 C :    0.191405
   3 C :    0.254940
   4 C :   -0.450464
   5 C :    0.261222
   6 Cl:   -0.133247
   7 O :   -0.089175
   8 C :    0.298475
   9 C :   -0.558665
  10 C :    0.192204
  11 C :    0.046712
  12 C :   -0.269576
  13 C :    0.407962
  14 O :   -0.077982
  15 Cl:   -0.076516
  16 Cl:   -0.071368
  17 Cl:   -0.093848
  18 H :    0.166395
  19 H :    0.162494
  20 H :    0.171706
  21 H :    0.174438
Sum of atomic charges:   -0.0000000

LOEWDIN ATOMIC CHARGES
----------------------
   0 C :   -0.170162
   1 C :   -0.104277
   2 C :    0.219964
   3 C :    0.227560
   4 C :   -0.126482
   5 C :   -0.164993
   6 Cl:    0.137720
   7 O :   -0.550995
   8 C :    0.226097
   9 C :   -0.126679
  10 C :   -0.181769
  11 C :   -0.203397
  12 C :   -0.142876
  13 C :    0.207650
  14 O :   -0.570130
  15 Cl:    0.212561
  16 Cl:    0.178305
  17 Cl:    0.167896
  18 H :    0.182168
  19 H :    0.189480
  20 H :    0.195009
  21 H :    0.197349

  Mayer bond orders larger than 0.100000
B(  0-C ,  1-C ) :   1.3115 B(  0-C ,  5-C ) :   1.3843 B(  0-C , 18-H ) :   0.9399
B(  1-C ,  2-C ) :   1.3491 B(  1-C , 19-H ) :   0.9750 B(  2-C ,  3-C ) :   1.4453
B(  2-C , 14-O ) :   0.9082 B(  3-C ,  4-C ) :   1.3076 B(  3-C ,  7-O ) :   0.9203
B(  4-C ,  5-C ) :   1.3172 B(  4-C , 20-H ) :   0.9463 B(  5-C ,  6-Cl) :   0.9164
B(  7-O ,  8-C ) :   0.9534 B(  8-C ,  9-C ) :   1.2770 B(  8-C , 12-C ) :  -0.1516
B(  8-C , 13-C ) :   1.3862 B(  9-C , 10-C ) :   1.2549 B(  9-C , 21-H ) :   0.9438
B( 10-C , 11-C ) :   1.2381 B( 10-C , 17-Cl) :   1.0462 B( 11-C , 12-C ) :   1.0061
B( 11-C , 16-Cl) :   1.2171 B( 12-C , 13-C ) :   0.8535 B( 12-C , 15-Cl) :   1.4076
B( 13-C , 14-O ) :   1.1099 B( 13-C , 15-Cl) :  -0.2178

Dispersion correction           -0.012652651
FINAL SINGLE POINT ENERGY     -2450.704756401374

DIPOLE MOMENT
-------------

Method             : SCF
Type of density    : Electron Density
Multiplicity       :   1
Irrep              :   0
Energy             : -2450.7039331319110715 Eh
Relativity type    :
Basis              : AO
                                X                 Y                 Z
Electronic contribution:    -14.816467634       0.494993267       0.000194371
Nuclear contribution   :     15.377389125      -0.482675626      -0.000296255
                        -----------------------------------------
Total Dipole Moment    :      0.560921491       0.012317642      -0.000101884
                        -----------------------------------------
Magnitude (a.u.)       :      0.561056730
Magnitude (Debye)      :      1.426092874

Rotational constants in cm-1:             0.022819             0.004477             0.003742
Rotational constants in MHz :           684.101516           134.202199           112.192974

                             ****ORCA TERMINATED NORMALLY****
TOTAL RUN TIME: 0 days 0 hours 0 minutes 58 seconds 839 msec
