                         Program Version 6.0.0  -   RELEASE  -
|  1> ! r2scan-3c def2/J RI DEFGRID2 scfconv6 printgap
|  2> %output
|  3>     printlevel normal
|  4> end
|  5> %cpcm
|  6>     smd true
|  7>     smdsolvent "water"
|  8> end
|  9> * xyz 0 1
| 10> C 4.2211037349 1.2300351888 0.0002642736
| 11> C 2.9240387082 1.7183808581 0.0001869591
| 12> C 1.8506130814 0.8447832367 2.39425e-05
| 13> C 2.0725534289 -0.532085592 -6.15885e-05
| 14> C 3.3641080643 -1.0284348932 -0.0001107079
| 15> C 4.4285238145 -0.1378691805 7.9998e-05
| 16> Cl 6.0434094012 -0.7643894415 -3.04103e-05
| 17> O 1.0346385377 -1.4388717454 -8.89622e-05
| 18> C -0.2247086854 -0.9130089874 -3.18869e-05
| 19> C -1.2948775016 -1.790562057 -8.33088e-05
| 20> C -2.5928003731 -1.2995025243 -0.0001711882
| 21> C -2.8306030529 0.069317028 -0.000132155
| 22> C -1.7478865366 0.9495360743 -0.0001077435
| 23> C -0.4432107505 0.4696463089 -5.98963e-05
| 24> O 0.576096842 1.3757047321 2.36874e-05
| 25> Cl -2.0019753531 2.651156072 -7.45548e-05
| 26> Cl -4.4363884357 0.6883548909 6.45396e-05
| 27> Cl -3.9171431542 -2.3970492276 0.0001435142
| 28> H 5.056847693 1.9086424053 6.76475e-05
| 29> H 2.7273909587 2.7771092628 0.0001495288
| 30> H 3.517009164 -2.0941265907 -0.0002482784
| 31> H -1.1050458756 -2.850351969 -0.0001361622
| 32> *
| 33>
| 34>                          ****END OF INPUT****

CARTESIAN COORDINATES (ANGSTROEM)
---------------------------------
  C      4.221104    1.230035    0.000264
  C      2.924039    1.718381    0.000187
  C      1.850613    0.844783    0.000024
  C      2.072553   -0.532086   -0.000062
  C      3.364108   -1.028435   -0.000111
  C      4.428524   -0.137869    0.000080
  Cl     6.043409   -0.764389   -0.000030
  O      1.034639   -1.438872   -0.000089
  C     -0.224709   -0.913009   -0.000032
  C     -1.294878   -1.790562   -0.000083
  C     -2.592800   -1.299503   -0.000171
  C     -2.830603    0.069317   -0.000132
  C     -1.747887    0.949536   -0.000108
  C     -0.443211    0.469646   -0.000060
  O      0.576097    1.375705    0.000024
  Cl    -2.001975    2.651156   -0.000075
  Cl    -4.436388    0.688355    0.000065
  Cl    -3.917143   -2.397049    0.000144
  H      5.056848    1.908642    0.000068
  H      2.727391    2.777109    0.000150
  H      3.517009   -2.094127   -0.000248
  H     -1.105046   -2.850352   -0.000136

 Total Charge           Charge          ....    0
 Multiplicity           Mult            ....    1
 Number of Electrons    NEL             ....  160
 Basis Dimension        Dim             ....  404

ORBITAL ENERGIES
----------------

  NO   OCC          E(Eh)            E(eV)
   0   2.0000    -101.241463     -2754.9203
   1   2.0000    -101.239417     -2754.8646
   2   2.0000    -101.236808     -2754.7936
   3   2.0000    -101.227756     -2754.5473
   4   2.0000     -19.033465      -517.9269
   5   2.0000     -19.032290      -517.8949
   6   2.0000     -10.135780      -275.8086
   7   2.0000     -10.132961      -275.7319
   8   2.0000     -10.127781      -275.5909
   9   2.0000     -10.125973      -275.5417
  10   2.0000     -10.125667      -275.5334
  11   2.0000     -10.123343      -275.4702
  12   2.0000     -10.121799      -275.4281
  13   2.0000     -10.108845      -275.0757
  14   2.0000     -10.064879      -273.8793
  15   2.0000     -10.057888      -273.6890
  16   2.0000     -10.055577      -273.6262
  17   2.0000     -10.052690      -273.5476
  18   2.0000      -9.397061      -255.7070
  19   2.0000      -9.395146      -255.6549
  20   2.0000      -9.392737      -255.5894
  21   2.0000      -9.383791      -255.3459
  22   2.0000      -7.143688      -194.3896
  23   2.0000      -7.141741      -194.3366
  24   2.0000      -7.139180      -194.2670
  25   2.0000      -7.133340      -194.1080
  26   2.0000      -7.132453      -194.0839
  27   2.0000      -7.131403      -194.0553
  28   2.0000      -7.130560      -194.0324
  29   2.0000      -7.129940      -194.0155
  30   2.0000      -7.128981      -193.9894
  31   2.0000      -7.128295      -193.9708
  32   2.0000      -7.120075      -193.7471
  33   2.0000      -7.119612      -193.7345
  34   2.0000      -1.103244       -30.0208
  35   2.0000      -1.069919       -29.1140
  36   2.0000      -0.912853       -24.8400
  37   2.0000      -0.874903       -23.8073
  38   2.0000      -0.862759       -23.4769
  39   2.0000      -0.839160       -22.8347
  40   2.0000      -0.822598       -22.3840
  41   2.0000      -0.804838       -21.9008
  42   2.0000      -0.756238       -20.5783
  43   2.0000      -0.734935       -19.9986
  44   2.0000      -0.716888       -19.5075
  45   2.0000      -0.696855       -18.9624
  46   2.0000      -0.645091       -17.5538
  47   2.0000      -0.624298       -16.9880
  48   2.0000      -0.596831       -16.2406
  49   2.0000      -0.575910       -15.6713
  50   2.0000      -0.555265       -15.1095
  51   2.0000      -0.521293       -14.1851
  52   2.0000      -0.494463       -13.4550
  53   2.0000      -0.476256       -12.9596
  54   2.0000      -0.470487       -12.8026
  55   2.0000      -0.469008       -12.7624
  56   2.0000      -0.446846       -12.1593
  57   2.0000      -0.441801       -12.0220
  58   2.0000      -0.425978       -11.5915
  59   2.0000      -0.414155       -11.2697
  60   2.0000      -0.413736       -11.2583
  61   2.0000      -0.407971       -11.1014
  62   2.0000      -0.403554       -10.9813
  63   2.0000      -0.401240       -10.9183
  64   2.0000      -0.376942       -10.2571
  65   2.0000      -0.375118       -10.2075
  66   2.0000      -0.366257        -9.9663
  67   2.0000      -0.353773        -9.6267
  68   2.0000      -0.333601        -9.0777
  69   2.0000      -0.324841        -8.8394
  70   2.0000      -0.319164        -8.6849
  71   2.0000      -0.317931        -8.6513
  72   2.0000      -0.309088        -8.4107
  73   2.0000      -0.295069        -8.0292
  74   2.0000      -0.289869        -7.8877
  75   2.0000      -0.285194        -7.7605
  76   2.0000      -0.256496        -6.9796
  77   2.0000      -0.245417        -6.6781
  78   2.0000      -0.231962        -6.3120
  79   2.0000      -0.196133        -5.3371
  80   0.0000      -0.065232        -1.7750
  81   0.0000      -0.060418        -1.6440
  82   0.0000      -0.050749        -1.3810
  83   0.0000      -0.049406        -1.3444
  84   0.0000      -0.022560        -0.6139

MULLIKEN ATOMIC CHARGES
-----------------------
   0 C :   -0.227519
   1 C :   -0.334047
   2 C :    0.194838
   3 C :    0.240877
   4 C :   -0.441416
   5 C :    0.243775
   6 Cl:   -0.153163
   7 O :   -0.089901
   8 C :    0.277926
   9 C :   -0.539807
  10 C :    0.176056
  11 C :    0.057564
  12 C :   -0.269501
  13 C :    0.436315
  14 O :   -0.086848
  15 Cl:   -0.096122
  16 Cl:   -0.092918
  17 Cl:   -0.110601
  18 H :    0.200447
  19 H :    0.198426
  20 H :    0.205162
  21 H :    0.210457
Sum of atomic charges:    0.0000000

LOEWDIN ATOMIC CHARGES
----------------------
   0 C :   -0.171079
   1 C :   -0.103036
   2 C :    0.221286
   3 C :    0.229503
   4 C :   -0.126077
   5 C :   -0.174693
   6 Cl:    0.121374
   7 O :   -0.549667
   8 C :    0.233983
   9 C :   -0.116861
  10 C :   -0.184396
  11 C :   -0.205668
  12 C :   -0.145471
  13 C :    0.216332
  14 O :   -0.574829
  15 Cl:    0.198690
  16 Cl:    0.162828
  17 Cl:    0.155669
  18 H :    0.193252
  19 H :    0.201833
  20 H :    0.206213
  21 H :    0.210815

  Mayer bond orders larger than 0.100000
B(  0-C ,  1-C ) :   1.3253 B(  0-C ,  5-C ) :   1.3491 B(  0-C , 18-H ) :   0.9391
B(  1-C ,  2-C ) :   1.3017 B(  1-C , 19-H ) :   0.9802 B(  2-C ,  3-C ) :   1.4344
B(  2-C , 14-O ) :   0.9067 B(  3-C ,  4-C ) :   1.3304 B(  3-C ,  7-O ) :   0.9182
B(  4-C ,  5-C ) :   1.3011 B(  4-C , 20-H ) :   0.9310 B(  5-C ,  6-Cl) :   0.9127
B(  7-O ,  8-C ) :   0.9591 B(  8-C ,  9-C ) :   1.3045 B(  8-C , 12-C ) :  -0.1522
B(  8-C , 13-C ) :   1.3805 B(  9-C , 10-C ) :   1.2521 B(  9-C , 21-H ) :   0.9304
B( 10-C , 11-C ) :   1.2267 B( 10-C , 17-Cl) :   1.0472 B( 11-C , 12-C ) :   1.0047
B( 11-C , 16-Cl) :   1.1932 B( 12-C , 13-C ) :   0.8496 B( 12-C , 15-Cl) :   1.3772
B( 13-C , 14-O ) :   1.1141 B( 13-C , 15-Cl) :  -0.2039

Dispersion correction           -0.012652651
FINAL SINGLE POINT ENERGY     -2450.706420529234

DIPOLE MOMENT
-------------

Method             : SCF
Type of density    : Electron Density
Multiplicity       :   1
Irrep              :   0
Energy             : -2450.7055972597709115 Eh
Relativity type    :
Basis              : AO
                                X                 Y                 Z
Electronic contribution:    -14.542008240       0.385560603       0.000135797
Nuclear contribution   :     15.377389125      -0.482675626      -0.000296255
                        -----------------------------------------
Total Dipole Moment    :      0.835380885      -0.097115023      -0.000160458
                        -----------------------------------------
Magnitude (a.u.)       :      0.841006882
Magnitude (Debye)      :      2.137669612

Rotational constants in cm-1:             0.022819             0.004477             0.003742
Rotational constants in MHz :           684.101516           134.202199           112.192974

                             ****ORCA TERMINATED NORMALLY****
TOTAL RUN TIME: 0 days 0 hours 1 minutes 13 seconds 399 msec
