                         Program Version 6.0.1  -  RELEASE   -
|  1> ! pbe def2-sv(p) def2/J RI DEFGRID1 loosescf d4 GCP(DFT/SV(P)) printgap
|  2> %output
|  3>     printlevel normal
|  4> end
|  5> * xyz 0 1
|  6> C 3.0711066505 -3.7814284002 1.1812593944
|  7> C 2.4875321263 -3.1788313389 -0.0863949784
|  8> O 2.5604067047 -1.7407105243 -0.0600118807
|  9> C 1.6186705479 -1.075026067 0.5668359347
| 10> O 0.6782594118 -1.5878131605 1.1433268651
| 11> C 1.8109188048 0.4222306555 0.4571615863
| 12> C 0.5845327293 1.0175685851 -0.2239731348
| 13> H 0.382247161 0.5172293562 -1.1799979649
| 14> C 0.6580879354 2.5177894288 -0.4767682502
| 15> O -0.0789707208 3.0756366705 -1.2571879272
| 16> O 1.5671858455 3.1034050238 0.2640812904
| 17> C 1.7276411098 4.5332508498 0.1468049262
| 18> C 2.6795555818 4.8825201009 -0.9855611516
| 19> S -0.9289738872 0.7985992553 0.7909032577
| 20> P -1.7070514569 -0.9728191634 -0.1056740926
| 21> S -0.8113927213 -1.6591458937 -1.7041678057
| 22> O -1.9790787569 -2.0669793415 0.9911035269
| 23> C -2.4558337077 -1.7484935617 2.3128410328
| 24> O -3.2259505437 -0.5219165973 -0.3974264761
| 25> C -3.5229599282 0.4493675232 -1.4015106565
| 26> H 3.0661187852 -4.8629858461 1.0964245316
| 27> H 4.0915799998 -3.4364186777 1.3230018715
| 28> H 2.4730885809 -3.4926597818 2.0425488758
| 29> H 1.4403286195 -3.4700857319 -0.2148864172
| 30> H 3.0638121883 -3.4602925727 -0.967567677
| 31> H 2.7024246365 0.624787521 -0.1347661124
| 32> H 1.9184966473 0.849771379 1.4549213094
| 33> H 0.7444477158 4.9807033304 -0.0208872408
| 34> H 2.1281947225 4.8383828641 1.1132571184
| 35> H 2.2629223339 4.5609429344 -1.9373429807
| 36> H 2.8244821355 5.957393531 -1.0111156735
| 37> H 3.6389619885 4.3957674983 -0.8350377956
| 38> H -1.6697311205 -1.2319563176 2.8626089777
| 39> H -2.6760735144 -2.7094329873 2.7702984244
| 40> H -3.3501534848 -1.1306620822 2.2532713899
| 41> H -3.0882044439 1.414747569 -1.1364071108
| 42> H -4.607127533 0.5146580464 -1.4357936004
| 43> H -3.1285679742 0.1241308333 -2.3656817569
| 44> *
| 45>
| 46>                          ****END OF INPUT****

CARTESIAN COORDINATES (ANGSTROEM)
---------------------------------
  C      3.071107   -3.781428    1.181259
  C      2.487532   -3.178831   -0.086395
  O      2.560407   -1.740711   -0.060012
  C      1.618671   -1.075026    0.566836
  O      0.678259   -1.587813    1.143327
  C      1.810919    0.422231    0.457162
  C      0.584533    1.017569   -0.223973
  H      0.382247    0.517229   -1.179998
  C      0.658088    2.517789   -0.476768
  O     -0.078971    3.075637   -1.257188
  O      1.567186    3.103405    0.264081
  C      1.727641    4.533251    0.146805
  C      2.679556    4.882520   -0.985561
  S     -0.928974    0.798599    0.790903
  P     -1.707051   -0.972819   -0.105674
  S     -0.811393   -1.659146   -1.704168
  O     -1.979079   -2.066979    0.991104
  C     -2.455834   -1.748494    2.312841
  O     -3.225951   -0.521917   -0.397426
  C     -3.522960    0.449368   -1.401511
  H      3.066119   -4.862986    1.096425
  H      4.091580   -3.436419    1.323002
  H      2.473089   -3.492660    2.042549
  H      1.440329   -3.470086   -0.214886
  H      3.063812   -3.460293   -0.967568
  H      2.702425    0.624788   -0.134766
  H      1.918497    0.849771    1.454921
  H      0.744448    4.980703   -0.020887
  H      2.128195    4.838383    1.113257
  H      2.262922    4.560943   -1.937343
  H      2.824482    5.957394   -1.011116
  H      3.638962    4.395767   -0.835038
  H     -1.669731   -1.231956    2.862609
  H     -2.676074   -2.709433    2.770298
  H     -3.350153   -1.130662    2.253271
  H     -3.088204    1.414748   -1.136407
  H     -4.607128    0.514658   -1.435794
  H     -3.128568    0.124131   -2.365682

 Total Charge           Charge          ....    0
 Multiplicity           Mult            ....    1
 Number of Electrons    NEL             ....  174
 Basis Dimension        Dim             ....  316

ORBITAL ENERGIES
----------------

  NO   OCC          E(Eh)            E(eV)
   0   2.0000     -88.036913     -2395.6062
   1   2.0000     -87.980351     -2394.0671
   2   2.0000     -76.420173     -2079.4986
   3   2.0000     -18.815154      -511.9864
   4   2.0000     -18.803302      -511.6639
   5   2.0000     -18.786624      -511.2100
   6   2.0000     -18.779459      -511.0151
   7   2.0000     -18.743096      -510.0256
   8   2.0000     -18.735085      -509.8076
   9   2.0000     -10.018771      -272.6246
  10   2.0000     -10.009353      -272.3683
  11   2.0000      -9.956832      -270.9392
  12   2.0000      -9.944683      -270.6086
  13   2.0000      -9.943397      -270.5736
  14   2.0000      -9.942043      -270.5367
  15   2.0000      -9.931138      -270.2400
  16   2.0000      -9.907135      -269.5868
  17   2.0000      -9.893921      -269.2273
  18   2.0000      -9.883893      -268.9544
  19   2.0000      -7.681215      -209.0165
  20   2.0000      -7.625472      -207.4996
  21   2.0000      -6.416894      -174.6126
  22   2.0000      -5.709212      -155.3556
  23   2.0000      -5.706085      -155.2705
  24   2.0000      -5.697840      -155.0461
  25   2.0000      -5.654537      -153.8678
  26   2.0000      -5.646286      -153.6432
  27   2.0000      -5.645201      -153.6137
  28   2.0000      -4.639505      -126.2473
  29   2.0000      -4.638788      -126.2278
  30   2.0000      -4.637381      -126.1896
  31   2.0000      -1.022546       -27.8249
  32   2.0000      -1.010399       -27.4943
  33   2.0000      -0.978423       -26.6243
  34   2.0000      -0.932732       -25.3809
  35   2.0000      -0.923246       -25.1228
  36   2.0000      -0.913984       -24.8708
  37   2.0000      -0.762823       -20.7575
  38   2.0000      -0.711516       -19.3613
  39   2.0000      -0.708121       -19.2690
  40   2.0000      -0.688419       -18.7328
  41   2.0000      -0.655742       -17.8436
  42   2.0000      -0.627014       -17.0619
  43   2.0000      -0.622522       -16.9397
  44   2.0000      -0.615995       -16.7621
  45   2.0000      -0.594919       -16.1886
  46   2.0000      -0.569124       -15.4867
  47   2.0000      -0.509934       -13.8760
  48   2.0000      -0.504702       -13.7336
  49   2.0000      -0.495177       -13.4744
  50   2.0000      -0.475186       -12.9305
  51   2.0000      -0.466585       -12.6964
  52   2.0000      -0.457309       -12.4440
  53   2.0000      -0.448745       -12.2110
  54   2.0000      -0.434604       -11.8262
  55   2.0000      -0.427330       -11.6282
  56   2.0000      -0.421659       -11.4739
  57   2.0000      -0.419889       -11.4257
  58   2.0000      -0.408977       -11.1288
  59   2.0000      -0.405994       -11.0477
  60   2.0000      -0.401620       -10.9286
  61   2.0000      -0.395782       -10.7698
  62   2.0000      -0.388808       -10.5800
  63   2.0000      -0.383974       -10.4485
  64   2.0000      -0.377869       -10.2823
  65   2.0000      -0.368157       -10.0181
  66   2.0000      -0.364136        -9.9087
  67   2.0000      -0.357023        -9.7151
  68   2.0000      -0.349950        -9.5226
  69   2.0000      -0.337313        -9.1788
  70   2.0000      -0.334529        -9.1030
  71   2.0000      -0.331185        -9.0120
  72   2.0000      -0.320923        -8.7327
  73   2.0000      -0.308996        -8.4082
  74   2.0000      -0.302610        -8.2344
  75   2.0000      -0.294198        -8.0055
  76   2.0000      -0.290144        -7.8952
  77   2.0000      -0.287789        -7.8311
  78   2.0000      -0.269464        -7.3325
  79   2.0000      -0.267565        -7.2808
  80   2.0000      -0.257846        -7.0164
  81   2.0000      -0.251535        -6.8446
  82   2.0000      -0.236078        -6.4240
  83   2.0000      -0.228127        -6.2077
  84   2.0000      -0.206268        -5.6128
  85   2.0000      -0.201283        -5.4772
  86   2.0000      -0.191279        -5.2050
  87   0.0000      -0.048987        -1.3330
  88   0.0000      -0.035648        -0.9700
  89   0.0000      -0.024707        -0.6723
  90   0.0000       0.026445         0.7196
  91   0.0000       0.031399         0.8544

MULLIKEN ATOMIC CHARGES
-----------------------
   0 C :   -0.307463
   1 C :   -0.016015
   2 O :   -0.216804
   3 C :    0.115106
   4 O :   -0.217089
   5 C :    0.020019
   6 C :   -0.401426
   7 H :    0.157769
   8 C :    0.224391
   9 O :   -0.185770
  10 O :   -0.225044
  11 C :   -0.011259
  12 C :   -0.306668
  13 S :   -0.096751
  14 P :    0.620447
  15 S :   -0.318626
  16 O :   -0.349796
  17 C :   -0.105522
  18 O :   -0.385728
  19 C :   -0.104566
  20 H :    0.113563
  21 H :    0.110149
  22 H :    0.125526
  23 H :    0.123353
  24 H :    0.102340
  25 H :    0.101938
  26 H :    0.112879
  27 H :    0.113829
  28 H :    0.106581
  29 H :    0.131042
  30 H :    0.116893
  31 H :    0.116085
  32 H :    0.131396
  33 H :    0.130920
  34 H :    0.119502
  35 H :    0.119582
  36 H :    0.119224
  37 H :    0.115997
Sum of atomic charges:   -0.0000000

LOEWDIN ATOMIC CHARGES
----------------------
   0 C :   -0.357239
   1 C :   -0.111611
   2 O :   -0.045700
   3 C :    0.029999
   4 O :   -0.181218
   5 C :   -0.250941
   6 C :   -0.264419
   7 H :    0.135195
   8 C :    0.010139
   9 O :   -0.156988
  10 O :   -0.048370
  11 C :   -0.108091
  12 C :   -0.355396
  13 S :    0.106786
  14 P :    0.589862
  15 S :   -0.303845
  16 O :   -0.225821
  17 C :   -0.207202
  18 O :   -0.266045
  19 C :   -0.221939
  20 H :    0.131138
  21 H :    0.122803
  22 H :    0.129427
  23 H :    0.123492
  24 H :    0.118530
  25 H :    0.136346
  26 H :    0.141951
  27 H :    0.123145
  28 H :    0.119903
  29 H :    0.132551
  30 H :    0.132948
  31 H :    0.125716
  32 H :    0.116813
  33 H :    0.126927
  34 H :    0.112744
  35 H :    0.108463
  36 H :    0.119418
  37 H :    0.110532

  Mayer bond orders larger than 0.100000
B(  0-C ,  1-C ) :   1.1674 B(  0-C , 20-H ) :   0.9448 B(  0-C , 21-H ) :   0.9481
B(  0-C , 22-H ) :   0.9458 B(  1-C ,  2-O ) :   0.9096 B(  1-C , 23-H ) :   0.9117
B(  1-C , 24-H ) :   0.9383 B(  2-O ,  3-C ) :   1.2689 B(  3-C ,  4-O ) :   1.9551
B(  3-C ,  5-C ) :   0.9949 B(  5-C ,  6-C ) :   0.9983 B(  5-C , 25-H ) :   0.8980
B(  5-C , 26-H ) :   0.8747 B(  6-C ,  7-H ) :   0.8389 B(  6-C ,  8-C ) :   0.9000
B(  6-C , 13-S ) :   1.0314 B(  7-H , 15-S ) :   0.1063 B(  8-C ,  9-O ) :   2.0672
B(  8-C , 10-O ) :   1.2534 B( 10-O , 11-C ) :   0.9068 B( 11-C , 12-C ) :   1.1763
B( 11-C , 27-H ) :   0.9140 B( 11-C , 28-H ) :   0.9366 B( 12-C , 29-H ) :   0.9454
B( 12-C , 30-H ) :   0.9435 B( 12-C , 31-H ) :   0.9483 B( 13-S , 14-P ) :   0.9335
B( 13-S , 15-S ) :   0.1159 B( 14-P , 15-S ) :   1.6006 B( 14-P , 16-O ) :   1.1521
B( 14-P , 18-O ) :   1.0664 B( 16-O , 17-C ) :   0.9169 B( 17-C , 32-H ) :   0.9419
B( 17-C , 33-H ) :   0.9600 B( 17-C , 34-H ) :   0.9451 B( 18-O , 19-C ) :   0.9370
B( 19-C , 35-H ) :   0.9378 B( 19-C , 36-H ) :   0.9586 B( 19-C , 37-H ) :   0.9393

Dispersion correction           -0.051519757
FINAL SINGLE POINT ENERGY     -1979.016602995405

DIPOLE MOMENT
-------------

Method             : SCF
Type of density    : Electron Density
Multiplicity       :   1
Irrep              :   0
Energy             : -1979.1468175274203531 Eh
Relativity type    :
Basis              : AO
                                X                 Y                 Z
Electronic contribution:    -12.194997267      -4.836594800      -2.569608883
Nuclear contribution   :     13.030432756       5.573871950       3.580500381
                        -----------------------------------------
Total Dipole Moment    :      0.835435488       0.737277149       1.010891498
                        -----------------------------------------
Magnitude (a.u.)       :      1.504470561
Magnitude (Debye)      :      3.824060264

Rotational constants in cm-1:             0.011042             0.007632             0.005429
Rotational constants in MHz :           331.033567           228.786668           162.750599

                             ****ORCA TERMINATED NORMALLY****
TOTAL RUN TIME: 0 days 0 hours 0 minutes 29 seconds 663 msec
