                         Program Version 6.0.0  -   RELEASE  -
|  1> ! pbe def2-sv(p) def2/J RI DEFGRID1 loosescf d4 GCP(DFT/SV(P)) printgap
|  2> %output
|  3>     printlevel normal
|  4> end
|  5> * xyz 0 1
|  6> C 4.3062541221 -2.0846445717 -0.460755164
|  7> C 4.7324363848 -0.634931224 -0.5684082986
|  8> O 3.778215254 0.262256712 0.0269179051
|  9> P 2.3249191368 0.482768784 -0.5817467262
| 10> S 2.2466626332 0.5034890778 -2.5376948008
| 11> O 1.9037433254 1.8643123533 0.0516532143
| 12> C 2.3840946657 2.3956498058 1.3114724943
| 13> C 2.1104483727 1.4778992029 2.4831492057
| 14> S 1.0981810976 -0.9953127736 0.3582520763
| 15> C 0.1289366982 -1.5246154244 -1.0687400206
| 16> S -1.1236058557 -0.3184401956 -1.6224029783
| 17> P -2.0898981053 0.0970579451 0.218006712
| 18> S -1.4162678729 1.5021379564 1.3908260428
| 19> O -2.1471990685 -1.376541385 0.829279141
| 20> C -2.1324205816 -1.6114884043 2.2520596269
| 21> C -3.4860099566 -1.3175395514 2.8648016693
| 22> O -3.5562663838 0.4774802998 -0.2515524207
| 23> C -4.3944711113 -0.4224831684 -1.0196921472
| 24> C -5.8267283643 -0.2411133206 -0.5596182916
| 25> H 3.4346447383 -2.2631204977 -1.0883311467
| 26> H 5.1177614451 -2.720460366 -0.7997235221
| 27> H 4.0575443635 -2.3330663016 0.5677144105
| 28> H 4.8652422575 -0.3500421167 -1.6166212452
| 29> H 5.6499265172 -0.441902875 -0.0107711112
| 30> H 3.4533882191 2.5896325546 1.2049933512
| 31> H 1.8375868941 3.3350107099 1.4075681916
| 32> H 2.6183923326 0.525120275 2.345637718
| 33> H 2.4749078903 1.9485859926 3.3906225204
| 34> H 1.0415955283 1.3029686382 2.5795106488
| 35> H -0.3628571246 -2.450614066 -0.7843629445
| 36> H 0.7802119335 -1.662069072 -1.9321706976
| 37> H -1.8581424787 -2.6626852175 2.3464684469
| 38> H -1.3581240177 -0.9830687215 2.7018804029
| 39> H -3.7317620564 -0.26579004 2.7186707048
| 40> H -4.2543510459 -1.9306025233 2.4007709057
| 41> H -3.4532923447 -1.5268902326 3.9291501219
| 42> H -4.2746966691 -0.1558960965 -2.0722103728
| 43> H -4.0505824171 -1.4479943877 -0.8640836917
| 44> H -5.9245526766 -0.5106104232 0.4885121008
| 45> H -6.1256859561 0.7961528607 -0.681190643
| 46> H -6.4747651496 -0.8747017895 -1.1566212174
| 47> *
| 48>
| 49>                          ****END OF INPUT****

CARTESIAN COORDINATES (ANGSTROEM)
---------------------------------
  C      4.306254   -2.084645   -0.460755
  C      4.732436   -0.634931   -0.568408
  O      3.778215    0.262257    0.026918
  P      2.324919    0.482769   -0.581747
  S      2.246663    0.503489   -2.537695
  O      1.903743    1.864312    0.051653
  C      2.384095    2.395650    1.311472
  C      2.110448    1.477899    2.483149
  S      1.098181   -0.995313    0.358252
  C      0.128937   -1.524615   -1.068740
  S     -1.123606   -0.318440   -1.622403
  P     -2.089898    0.097058    0.218007
  S     -1.416268    1.502138    1.390826
  O     -2.147199   -1.376541    0.829279
  C     -2.132421   -1.611488    2.252060
  C     -3.486010   -1.317540    2.864802
  O     -3.556266    0.477480   -0.251552
  C     -4.394471   -0.422483   -1.019692
  C     -5.826728   -0.241113   -0.559618
  H      3.434645   -2.263120   -1.088331
  H      5.117761   -2.720460   -0.799724
  H      4.057544   -2.333066    0.567714
  H      4.865242   -0.350042   -1.616621
  H      5.649927   -0.441903   -0.010771
  H      3.453388    2.589633    1.204993
  H      1.837587    3.335011    1.407568
  H      2.618392    0.525120    2.345638
  H      2.474908    1.948586    3.390623
  H      1.041596    1.302969    2.579511
  H     -0.362857   -2.450614   -0.784363
  H      0.780212   -1.662069   -1.932171
  H     -1.858142   -2.662685    2.346468
  H     -1.358124   -0.983069    2.701880
  H     -3.731762   -0.265790    2.718671
  H     -4.254351   -1.930603    2.400771
  H     -3.453292   -1.526890    3.929150
  H     -4.274697   -0.155896   -2.072210
  H     -4.050582   -1.447994   -0.864084
  H     -5.924553   -0.510610    0.488512
  H     -6.125686    0.796153   -0.681191
  H     -6.474765   -0.874702   -1.156621

 Total Charge           Charge          ....    0
 Multiplicity           Mult            ....    1
 Number of Electrons    NEL             ....  202
 Basis Dimension        Dim             ....  334

ORBITAL ENERGIES
----------------

  NO   OCC          E(Eh)            E(eV)
   0   2.0000     -88.041236     -2395.7238
   1   2.0000     -88.034482     -2395.5400
   2   2.0000     -87.983117     -2394.1423
   3   2.0000     -87.978965     -2394.0293
   4   2.0000     -76.424257     -2079.6098
   5   2.0000     -76.421932     -2079.5465
   6   2.0000     -18.795812      -511.4601
   7   2.0000     -18.793427      -511.3952
   8   2.0000     -18.789183      -511.2797
   9   2.0000     -18.782213      -511.0900
  10   2.0000      -9.954733      -270.8821
  11   2.0000      -9.954354      -270.8717
  12   2.0000      -9.954109      -270.8651
  13   2.0000      -9.953790      -270.8564
  14   2.0000      -9.948249      -270.7056
  15   2.0000      -9.890210      -269.1263
  16   2.0000      -9.887847      -269.0620
  17   2.0000      -9.886182      -269.0167
  18   2.0000      -9.877412      -268.7780
  19   2.0000      -7.685574      -209.1351
  20   2.0000      -7.679713      -208.9756
  21   2.0000      -7.628302      -207.5766
  22   2.0000      -7.624310      -207.4680
  23   2.0000      -6.421563      -174.7396
  24   2.0000      -6.419597      -174.6861
  25   2.0000      -5.713494      -155.4721
  26   2.0000      -5.710108      -155.3799
  27   2.0000      -5.707850      -155.3185
  28   2.0000      -5.704131      -155.2173
  29   2.0000      -5.702568      -155.1748
  30   2.0000      -5.696504      -155.0098
  31   2.0000      -5.657342      -153.9441
  32   2.0000      -5.653261      -153.8330
  33   2.0000      -5.648650      -153.7076
  34   2.0000      -5.648583      -153.7058
  35   2.0000      -5.644739      -153.6012
  36   2.0000      -5.644515      -153.5951
  37   2.0000      -4.644579      -126.3854
  38   2.0000      -4.642993      -126.3423
  39   2.0000      -4.642752      -126.3357
  40   2.0000      -4.641985      -126.3148
  41   2.0000      -4.641137      -126.2918
  42   2.0000      -4.639756      -126.2542
  43   2.0000      -0.985073       -26.8052
  44   2.0000      -0.984837       -26.7988
  45   2.0000      -0.945076       -25.7168
  46   2.0000      -0.939363       -25.5614
  47   2.0000      -0.759294       -20.6614
  48   2.0000      -0.719548       -19.5799
  49   2.0000      -0.707449       -19.2507
  50   2.0000      -0.693153       -18.8617
  51   2.0000      -0.688588       -18.7374
  52   2.0000      -0.670258       -18.2386
  53   2.0000      -0.649426       -17.6718
  54   2.0000      -0.635200       -17.2847
  55   2.0000      -0.596685       -16.2366
  56   2.0000      -0.588316       -16.0089
  57   2.0000      -0.575363       -15.6564
  58   2.0000      -0.571201       -15.5432
  59   2.0000      -0.560554       -15.2535
  60   2.0000      -0.503677       -13.7057
  61   2.0000      -0.492187       -13.3931
  62   2.0000      -0.482522       -13.1301
  63   2.0000      -0.465354       -12.6629
  64   2.0000      -0.458882       -12.4868
  65   2.0000      -0.447266       -12.1707
  66   2.0000      -0.442811       -12.0495
  67   2.0000      -0.436974       -11.8907
  68   2.0000      -0.421378       -11.4663
  69   2.0000      -0.414003       -11.2656
  70   2.0000      -0.402603       -10.9554
  71   2.0000      -0.396858       -10.7991
  72   2.0000      -0.396377       -10.7860
  73   2.0000      -0.391961       -10.6658
  74   2.0000      -0.376430       -10.2432
  75   2.0000      -0.370767       -10.0891
  76   2.0000      -0.365671        -9.9504
  77   2.0000      -0.358783        -9.7630
  78   2.0000      -0.357600        -9.7308
  79   2.0000      -0.349389        -9.5074
  80   2.0000      -0.345345        -9.3973
  81   2.0000      -0.344888        -9.3849
  82   2.0000      -0.343600        -9.3498
  83   2.0000      -0.336730        -9.1629
  84   2.0000      -0.332197        -9.0395
  85   2.0000      -0.322417        -8.7734
  86   2.0000      -0.309935        -8.4337
  87   2.0000      -0.304596        -8.2885
  88   2.0000      -0.294876        -8.0240
  89   2.0000      -0.288936        -7.8623
  90   2.0000      -0.283280        -7.7084
  91   2.0000      -0.271696        -7.3932
  92   2.0000      -0.266729        -7.2581
  93   2.0000      -0.265779        -7.2322
  94   2.0000      -0.256508        -6.9799
  95   2.0000      -0.234821        -6.3898
  96   2.0000      -0.214331        -5.8322
  97   2.0000      -0.202838        -5.5195
  98   2.0000      -0.201315        -5.4781
  99   2.0000      -0.193405        -5.2628
 100   2.0000      -0.188918        -5.1407
 101   0.0000      -0.046308        -1.2601
 102   0.0000      -0.021052        -0.5729
 103   0.0000      -0.010013        -0.2725
 104   0.0000       0.000893         0.0243
 105   0.0000       0.017580         0.4784

MULLIKEN ATOMIC CHARGES
-----------------------
   0 C :   -0.312625
   1 C :    0.000402
   2 O :   -0.385282
   3 P :    0.624517
   4 S :   -0.312015
   5 O :   -0.354364
   6 C :    0.022067
   7 C :   -0.354118
   8 S :   -0.115294
   9 C :   -0.333019
  10 S :   -0.079727
  11 P :    0.613970
  12 S :   -0.303492
  13 O :   -0.394540
  14 C :   -0.010731
  15 C :   -0.313849
  16 O :   -0.368905
  17 C :   -0.020991
  18 C :   -0.284608
  19 H :    0.122062
  20 H :    0.112780
  21 H :    0.117435
  22 H :    0.113763
  23 H :    0.104199
  24 H :    0.103193
  25 H :    0.112805
  26 H :    0.117108
  27 H :    0.109142
  28 H :    0.153437
  29 H :    0.180366
  30 H :    0.187672
  31 H :    0.100671
  32 H :    0.117899
  33 H :    0.132495
  34 H :    0.114098
  35 H :    0.113535
  36 H :    0.113396
  37 H :    0.104368
  38 H :    0.116808
  39 H :    0.124486
  40 H :    0.110883
Sum of atomic charges:   -0.0000000

LOEWDIN ATOMIC CHARGES
----------------------
   0 C :   -0.369006
   1 C :   -0.117425
   2 O :   -0.246945
   3 P :    0.579790
   4 S :   -0.304176
   5 O :   -0.230496
   6 C :   -0.104317
   7 C :   -0.379217
   8 S :    0.080105
   9 C :   -0.478671
  10 S :    0.081131
  11 P :    0.562639
  12 S :   -0.296911
  13 O :   -0.254838
  14 C :   -0.122237
  15 C :   -0.365153
  16 O :   -0.246242
  17 C :   -0.120608
  18 C :   -0.351405
  19 H :    0.119490
  20 H :    0.130796
  21 H :    0.123783
  22 H :    0.112369
  23 H :    0.118396
  24 H :    0.111837
  25 H :    0.125400
  26 H :    0.113657
  27 H :    0.130604
  28 H :    0.122582
  29 H :    0.131784
  30 H :    0.126419
  31 H :    0.115612
  32 H :    0.110610
  33 H :    0.126739
  34 H :    0.121690
  35 H :    0.131839
  36 H :    0.116286
  37 H :    0.107088
  38 H :    0.125584
  39 H :    0.131346
  40 H :    0.130071

  Mayer bond orders larger than 0.100000
B(  0-C ,  1-C ) :   1.1660 B(  0-C , 19-H ) :   0.9361 B(  0-C , 20-H ) :   0.9369
B(  0-C , 21-H ) :   0.9440 B(  1-C ,  2-O ) :   0.9085 B(  1-C , 22-H ) :   0.9157
B(  1-C , 23-H ) :   0.9341 B(  2-O ,  3-P ) :   1.0661 B(  3-P ,  4-S ) :   1.6354
B(  3-P ,  5-O ) :   1.1591 B(  3-P ,  8-S ) :   0.9240 B(  4-S ,  8-S ) :   0.1134
B(  5-O ,  6-C ) :   0.8925 B(  6-C ,  7-C ) :   1.1703 B(  6-C , 24-H ) :   0.9314
B(  6-C , 25-H ) :   0.9311 B(  7-C , 26-H ) :   0.9347 B(  7-C , 27-H ) :   0.9351
B(  7-C , 28-H ) :   0.9221 B(  8-S ,  9-C ) :   1.0194 B(  9-C , 10-S ) :   0.9931
B(  9-C , 29-H ) :   0.9022 B(  9-C , 30-H ) :   0.8783 B( 10-S , 11-P ) :   0.9801
B( 10-S , 12-S ) :   0.1010 B( 11-P , 12-S ) :   1.6479 B( 11-P , 13-O ) :   1.0520
B( 11-P , 16-O ) :   1.1220 B( 13-O , 14-C ) :   0.9005 B( 14-C , 15-C ) :   1.1635
B( 14-C , 31-H ) :   0.9338 B( 14-C , 32-H ) :   0.9102 B( 15-C , 33-H ) :   0.9339
B( 15-C , 34-H ) :   0.9440 B( 15-C , 35-H ) :   0.9389 B( 16-O , 17-C ) :   0.8957
B( 17-C , 18-C ) :   1.1621 B( 17-C , 36-H ) :   0.9317 B( 17-C , 37-H ) :   0.9162
B( 18-C , 38-H ) :   0.9480 B( 18-C , 39-H ) :   0.9484 B( 18-C , 40-H ) :   0.9409

Dispersion correction           -0.066371883
FINAL SINGLE POINT ENERGY     -2929.515415860804

DIPOLE MOMENT
-------------

Method             : SCF
Type of density    : Electron Density
Multiplicity       :   1
Irrep              :   0
Energy             : -2929.6342822861347486 Eh
Relativity type    :
Basis              : AO
                                X                 Y                 Z
Electronic contribution:      6.262672597      10.222214136     -13.574080707
Nuclear contribution   :     -6.367013774     -11.854959070      14.547843174
                        -----------------------------------------
Total Dipole Moment    :     -0.104341176      -1.632744934       0.973762467
                        -----------------------------------------
Magnitude (a.u.)       :      1.903931837
Magnitude (Debye)      :      4.839410137

Rotational constants in cm-1:             0.013770             0.004816             0.004487
Rotational constants in MHz :           412.817621           144.383226           134.527618

                             ****ORCA TERMINATED NORMALLY****
TOTAL RUN TIME: 0 days 0 hours 0 minutes 20 seconds 874 msec
