                         Program Version 6.0.0  -   RELEASE  -
|  1> ! pbe def2-sv(p) def2/J RI DEFGRID1 loosescf d4 GCP(DFT/SV(P)) printgap
|  2> %output
|  3>     printlevel normal
|  4> end
|  5> * xyz 0 1
|  6> C 3.2700260556 -1.5777887483 -2.1819464912
|  7> C 1.8422957743 -1.0817042044 -2.1309227073
|  8> O 1.6820810446 0.0788169151 -1.2786764965
|  9> P 2.0381148061 0.1911981135 0.2503795037
| 10> S 1.1599271172 1.7182710694 1.1107566083
| 11> O 3.6236609483 0.2627568984 0.2413496937
| 12> C 4.3860741353 0.7641447944 1.3531417434
| 13> C 4.2977320394 -0.1387334535 2.5666937182
| 14> S 1.5770891987 -1.6946699148 1.1057061188
| 15> C -0.166603847 -1.3525911275 1.4452805371
| 16> S -1.2435962314 -1.555091932 -0.0137231323
| 17> P -1.9575650852 0.4243860213 -0.4292012819
| 18> S -1.057244421 1.5245527798 -1.7727444615
| 19> O -2.0793424808 1.1073725061 0.9848067073
| 20> C -2.982852687 0.6497966825 2.0270101601
| 21> C -4.2594246164 1.4643986065 2.0178974684
| 22> O -3.4767158576 0.1166655922 -0.8018012363
| 23> C -3.8851163114 -0.1797457625 -2.1462433285
| 24> C -3.3383548933 -1.5096937749 -2.6223996271
| 25> H 3.938900782 -0.7681894446 -2.4619280806
| 26> H 3.5700182863 -1.9638231814 -1.2097266289
| 27> H 3.3390279714 -2.3737513076 -2.9169387077
| 28> H 1.1677993954 -1.8663399593 -1.7738333806
| 29> H 1.4984240157 -0.7182282075 -3.1009090102
| 30> H 5.4035975464 0.819017834 0.9636021933
| 31> H 4.0255480544 1.7692261181 1.5940841758
| 32> H 4.9971752031 0.2086482121 3.3202448938
| 33> H 3.2912771251 -0.1090326372 2.9804708698
| 34> H 4.5379996158 -1.1635160459 2.2956577455
| 35> H -0.2520391984 -0.3305489886 1.8193076504
| 36> H -0.4866024429 -2.0843864181 2.1817564045
| 37> H -3.1923611886 -0.4124050716 1.8788923456
| 38> H -2.4254090384 0.7995305681 2.9540731453
| 39> H -4.0250155201 2.5216743519 2.1081761204
| 40> H -4.8033291402 1.3037136159 1.0910224298
| 41> H -4.8783417176 1.1602708498 2.8563145002
| 42> H -4.9746980585 -0.1846440473 -2.0953486014
| 43> H -3.5438053507 0.6320705826 -2.7965662046
| 44> H -3.6079805777 -2.3029746709 -1.9300198728
| 45> H -3.7393264808 -1.7336439473 -3.6054936124
| 46> H -2.2517308761 -1.4552620456 -2.6883912317
| 47> *
| 48>
| 49>                          ****END OF INPUT****

CARTESIAN COORDINATES (ANGSTROEM)
---------------------------------
  C      3.270026   -1.577789   -2.181946
  C      1.842296   -1.081704   -2.130923
  O      1.682081    0.078817   -1.278676
  P      2.038115    0.191198    0.250380
  S      1.159927    1.718271    1.110757
  O      3.623661    0.262757    0.241350
  C      4.386074    0.764145    1.353142
  C      4.297732   -0.138733    2.566694
  S      1.577089   -1.694670    1.105706
  C     -0.166604   -1.352591    1.445281
  S     -1.243596   -1.555092   -0.013723
  P     -1.957565    0.424386   -0.429201
  S     -1.057244    1.524553   -1.772744
  O     -2.079342    1.107373    0.984807
  C     -2.982853    0.649797    2.027010
  C     -4.259425    1.464399    2.017897
  O     -3.476716    0.116666   -0.801801
  C     -3.885116   -0.179746   -2.146243
  C     -3.338355   -1.509694   -2.622400
  H      3.938901   -0.768189   -2.461928
  H      3.570018   -1.963823   -1.209727
  H      3.339028   -2.373751   -2.916939
  H      1.167799   -1.866340   -1.773833
  H      1.498424   -0.718228   -3.100909
  H      5.403598    0.819018    0.963602
  H      4.025548    1.769226    1.594084
  H      4.997175    0.208648    3.320245
  H      3.291277   -0.109033    2.980471
  H      4.538000   -1.163516    2.295658
  H     -0.252039   -0.330549    1.819308
  H     -0.486602   -2.084386    2.181756
  H     -3.192361   -0.412405    1.878892
  H     -2.425409    0.799531    2.954073
  H     -4.025016    2.521674    2.108176
  H     -4.803329    1.303714    1.091022
  H     -4.878342    1.160271    2.856315
  H     -4.974698   -0.184644   -2.095349
  H     -3.543805    0.632071   -2.796566
  H     -3.607981   -2.302975   -1.930020
  H     -3.739326   -1.733644   -3.605494
  H     -2.251731   -1.455262   -2.688391

 Total Charge           Charge          ....    0
 Multiplicity           Mult            ....    1
 Number of Electrons    NEL             ....  202
 Basis Dimension        Dim             ....  334

ORBITAL ENERGIES
----------------

  NO   OCC          E(Eh)            E(eV)
   0   2.0000     -88.043742     -2395.7920
   1   2.0000     -88.038695     -2395.6547
   2   2.0000     -87.978191     -2394.0083
   3   2.0000     -87.972656     -2393.8577
   4   2.0000     -76.421159     -2079.5254
   5   2.0000     -76.419317     -2079.4753
   6   2.0000     -18.790096      -511.3045
   7   2.0000     -18.788909      -511.2722
   8   2.0000     -18.786036      -511.1940
   9   2.0000     -18.781767      -511.0779
  10   2.0000      -9.958204      -270.9765
  11   2.0000      -9.956326      -270.9254
  12   2.0000      -9.950585      -270.7692
  13   2.0000      -9.949184      -270.7311
  14   2.0000      -9.946571      -270.6600
  15   2.0000      -9.884886      -268.9814
  16   2.0000      -9.884805      -268.9792
  17   2.0000      -9.883338      -268.9393
  18   2.0000      -9.882364      -268.9128
  19   2.0000      -7.688757      -209.2217
  20   2.0000      -7.683340      -209.0743
  21   2.0000      -7.623178      -207.4372
  22   2.0000      -7.617794      -207.2907
  23   2.0000      -6.418597      -174.6589
  24   2.0000      -6.416720      -174.6078
  25   2.0000      -5.716456      -155.5527
  26   2.0000      -5.713187      -155.4637
  27   2.0000      -5.711346      -155.4136
  28   2.0000      -5.707605      -155.3118
  29   2.0000      -5.705976      -155.2675
  30   2.0000      -5.700502      -155.1185
  31   2.0000      -5.652185      -153.8038
  32   2.0000      -5.646948      -153.6613
  33   2.0000      -5.643832      -153.5765
  34   2.0000      -5.643194      -153.5591
  35   2.0000      -5.638492      -153.4312
  36   2.0000      -5.637642      -153.4080
  37   2.0000      -4.641296      -126.2961
  38   2.0000      -4.640477      -126.2738
  39   2.0000      -4.639909      -126.2583
  40   2.0000      -4.638831      -126.2290
  41   2.0000      -4.638540      -126.2211
  42   2.0000      -4.636555      -126.1671
  43   2.0000      -0.984262       -26.7831
  44   2.0000      -0.981899       -26.7188
  45   2.0000      -0.941461       -25.6185
  46   2.0000      -0.939704       -25.5707
  47   2.0000      -0.760305       -20.6890
  48   2.0000      -0.716061       -19.4850
  49   2.0000      -0.708162       -19.2701
  50   2.0000      -0.688949       -18.7472
  51   2.0000      -0.686755       -18.6876
  52   2.0000      -0.675017       -18.3682
  53   2.0000      -0.646946       -17.6043
  54   2.0000      -0.630088       -17.1456
  55   2.0000      -0.596363       -16.2279
  56   2.0000      -0.586635       -15.9631
  57   2.0000      -0.574623       -15.6363
  58   2.0000      -0.571179       -15.5426
  59   2.0000      -0.560544       -15.2532
  60   2.0000      -0.500267       -13.6130
  61   2.0000      -0.488582       -13.2950
  62   2.0000      -0.472191       -12.8490
  63   2.0000      -0.466832       -12.7031
  64   2.0000      -0.454439       -12.3659
  65   2.0000      -0.445808       -12.1310
  66   2.0000      -0.440151       -11.9771
  67   2.0000      -0.436129       -11.8677
  68   2.0000      -0.426171       -11.5967
  69   2.0000      -0.423815       -11.5326
  70   2.0000      -0.413095       -11.2409
  71   2.0000      -0.393259       -10.7011
  72   2.0000      -0.390889       -10.6366
  73   2.0000      -0.384728       -10.4690
  74   2.0000      -0.379591       -10.3292
  75   2.0000      -0.365387        -9.9427
  76   2.0000      -0.361037        -9.8243
  77   2.0000      -0.356646        -9.7048
  78   2.0000      -0.356369        -9.6973
  79   2.0000      -0.352445        -9.5905
  80   2.0000      -0.347686        -9.4610
  81   2.0000      -0.344624        -9.3777
  82   2.0000      -0.342571        -9.3218
  83   2.0000      -0.334298        -9.0967
  84   2.0000      -0.329081        -8.9547
  85   2.0000      -0.314742        -8.5646
  86   2.0000      -0.310095        -8.4381
  87   2.0000      -0.295969        -8.0537
  88   2.0000      -0.289766        -7.8849
  89   2.0000      -0.289329        -7.8730
  90   2.0000      -0.285699        -7.7743
  91   2.0000      -0.267258        -7.2725
  92   2.0000      -0.265734        -7.2310
  93   2.0000      -0.258877        -7.0444
  94   2.0000      -0.254647        -6.9293
  95   2.0000      -0.238766        -6.4972
  96   2.0000      -0.217588        -5.9209
  97   2.0000      -0.206891        -5.6298
  98   2.0000      -0.197752        -5.3811
  99   2.0000      -0.185220        -5.0401
 100   2.0000      -0.176319        -4.7979
 101   0.0000      -0.040460        -1.1010
 102   0.0000      -0.029246        -0.7958
 103   0.0000      -0.018591        -0.5059
 104   0.0000       0.005496         0.1496
 105   0.0000       0.024413         0.6643

MULLIKEN ATOMIC CHARGES
-----------------------
   0 C :   -0.304428
   1 C :   -0.006408
   2 O :   -0.337724
   3 P :    0.595977
   4 S :   -0.294415
   5 O :   -0.372496
   6 C :   -0.001328
   7 C :   -0.315929
   8 S :   -0.106934
   9 C :   -0.363250
  10 S :   -0.121138
  11 P :    0.595205
  12 S :   -0.277365
  13 O :   -0.351972
  14 C :   -0.024309
  15 C :   -0.280414
  16 O :   -0.385022
  17 C :    0.001506
  18 C :   -0.327251
  19 H :    0.121602
  20 H :    0.113336
  21 H :    0.110889
  22 H :    0.114997
  23 H :    0.111140
  24 H :    0.104474
  25 H :    0.114135
  26 H :    0.113102
  27 H :    0.124905
  28 H :    0.114706
  29 H :    0.212731
  30 H :    0.180480
  31 H :    0.101280
  32 H :    0.110763
  33 H :    0.123930
  34 H :    0.122936
  35 H :    0.107043
  36 H :    0.101615
  37 H :    0.110727
  38 H :    0.120058
  39 H :    0.115513
  40 H :    0.127332
Sum of atomic charges:   -0.0000000

LOEWDIN ATOMIC CHARGES
----------------------
   0 C :   -0.365921
   1 C :   -0.116229
   2 O :   -0.221635
   3 P :    0.570505
   4 S :   -0.294640
   5 O :   -0.241204
   6 C :   -0.117946
   7 C :   -0.371240
   8 S :    0.072284
   9 C :   -0.483686
  10 S :    0.056743
  11 P :    0.563593
  12 S :   -0.285996
  13 O :   -0.229996
  14 C :   -0.115729
  15 C :   -0.356749
  16 O :   -0.251464
  17 C :   -0.121590
  18 C :   -0.373017
  19 H :    0.128518
  20 H :    0.116129
  21 H :    0.130070
  22 H :    0.103177
  23 H :    0.122779
  24 H :    0.118486
  25 H :    0.113017
  26 H :    0.131109
  27 H :    0.120342
  28 H :    0.122348
  29 H :    0.127343
  30 H :    0.135878
  31 H :    0.105887
  32 H :    0.119315
  33 H :    0.130869
  34 H :    0.127494
  35 H :    0.128802
  36 H :    0.116916
  37 H :    0.110095
  38 H :    0.123849
  39 H :    0.132390
  40 H :    0.119102

  Mayer bond orders larger than 0.100000
B(  0-C ,  1-C ) :   1.1667 B(  0-C , 19-H ) :   0.9439 B(  0-C , 20-H ) :   0.9387
B(  0-C , 21-H ) :   0.9372 B(  1-C ,  2-O ) :   0.8983 B(  1-C , 22-H ) :   0.9097
B(  1-C , 23-H ) :   0.9319 B(  2-O ,  3-P ) :   1.1658 B(  3-P ,  4-S ) :   1.6261
B(  3-P ,  5-O ) :   1.0947 B(  3-P ,  8-S ) :   0.9276 B(  4-S ,  8-S ) :   0.1064
B(  5-O ,  6-C ) :   0.9061 B(  6-C ,  7-C ) :   1.1652 B(  6-C , 24-H ) :   0.9340
B(  6-C , 25-H ) :   0.9151 B(  7-C , 26-H ) :   0.9378 B(  7-C , 27-H ) :   0.9343
B(  7-C , 28-H ) :   0.9452 B(  8-S ,  9-C ) :   1.0120 B(  9-C , 10-S ) :   0.9923
B(  9-C , 29-H ) :   0.8474 B(  9-C , 30-H ) :   0.9112 B( 10-S , 11-P ) :   0.9300
B( 10-S , 12-S ) :   0.1055 B( 11-P , 12-S ) :   1.6900 B( 11-P , 13-O ) :   1.1254
B( 11-P , 16-O ) :   1.0464 B( 13-O , 14-C ) :   0.8905 B( 14-C , 15-C ) :   1.1726
B( 14-C , 31-H ) :   0.9119 B( 14-C , 32-H ) :   0.9303 B( 15-C , 33-H ) :   0.9472
B( 15-C , 34-H ) :   0.9425 B( 15-C , 35-H ) :   0.9392 B( 16-O , 17-C ) :   0.9152
B( 17-C , 18-C ) :   1.1653 B( 17-C , 36-H ) :   0.9319 B( 17-C , 37-H ) :   0.9112
B( 18-C , 38-H ) :   0.9420 B( 18-C , 39-H ) :   0.9380 B( 18-C , 40-H ) :   0.9303

Dispersion correction           -0.068220731
FINAL SINGLE POINT ENERGY     -2929.507581822267

DIPOLE MOMENT
-------------

Method             : SCF
Type of density    : Electron Density
Multiplicity       :   1
Irrep              :   0
Energy             : -2929.6258778407004684 Eh
Relativity type    :
Basis              : AO
                                X                 Y                 Z
Electronic contribution:      2.094859166       6.828199281      -0.974848399
Nuclear contribution   :     -2.350116575      -8.268990665       1.508581310
                        -----------------------------------------
Total Dipole Moment    :     -0.255257409      -1.440791384       0.533732911
                        -----------------------------------------
Magnitude (a.u.)       :      1.557532336
Magnitude (Debye)      :      3.958932576

Rotational constants in cm-1:             0.012741             0.005501             0.004887
Rotational constants in MHz :           381.973727           164.927543           146.516430

                             ****ORCA TERMINATED NORMALLY****
TOTAL RUN TIME: 0 days 0 hours 0 minutes 21 seconds 258 msec
