                         Program Version 6.0.0  -   RELEASE  -
|  1> ! pbe def2-sv(p) def2/J RI DEFGRID1 loosescf d4 GCP(DFT/SV(P)) printgap
|  2> %output
|  3>     printlevel normal
|  4> end
|  5> * xyz 0 1
|  6> C 1.9779288501 -1.4902252919 -2.6327967618
|  7> C 2.6793794531 -0.2271409006 -2.1747931605
|  8> O 3.1977463154 -0.3881487071 -0.8414391658
|  9> P 2.4919047161 0.1473494865 0.4747148207
| 10> S 2.1036602681 2.0673983565 0.5587803075
| 11> O 3.5595291672 -0.2266387676 1.5743385165
| 12> C 4.431324537 -1.3847275994 1.5556268376
| 13> C 3.6698859558 -2.6929497237 1.5836435358
| 14> S 0.8123621253 -1.1186439358 0.7998281693
| 15> C -0.2823252126 0.0617600247 1.6570405846
| 16> S -2.0213065342 -0.3061626528 1.3666711666
| 17> P -2.260620777 0.5330218796 -0.5874609328
| 18> S -0.6631116075 0.9432616519 -1.633339275
| 19> O -3.1433779543 1.8203490338 -0.3645563094
| 20> C -4.392793242 1.800359566 0.3754827149
| 21> C -4.2457367574 2.5972158568 1.6560335474
| 22> O -3.2961674909 -0.4511741374 -1.2893804292
| 23> C -2.8764466524 -1.6148804461 -2.0261762264
| 24> C -2.3064295391 -2.6933566531 -1.1270586353
| 25> H 2.6462065462 -2.3421883977 -2.5480696242
| 26> H 1.0913156323 -1.6678584205 -2.0295232755
| 27> H 1.6762210202 -1.3667044744 -3.6675463929
| 28> H 2.0026665068 0.6321629327 -2.2029197712
| 29> H 3.5573924031 -0.0153210649 -2.7880335058
| 30> H 5.0637837441 -1.3182715387 0.6687249046
| 31> H 5.0358041094 -1.2509243447 2.4541420554
| 32> H 4.379907814 -3.5115486237 1.6489067682
| 33> H 3.0028935159 -2.7284324175 2.4410369497
| 34> H 3.0788786614 -2.8071889852 0.6768646014
| 35> H -0.0379487511 1.0677303455 1.3050636991
| 36> H -0.1292342008 -0.0288201175 2.7294796778
| 37> H -5.1255601715 2.2532360533 -0.2938826747
| 38> H -4.6714071383 0.7643844254 0.5799784418
| 39> H -3.5381989162 2.1147150151 2.3259409492
| 40> H -3.8895086131 3.5989555245 1.4312832324
| 41> H -5.2116339878 2.6615286766 2.1466936855
| 42> H -3.7884595717 -1.9471813797 -2.5241364265
| 43> H -2.1387836896 -1.3005202394 -2.7711562246
| 44> H -3.0025944401 -2.9250860304 -0.3252384126
| 45> H -2.1245429053 -3.5867348567 -1.7155757575
| 46> H -1.3647527487 -2.3654238482 -0.6881365524
| 47> *
| 48>
| 49>                          ****END OF INPUT****

CARTESIAN COORDINATES (ANGSTROEM)
---------------------------------
  C      1.977929   -1.490225   -2.632797
  C      2.679379   -0.227141   -2.174793
  O      3.197746   -0.388149   -0.841439
  P      2.491905    0.147349    0.474715
  S      2.103660    2.067398    0.558780
  O      3.559529   -0.226639    1.574339
  C      4.431325   -1.384728    1.555627
  C      3.669886   -2.692950    1.583644
  S      0.812362   -1.118644    0.799828
  C     -0.282325    0.061760    1.657041
  S     -2.021307   -0.306163    1.366671
  P     -2.260621    0.533022   -0.587461
  S     -0.663112    0.943262   -1.633339
  O     -3.143378    1.820349   -0.364556
  C     -4.392793    1.800360    0.375483
  C     -4.245737    2.597216    1.656034
  O     -3.296167   -0.451174   -1.289380
  C     -2.876447   -1.614880   -2.026176
  C     -2.306430   -2.693357   -1.127059
  H      2.646207   -2.342188   -2.548070
  H      1.091316   -1.667858   -2.029523
  H      1.676221   -1.366704   -3.667546
  H      2.002667    0.632163   -2.202920
  H      3.557392   -0.015321   -2.788034
  H      5.063784   -1.318272    0.668725
  H      5.035804   -1.250924    2.454142
  H      4.379908   -3.511549    1.648907
  H      3.002894   -2.728432    2.441037
  H      3.078879   -2.807189    0.676865
  H     -0.037949    1.067730    1.305064
  H     -0.129234   -0.028820    2.729480
  H     -5.125560    2.253236   -0.293883
  H     -4.671407    0.764384    0.579978
  H     -3.538199    2.114715    2.325941
  H     -3.889509    3.598956    1.431283
  H     -5.211634    2.661529    2.146694
  H     -3.788460   -1.947181   -2.524136
  H     -2.138784   -1.300520   -2.771156
  H     -3.002594   -2.925086   -0.325238
  H     -2.124543   -3.586735   -1.715576
  H     -1.364753   -2.365424   -0.688137

 Total Charge           Charge          ....    0
 Multiplicity           Mult            ....    1
 Number of Electrons    NEL             ....  202
 Basis Dimension        Dim             ....  334

ORBITAL ENERGIES
----------------

  NO   OCC          E(Eh)            E(eV)
   0   2.0000     -88.047029     -2395.8815
   1   2.0000     -88.037458     -2395.6210
   2   2.0000     -87.985164     -2394.1980
   3   2.0000     -87.975641     -2393.9389
   4   2.0000     -76.425543     -2079.6447
   5   2.0000     -76.421089     -2079.5236
   6   2.0000     -18.792466      -511.3690
   7   2.0000     -18.791290      -511.3370
   8   2.0000     -18.789310      -511.2831
   9   2.0000     -18.783082      -511.1136
  10   2.0000      -9.957722      -270.9634
  11   2.0000      -9.953854      -270.8581
  12   2.0000      -9.953342      -270.8442
  13   2.0000      -9.951343      -270.7898
  14   2.0000      -9.949779      -270.7472
  15   2.0000      -9.888161      -269.0705
  16   2.0000      -9.885842      -269.0074
  17   2.0000      -9.883910      -268.9549
  18   2.0000      -9.881342      -268.8850
  19   2.0000      -7.691648      -209.3004
  20   2.0000      -7.681778      -209.0318
  21   2.0000      -7.630125      -207.6263
  22   2.0000      -7.620837      -207.3735
  23   2.0000      -6.423109      -174.7817
  24   2.0000      -6.418393      -174.6534
  25   2.0000      -5.719451      -155.6342
  26   2.0000      -5.716096      -155.5429
  27   2.0000      -5.709632      -155.3670
  28   2.0000      -5.708798      -155.3443
  29   2.0000      -5.706437      -155.2800
  30   2.0000      -5.698759      -155.0711
  31   2.0000      -5.659176      -153.9940
  32   2.0000      -5.650509      -153.7582
  33   2.0000      -5.650351      -153.7539
  34   2.0000      -5.649869      -153.7408
  35   2.0000      -5.641481      -153.5125
  36   2.0000      -5.640817      -153.4944
  37   2.0000      -4.645846      -126.4199
  38   2.0000      -4.644819      -126.3919
  39   2.0000      -4.643489      -126.3557
  40   2.0000      -4.641435      -126.2999
  41   2.0000      -4.639998      -126.2608
  42   2.0000      -4.638596      -126.2226
  43   2.0000      -0.986989       -26.8573
  44   2.0000      -0.984499       -26.7896
  45   2.0000      -0.943560       -25.6756
  46   2.0000      -0.939235       -25.5579
  47   2.0000      -0.759982       -20.6802
  48   2.0000      -0.719538       -19.5796
  49   2.0000      -0.711056       -19.3488
  50   2.0000      -0.689167       -18.7532
  51   2.0000      -0.689028       -18.7494
  52   2.0000      -0.676783       -18.4162
  53   2.0000      -0.649856       -17.6835
  54   2.0000      -0.629938       -17.1415
  55   2.0000      -0.596449       -16.2302
  56   2.0000      -0.588028       -16.0010
  57   2.0000      -0.575325       -15.6554
  58   2.0000      -0.574776       -15.6405
  59   2.0000      -0.557268       -15.1640
  60   2.0000      -0.504382       -13.7249
  61   2.0000      -0.496401       -13.5078
  62   2.0000      -0.472878       -12.8677
  63   2.0000      -0.471149       -12.8206
  64   2.0000      -0.452504       -12.3133
  65   2.0000      -0.448429       -12.2024
  66   2.0000      -0.441203       -12.0057
  67   2.0000      -0.438130       -11.9221
  68   2.0000      -0.431323       -11.7369
  69   2.0000      -0.423611       -11.5270
  70   2.0000      -0.410295       -11.1647
  71   2.0000      -0.393300       -10.7022
  72   2.0000      -0.392055       -10.6684
  73   2.0000      -0.386989       -10.5305
  74   2.0000      -0.376129       -10.2350
  75   2.0000      -0.370251       -10.0750
  76   2.0000      -0.362963        -9.8767
  77   2.0000      -0.357251        -9.7213
  78   2.0000      -0.355918        -9.6850
  79   2.0000      -0.350295        -9.5320
  80   2.0000      -0.348345        -9.4790
  81   2.0000      -0.346610        -9.4317
  82   2.0000      -0.341794        -9.3007
  83   2.0000      -0.337865        -9.1938
  84   2.0000      -0.331880        -9.0309
  85   2.0000      -0.314412        -8.5556
  86   2.0000      -0.311626        -8.4798
  87   2.0000      -0.301568        -8.2061
  88   2.0000      -0.295926        -8.0526
  89   2.0000      -0.292138        -7.9495
  90   2.0000      -0.289040        -7.8652
  91   2.0000      -0.272926        -7.4267
  92   2.0000      -0.271030        -7.3751
  93   2.0000      -0.262095        -7.1320
  94   2.0000      -0.254995        -6.9388
  95   2.0000      -0.235005        -6.3948
  96   2.0000      -0.218426        -5.9437
  97   2.0000      -0.210247        -5.7211
  98   2.0000      -0.196771        -5.3544
  99   2.0000      -0.191648        -5.2150
 100   2.0000      -0.183684        -4.9983
 101   0.0000      -0.044951        -1.2232
 102   0.0000      -0.031583        -0.8594
 103   0.0000      -0.017364        -0.4725
 104   0.0000       0.005784         0.1574
 105   0.0000       0.018461         0.5023

MULLIKEN ATOMIC CHARGES
-----------------------
   0 C :   -0.313094
   1 C :   -0.012010
   2 O :   -0.385984
   3 P :    0.621993
   4 S :   -0.298790
   5 O :   -0.364921
   6 C :    0.007054
   7 C :   -0.321507
   8 S :   -0.133862
   9 C :   -0.326681
  10 S :   -0.124690
  11 P :    0.597477
  12 S :   -0.300141
  13 O :   -0.355117
  14 C :   -0.017846
  15 C :   -0.282035
  16 O :   -0.378857
  17 C :   -0.000374
  18 C :   -0.337617
  19 H :    0.108448
  20 H :    0.141088
  21 H :    0.110883
  22 H :    0.130183
  23 H :    0.105587
  24 H :    0.109280
  25 H :    0.109122
  26 H :    0.112911
  27 H :    0.123578
  28 H :    0.124650
  29 H :    0.205675
  30 H :    0.180510
  31 H :    0.113940
  32 H :    0.106498
  33 H :    0.117562
  34 H :    0.123534
  35 H :    0.108459
  36 H :    0.104132
  37 H :    0.109052
  38 H :    0.115262
  39 H :    0.110546
  40 H :    0.156102
Sum of atomic charges:   -0.0000000

LOEWDIN ATOMIC CHARGES
----------------------
   0 C :   -0.366081
   1 C :   -0.113578
   2 O :   -0.243326
   3 P :    0.567087
   4 S :   -0.296241
   5 O :   -0.243715
   6 C :   -0.108596
   7 C :   -0.369332
   8 S :    0.067487
   9 C :   -0.479468
  10 S :    0.075272
  11 P :    0.566549
  12 S :   -0.283165
  13 O :   -0.238490
  14 C :   -0.113157
  15 C :   -0.358392
  16 O :   -0.251408
  17 C :   -0.116011
  18 C :   -0.373904
  19 H :    0.121110
  20 H :    0.119909
  21 H :    0.131237
  22 H :    0.110423
  23 H :    0.118912
  24 H :    0.114343
  25 H :    0.121884
  26 H :    0.130771
  27 H :    0.126670
  28 H :    0.116225
  29 H :    0.123431
  30 H :    0.134521
  31 H :    0.122963
  32 H :    0.106803
  33 H :    0.120992
  34 H :    0.131030
  35 H :    0.129078
  36 H :    0.118340
  37 H :    0.109866
  38 H :    0.123943
  39 H :    0.130088
  40 H :    0.115929

  Mayer bond orders larger than 0.100000
B(  0-C ,  1-C ) :   1.1709 B(  0-C , 19-H ) :   0.9448 B(  0-C , 20-H ) :   0.9299
B(  0-C , 21-H ) :   0.9398 B(  1-C ,  2-O ) :   0.8983 B(  1-C , 22-H ) :   0.9045
B(  1-C , 23-H ) :   0.9345 B(  2-O ,  3-P ) :   1.0872 B(  3-P ,  4-S ) :   1.6626
B(  3-P ,  5-O ) :   1.1270 B(  3-P ,  8-S ) :   0.9383 B(  4-S ,  8-S ) :   0.1189
B(  4-S , 29-H ) :   0.1125 B(  5-O ,  6-C ) :   0.9063 B(  6-C ,  7-C ) :   1.1687
B(  6-C , 24-H ) :   0.9278 B(  6-C , 25-H ) :   0.9349 B(  7-C , 26-H ) :   0.9357
B(  7-C , 27-H ) :   0.9425 B(  7-C , 28-H ) :   0.9373 B(  8-S ,  9-C ) :   0.9867
B(  9-C , 10-S ) :   1.0077 B(  9-C , 29-H ) :   0.8464 B(  9-C , 30-H ) :   0.9095
B( 10-S , 11-P ) :   0.9245 B( 10-S , 12-S ) :   0.1138 B( 11-P , 12-S ) :   1.6653
B( 11-P , 13-O ) :   1.1437 B( 11-P , 16-O ) :   1.0888 B( 13-O , 14-C ) :   0.8880
B( 14-C , 15-C ) :   1.1633 B( 14-C , 31-H ) :   0.9336 B( 14-C , 32-H ) :   0.9185
B( 15-C , 33-H ) :   0.9403 B( 15-C , 34-H ) :   0.9458 B( 15-C , 35-H ) :   0.9399
B( 16-O , 17-C ) :   0.9100 B( 17-C , 18-C ) :   1.1668 B( 17-C , 36-H ) :   0.9343
B( 17-C , 37-H ) :   0.9155 B( 18-C , 38-H ) :   0.9426 B( 18-C , 39-H ) :   0.9371
B( 18-C , 40-H ) :   0.9219

Dispersion correction           -0.065620123
FINAL SINGLE POINT ENERGY     -2929.511680642634

DIPOLE MOMENT
-------------

Method             : SCF
Type of density    : Electron Density
Multiplicity       :   1
Irrep              :   0
Energy             : -2929.6307249248006883 Eh
Relativity type    :
Basis              : AO
                                X                 Y                 Z
Electronic contribution:      2.862026741      14.037996937       2.936451383
Nuclear contribution   :     -3.480578018     -15.718592929      -2.896095966
                        -----------------------------------------
Total Dipole Moment    :     -0.618551277      -1.680595992       0.040355417
                        -----------------------------------------
Magnitude (a.u.)       :      1.791266907
Magnitude (Debye)      :      4.553038641

Rotational constants in cm-1:             0.012479             0.004934             0.004609
Rotational constants in MHz :           374.106490           147.925340           138.163326

                             ****ORCA TERMINATED NORMALLY****
TOTAL RUN TIME: 0 days 0 hours 0 minutes 21 seconds 130 msec
