                         Program Version 6.0.0  -   RELEASE  -
|  1> ! pbe def2-sv(p) def2/J RI DEFGRID1 loosescf d4 GCP(DFT/SV(P)) printgap
|  2> %output
|  3>     printlevel normal
|  4> end
|  5> * xyz 0 1
|  6> C -1.7099706906 0.3742557826 -0.0338193008
|  7> C -0.6031931267 -0.6572382516 0.0549376809
|  8> S 1.064733515 0.1004170833 -0.041121675
|  9> H -2.6746622148 -0.1275380002 -0.0441094887
| 10> H -1.6769884453 1.0488635173 0.8186374004
| 11> H -1.6102097774 0.9600092643 -0.9447772363
| 12> H -0.6335282751 -1.3448563622 -0.7896756402
| 13> H -0.6502892229 -1.2269682149 0.981952578
| 14> H 0.9381106475 0.8680550662 1.0344933001
| 15> *
| 16>
| 17>                          ****END OF INPUT****

CARTESIAN COORDINATES (ANGSTROEM)
---------------------------------
  C     -1.709971    0.374256   -0.033819
  C     -0.603193   -0.657238    0.054938
  S      1.064734    0.100417   -0.041122
  H     -2.674662   -0.127538   -0.044109
  H     -1.676988    1.048864    0.818637
  H     -1.610210    0.960009   -0.944777
  H     -0.633528   -1.344856   -0.789676
  H     -0.650289   -1.226968    0.981953
  H      0.938111    0.868055    1.034493

 Total Charge           Charge          ....    0
 Multiplicity           Mult            ....    1
 Number of Electrons    NEL             ....   34
 Basis Dimension        Dim             ....   58

ORBITAL ENERGIES
----------------

  NO   OCC          E(Eh)            E(eV)
   0   2.0000     -88.011489     -2394.9144
   1   2.0000      -9.919814      -269.9319
   2   2.0000      -9.884981      -268.9840
   3   2.0000      -7.658170      -208.3894
   4   2.0000      -5.686640      -154.7414
   5   2.0000      -5.682666      -154.6332
   6   2.0000      -5.674247      -154.4041
   7   2.0000      -0.725264       -19.7354
   8   2.0000      -0.632647       -17.2152
   9   2.0000      -0.542077       -14.7507
  10   2.0000      -0.422676       -11.5016
  11   2.0000      -0.390038       -10.6135
  12   2.0000      -0.364824        -9.9274
  13   2.0000      -0.332740        -9.0543
  14   2.0000      -0.317076        -8.6281
  15   2.0000      -0.280149        -7.6232
  16   2.0000      -0.192864        -5.2481
  17   0.0000       0.005804         0.1579
  18   0.0000       0.044190         1.2025
  19   0.0000       0.058323         1.5870
  20   0.0000       0.086875         2.3640
  21   0.0000       0.091547         2.4911

MULLIKEN ATOMIC CHARGES
-----------------------
   0 C :   -0.251241
   1 C :   -0.310365
   2 S :   -0.183041
   3 H :    0.107472
   4 H :    0.104815
   5 H :    0.115688
   6 H :    0.140114
   7 H :    0.137126
   8 H :    0.139433
Sum of atomic charges:    0.0000000

LOEWDIN ATOMIC CHARGES
----------------------
   0 C :   -0.359809
   1 C :   -0.338901
   2 S :    0.009283
   3 H :    0.122815
   4 H :    0.118271
   5 H :    0.123636
   6 H :    0.128193
   7 H :    0.121965
   8 H :    0.074547

  Mayer bond orders larger than 0.100000
B(  0-C ,  1-C ) :   1.1173 B(  0-C ,  3-H ) :   0.9385 B(  0-C ,  4-H ) :   0.9569
B(  0-C ,  5-H ) :   0.9527 B(  1-C ,  2-S ) :   1.0654 B(  1-C ,  6-H ) :   0.9318
B(  1-C ,  7-H ) :   0.9309 B(  2-S ,  8-H ) :   0.9086

Dispersion correction           -0.005171648
FINAL SINGLE POINT ENERGY      -477.486845991164

DIPOLE MOMENT
-------------

Method             : SCF
Type of density    : Electron Density
Multiplicity       :   1
Irrep              :   0
Energy             :  -477.5183336287403790 Eh
Relativity type    :
Basis              : AO
                                X                 Y                 Z
Electronic contribution:      5.387017612      -0.194635822      -0.698796123
Nuclear contribution   :     -5.947885927       0.163729668       0.992369557
                        -----------------------------------------
Total Dipole Moment    :     -0.560868316      -0.030906154       0.293573434
                        -----------------------------------------
Magnitude (a.u.)       :      0.633808977
Magnitude (Debye)      :      1.611014389

Rotational constants in cm-1:             0.951921             0.178250             0.162780
Rotational constants in MHz :         28537.882881          5343.786357          4880.018416

                             ****ORCA TERMINATED NORMALLY****
TOTAL RUN TIME: 0 days 0 hours 0 minutes 5 seconds 298 msec
