                         Program Version 6.0.0  -   RELEASE  -
|  1> ! pbe def2-sv(p) def2/J RI DEFGRID1 loosescf d4 GCP(DFT/SV(P)) printgap
|  2> %output
|  3>     printlevel normal
|  4> end
|  5> * xyz 0 1
|  6> C 4.1170833568 -1.5595152107 -2.2231251845
|  7> C 4.4381272571 -1.5171799012 -0.7429528252
|  8> O 3.2515357663 -1.4990224684 0.0684706087
|  9> P 2.2615065276 -0.2579324536 0.1065279394
| 10> S 3.1224760053 1.5078518869 0.0708209551
| 11> O 1.3896273765 -0.5845798989 1.3901116382
| 12> C 1.7151491845 -0.0564409722 2.6928432747
| 13> C 2.9992530332 -0.648526262 3.2337948056
| 14> S 0.8387495326 -0.6670638649 -1.4009845723
| 15> C 0.1047505355 0.9922339863 -1.4280269172
| 16> S -0.8060113652 1.3963483616 0.0777595295
| 17> P -2.6585256528 0.4184609147 -0.3764039131
| 18> S -2.9188485558 0.02338327 -2.276301115
| 19> O -3.804698327 1.3718499689 0.1251519569
| 20> C -4.1830191938 1.6070032829 1.5037074952
| 21> C -3.074886176 2.252576952 2.3078686131
| 22> O -2.7785839439 -0.7744528431 0.6739790443
| 23> C -1.8657124776 -1.874413125 0.8174891743
| 24> C -1.954031192 -2.8563805869 -0.3331237354
| 25> H 3.4347172487 -2.3778474707 -2.4391288556
| 26> H 3.6498517671 -0.6247606829 -2.5309733619
| 27> H 5.034339416 -1.6954369848 -2.7871172152
| 28> H 5.0340058171 -0.6300012534 -0.5051059243
| 29> H 4.9636774256 -2.4164208337 -0.4189734598
| 30> H 1.7899226521 1.0327962875 2.6143462673
| 31> H 0.8549735009 -0.3247989117 3.3073910029
| 32> H 3.153991805 -0.3048405933 4.2517291031
| 33> H 2.9478178782 -1.7340208307 3.219831975
| 34> H 3.8409782664 -0.3280493632 2.6209744058
| 35> H -0.5762584314 1.0173312924 -2.2798743335
| 36> H 0.8970935442 1.7341438852 -1.5226665567
| 37> H -5.048456573 2.2651331343 1.4128063536
| 38> H -4.4841200305 0.6540060242 1.9421168158
| 39> H -2.7392454997 3.1676788255 1.8265195796
| 40> H -3.4461354819 2.4858888568 3.3009635244
| 41> H -2.2262326196 1.5763937405 2.3970237422
| 42> H -0.8481278877 -1.484930994 0.9193881638
| 43> H -2.1722471984 -2.3399674884 1.7565044717
| 44> H -2.9800199075 -3.1905030039 -0.464411628
| 45> H -1.6189003993 -2.392751318 -1.2590585849
| 46> H -1.3197477171 -3.711096961 -0.1211946381
| 47> *
| 48>
| 49>                          ****END OF INPUT****

CARTESIAN COORDINATES (ANGSTROEM)
---------------------------------
  C      4.117083   -1.559515   -2.223125
  C      4.438127   -1.517180   -0.742953
  O      3.251536   -1.499022    0.068471
  P      2.261507   -0.257932    0.106528
  S      3.122476    1.507852    0.070821
  O      1.389627   -0.584580    1.390112
  C      1.715149   -0.056441    2.692843
  C      2.999253   -0.648526    3.233795
  S      0.838750   -0.667064   -1.400985
  C      0.104751    0.992234   -1.428027
  S     -0.806011    1.396348    0.077760
  P     -2.658526    0.418461   -0.376404
  S     -2.918849    0.023383   -2.276301
  O     -3.804698    1.371850    0.125152
  C     -4.183019    1.607003    1.503707
  C     -3.074886    2.252577    2.307869
  O     -2.778584   -0.774453    0.673979
  C     -1.865712   -1.874413    0.817489
  C     -1.954031   -2.856381   -0.333124
  H      3.434717   -2.377847   -2.439129
  H      3.649852   -0.624761   -2.530973
  H      5.034339   -1.695437   -2.787117
  H      5.034006   -0.630001   -0.505106
  H      4.963677   -2.416421   -0.418973
  H      1.789923    1.032796    2.614346
  H      0.854974   -0.324799    3.307391
  H      3.153992   -0.304841    4.251729
  H      2.947818   -1.734021    3.219832
  H      3.840978   -0.328049    2.620974
  H     -0.576258    1.017331   -2.279874
  H      0.897094    1.734144   -1.522667
  H     -5.048457    2.265133    1.412806
  H     -4.484120    0.654006    1.942117
  H     -2.739245    3.167679    1.826520
  H     -3.446135    2.485889    3.300964
  H     -2.226233    1.576394    2.397024
  H     -0.848128   -1.484931    0.919388
  H     -2.172247   -2.339967    1.756504
  H     -2.980020   -3.190503   -0.464412
  H     -1.618900   -2.392751   -1.259059
  H     -1.319748   -3.711097   -0.121195

 Total Charge           Charge          ....    0
 Multiplicity           Mult            ....    1
 Number of Electrons    NEL             ....  202
 Basis Dimension        Dim             ....  334

ORBITAL ENERGIES
----------------

  NO   OCC          E(Eh)            E(eV)
   0   2.0000     -88.045906     -2395.8509
   1   2.0000     -88.040759     -2395.7109
   2   2.0000     -87.995545     -2394.4805
   3   2.0000     -87.982771     -2394.1329
   4   2.0000     -76.432026     -2079.8212
   5   2.0000     -76.425729     -2079.6498
   6   2.0000     -18.799583      -511.5627
   7   2.0000     -18.796451      -511.4774
   8   2.0000     -18.791526      -511.3434
   9   2.0000     -18.791203      -511.3346
  10   2.0000      -9.958271      -270.9783
  11   2.0000      -9.957773      -270.9648
  12   2.0000      -9.956626      -270.9336
  13   2.0000      -9.950714      -270.7727
  14   2.0000      -9.948340      -270.7081
  15   2.0000      -9.892928      -269.2003
  16   2.0000      -9.888892      -269.0904
  17   2.0000      -9.887751      -269.0594
  18   2.0000      -9.874466      -268.6979
  19   2.0000      -7.690718      -209.2751
  20   2.0000      -7.685287      -209.1273
  21   2.0000      -7.640373      -207.9051
  22   2.0000      -7.627982      -207.5679
  23   2.0000      -6.429656      -174.9598
  24   2.0000      -6.422873      -174.7752
  25   2.0000      -5.718510      -155.6086
  26   2.0000      -5.715355      -155.5227
  27   2.0000      -5.713207      -155.4643
  28   2.0000      -5.709746      -155.3701
  29   2.0000      -5.707662      -155.3134
  30   2.0000      -5.702390      -155.1699
  31   2.0000      -5.669136      -154.2650
  32   2.0000      -5.661029      -154.0444
  33   2.0000      -5.660702      -154.0355
  34   2.0000      -5.657033      -153.9357
  35   2.0000      -5.648374      -153.7001
  36   2.0000      -5.648183      -153.6949
  37   2.0000      -4.652073      -126.5893
  38   2.0000      -4.651409      -126.5713
  39   2.0000      -4.650239      -126.5394
  40   2.0000      -4.645763      -126.4176
  41   2.0000      -4.644640      -126.3871
  42   2.0000      -4.643116      -126.3456
  43   2.0000      -0.993415       -27.0322
  44   2.0000      -0.987101       -26.8604
  45   2.0000      -0.952580       -25.9210
  46   2.0000      -0.941995       -25.6330
  47   2.0000      -0.764460       -20.8020
  48   2.0000      -0.723799       -19.6956
  49   2.0000      -0.712492       -19.3879
  50   2.0000      -0.692176       -18.8351
  51   2.0000      -0.688806       -18.7434
  52   2.0000      -0.677127       -18.4256
  53   2.0000      -0.653959       -17.7951
  54   2.0000      -0.639274       -17.3955
  55   2.0000      -0.606258       -16.4971
  56   2.0000      -0.591449       -16.0941
  57   2.0000      -0.578406       -15.7392
  58   2.0000      -0.577651       -15.7187
  59   2.0000      -0.560914       -15.2632
  60   2.0000      -0.500931       -13.6310
  61   2.0000      -0.493972       -13.4417
  62   2.0000      -0.479249       -13.0410
  63   2.0000      -0.471275       -12.8240
  64   2.0000      -0.459735       -12.5100
  65   2.0000      -0.448325       -12.1996
  66   2.0000      -0.445119       -12.1123
  67   2.0000      -0.438271       -11.9260
  68   2.0000      -0.425185       -11.5699
  69   2.0000      -0.423949       -11.5362
  70   2.0000      -0.411843       -11.2068
  71   2.0000      -0.401404       -10.9228
  72   2.0000      -0.398045       -10.8313
  73   2.0000      -0.392174       -10.6716
  74   2.0000      -0.385988       -10.5033
  75   2.0000      -0.376747       -10.2518
  76   2.0000      -0.366826        -9.9819
  77   2.0000      -0.359367        -9.7789
  78   2.0000      -0.356626        -9.7043
  79   2.0000      -0.353332        -9.6147
  80   2.0000      -0.351830        -9.5738
  81   2.0000      -0.348205        -9.4751
  82   2.0000      -0.341630        -9.2962
  83   2.0000      -0.339697        -9.2436
  84   2.0000      -0.332310        -9.0426
  85   2.0000      -0.323850        -8.8124
  86   2.0000      -0.312352        -8.4995
  87   2.0000      -0.300247        -8.1701
  88   2.0000      -0.295858        -8.0507
  89   2.0000      -0.292508        -7.9596
  90   2.0000      -0.286417        -7.7938
  91   2.0000      -0.279404        -7.6030
  92   2.0000      -0.274476        -7.4689
  93   2.0000      -0.269384        -7.3303
  94   2.0000      -0.257826        -7.0158
  95   2.0000      -0.236949        -6.4477
  96   2.0000      -0.219177        -5.9641
  97   2.0000      -0.216264        -5.8848
  98   2.0000      -0.208356        -5.6696
  99   2.0000      -0.200701        -5.4614
 100   2.0000      -0.197347        -5.3701
 101   0.0000      -0.046259        -1.2588
 102   0.0000      -0.027870        -0.7584
 103   0.0000      -0.003945        -0.1074
 104   0.0000      -0.001668        -0.0454
 105   0.0000       0.007517         0.2045

MULLIKEN ATOMIC CHARGES
-----------------------
   0 C :   -0.317350
   1 C :   -0.005842
   2 O :   -0.370317
   3 P :    0.611905
   4 S :   -0.332146
   5 O :   -0.356753
   6 C :   -0.001111
   7 C :   -0.307079
   8 S :   -0.077985
   9 C :   -0.351033
  10 S :   -0.115907
  11 P :    0.619740
  12 S :   -0.312115
  13 O :   -0.360934
  14 C :    0.006468
  15 C :   -0.334119
  16 O :   -0.383957
  17 C :   -0.041331
  18 C :   -0.302776
  19 H :    0.120550
  20 H :    0.129147
  21 H :    0.115565
  22 H :    0.112191
  23 H :    0.107264
  24 H :    0.114306
  25 H :    0.103181
  26 H :    0.113656
  27 H :    0.116950
  28 H :    0.123259
  29 H :    0.195968
  30 H :    0.192322
  31 H :    0.112468
  32 H :    0.111406
  33 H :    0.131814
  34 H :    0.117500
  35 H :    0.128096
  36 H :    0.139197
  37 H :    0.096674
  38 H :    0.113090
  39 H :    0.133810
  40 H :    0.104229
Sum of atomic charges:    0.0000000

LOEWDIN ATOMIC CHARGES
----------------------
   0 C :   -0.369354
   1 C :   -0.118802
   2 O :   -0.242208
   3 P :    0.573375
   4 S :   -0.320271
   5 O :   -0.236835
   6 C :   -0.117142
   7 C :   -0.364868
   8 S :    0.105206
   9 C :   -0.488842
  10 S :    0.075452
  11 P :    0.569941
  12 S :   -0.299846
  13 O :   -0.235789
  14 C :   -0.108378
  15 C :   -0.371436
  16 O :   -0.246963
  17 C :   -0.125116
  18 C :   -0.367658
  19 H :    0.125622
  20 H :    0.122261
  21 H :    0.132401
  22 H :    0.111147
  23 H :    0.119731
  24 H :    0.111782
  25 H :    0.117059
  26 H :    0.131168
  27 H :    0.126614
  28 H :    0.122705
  29 H :    0.128861
  30 H :    0.129886
  31 H :    0.123737
  32 H :    0.115269
  33 H :    0.130474
  34 H :    0.133534
  35 H :    0.116282
  36 H :    0.106276
  37 H :    0.115116
  38 H :    0.125239
  39 H :    0.116402
  40 H :    0.127965

  Mayer bond orders larger than 0.100000
B(  0-C ,  1-C ) :   1.1662 B(  0-C , 19-H ) :   0.9445 B(  0-C , 20-H ) :   0.9355
B(  0-C , 21-H ) :   0.9375 B(  1-C ,  2-O ) :   0.9059 B(  1-C , 22-H ) :   0.9167
B(  1-C , 23-H ) :   0.9336 B(  2-O ,  3-P ) :   1.1131 B(  3-P ,  4-S ) :   1.5904
B(  3-P ,  5-O ) :   1.1148 B(  3-P ,  8-S ) :   0.9657 B(  4-S ,  8-S ) :   0.1081
B(  5-O ,  6-C ) :   0.9014 B(  6-C ,  7-C ) :   1.1641 B(  6-C , 24-H ) :   0.9174
B(  6-C , 25-H ) :   0.9337 B(  7-C , 26-H ) :   0.9390 B(  7-C , 27-H ) :   0.9456
B(  7-C , 28-H ) :   0.9361 B(  8-S ,  9-C ) :   0.9971 B(  9-C , 10-S ) :   1.0157
B(  9-C , 29-H ) :   0.8602 B(  9-C , 30-H ) :   0.8761 B( 10-S , 11-P ) :   0.9312
B( 10-S , 12-S ) :   0.1140 B( 11-P , 12-S ) :   1.6503 B( 11-P , 13-O ) :   1.1435
B( 11-P , 16-O ) :   1.0742 B( 12-S , 29-H ) :   0.1004 B( 13-O , 14-C ) :   0.9009
B( 14-C , 15-C ) :   1.1695 B( 14-C , 31-H ) :   0.9337 B( 14-C , 32-H ) :   0.9268
B( 15-C , 33-H ) :   0.9424 B( 15-C , 34-H ) :   0.9356 B( 15-C , 35-H ) :   0.9319
B( 16-O , 17-C ) :   0.9072 B( 17-C , 18-C ) :   1.1678 B( 17-C , 36-H ) :   0.8973
B( 17-C , 37-H ) :   0.9344 B( 18-C , 38-H ) :   0.9451 B( 18-C , 39-H ) :   0.9280
B( 18-C , 40-H ) :   0.9380

Dispersion correction           -0.066114633
FINAL SINGLE POINT ENERGY     -2929.523021028261

DIPOLE MOMENT
-------------

Method             : SCF
Type of density    : Electron Density
Multiplicity       :   1
Irrep              :   0
Energy             : -2929.6428544153868643 Eh
Relativity type    :
Basis              : AO
                                X                 Y                 Z
Electronic contribution:     -7.315895739       8.582795056     -13.003824838
Nuclear contribution   :      7.957613359      -9.258020155      14.675480733
                        -----------------------------------------
Total Dipole Moment    :      0.641717619      -0.675225099       1.671655896
                        -----------------------------------------
Magnitude (a.u.)       :      1.913678100
Magnitude (Debye)      :      4.864183167

Rotational constants in cm-1:             0.012453             0.005024             0.004552
Rotational constants in MHz :           373.346191           150.630151           136.469861

                             ****ORCA TERMINATED NORMALLY****
TOTAL RUN TIME: 0 days 0 hours 0 minutes 21 seconds 757 msec
