                         Program Version 6.0.0  -   RELEASE  -
|  1> ! pbe def2-sv(p) def2/J RI DEFGRID1 loosescf d4 GCP(DFT/SV(P)) printgap
|  2> %output
|  3>     printlevel normal
|  4> end
|  5> * xyz 0 1
|  6> C 4.2618120137 -1.9324424806 0.73061196
|  7> C 4.7842896551 -0.641892468 0.1343897816
|  8> O 3.7859210514 0.3967759784 0.1161007685
|  9> P 2.4687112848 0.3000494475 -0.770083809
| 10> S 2.6713317383 -0.4610763315 -2.5580952187
| 11> O 1.9975812725 1.8044514588 -0.8251653508
| 12> C 1.9184611798 2.6404756264 0.3563938139
| 13> C 1.1518316218 3.8918978923 -0.0131187148
| 14> S 1.0650112064 -0.6792765007 0.4896786988
| 15> C -0.1125851142 -1.063110629 -0.8555753637
| 16> S -1.6041171151 -1.8447247699 -0.2232180539
| 17> P -2.5623090608 -0.1002375002 0.5627307251
| 18> S -1.8160875662 1.6156508926 -0.0369072746
| 19> O -2.6675601813 -0.2999705637 2.1270282014
| 20> C -1.5758841475 -0.0791705354 3.040265661
| 21> C -0.9019542452 -1.3860650582 3.4103874993
| 22> O -4.1000188309 -0.3277675006 0.2827869849
| 23> C -4.7375329546 0.1073266502 -0.9310168735
| 24> C -4.2808416236 -0.6844677362 -2.1405177285
| 25> H 3.8126262267 -1.746923598 1.7030580602
| 26> H 3.5120501993 -2.3699623773 0.0731201607
| 27> H 5.0831100621 -2.6334178342 0.8395973466
| 28> H 5.1303297613 -0.8032324442 -0.8909645524
| 29> H 5.5880609414 -0.2149806801 0.7358541347
| 30> H 1.4085443687 2.0788347277 1.1448697144
| 31> H 2.9373383611 2.8676116307 0.6752896477
| 32> H 0.1344210832 3.6346667468 -0.2995170795
| 33> H 1.1233659978 4.5578944778 0.8429712327
| 34> H 1.635221494 4.3919416978 -0.847189142
| 35> H 0.3544192059 -1.7619633758 -1.5470436837
| 36> H -0.3720171578 -0.1279951449 -1.3567307851
| 37> H -0.8652660284 0.6233239022 2.5921716929
| 38> H -2.040132153 0.3851039809 3.9126409859
| 39> H -1.6432932747 -2.093070752 3.7714005358
| 40> H -0.3933470021 -1.8144076116 2.5493455483
| 41> H -0.1713197301 -1.1990334312 4.1903593848
| 42> H -5.7998501744 -0.0425952376 -0.7332909416
| 43> H -4.5350467617 1.1746261919 -1.0692115286
| 44> H -4.3717288982 -1.7507805435 -1.9496150697
| 45> H -4.8939896345 -0.4175072761 -2.9954708192
| 46> H -3.2408203241 -0.4561468085 -2.370837563
| 47> *
| 48>
| 49>                          ****END OF INPUT****

CARTESIAN COORDINATES (ANGSTROEM)
---------------------------------
  C      4.261812   -1.932442    0.730612
  C      4.784290   -0.641892    0.134390
  O      3.785921    0.396776    0.116101
  P      2.468711    0.300049   -0.770084
  S      2.671332   -0.461076   -2.558095
  O      1.997581    1.804451   -0.825165
  C      1.918461    2.640476    0.356394
  C      1.151832    3.891898   -0.013119
  S      1.065011   -0.679277    0.489679
  C     -0.112585   -1.063111   -0.855575
  S     -1.604117   -1.844725   -0.223218
  P     -2.562309   -0.100238    0.562731
  S     -1.816088    1.615651   -0.036907
  O     -2.667560   -0.299971    2.127028
  C     -1.575884   -0.079171    3.040266
  C     -0.901954   -1.386065    3.410387
  O     -4.100019   -0.327768    0.282787
  C     -4.737533    0.107327   -0.931017
  C     -4.280842   -0.684468   -2.140518
  H      3.812626   -1.746924    1.703058
  H      3.512050   -2.369962    0.073120
  H      5.083110   -2.633418    0.839597
  H      5.130330   -0.803232   -0.890965
  H      5.588061   -0.214981    0.735854
  H      1.408544    2.078835    1.144870
  H      2.937338    2.867612    0.675290
  H      0.134421    3.634667   -0.299517
  H      1.123366    4.557894    0.842971
  H      1.635221    4.391942   -0.847189
  H      0.354419   -1.761963   -1.547044
  H     -0.372017   -0.127995   -1.356731
  H     -0.865266    0.623324    2.592172
  H     -2.040132    0.385104    3.912641
  H     -1.643293   -2.093071    3.771401
  H     -0.393347   -1.814408    2.549346
  H     -0.171320   -1.199033    4.190359
  H     -5.799850   -0.042595   -0.733291
  H     -4.535047    1.174626   -1.069212
  H     -4.371729   -1.750781   -1.949615
  H     -4.893990   -0.417507   -2.995471
  H     -3.240820   -0.456147   -2.370838

 Total Charge           Charge          ....    0
 Multiplicity           Mult            ....    1
 Number of Electrons    NEL             ....  202
 Basis Dimension        Dim             ....  334

ORBITAL ENERGIES
----------------

  NO   OCC          E(Eh)            E(eV)
   0   2.0000     -88.051659     -2396.0075
   1   2.0000     -88.042015     -2395.7450
   2   2.0000     -87.995389     -2394.4763
   3   2.0000     -87.985929     -2394.2188
   4   2.0000     -76.431487     -2079.8065
   5   2.0000     -76.425683     -2079.6486
   6   2.0000     -18.795614      -511.4547
   7   2.0000     -18.793662      -511.4015
   8   2.0000     -18.791109      -511.3321
   9   2.0000     -18.789460      -511.2872
  10   2.0000      -9.955856      -270.9126
  11   2.0000      -9.955836      -270.9121
  12   2.0000      -9.954831      -270.8847
  13   2.0000      -9.953590      -270.8510
  14   2.0000      -9.950247      -270.7600
  15   2.0000      -9.886425      -269.0233
  16   2.0000      -9.886374      -269.0219
  17   2.0000      -9.884416      -268.9686
  18   2.0000      -9.880887      -268.8726
  19   2.0000      -7.696296      -209.4269
  20   2.0000      -7.686550      -209.1617
  21   2.0000      -7.639945      -207.8935
  22   2.0000      -7.631277      -207.6576
  23   2.0000      -6.428939      -174.9403
  24   2.0000      -6.423228      -174.7849
  25   2.0000      -5.724093      -155.7605
  26   2.0000      -5.720836      -155.6719
  27   2.0000      -5.714272      -155.4932
  28   2.0000      -5.713389      -155.4692
  29   2.0000      -5.711291      -155.4121
  30   2.0000      -5.703555      -155.2016
  31   2.0000      -5.668717      -154.2536
  32   2.0000      -5.660569      -154.0319
  33   2.0000      -5.660304      -154.0247
  34   2.0000      -5.660265      -154.0236
  35   2.0000      -5.651811      -153.7936
  36   2.0000      -5.651420      -153.7830
  37   2.0000      -4.651097      -126.5628
  38   2.0000      -4.650966      -126.5592
  39   2.0000      -4.649467      -126.5184
  40   2.0000      -4.646130      -126.4276
  41   2.0000      -4.644909      -126.3944
  42   2.0000      -4.643486      -126.3557
  43   2.0000      -0.992480       -27.0068
  44   2.0000      -0.988243       -26.8915
  45   2.0000      -0.947558       -25.7844
  46   2.0000      -0.944338       -25.6968
  47   2.0000      -0.764815       -20.8117
  48   2.0000      -0.723665       -19.6919
  49   2.0000      -0.713188       -19.4068
  50   2.0000      -0.689879       -18.7726
  51   2.0000      -0.686096       -18.6696
  52   2.0000      -0.679454       -18.4889
  53   2.0000      -0.653352       -17.7786
  54   2.0000      -0.637851       -17.3568
  55   2.0000      -0.606430       -16.5018
  56   2.0000      -0.593635       -16.1536
  57   2.0000      -0.569469       -15.4960
  58   2.0000      -0.567457       -15.4413
  59   2.0000      -0.559533       -15.2257
  60   2.0000      -0.505391       -13.7524
  61   2.0000      -0.500218       -13.6116
  62   2.0000      -0.474960       -12.9243
  63   2.0000      -0.473355       -12.8806
  64   2.0000      -0.455394       -12.3919
  65   2.0000      -0.453259       -12.3338
  66   2.0000      -0.440667       -11.9911
  67   2.0000      -0.437949       -11.9172
  68   2.0000      -0.428408       -11.6576
  69   2.0000      -0.423805       -11.5323
  70   2.0000      -0.412068       -11.2129
  71   2.0000      -0.397339       -10.8121
  72   2.0000      -0.393334       -10.7032
  73   2.0000      -0.390458       -10.6249
  74   2.0000      -0.389480       -10.5983
  75   2.0000      -0.369511       -10.0549
  76   2.0000      -0.364809        -9.9270
  77   2.0000      -0.358558        -9.7569
  78   2.0000      -0.354586        -9.6488
  79   2.0000      -0.353364        -9.6155
  80   2.0000      -0.351168        -9.5558
  81   2.0000      -0.342895        -9.3306
  82   2.0000      -0.340096        -9.2545
  83   2.0000      -0.338743        -9.2177
  84   2.0000      -0.336032        -9.1439
  85   2.0000      -0.320123        -8.7110
  86   2.0000      -0.312853        -8.5132
  87   2.0000      -0.301210        -8.1963
  88   2.0000      -0.300234        -8.1698
  89   2.0000      -0.295730        -8.0472
  90   2.0000      -0.292564        -7.9611
  91   2.0000      -0.272860        -7.4249
  92   2.0000      -0.267337        -7.2746
  93   2.0000      -0.265091        -7.2135
  94   2.0000      -0.261953        -7.1281
  95   2.0000      -0.234799        -6.3892
  96   2.0000      -0.223202        -6.0736
  97   2.0000      -0.212908        -5.7935
  98   2.0000      -0.211376        -5.7518
  99   2.0000      -0.206723        -5.6252
 100   2.0000      -0.199468        -5.4278
 101   0.0000      -0.050207        -1.3662
 102   0.0000      -0.036381        -0.9900
 103   0.0000      -0.011016        -0.2998
 104   0.0000      -0.000368        -0.0100
 105   0.0000       0.011983         0.3261

MULLIKEN ATOMIC CHARGES
-----------------------
   0 C :   -0.318225
   1 C :   -0.000706
   2 O :   -0.386254
   3 P :    0.612588
   4 S :   -0.316662
   5 O :   -0.357494
   6 C :   -0.018357
   7 C :   -0.286294
   8 S :   -0.124776
   9 C :   -0.345951
  10 S :   -0.097438
  11 P :    0.606995
  12 S :   -0.332302
  13 O :   -0.352369
  14 C :   -0.016757
  15 C :   -0.301700
  16 O :   -0.357303
  17 C :   -0.001656
  18 C :   -0.317442
  19 H :    0.116104
  20 H :    0.129748
  21 H :    0.114686
  22 H :    0.114216
  23 H :    0.105365
  24 H :    0.109264
  25 H :    0.104776
  26 H :    0.136756
  27 H :    0.106161
  28 H :    0.117799
  29 H :    0.190202
  30 H :    0.201689
  31 H :    0.114766
  32 H :    0.108393
  33 H :    0.115806
  34 H :    0.132462
  35 H :    0.107354
  36 H :    0.109307
  37 H :    0.113549
  38 H :    0.120538
  39 H :    0.115313
  40 H :    0.127845
Sum of atomic charges:    0.0000000

LOEWDIN ATOMIC CHARGES
----------------------
   0 C :   -0.371174
   1 C :   -0.115278
   2 O :   -0.248991
   3 P :    0.573004
   4 S :   -0.310148
   5 O :   -0.236320
   6 C :   -0.116517
   7 C :   -0.351960
   8 S :    0.066243
   9 C :   -0.483527
  10 S :    0.091554
  11 P :    0.572622
  12 S :   -0.302650
  13 O :   -0.233968
  14 C :   -0.117360
  15 C :   -0.364202
  16 O :   -0.233082
  17 C :   -0.115755
  18 C :   -0.368811
  19 H :    0.122895
  20 H :    0.122170
  21 H :    0.131888
  22 H :    0.114058
  23 H :    0.118908
  24 H :    0.103413
  25 H :    0.112220
  26 H :    0.124631
  27 H :    0.129199
  28 H :    0.128279
  29 H :    0.132114
  30 H :    0.121830
  31 H :    0.104248
  32 H :    0.120211
  33 H :    0.127215
  34 H :    0.111246
  35 H :    0.129345
  36 H :    0.121102
  37 H :    0.112101
  38 H :    0.125643
  39 H :    0.132020
  40 H :    0.121586

  Mayer bond orders larger than 0.100000
B(  0-C ,  1-C ) :   1.1660 B(  0-C , 19-H ) :   0.9439 B(  0-C , 20-H ) :   0.9341
B(  0-C , 21-H ) :   0.9368 B(  1-C ,  2-O ) :   0.9061 B(  1-C , 22-H ) :   0.9196
B(  1-C , 23-H ) :   0.9344 B(  2-O ,  3-P ) :   1.0873 B(  3-P ,  4-S ) :   1.6325
B(  3-P ,  5-O ) :   1.1407 B(  3-P ,  8-S ) :   0.9554 B(  4-S ,  8-S ) :   0.1096
B(  5-O ,  6-C ) :   0.8905 B(  6-C ,  7-C ) :   1.1677 B(  6-C , 24-H ) :   0.9097
B(  6-C , 25-H ) :   0.9288 B(  7-C , 26-H ) :   0.9395 B(  7-C , 27-H ) :   0.9400
B(  7-C , 28-H ) :   0.9488 B(  8-S ,  9-C ) :   0.9709 B(  9-C , 10-S ) :   1.0195
B(  9-C , 29-H ) :   0.8855 B(  9-C , 30-H ) :   0.8644 B( 10-S , 11-P ) :   0.9242
B( 10-S , 12-S ) :   0.1218 B( 11-P , 12-S ) :   1.6029 B( 11-P , 13-O ) :   1.1374
B( 11-P , 16-O ) :   1.1356 B( 13-O , 14-C ) :   0.9081 B( 14-C , 15-C ) :   1.1691
B( 14-C , 31-H ) :   0.9053 B( 14-C , 32-H ) :   0.9346 B( 15-C , 33-H ) :   0.9452
B( 15-C , 34-H ) :   0.9284 B( 15-C , 35-H ) :   0.9398 B( 16-O , 17-C ) :   0.9100
B( 17-C , 18-C ) :   1.1641 B( 17-C , 36-H ) :   0.9342 B( 17-C , 37-H ) :   0.9181
B( 18-C , 38-H ) :   0.9438 B( 18-C , 39-H ) :   0.9375 B( 18-C , 40-H ) :   0.9386

Dispersion correction           -0.064199615
FINAL SINGLE POINT ENERGY     -2929.521788204319

DIPOLE MOMENT
-------------

Method             : SCF
Type of density    : Electron Density
Multiplicity       :   1
Irrep              :   0
Energy             : -2929.6416264781846621 Eh
Relativity type    :
Basis              : AO
                                X                 Y                 Z
Electronic contribution:     -2.272923109      -2.124590374      -7.532157238
Nuclear contribution   :      2.304646143       2.025306894       8.694022846
                        -----------------------------------------
Total Dipole Moment    :      0.031723034      -0.099283480       1.161865609
                        -----------------------------------------
Magnitude (a.u.)       :      1.166531291
Magnitude (Debye)      :      2.965086903

Rotational constants in cm-1:             0.011595             0.004718             0.004616
Rotational constants in MHz :           347.618263           141.450306           138.393728

                             ****ORCA TERMINATED NORMALLY****
TOTAL RUN TIME: 0 days 0 hours 0 minutes 20 seconds 899 msec
