                         Program Version 6.0.0  -   RELEASE  -
|  1> ! pbe def2-sv(p) def2/J RI DEFGRID1 loosescf d4 GCP(DFT/SV(P)) printgap
|  2> %output
|  3>     printlevel normal
|  4> end
|  5> * xyz 0 1
|  6> C 1.5459768449 -1.4333240663 -2.6854806775
|  7> C 2.3238473839 -0.1463802086 -2.5115211819
|  8> O 1.9844837141 0.5375145192 -1.2811389939
|  9> P 2.2697941374 0.0052408322 0.1762264584
| 10> S 2.4844165934 1.4299668392 1.5019230288
| 11> O 3.5754796766 -0.8741314174 -0.0655201119
| 12> C 4.4852764573 -1.2220923352 0.9933472593
| 13> C 3.8562630157 -2.1334297526 2.0270362547
| 14> S 0.7812641829 -1.450429228 0.6415226579
| 15> C -0.1389856761 -0.5970793406 1.957074957
| 16> S -1.9146978606 -0.5329930019 1.6305664088
| 17> P -1.8502654097 0.5489934364 -0.2009911901
| 18> S -0.6125899188 2.0663493403 -0.2522604183
| 19> O -3.3803762059 0.9088342984 -0.4220487452
| 20> C -4.0424796773 1.8926215525 0.3991262425
| 21> C -5.3544473182 2.2476130642 -0.2704801095
| 22> O -1.5741070672 -0.4984979229 -1.342264634
| 23> C -2.391843938 -1.6856458662 -1.5359499804
| 24> C -3.3851640094 -1.4648647053 -2.6570683276
| 25> H 0.4800104499 -1.2314478902 -2.6143564888
| 26> H 1.7694189523 -1.8549349614 -3.6604483654
| 27> H 1.8235522833 -2.1489066227 -1.9128897418
| 28> H 2.0664215065 0.5867271594 -3.2779264943
| 29> H 3.4000745387 -0.3302417103 -2.5155784648
| 30> H 5.3093847845 -1.7116161748 0.4723390558
| 31> H 4.8355017545 -0.297283337 1.4618854715
| 32> H 4.6227401933 -2.4668249007 2.7191682742
| 33> H 3.0937370539 -1.5901770942 2.5831139408
| 34> H 3.3999135528 -2.996048235 1.548495332
| 35> H 0.2618408744 0.4160038897 2.0569983138
| 36> H -0.0273147421 -1.1567528383 2.8823939863
| 37> H -4.2028019268 1.4579973258 1.3894388268
| 38> H -3.3869909726 2.7647271202 0.4927176187
| 39> H -5.9742028232 1.360997838 -0.366736726
| 40> H -5.8732616708 2.9844799342 0.333647878
| 41> H -5.1698943803 2.6605430126 -1.2582351925
| 42> H -1.6782736287 -2.4760577729 -1.7766522348
| 43> H -2.8982991244 -1.9227991581 -0.5966909385
| 44> H -3.944636548 -2.3808292749 -2.818629767
| 45> H -4.0722969285 -0.6642539301 -2.3968357415
| 46> H -2.8650627907 -1.1956015749 -3.5721844223
| 47> *
| 48>
| 49>                          ****END OF INPUT****

CARTESIAN COORDINATES (ANGSTROEM)
---------------------------------
  C      1.545977   -1.433324   -2.685481
  C      2.323847   -0.146380   -2.511521
  O      1.984484    0.537515   -1.281139
  P      2.269794    0.005241    0.176226
  S      2.484417    1.429967    1.501923
  O      3.575480   -0.874131   -0.065520
  C      4.485276   -1.222092    0.993347
  C      3.856263   -2.133430    2.027036
  S      0.781264   -1.450429    0.641523
  C     -0.138986   -0.597079    1.957075
  S     -1.914698   -0.532993    1.630566
  P     -1.850265    0.548993   -0.200991
  S     -0.612590    2.066349   -0.252260
  O     -3.380376    0.908834   -0.422049
  C     -4.042480    1.892622    0.399126
  C     -5.354447    2.247613   -0.270480
  O     -1.574107   -0.498498   -1.342265
  C     -2.391844   -1.685646   -1.535950
  C     -3.385164   -1.464865   -2.657068
  H      0.480010   -1.231448   -2.614356
  H      1.769419   -1.854935   -3.660448
  H      1.823552   -2.148907   -1.912890
  H      2.066422    0.586727   -3.277926
  H      3.400075   -0.330242   -2.515578
  H      5.309385   -1.711616    0.472339
  H      4.835502   -0.297283    1.461885
  H      4.622740   -2.466825    2.719168
  H      3.093737   -1.590177    2.583114
  H      3.399914   -2.996048    1.548495
  H      0.261841    0.416004    2.056998
  H     -0.027315   -1.156753    2.882394
  H     -4.202802    1.457997    1.389439
  H     -3.386991    2.764727    0.492718
  H     -5.974203    1.360998   -0.366737
  H     -5.873262    2.984480    0.333648
  H     -5.169894    2.660543   -1.258235
  H     -1.678274   -2.476058   -1.776652
  H     -2.898299   -1.922799   -0.596691
  H     -3.944637   -2.380829   -2.818630
  H     -4.072297   -0.664254   -2.396836
  H     -2.865063   -1.195602   -3.572184

 Total Charge           Charge          ....    0
 Multiplicity           Mult            ....    1
 Number of Electrons    NEL             ....  202
 Basis Dimension        Dim             ....  334

ORBITAL ENERGIES
----------------

  NO   OCC          E(Eh)            E(eV)
   0   2.0000     -88.040457     -2395.7026
   1   2.0000     -88.037336     -2395.6177
   2   2.0000     -87.978093     -2394.0056
   3   2.0000     -87.975513     -2393.9354
   4   2.0000     -76.421074     -2079.5232
   5   2.0000     -76.421052     -2079.5226
   6   2.0000     -18.793027      -511.3842
   7   2.0000     -18.791641      -511.3465
   8   2.0000     -18.789251      -511.2815
   9   2.0000     -18.780633      -511.0470
  10   2.0000      -9.956022      -270.9171
  11   2.0000      -9.953364      -270.8448
  12   2.0000      -9.950327      -270.7622
  13   2.0000      -9.950081      -270.7555
  14   2.0000      -9.949367      -270.7360
  15   2.0000      -9.889729      -269.1132
  16   2.0000      -9.887930      -269.0643
  17   2.0000      -9.882925      -268.9281
  18   2.0000      -9.881706      -268.8949
  19   2.0000      -7.685668      -209.1377
  20   2.0000      -7.681699      -209.0297
  21   2.0000      -7.623289      -207.4402
  22   2.0000      -7.620467      -207.3634
  23   2.0000      -6.418618      -174.6595
  24   2.0000      -6.418126      -174.6461
  25   2.0000      -5.713458      -155.4711
  26   2.0000      -5.709992      -155.3768
  27   2.0000      -5.709585      -155.3657
  28   2.0000      -5.706304      -155.2764
  29   2.0000      -5.702935      -155.1848
  30   2.0000      -5.698643      -155.0680
  31   2.0000      -5.652326      -153.8076
  32   2.0000      -5.649568      -153.7326
  33   2.0000      -5.643789      -153.5753
  34   2.0000      -5.643400      -153.5647
  35   2.0000      -5.640996      -153.4993
  36   2.0000      -5.640553      -153.4872
  37   2.0000      -4.641503      -126.3017
  38   2.0000      -4.641136      -126.2917
  39   2.0000      -4.640534      -126.2754
  40   2.0000      -4.639533      -126.2481
  41   2.0000      -4.638607      -126.2229
  42   2.0000      -4.638584      -126.2223
  43   2.0000      -0.988563       -26.9002
  44   2.0000      -0.982019       -26.7221
  45   2.0000      -0.945500       -25.7284
  46   2.0000      -0.936366       -25.4798
  47   2.0000      -0.758506       -20.6400
  48   2.0000      -0.718066       -19.5396
  49   2.0000      -0.708428       -19.2773
  50   2.0000      -0.693381       -18.8678
  51   2.0000      -0.686702       -18.6861
  52   2.0000      -0.674025       -18.3411
  53   2.0000      -0.644881       -17.5481
  54   2.0000      -0.628677       -17.1072
  55   2.0000      -0.593596       -16.1526
  56   2.0000      -0.585779       -15.9399
  57   2.0000      -0.574725       -15.6391
  58   2.0000      -0.570212       -15.5163
  59   2.0000      -0.560609       -15.2549
  60   2.0000      -0.507083       -13.7984
  61   2.0000      -0.490848       -13.3567
  62   2.0000      -0.482378       -13.1262
  63   2.0000      -0.464652       -12.6438
  64   2.0000      -0.447058       -12.1651
  65   2.0000      -0.445323       -12.1179
  66   2.0000      -0.442251       -12.0343
  67   2.0000      -0.440440       -11.9850
  68   2.0000      -0.429214       -11.6795
  69   2.0000      -0.420450       -11.4410
  70   2.0000      -0.405892       -11.0449
  71   2.0000      -0.394945       -10.7470
  72   2.0000      -0.390013       -10.6128
  73   2.0000      -0.384141       -10.4530
  74   2.0000      -0.381438       -10.3795
  75   2.0000      -0.365926        -9.9574
  76   2.0000      -0.362148        -9.8545
  77   2.0000      -0.357266        -9.7217
  78   2.0000      -0.355553        -9.6751
  79   2.0000      -0.349926        -9.5220
  80   2.0000      -0.348591        -9.4856
  81   2.0000      -0.344278        -9.3683
  82   2.0000      -0.340427        -9.2635
  83   2.0000      -0.335805        -9.1377
  84   2.0000      -0.332813        -9.0563
  85   2.0000      -0.317213        -8.6318
  86   2.0000      -0.308143        -8.3850
  87   2.0000      -0.299642        -8.1537
  88   2.0000      -0.294805        -8.0220
  89   2.0000      -0.291941        -7.9441
  90   2.0000      -0.288161        -7.8413
  91   2.0000      -0.275419        -7.4945
  92   2.0000      -0.265853        -7.2342
  93   2.0000      -0.259453        -7.0601
  94   2.0000      -0.252875        -6.8811
  95   2.0000      -0.231823        -6.3082
  96   2.0000      -0.217643        -5.9224
  97   2.0000      -0.208575        -5.6756
  98   2.0000      -0.195205        -5.3118
  99   2.0000      -0.187457        -5.1010
 100   2.0000      -0.180494        -4.9115
 101   0.0000      -0.039174        -1.0660
 102   0.0000      -0.032239        -0.8773
 103   0.0000      -0.003745        -0.1019
 104   0.0000       0.013100         0.3565
 105   0.0000       0.017400         0.4735

MULLIKEN ATOMIC CHARGES
-----------------------
   0 C :   -0.354913
   1 C :    0.012194
   2 O :   -0.349236
   3 P :    0.629158
   4 S :   -0.298467
   5 O :   -0.390856
   6 C :    0.003248
   7 C :   -0.310969
   8 S :   -0.129890
   9 C :   -0.341228
  10 S :   -0.116829
  11 P :    0.579174
  12 S :   -0.277649
  13 O :   -0.384315
  14 C :   -0.011601
  15 C :   -0.282927
  16 O :   -0.349554
  17 C :   -0.008451
  18 C :   -0.288760
  19 H :    0.154311
  20 H :    0.109208
  21 H :    0.119121
  22 H :    0.111003
  23 H :    0.106218
  24 H :    0.101036
  25 H :    0.112201
  26 H :    0.111017
  27 H :    0.119954
  28 H :    0.115682
  29 H :    0.209409
  30 H :    0.177233
  31 H :    0.104503
  32 H :    0.108068
  33 H :    0.114489
  34 H :    0.114047
  35 H :    0.122690
  36 H :    0.109602
  37 H :    0.103131
  38 H :    0.109282
  39 H :    0.122848
  40 H :    0.116820
Sum of atomic charges:    0.0000000

LOEWDIN ATOMIC CHARGES
----------------------
   0 C :   -0.374387
   1 C :   -0.105846
   2 O :   -0.228630
   3 P :    0.578722
   4 S :   -0.295373
   5 O :   -0.251645
   6 C :   -0.116668
   7 C :   -0.370868
   8 S :    0.066848
   9 C :   -0.480862
  10 S :    0.057598
  11 P :    0.554299
  12 S :   -0.287473
  13 O :   -0.251783
  14 C :   -0.120447
  15 C :   -0.350794
  16 O :   -0.229985
  17 C :   -0.116113
  18 C :   -0.358550
  19 H :    0.131776
  20 H :    0.129375
  21 H :    0.114980
  22 H :    0.123838
  23 H :    0.111927
  24 H :    0.116701
  25 H :    0.112144
  26 H :    0.129754
  27 H :    0.119241
  28 H :    0.122227
  29 H :    0.125822
  30 H :    0.133550
  31 H :    0.108523
  32 H :    0.111428
  33 H :    0.124992
  34 H :    0.131900
  35 H :    0.129604
  36 H :    0.117013
  37 H :    0.103803
  38 H :    0.129360
  39 H :    0.126738
  40 H :    0.127259

  Mayer bond orders larger than 0.100000
B(  0-C ,  1-C ) :   1.1710 B(  0-C , 19-H ) :   0.9248 B(  0-C , 20-H ) :   0.9352
B(  0-C , 21-H ) :   0.9368 B(  1-C ,  2-O ) :   0.9058 B(  1-C , 22-H ) :   0.9317
B(  1-C , 23-H ) :   0.9265 B(  2-O ,  3-P ) :   1.1397 B(  3-P ,  4-S ) :   1.6237
B(  3-P ,  5-O ) :   1.0627 B(  3-P ,  8-S ) :   0.9339 B(  4-S ,  8-S ) :   0.1184
B(  4-S , 29-H ) :   0.1009 B(  5-O ,  6-C ) :   0.9111 B(  6-C ,  7-C ) :   1.1673
B(  6-C , 24-H ) :   0.9345 B(  6-C , 25-H ) :   0.9167 B(  7-C , 26-H ) :   0.9369
B(  7-C , 27-H ) :   0.9361 B(  7-C , 28-H ) :   0.9428 B(  8-S ,  9-C ) :   1.0008
B(  9-C , 10-S ) :   0.9974 B(  9-C , 29-H ) :   0.8438 B(  9-C , 30-H ) :   0.9101
B( 10-S , 11-P ) :   0.9432 B( 10-S , 12-S ) :   0.1093 B( 11-P , 12-S ) :   1.6933
B( 11-P , 13-O ) :   1.0714 B( 11-P , 16-O ) :   1.1235 B( 13-O , 14-C ) :   0.9050
B( 14-C , 15-C ) :   1.1591 B( 14-C , 31-H ) :   0.9279 B( 14-C , 32-H ) :   0.9100
B( 15-C , 33-H ) :   0.9508 B( 15-C , 34-H ) :   0.9419 B( 15-C , 35-H ) :   0.9508
B( 16-O , 17-C ) :   0.8768 B( 17-C , 18-C ) :   1.1679 B( 17-C , 36-H ) :   0.9304
B( 17-C , 37-H ) :   0.9111 B( 18-C , 38-H ) :   0.9401 B( 18-C , 39-H ) :   0.9411
B( 18-C , 40-H ) :   0.9484

Dispersion correction           -0.066845378
FINAL SINGLE POINT ENERGY     -2929.513830187724

DIPOLE MOMENT
-------------

Method             : SCF
Type of density    : Electron Density
Multiplicity       :   1
Irrep              :   0
Energy             : -2929.6329812297331046 Eh
Relativity type    :
Basis              : AO
                                X                 Y                 Z
Electronic contribution:      8.137894713      10.355944526       9.753797619
Nuclear contribution   :     -8.859362035     -11.976384840     -10.283445745
                        -----------------------------------------
Total Dipole Moment    :     -0.721467322      -1.620440314      -0.529648126
                        -----------------------------------------
Magnitude (a.u.)       :      1.851180447
Magnitude (Debye)      :      4.705326757

Rotational constants in cm-1:             0.013327             0.005108             0.004765
Rotational constants in MHz :           399.547705           153.144491           142.838198

                             ****ORCA TERMINATED NORMALLY****
TOTAL RUN TIME: 0 days 0 hours 0 minutes 21 seconds 420 msec
