                         Program Version 6.0.1  -  RELEASE   -
|  1> ! r2scan-3c def2/J RI DEFGRID2 scfconv6 printgap
|  2> %output
|  3>     printlevel normal
|  4> end
|  5> * xyz 0 1
|  6> C 4.9340195457 -3.395986259 -1.4981024
|  7> C 3.8193894802 -2.8571655174 -0.6231286009
|  8> O 3.0796105958 -1.8861664756 -1.3914708288
|  9> C 2.278395443 -1.0656086766 -0.7587879334
| 10> O 2.1033243519 -1.0645499762 0.4453945379
| 11> C 1.5977254872 -0.089022817 -1.6939859629
| 12> C 0.3590385949 0.4736835197 -1.013214426
| 13> H -0.0489295012 1.3240833777 -1.5674143169
| 14> C 0.6590635296 0.9323067363 0.4017830429
| 15> O -0.0646420617 0.6612433158 1.3423099608
| 16> O 1.6941815325 1.7243914193 0.459195013
| 17> C 2.0470479693 2.26350667 1.7506317909
| 18> C 3.1363373747 3.2963703312 1.5443477598
| 19> S -0.9456142165 -0.7988872009 -0.9033907673
| 20> P -2.3595727375 0.2625177238 0.2697862897
| 21> S -2.3823269963 2.2134310559 0.1113430904
| 22> O -3.7110452446 -0.3903438174 -0.322966835
| 23> C -4.1588500509 -0.1075578655 -1.6508491022
| 24> O -2.4903209112 -0.3004866818 1.7418635041
| 25> C -2.2626663681 -1.6828899404 2.0665982469
| 26> H 5.605545191 -2.5932912152 -1.7874191426
| 27> H 5.4905770497 -4.1467661546 -0.9472527806
| 28> H 4.516511911 -3.8444007491 -2.3942191879
| 29> H 4.2019262328 -2.3691611376 0.2786344642
| 30> H 3.1255044398 -3.6473518494 -0.3214824849
| 31> H 1.3431978093 -0.5891649785 -2.6274183736
| 32> H 2.2961902755 0.7236320807 -1.9048081457
| 33> H 1.1463660916 2.6969046234 2.1973352984
| 34> H 2.3801665664 1.4309343579 2.378186753
| 35> H 4.0081174351 2.8339881707 1.0919822936
| 36> H 2.7779015806 4.0892332426 0.8947510439
| 37> H 3.4117890476 3.7181725372 2.5050660702
| 38> H -4.1336539343 0.9687020095 -1.8309414986
| 39> H -5.1797237614 -0.4772147359 -1.7008287327
| 40> H -3.5251753687 -0.6220521793 -2.3732423483
| 41> H -1.1950329464 -1.8967539328 2.002242009
| 42> H -2.8231282887 -2.3283086706 1.3914311917
| 43> H -2.6116106511 -1.7943252163 3.0898641028
| 44> *
| 45>
| 46>                          ****END OF INPUT****

CARTESIAN COORDINATES (ANGSTROEM)
---------------------------------
  C      4.934020   -3.395986   -1.498102
  C      3.819389   -2.857166   -0.623129
  O      3.079611   -1.886166   -1.391471
  C      2.278395   -1.065609   -0.758788
  O      2.103324   -1.064550    0.445395
  C      1.597725   -0.089023   -1.693986
  C      0.359039    0.473684   -1.013214
  H     -0.048930    1.324083   -1.567414
  C      0.659064    0.932307    0.401783
  O     -0.064642    0.661243    1.342310
  O      1.694182    1.724391    0.459195
  C      2.047048    2.263507    1.750632
  C      3.136337    3.296370    1.544348
  S     -0.945614   -0.798887   -0.903391
  P     -2.359573    0.262518    0.269786
  S     -2.382327    2.213431    0.111343
  O     -3.711045   -0.390344   -0.322967
  C     -4.158850   -0.107558   -1.650849
  O     -2.490321   -0.300487    1.741864
  C     -2.262666   -1.682890    2.066598
  H      5.605545   -2.593291   -1.787419
  H      5.490577   -4.146766   -0.947253
  H      4.516512   -3.844401   -2.394219
  H      4.201926   -2.369161    0.278634
  H      3.125504   -3.647352   -0.321482
  H      1.343198   -0.589165   -2.627418
  H      2.296190    0.723632   -1.904808
  H      1.146366    2.696905    2.197335
  H      2.380167    1.430934    2.378187
  H      4.008117    2.833988    1.091982
  H      2.777902    4.089233    0.894751
  H      3.411789    3.718173    2.505066
  H     -4.133654    0.968702   -1.830941
  H     -5.179724   -0.477215   -1.700829
  H     -3.525175   -0.622052   -2.373242
  H     -1.195033   -1.896754    2.002242
  H     -2.823128   -2.328309    1.391431
  H     -2.611611   -1.794325    3.089864

 Total Charge           Charge          ....    0
 Multiplicity           Mult            ....    1
 Number of Electrons    NEL             ....  174
 Basis Dimension        Dim             ....  510

ORBITAL ENERGIES
----------------

  NO   OCC          E(Eh)            E(eV)
   0   2.0000     -88.566683     -2410.0220
   1   2.0000     -88.498929     -2408.1783
   2   2.0000     -76.900263     -2092.5625
   3   2.0000     -19.017012      -517.4792
   4   2.0000     -19.003234      -517.1043
   5   2.0000     -18.972951      -516.2802
   6   2.0000     -18.969198      -516.1781
   7   2.0000     -18.947330      -515.5831
   8   2.0000     -18.927866      -515.0534
   9   2.0000     -10.172626      -276.8112
  10   2.0000     -10.159695      -276.4593
  11   2.0000     -10.106412      -275.0095
  12   2.0000     -10.094228      -274.6779
  13   2.0000     -10.091833      -274.6127
  14   2.0000     -10.081204      -274.3235
  15   2.0000     -10.074427      -274.1391
  16   2.0000     -10.071860      -274.0693
  17   2.0000     -10.043222      -273.2900
  18   2.0000     -10.032384      -272.9951
  19   2.0000      -7.861096      -213.9113
  20   2.0000      -7.793979      -212.0849
  21   2.0000      -6.577618      -178.9861
  22   2.0000      -5.807982      -158.0432
  23   2.0000      -5.805017      -157.9626
  24   2.0000      -5.798127      -157.7750
  25   2.0000      -5.741912      -156.2454
  26   2.0000      -5.734480      -156.0431
  27   2.0000      -5.733418      -156.0142
  28   2.0000      -4.723205      -128.5249
  29   2.0000      -4.723008      -128.5196
  30   2.0000      -4.721052      -128.4664
  31   2.0000      -1.094809       -29.7913
  32   2.0000      -1.081396       -29.4263
  33   2.0000      -1.030241       -28.0343
  34   2.0000      -0.996185       -27.1076
  35   2.0000      -0.987720       -26.8772
  36   2.0000      -0.980035       -26.6681
  37   2.0000      -0.812378       -22.1059
  38   2.0000      -0.766121       -20.8472
  39   2.0000      -0.748186       -20.3592
  40   2.0000      -0.724832       -19.7237
  41   2.0000      -0.695150       -18.9160
  42   2.0000      -0.658203       -17.9106
  43   2.0000      -0.653918       -17.7940
  44   2.0000      -0.639025       -17.3887
  45   2.0000      -0.627919       -17.0865
  46   2.0000      -0.591633       -16.0991
  47   2.0000      -0.550916       -14.9912
  48   2.0000      -0.538320       -14.6484
  49   2.0000      -0.521310       -14.1856
  50   2.0000      -0.506719       -13.7885
  51   2.0000      -0.488791       -13.3007
  52   2.0000      -0.475429       -12.9371
  53   2.0000      -0.470792       -12.8109
  54   2.0000      -0.466299       -12.6886
  55   2.0000      -0.456451       -12.4207
  56   2.0000      -0.440056       -11.9745
  57   2.0000      -0.434683       -11.8283
  58   2.0000      -0.430099       -11.7036
  59   2.0000      -0.427887       -11.6434
  60   2.0000      -0.418763       -11.3951
  61   2.0000      -0.415437       -11.3046
  62   2.0000      -0.402467       -10.9517
  63   2.0000      -0.396085       -10.7780
  64   2.0000      -0.386440       -10.5156
  65   2.0000      -0.382482       -10.4079
  66   2.0000      -0.376728       -10.2513
  67   2.0000      -0.375563       -10.2196
  68   2.0000      -0.368599       -10.0301
  69   2.0000      -0.365825        -9.9546
  70   2.0000      -0.346980        -9.4418
  71   2.0000      -0.340097        -9.2545
  72   2.0000      -0.330870        -9.0034
  73   2.0000      -0.330164        -8.9842
  74   2.0000      -0.323958        -8.8154
  75   2.0000      -0.318889        -8.6774
  76   2.0000      -0.300315        -8.1720
  77   2.0000      -0.297646        -8.0994
  78   2.0000      -0.291517        -7.9326
  79   2.0000      -0.276971        -7.5368
  80   2.0000      -0.270589        -7.3631
  81   2.0000      -0.259507        -7.0615
  82   2.0000      -0.254777        -6.9328
  83   2.0000      -0.241259        -6.5650
  84   2.0000      -0.228074        -6.2062
  85   2.0000      -0.201685        -5.4881
  86   2.0000      -0.192347        -5.2340
  87   0.0000      -0.040263        -1.0956
  88   0.0000      -0.026833        -0.7302
  89   0.0000      -0.013936        -0.3792
  90   0.0000       0.012416         0.3379
  91   0.0000       0.035892         0.9767

MULLIKEN ATOMIC CHARGES
-----------------------
   0 C :   -0.438844
   1 C :   -0.156016
   2 O :   -0.140630
   3 C :    0.360088
   4 O :   -0.381158
   5 C :   -0.409359
   6 C :   -0.024465
   7 H :    0.235799
   8 C :    0.298362
   9 O :   -0.387559
  10 O :   -0.116552
  11 C :   -0.165088
  12 C :   -0.451502
  13 S :   -0.211161
  14 P :    0.803808
  15 S :   -0.470040
  16 O :   -0.368163
  17 C :   -0.302786
  18 O :   -0.296298
  19 C :   -0.300515
  20 H :    0.153436
  21 H :    0.151119
  22 H :    0.154606
  23 H :    0.167424
  24 H :    0.155366
  25 H :    0.187730
  26 H :    0.196135
  27 H :    0.176200
  28 H :    0.162812
  29 H :    0.149633
  30 H :    0.156798
  31 H :    0.150016
  32 H :    0.175130
  33 H :    0.147483
  34 H :    0.150919
  35 H :    0.179643
  36 H :    0.155782
  37 H :    0.151848
Sum of atomic charges:   -0.0000000

LOEWDIN ATOMIC CHARGES
----------------------
   0 C :   -0.383723
   1 C :    0.038112
   2 O :   -0.574812
   3 C :    0.365826
   4 O :   -0.419585
   5 C :   -0.207605
   6 C :   -0.198978
   7 H :    0.204739
   8 C :    0.348601
   9 O :   -0.448477
  10 O :   -0.572079
  11 C :    0.040881
  12 C :   -0.385730
  13 S :    0.208132
  14 P :    0.410207
  15 S :   -0.096861
  16 O :   -0.695443
  17 C :   -0.070209
  18 O :   -0.638675
  19 C :   -0.052812
  20 H :    0.159881
  21 H :    0.161431
  22 H :    0.160891
  23 H :    0.185303
  24 H :    0.179314
  25 H :    0.189909
  26 H :    0.200639
  27 H :    0.189359
  28 H :    0.182652
  29 H :    0.157584
  30 H :    0.160907
  31 H :    0.161109
  32 H :    0.175731
  33 H :    0.174230
  34 H :    0.164815
  35 H :    0.177741
  36 H :    0.167666
  37 H :    0.179332

  Mayer bond orders larger than 0.100000
B(  0-C ,  1-C ) :   0.9494 B(  0-C , 20-H ) :   0.9737 B(  0-C , 21-H ) :   0.9673
B(  0-C , 22-H ) :   0.9685 B(  1-C ,  2-O ) :   0.7729 B(  1-C , 23-H ) :   0.9576
B(  1-C , 24-H ) :   0.9447 B(  2-O ,  3-C ) :   1.1821 B(  3-C ,  4-O ) :   1.7524
B(  3-C ,  5-C ) :   0.9681 B(  4-O ,  8-C ) :   0.1395 B(  5-C ,  6-C ) :   0.8917
B(  5-C , 10-O ) :   0.1151 B(  5-C , 25-H ) :   0.9717 B(  5-C , 26-H ) :   0.9238
B(  6-C ,  7-H ) :   0.9111 B(  6-C ,  8-C ) :   0.8831 B(  6-C , 13-S ) :   0.9411
B(  8-C ,  9-O ) :   1.7363 B(  8-C , 10-O ) :   1.2083 B(  9-O , 14-P ) :   0.1160
B( 10-O , 11-C ) :   0.7732 B( 11-C , 12-C ) :   0.9405 B( 11-C , 27-H ) :   0.9544
B( 11-C , 28-H ) :   0.9493 B( 12-C , 29-H ) :   0.9736 B( 12-C , 30-H ) :   0.9738
B( 12-C , 31-H ) :   0.9672 B( 13-S , 14-P ) :   0.9686 B( 14-P , 15-S ) :   1.7786
B( 14-P , 16-O ) :   1.0014 B( 14-P , 18-O ) :   1.2057 B( 16-O , 17-C ) :   0.8415
B( 17-C , 32-H ) :   0.9587 B( 17-C , 33-H ) :   0.9700 B( 17-C , 34-H ) :   0.9578
B( 18-O , 19-C ) :   0.7965 B( 19-C , 35-H ) :   0.9560 B( 19-C , 36-H ) :   0.9653
B( 19-C , 37-H ) :   0.9656

Dispersion correction           -0.016769612
FINAL SINGLE POINT ENERGY     -1981.445162620445

DIPOLE MOMENT
-------------

Method             : SCF
Type of density    : Electron Density
Multiplicity       :   1
Irrep              :   0
Energy             : -1981.4662603530268825 Eh
Relativity type    :
Basis              : AO
                                X                 Y                 Z
Electronic contribution:    -19.622290142       5.139103676       0.874550675
Nuclear contribution   :     21.715018787      -6.413934074      -1.709473247
                        -----------------------------------------
Total Dipole Moment    :      2.092728645      -1.274830398      -0.834922572
                        -----------------------------------------
Magnitude (a.u.)       :      2.588783773
Magnitude (Debye)      :      6.580165418

Rotational constants in cm-1:             0.013336             0.006374             0.005163
Rotational constants in MHz :           399.810679           191.093855           154.768683

                             ****ORCA TERMINATED NORMALLY****
TOTAL RUN TIME: 0 days 0 hours 1 minutes 13 seconds 837 msec
