                         Program Version 6.0.1  -  RELEASE   -
|  1> ! r2scan-3c def2/J RI DEFGRID2 scfconv6 printgap
|  2> %output
|  3>     printlevel normal
|  4> end
|  5> %cpcm
|  6>     smd true
|  7>     smdsolvent "water"
|  8> end
|  9> * xyz 0 1
| 10> C 4.9340195457 -3.395986259 -1.4981024
| 11> C 3.8193894802 -2.8571655174 -0.6231286009
| 12> O 3.0796105958 -1.8861664756 -1.3914708288
| 13> C 2.278395443 -1.0656086766 -0.7587879334
| 14> O 2.1033243519 -1.0645499762 0.4453945379
| 15> C 1.5977254872 -0.089022817 -1.6939859629
| 16> C 0.3590385949 0.4736835197 -1.013214426
| 17> H -0.0489295012 1.3240833777 -1.5674143169
| 18> C 0.6590635296 0.9323067363 0.4017830429
| 19> O -0.0646420617 0.6612433158 1.3423099608
| 20> O 1.6941815325 1.7243914193 0.459195013
| 21> C 2.0470479693 2.26350667 1.7506317909
| 22> C 3.1363373747 3.2963703312 1.5443477598
| 23> S -0.9456142165 -0.7988872009 -0.9033907673
| 24> P -2.3595727375 0.2625177238 0.2697862897
| 25> S -2.3823269963 2.2134310559 0.1113430904
| 26> O -3.7110452446 -0.3903438174 -0.322966835
| 27> C -4.1588500509 -0.1075578655 -1.6508491022
| 28> O -2.4903209112 -0.3004866818 1.7418635041
| 29> C -2.2626663681 -1.6828899404 2.0665982469
| 30> H 5.605545191 -2.5932912152 -1.7874191426
| 31> H 5.4905770497 -4.1467661546 -0.9472527806
| 32> H 4.516511911 -3.8444007491 -2.3942191879
| 33> H 4.2019262328 -2.3691611376 0.2786344642
| 34> H 3.1255044398 -3.6473518494 -0.3214824849
| 35> H 1.3431978093 -0.5891649785 -2.6274183736
| 36> H 2.2961902755 0.7236320807 -1.9048081457
| 37> H 1.1463660916 2.6969046234 2.1973352984
| 38> H 2.3801665664 1.4309343579 2.378186753
| 39> H 4.0081174351 2.8339881707 1.0919822936
| 40> H 2.7779015806 4.0892332426 0.8947510439
| 41> H 3.4117890476 3.7181725372 2.5050660702
| 42> H -4.1336539343 0.9687020095 -1.8309414986
| 43> H -5.1797237614 -0.4772147359 -1.7008287327
| 44> H -3.5251753687 -0.6220521793 -2.3732423483
| 45> H -1.1950329464 -1.8967539328 2.002242009
| 46> H -2.8231282887 -2.3283086706 1.3914311917
| 47> H -2.6116106511 -1.7943252163 3.0898641028
| 48> *
| 49>
| 50>                          ****END OF INPUT****

CARTESIAN COORDINATES (ANGSTROEM)
---------------------------------
  C      4.934020   -3.395986   -1.498102
  C      3.819389   -2.857166   -0.623129
  O      3.079611   -1.886166   -1.391471
  C      2.278395   -1.065609   -0.758788
  O      2.103324   -1.064550    0.445395
  C      1.597725   -0.089023   -1.693986
  C      0.359039    0.473684   -1.013214
  H     -0.048930    1.324083   -1.567414
  C      0.659064    0.932307    0.401783
  O     -0.064642    0.661243    1.342310
  O      1.694182    1.724391    0.459195
  C      2.047048    2.263507    1.750632
  C      3.136337    3.296370    1.544348
  S     -0.945614   -0.798887   -0.903391
  P     -2.359573    0.262518    0.269786
  S     -2.382327    2.213431    0.111343
  O     -3.711045   -0.390344   -0.322967
  C     -4.158850   -0.107558   -1.650849
  O     -2.490321   -0.300487    1.741864
  C     -2.262666   -1.682890    2.066598
  H      5.605545   -2.593291   -1.787419
  H      5.490577   -4.146766   -0.947253
  H      4.516512   -3.844401   -2.394219
  H      4.201926   -2.369161    0.278634
  H      3.125504   -3.647352   -0.321482
  H      1.343198   -0.589165   -2.627418
  H      2.296190    0.723632   -1.904808
  H      1.146366    2.696905    2.197335
  H      2.380167    1.430934    2.378187
  H      4.008117    2.833988    1.091982
  H      2.777902    4.089233    0.894751
  H      3.411789    3.718173    2.505066
  H     -4.133654    0.968702   -1.830941
  H     -5.179724   -0.477215   -1.700829
  H     -3.525175   -0.622052   -2.373242
  H     -1.195033   -1.896754    2.002242
  H     -2.823128   -2.328309    1.391431
  H     -2.611611   -1.794325    3.089864

 Total Charge           Charge          ....    0
 Multiplicity           Mult            ....    1
 Number of Electrons    NEL             ....  174
 Basis Dimension        Dim             ....  510

ORBITAL ENERGIES
----------------

  NO   OCC          E(Eh)            E(eV)
   0   2.0000     -88.577026     -2410.3034
   1   2.0000     -88.521456     -2408.7913
   2   2.0000     -76.918458     -2093.0577
   3   2.0000     -19.012043      -517.3440
   4   2.0000     -19.011349      -517.3251
   5   2.0000     -18.992109      -516.8016
   6   2.0000     -18.984680      -516.5994
   7   2.0000     -18.952997      -515.7373
   8   2.0000     -18.947134      -515.5777
   9   2.0000     -10.174320      -276.8573
  10   2.0000     -10.174096      -276.8512
  11   2.0000     -10.096853      -274.7493
  12   2.0000     -10.088350      -274.5180
  13   2.0000     -10.088078      -274.5105
  14   2.0000     -10.083792      -274.3939
  15   2.0000     -10.076596      -274.1981
  16   2.0000     -10.062052      -273.8023
  17   2.0000     -10.020175      -272.6628
  18   2.0000     -10.020156      -272.6623
  19   2.0000      -7.871350      -214.1903
  20   2.0000      -7.816861      -212.7076
  21   2.0000      -6.595996      -179.4862
  22   2.0000      -5.818236      -158.3222
  23   2.0000      -5.815293      -158.2422
  24   2.0000      -5.808374      -158.0539
  25   2.0000      -5.764653      -156.8642
  26   2.0000      -5.757373      -156.6661
  27   2.0000      -5.756357      -156.6384
  28   2.0000      -4.741597      -129.0254
  29   2.0000      -4.741257      -129.0162
  30   2.0000      -4.739548      -128.9697
  31   2.0000      -1.094647       -29.7869
  32   2.0000      -1.089025       -29.6339
  33   2.0000      -1.047839       -28.5131
  34   2.0000      -1.004002       -27.3203
  35   2.0000      -0.999878       -27.2081
  36   2.0000      -0.997039       -27.1308
  37   2.0000      -0.813404       -22.1339
  38   2.0000      -0.753641       -20.5076
  39   2.0000      -0.746755       -20.3202
  40   2.0000      -0.729481       -19.8502
  41   2.0000      -0.697116       -18.9695
  42   2.0000      -0.663279       -18.0487
  43   2.0000      -0.658680       -17.9236
  44   2.0000      -0.650574       -17.7030
  45   2.0000      -0.616890       -16.7864
  46   2.0000      -0.588236       -16.0067
  47   2.0000      -0.541988       -14.7482
  48   2.0000      -0.539435       -14.6788
  49   2.0000      -0.530409       -14.4332
  50   2.0000      -0.507749       -13.8166
  51   2.0000      -0.487755       -13.2725
  52   2.0000      -0.487463       -13.2645
  53   2.0000      -0.472688       -12.8625
  54   2.0000      -0.466887       -12.7046
  55   2.0000      -0.465148       -12.6573
  56   2.0000      -0.447358       -12.1732
  57   2.0000      -0.440670       -11.9912
  58   2.0000      -0.431778       -11.7493
  59   2.0000      -0.431280       -11.7357
  60   2.0000      -0.422445       -11.4953
  61   2.0000      -0.414361       -11.2753
  62   2.0000      -0.408306       -11.1106
  63   2.0000      -0.399540       -10.8720
  64   2.0000      -0.381442       -10.3796
  65   2.0000      -0.376561       -10.2468
  66   2.0000      -0.370635       -10.0855
  67   2.0000      -0.364313        -9.9135
  68   2.0000      -0.363406        -9.8888
  69   2.0000      -0.357834        -9.7371
  70   2.0000      -0.350775        -9.5451
  71   2.0000      -0.333349        -9.0709
  72   2.0000      -0.332184        -9.0392
  73   2.0000      -0.328626        -8.9424
  74   2.0000      -0.323403        -8.8002
  75   2.0000      -0.319264        -8.6876
  76   2.0000      -0.312116        -8.4931
  77   2.0000      -0.309738        -8.4284
  78   2.0000      -0.289751        -7.8845
  79   2.0000      -0.287924        -7.8348
  80   2.0000      -0.280539        -7.6338
  81   2.0000      -0.273419        -7.4401
  82   2.0000      -0.262758        -7.1500
  83   2.0000      -0.257599        -7.0096
  84   2.0000      -0.241264        -6.5651
  85   2.0000      -0.223896        -6.0925
  86   2.0000      -0.216324        -5.8865
  87   0.0000      -0.048595        -1.3223
  88   0.0000      -0.032353        -0.8804
  89   0.0000      -0.025121        -0.6836
  90   0.0000       0.003206         0.0872
  91   0.0000       0.020979         0.5709

MULLIKEN ATOMIC CHARGES
-----------------------
   0 C :   -0.488404
   1 C :   -0.154991
   2 O :   -0.147314
   3 C :    0.394011
   4 O :   -0.449954
   5 C :   -0.436265
   6 C :   -0.006137
   7 H :    0.264090
   8 C :    0.289050
   9 O :   -0.444742
  10 O :   -0.126930
  11 C :   -0.156716
  12 C :   -0.492730
  13 S :   -0.202988
  14 P :    0.802917
  15 S :   -0.518952
  16 O :   -0.403368
  17 C :   -0.309381
  18 O :   -0.348722
  19 C :   -0.304468
  20 H :    0.166885
  21 H :    0.171267
  22 H :    0.165560
  23 H :    0.176040
  24 H :    0.177884
  25 H :    0.220564
  26 H :    0.237762
  27 H :    0.178061
  28 H :    0.178706
  29 H :    0.166660
  30 H :    0.167360
  31 H :    0.171828
  32 H :    0.175005
  33 H :    0.175634
  34 H :    0.171233
  35 H :    0.180375
  36 H :    0.180233
  37 H :    0.180937
Sum of atomic charges:   -0.0000000

LOEWDIN ATOMIC CHARGES
----------------------
   0 C :   -0.387446
   1 C :    0.042063
   2 O :   -0.571505
   3 C :    0.375886
   4 O :   -0.468548
   5 C :   -0.195905
   6 C :   -0.189532
   7 H :    0.215438
   8 C :    0.349664
   9 O :   -0.500122
  10 O :   -0.570593
  11 C :    0.043584
  12 C :   -0.386929
  13 S :    0.220931
  14 P :    0.405394
  15 S :   -0.137755
  16 O :   -0.712759
  17 C :   -0.064665
  18 O :   -0.672903
  19 C :   -0.046219
  20 H :    0.163095
  21 H :    0.169331
  22 H :    0.163472
  23 H :    0.189010
  24 H :    0.186913
  25 H :    0.203641
  26 H :    0.216742
  27 H :    0.189418
  28 H :    0.187639
  29 H :    0.163542
  30 H :    0.163952
  31 H :    0.169748
  32 H :    0.175950
  33 H :    0.186191
  34 H :    0.173727
  35 H :    0.179482
  36 H :    0.178665
  37 H :    0.191404

  Mayer bond orders larger than 0.100000
B(  0-C ,  1-C ) :   0.9439 B(  0-C , 20-H ) :   0.9725 B(  0-C , 21-H ) :   0.9615
B(  0-C , 22-H ) :   0.9666 B(  1-C ,  2-O ) :   0.7622 B(  1-C , 23-H ) :   0.9520
B(  1-C , 24-H ) :   0.9365 B(  2-O ,  3-C ) :   1.2020 B(  3-C ,  4-O ) :   1.6990
B(  3-C ,  5-C ) :   0.9520 B(  4-O ,  8-C ) :   0.1390 B(  5-C ,  6-C ) :   0.8831
B(  5-C , 10-O ) :   0.1019 B(  5-C , 25-H ) :   0.9670 B(  5-C , 26-H ) :   0.9191
B(  6-C ,  7-H ) :   0.8925 B(  6-C ,  8-C ) :   0.8817 B(  6-C , 13-S ) :   0.9249
B(  8-C ,  9-O ) :   1.6998 B(  8-C , 10-O ) :   1.2137 B(  9-O , 14-P ) :   0.1175
B( 10-O , 11-C ) :   0.7602 B( 11-C , 12-C ) :   0.9442 B( 11-C , 27-H ) :   0.9489
B( 11-C , 28-H ) :   0.9391 B( 12-C , 29-H ) :   0.9686 B( 12-C , 30-H ) :   0.9716
B( 12-C , 31-H ) :   0.9607 B( 13-S , 14-P ) :   0.9999 B( 14-P , 15-S ) :   1.7762
B( 14-P , 16-O ) :   0.9994 B( 14-P , 18-O ) :   1.1911 B( 16-O , 17-C ) :   0.8337
B( 17-C , 32-H ) :   0.9553 B( 17-C , 33-H ) :   0.9595 B( 17-C , 34-H ) :   0.9506
B( 18-O , 19-C ) :   0.7906 B( 19-C , 35-H ) :   0.9493 B( 19-C , 36-H ) :   0.9545
B( 19-C , 37-H ) :   0.9543

Dispersion correction           -0.016769612
FINAL SINGLE POINT ENERGY     -1981.462868914302

DIPOLE MOMENT
-------------

Method             : SCF
Type of density    : Electron Density
Multiplicity       :   1
Irrep              :   0
Energy             : -1981.4839666468835730 Eh
Relativity type    :
Basis              : AO
                                X                 Y                 Z
Electronic contribution:    -18.985702284       4.752164650       0.059658003
Nuclear contribution   :     21.715018787      -6.413934074      -1.709473247
                        -----------------------------------------
Total Dipole Moment    :      2.729316503      -1.661769425      -1.649815243
                        -----------------------------------------
Magnitude (a.u.)       :      3.596183606
Magnitude (Debye)      :      9.140772299

Rotational constants in cm-1:             0.013336             0.006374             0.005163
Rotational constants in MHz :           399.810679           191.093855           154.768683

                             ****ORCA TERMINATED NORMALLY****
TOTAL RUN TIME: 0 days 0 hours 1 minutes 43 seconds 695 msec
