                         Program Version 6.0.0  -   RELEASE  -
|  1> ! pbe def2-sv(p) def2/J RI DEFGRID1 loosescf d4 GCP(DFT/SV(P)) printgap
|  2> %output
|  3>     printlevel normal
|  4> end
|  5> * xyz 0 1
|  6> C 3.0144441797 0.6646671385 -2.8193613696
|  7> C 2.4856666322 -0.730183766 -2.5538719167
|  8> O 1.6274110634 -0.7753198732 -1.3954811458
|  9> P 2.1183001535 -0.5906599317 0.1009421178
| 10> S 2.7811525712 1.1456677045 0.7469937001
| 11> O 3.2175055721 -1.742482694 0.1748403624
| 12> C 4.1796055956 -1.8233568135 1.238630362
| 13> C 3.5369963877 -2.2054363869 2.5563841749
| 14> S 0.4326903913 -1.3711394821 1.0863390902
| 15> C -0.2248533898 0.133196181 1.8961491348
| 16> S -1.9951148356 0.3454887606 1.6409985991
| 17> P -2.0370476284 1.0583563474 -0.370353018
| 18> S -0.3260840477 1.7605140194 -1.0194572131
| 19> O -3.1561912412 2.1611711387 -0.4061909085
| 20> C -4.5854945393 1.91143807 -0.405457053
| 21> C -5.0477413383 1.1835789344 0.8378668955
| 22> O -2.6914838238 -0.0815057614 -1.2710762796
| 23> C -2.015205313 -1.2898971662 -1.6609881291
| 24> C -2.4539113736 -2.4537782639 -0.7931446936
| 25> H 3.7075861929 0.9663817891 -2.0359822595
| 26> H 3.5276800676 0.6832929737 -3.7753688047
| 27> H 2.1904263714 1.3760322827 -2.835952942
| 28> H 3.3009477921 -1.4434120858 -2.4105057184
| 29> H 1.8346249692 -1.0654715874 -3.363348197
| 30> H 4.8849234945 -2.5823680497 0.8976563174
| 31> H 4.6828391691 -0.8547498778 1.3237154861
| 32> H 4.3116447836 -2.3809243843 3.295777229
| 33> H 2.8964273933 -1.3955397242 2.9027598469
| 34> H 2.9369942813 -3.1040063136 2.438125652
| 35> H 0.3214205999 0.9980079396 1.5104706368
| 36> H -0.093842574 0.0306681642 2.9702456325
| 37> H -5.009261467 2.9148665424 -0.4671387758
| 38> H -4.8309195849 1.3467187419 -1.3064387425
| 39> H -4.6198703029 0.1834829848 0.8728517344
| 40> H -4.7428144754 1.7231940645 1.7306679422
| 41> H -6.1303319036 1.1043896872 0.8193001082
| 42> H -2.302501329 -1.4444605967 -2.7031671841
| 43> H -0.9326160529 -1.1334512672 -1.6095661086
| 44> H -1.9855781303 -3.3617346538 -1.1587200283
| 45> H -2.1534628172 -2.2996868469 0.2407556467
| 46> H -3.5337736136 -2.5622873758 -0.8380284064
| 47> *
| 48>
| 49>                          ****END OF INPUT****

CARTESIAN COORDINATES (ANGSTROEM)
---------------------------------
  C      3.014444    0.664667   -2.819361
  C      2.485667   -0.730184   -2.553872
  O      1.627411   -0.775320   -1.395481
  P      2.118300   -0.590660    0.100942
  S      2.781153    1.145668    0.746994
  O      3.217506   -1.742483    0.174840
  C      4.179606   -1.823357    1.238630
  C      3.536996   -2.205436    2.556384
  S      0.432690   -1.371139    1.086339
  C     -0.224853    0.133196    1.896149
  S     -1.995115    0.345489    1.640999
  P     -2.037048    1.058356   -0.370353
  S     -0.326084    1.760514   -1.019457
  O     -3.156191    2.161171   -0.406191
  C     -4.585495    1.911438   -0.405457
  C     -5.047741    1.183579    0.837867
  O     -2.691484   -0.081506   -1.271076
  C     -2.015205   -1.289897   -1.660988
  C     -2.453911   -2.453778   -0.793145
  H      3.707586    0.966382   -2.035982
  H      3.527680    0.683293   -3.775369
  H      2.190426    1.376032   -2.835953
  H      3.300948   -1.443412   -2.410506
  H      1.834625   -1.065472   -3.363348
  H      4.884923   -2.582368    0.897656
  H      4.682839   -0.854750    1.323715
  H      4.311645   -2.380924    3.295777
  H      2.896427   -1.395540    2.902760
  H      2.936994   -3.104006    2.438126
  H      0.321421    0.998008    1.510471
  H     -0.093843    0.030668    2.970246
  H     -5.009261    2.914867   -0.467139
  H     -4.830920    1.346719   -1.306439
  H     -4.619870    0.183483    0.872852
  H     -4.742814    1.723194    1.730668
  H     -6.130332    1.104390    0.819300
  H     -2.302501   -1.444461   -2.703167
  H     -0.932616   -1.133451   -1.609566
  H     -1.985578   -3.361735   -1.158720
  H     -2.153463   -2.299687    0.240756
  H     -3.533774   -2.562287   -0.838028

 Total Charge           Charge          ....    0
 Multiplicity           Mult            ....    1
 Number of Electrons    NEL             ....  202
 Basis Dimension        Dim             ....  334

ORBITAL ENERGIES
----------------

  NO   OCC          E(Eh)            E(eV)
   0   2.0000     -88.043112     -2395.7749
   1   2.0000     -88.041651     -2395.7351
   2   2.0000     -87.984368     -2394.1764
   3   2.0000     -87.975909     -2393.9462
   4   2.0000     -76.425266     -2079.6372
   5   2.0000     -76.421921     -2079.5462
   6   2.0000     -18.790687      -511.3206
   7   2.0000     -18.789931      -511.3000
   8   2.0000     -18.787735      -511.2403
   9   2.0000     -18.786566      -511.2084
  10   2.0000      -9.957125      -270.9472
  11   2.0000      -9.952063      -270.8094
  12   2.0000      -9.950589      -270.7693
  13   2.0000      -9.950126      -270.7567
  14   2.0000      -9.946760      -270.6651
  15   2.0000      -9.891799      -269.1695
  16   2.0000      -9.883039      -268.9312
  17   2.0000      -9.879701      -268.8403
  18   2.0000      -9.875028      -268.7132
  19   2.0000      -7.687816      -209.1961
  20   2.0000      -7.686550      -209.1617
  21   2.0000      -7.629186      -207.6007
  22   2.0000      -7.620834      -207.3734
  23   2.0000      -6.422361      -174.7613
  24   2.0000      -6.419331      -174.6789
  25   2.0000      -5.715865      -155.5366
  26   2.0000      -5.714413      -155.4971
  27   2.0000      -5.712026      -155.4321
  28   2.0000      -5.711082      -155.4064
  29   2.0000      -5.704996      -155.2408
  30   2.0000      -5.703468      -155.1993
  31   2.0000      -5.658136      -153.9657
  32   2.0000      -5.649935      -153.7425
  33   2.0000      -5.649920      -153.7421
  34   2.0000      -5.649207      -153.7227
  35   2.0000      -5.641230      -153.5057
  36   2.0000      -5.641021      -153.5000
  37   2.0000      -4.645021      -126.3974
  38   2.0000      -4.643933      -126.3678
  39   2.0000      -4.642984      -126.3420
  40   2.0000      -4.642218      -126.3212
  41   2.0000      -4.641021      -126.2886
  42   2.0000      -4.639571      -126.2492
  43   2.0000      -0.985334       -26.8123
  44   2.0000      -0.985084       -26.8055
  45   2.0000      -0.940872       -25.6024
  46   2.0000      -0.940222       -25.5847
  47   2.0000      -0.760092       -20.6832
  48   2.0000      -0.720090       -19.5947
  49   2.0000      -0.709248       -19.2996
  50   2.0000      -0.689406       -18.7597
  51   2.0000      -0.684744       -18.6328
  52   2.0000      -0.673740       -18.3334
  53   2.0000      -0.648747       -17.6533
  54   2.0000      -0.630900       -17.1676
  55   2.0000      -0.597345       -16.2546
  56   2.0000      -0.588927       -16.0255
  57   2.0000      -0.575522       -15.6607
  58   2.0000      -0.574027       -15.6201
  59   2.0000      -0.557433       -15.1685
  60   2.0000      -0.496666       -13.5150
  61   2.0000      -0.493987       -13.4421
  62   2.0000      -0.471993       -12.8436
  63   2.0000      -0.466314       -12.6891
  64   2.0000      -0.452397       -12.3104
  65   2.0000      -0.449202       -12.2234
  66   2.0000      -0.442307       -12.0358
  67   2.0000      -0.431042       -11.7292
  68   2.0000      -0.426544       -11.6068
  69   2.0000      -0.415483       -11.3059
  70   2.0000      -0.412855       -11.2344
  71   2.0000      -0.404963       -11.0196
  72   2.0000      -0.390426       -10.6240
  73   2.0000      -0.385751       -10.4968
  74   2.0000      -0.381652       -10.3853
  75   2.0000      -0.368649       -10.0315
  76   2.0000      -0.363424        -9.8893
  77   2.0000      -0.358996        -9.7688
  78   2.0000      -0.351289        -9.5591
  79   2.0000      -0.348216        -9.4754
  80   2.0000      -0.345196        -9.3933
  81   2.0000      -0.341586        -9.2950
  82   2.0000      -0.339573        -9.2403
  83   2.0000      -0.333875        -9.0852
  84   2.0000      -0.330777        -9.0009
  85   2.0000      -0.313957        -8.5432
  86   2.0000      -0.309178        -8.4132
  87   2.0000      -0.296218        -8.0605
  88   2.0000      -0.293126        -7.9764
  89   2.0000      -0.290760        -7.9120
  90   2.0000      -0.284227        -7.7342
  91   2.0000      -0.274035        -7.4569
  92   2.0000      -0.272114        -7.4046
  93   2.0000      -0.261182        -7.1071
  94   2.0000      -0.255381        -6.9493
  95   2.0000      -0.235125        -6.3981
  96   2.0000      -0.216364        -5.8876
  97   2.0000      -0.211443        -5.7537
  98   2.0000      -0.198319        -5.3965
  99   2.0000      -0.192289        -5.2324
 100   2.0000      -0.183918        -5.0047
 101   0.0000      -0.039520        -1.0754
 102   0.0000      -0.034467        -0.9379
 103   0.0000      -0.011739        -0.3194
 104   0.0000       0.007587         0.2064
 105   0.0000       0.014129         0.3845

MULLIKEN ATOMIC CHARGES
-----------------------
   0 C :   -0.319504
   1 C :    0.002605
   2 O :   -0.357918
   3 P :    0.638295
   4 S :   -0.312233
   5 O :   -0.380873
   6 C :   -0.003304
   7 C :   -0.308699
   8 S :   -0.113482
   9 C :   -0.330514
  10 S :   -0.132818
  11 P :    0.607142
  12 S :   -0.295794
  13 O :   -0.360752
  14 C :    0.008143
  15 C :   -0.340483
  16 O :   -0.386062
  17 C :   -0.029854
  18 C :   -0.295781
  19 H :    0.126121
  20 H :    0.106086
  21 H :    0.136657
  22 H :    0.103889
  23 H :    0.103098
  24 H :    0.101668
  25 H :    0.110041
  26 H :    0.111821
  27 H :    0.118863
  28 H :    0.116456
  29 H :    0.215443
  30 H :    0.179257
  31 H :    0.112054
  32 H :    0.111696
  33 H :    0.133865
  34 H :    0.131367
  35 H :    0.118802
  36 H :    0.101168
  37 H :    0.133369
  38 H :    0.106490
  39 H :    0.126748
  40 H :    0.106925
Sum of atomic charges:   -0.0000000

LOEWDIN ATOMIC CHARGES
----------------------
   0 C :   -0.368654
   1 C :   -0.109773
   2 O :   -0.235382
   3 P :    0.572735
   4 S :   -0.298799
   5 O :   -0.248355
   6 C :   -0.121867
   7 C :   -0.367951
   8 S :    0.087434
   9 C :   -0.479100
  10 S :    0.075214
  11 P :    0.562047
  12 S :   -0.292419
  13 O :   -0.236071
  14 C :   -0.108083
  15 C :   -0.373794
  16 O :   -0.250987
  17 C :   -0.122027
  18 C :   -0.364031
  19 H :    0.121298
  20 H :    0.127294
  21 H :    0.131567
  22 H :    0.109955
  23 H :    0.118098
  24 H :    0.116693
  25 H :    0.108903
  26 H :    0.130090
  27 H :    0.119234
  28 H :    0.124126
  29 H :    0.127417
  30 H :    0.134874
  31 H :    0.123458
  32 H :    0.115636
  33 H :    0.118686
  34 H :    0.129178
  35 H :    0.134436
  36 H :    0.116752
  37 H :    0.109875
  38 H :    0.129088
  39 H :    0.112229
  40 H :    0.120976

  Mayer bond orders larger than 0.100000
B(  0-C ,  1-C ) :   1.1647 B(  0-C , 19-H ) :   0.9358 B(  0-C , 20-H ) :   0.9372
B(  0-C , 21-H ) :   0.9411 B(  1-C ,  2-O ) :   0.9066 B(  1-C , 22-H ) :   0.9281
B(  1-C , 23-H ) :   0.9349 B(  2-O ,  3-P ) :   1.1202 B(  3-P ,  4-S ) :   1.6048
B(  3-P ,  5-O ) :   1.0843 B(  3-P ,  8-S ) :   0.9647 B(  4-S ,  8-S ) :   0.1188
B(  5-O ,  6-C ) :   0.9138 B(  6-C ,  7-C ) :   1.1656 B(  6-C , 24-H ) :   0.9332
B(  6-C , 25-H ) :   0.9119 B(  7-C , 26-H ) :   0.9386 B(  7-C , 27-H ) :   0.9372
B(  7-C , 28-H ) :   0.9449 B(  8-S ,  9-C ) :   0.9841 B(  9-C , 10-S ) :   1.0209
B(  9-C , 29-H ) :   0.8441 B(  9-C , 30-H ) :   0.9075 B( 10-S , 11-P ) :   0.9199
B( 10-S , 12-S ) :   0.1103 B( 11-P , 12-S ) :   1.6822 B( 11-P , 13-O ) :   1.1425
B( 11-P , 16-O ) :   1.0688 B( 13-O , 14-C ) :   0.8989 B( 14-C , 15-C ) :   1.1700
B( 14-C , 31-H ) :   0.9338 B( 14-C , 32-H ) :   0.9269 B( 15-C , 33-H ) :   0.9303
B( 15-C , 34-H ) :   0.9411 B( 15-C , 35-H ) :   0.9349 B( 16-O , 17-C ) :   0.9018
B( 17-C , 18-C ) :   1.1688 B( 17-C , 36-H ) :   0.9351 B( 17-C , 37-H ) :   0.8946
B( 18-C , 38-H ) :   0.9409 B( 18-C , 39-H ) :   0.9300 B( 18-C , 40-H ) :   0.9457

Dispersion correction           -0.067309931
FINAL SINGLE POINT ENERGY     -2929.516071474248

DIPOLE MOMENT
-------------

Method             : SCF
Type of density    : Electron Density
Multiplicity       :   1
Irrep              :   0
Energy             : -2929.6346555206578159 Eh
Relativity type    :
Basis              : AO
                                X                 Y                 Z
Electronic contribution:      1.177969675      10.607560507       3.038038930
Nuclear contribution   :     -1.745199835     -12.019319650      -3.158635718
                        -----------------------------------------
Total Dipole Moment    :     -0.567230160      -1.411759143      -0.120596788
                        -----------------------------------------
Magnitude (a.u.)       :      1.526223286
Magnitude (Debye)      :      3.879351295

Rotational constants in cm-1:             0.013410             0.005068             0.004730
Rotational constants in MHz :           402.022267           151.942680           141.807752

                             ****ORCA TERMINATED NORMALLY****
TOTAL RUN TIME: 0 days 0 hours 0 minutes 21 seconds 365 msec
