                         Program Version 6.0.1  -  RELEASE   -
|  1> ! pbe def2-sv(p) def2/J RI DEFGRID1 loosescf d4 GCP(DFT/SV(P)) printgap
|  2> %output
|  3>     printlevel normal
|  4> end
|  5> * xyz 0 1
|  6> C 3.3322076799 -1.7185892567 1.5700540808
|  7> C 3.0636014837 -2.2632076129 0.1777666779
|  8> O 2.7263446172 -1.1960999353 -0.7296715039
|  9> C 1.4869886719 -1.0607898794 -1.1450564678
| 10> O 0.558183278 -1.7675604634 -0.8056286558
| 11> C 1.3550516249 0.0676501375 -2.1472668614
| 12> C 0.1983500984 1.0090951434 -1.8096276231
| 13> H 0.0584840858 1.71324127 -2.6358014949
| 14> C 0.4284965646 1.8170005692 -0.5454804179
| 15> O -0.444559933 1.984973892 0.284255431
| 16> O 1.6325916986 2.313674521 -0.4915917704
| 17> C 2.021279562 3.0779213924 0.6714699662
| 18> C 2.6613349375 2.1694242918 1.7068024169
| 19> S -1.4133763562 0.1664260363 -1.6603142338
| 20> P -1.6226943752 -0.2757187068 0.4206160398
| 21> S -0.2370358925 -0.502643272 1.7876273033
| 22> O -2.7407094812 0.7099025653 0.964545303
| 23> C -3.9771113649 0.9680093885 0.2800776932
| 24> O -2.5407094868 -1.5930530681 0.2829622059
| 25> C -2.0426467966 -2.9045737077 0.0314354021
| 26> H 3.637391089 -2.5335946193 2.2176203228
| 27> H 4.1203479956 -0.9725036555 1.5368993617
| 28> H 2.4290354676 -1.267389646 1.9772856338
| 29> H 2.2394412979 -2.9813960664 0.1935191059
| 30> H 3.9589965398 -2.7212394816 -0.2464767808
| 31> H 1.1568119605 -0.3847135124 -3.1208422821
| 32> H 2.2889810122 0.6279076929 -2.1797979611
| 33> H 2.7309077339 3.8106548569 0.2869591564
| 34> H 1.1358527943 3.5723583051 1.0789380789
| 35> H 1.9427283894 1.4274812914 2.0526602754
| 36> H 3.5161059955 1.6557296148 1.2764203618
| 37> H 2.986430738 2.7627048155 2.5545836371
| 38> H -3.7786234645 1.3760828233 -0.7113042014
| 39> H -4.492885865 1.6975423497 0.8992734356
| 40> H -4.5557095221 0.0490915087 0.1975966008
| 41> H -2.87158219 -3.576156422 0.2413320582
| 42> H -1.1982729023 -3.1163222776 0.6882613546
| 43> H -1.7217506022 -2.9908791723 -1.005748392
| 44> *
| 45>
| 46>                          ****END OF INPUT****

CARTESIAN COORDINATES (ANGSTROEM)
---------------------------------
  C      3.332208   -1.718589    1.570054
  C      3.063601   -2.263208    0.177767
  O      2.726345   -1.196100   -0.729672
  C      1.486989   -1.060790   -1.145056
  O      0.558183   -1.767560   -0.805629
  C      1.355052    0.067650   -2.147267
  C      0.198350    1.009095   -1.809628
  H      0.058484    1.713241   -2.635801
  C      0.428497    1.817001   -0.545480
  O     -0.444560    1.984974    0.284255
  O      1.632592    2.313675   -0.491592
  C      2.021280    3.077921    0.671470
  C      2.661335    2.169424    1.706802
  S     -1.413376    0.166426   -1.660314
  P     -1.622694   -0.275719    0.420616
  S     -0.237036   -0.502643    1.787627
  O     -2.740709    0.709903    0.964545
  C     -3.977111    0.968009    0.280078
  O     -2.540709   -1.593053    0.282962
  C     -2.042647   -2.904574    0.031435
  H      3.637391   -2.533595    2.217620
  H      4.120348   -0.972504    1.536899
  H      2.429035   -1.267390    1.977286
  H      2.239441   -2.981396    0.193519
  H      3.958997   -2.721239   -0.246477
  H      1.156812   -0.384714   -3.120842
  H      2.288981    0.627908   -2.179798
  H      2.730908    3.810655    0.286959
  H      1.135853    3.572358    1.078938
  H      1.942728    1.427481    2.052660
  H      3.516106    1.655730    1.276420
  H      2.986431    2.762705    2.554584
  H     -3.778623    1.376083   -0.711304
  H     -4.492886    1.697542    0.899273
  H     -4.555710    0.049092    0.197597
  H     -2.871582   -3.576156    0.241332
  H     -1.198273   -3.116322    0.688261
  H     -1.721751   -2.990879   -1.005748

 Total Charge           Charge          ....    0
 Multiplicity           Mult            ....    1
 Number of Electrons    NEL             ....  174
 Basis Dimension        Dim             ....  316

ORBITAL ENERGIES
----------------

  NO   OCC          E(Eh)            E(eV)
   0   2.0000     -88.028412     -2395.3749
   1   2.0000     -87.963176     -2393.5997
   2   2.0000     -76.412917     -2079.3012
   3   2.0000     -18.818215      -512.0697
   4   2.0000     -18.805229      -511.7163
   5   2.0000     -18.769919      -510.7555
   6   2.0000     -18.767159      -510.6804
   7   2.0000     -18.751781      -510.2619
   8   2.0000     -18.739224      -509.9202
   9   2.0000     -10.022644      -272.7300
  10   2.0000     -10.011781      -272.4344
  11   2.0000      -9.953838      -270.8577
  12   2.0000      -9.953605      -270.8514
  13   2.0000      -9.944746      -270.6103
  14   2.0000      -9.930380      -270.2194
  15   2.0000      -9.921643      -269.9816
  16   2.0000      -9.915163      -269.8053
  17   2.0000      -9.883539      -268.9448
  18   2.0000      -9.880151      -268.8526
  19   2.0000      -7.673213      -208.7987
  20   2.0000      -7.608401      -207.0351
  21   2.0000      -6.407959      -174.3694
  22   2.0000      -5.701516      -155.1461
  23   2.0000      -5.697888      -155.0474
  24   2.0000      -5.689568      -154.8210
  25   2.0000      -5.637714      -153.4100
  26   2.0000      -5.628817      -153.1679
  27   2.0000      -5.628218      -153.1516
  28   2.0000      -4.630829      -126.0112
  29   2.0000      -4.630160      -125.9931
  30   2.0000      -4.628315      -125.9429
  31   2.0000      -1.027233       -27.9524
  32   2.0000      -1.011528       -27.5251
  33   2.0000      -0.963280       -26.2122
  34   2.0000      -0.931132       -25.3374
  35   2.0000      -0.918098       -24.9827
  36   2.0000      -0.916023       -24.9263
  37   2.0000      -0.764591       -20.8056
  38   2.0000      -0.710477       -19.3331
  39   2.0000      -0.707005       -19.2386
  40   2.0000      -0.681981       -18.5576
  41   2.0000      -0.653742       -17.7892
  42   2.0000      -0.621627       -16.9153
  43   2.0000      -0.615044       -16.7362
  44   2.0000      -0.602661       -16.3992
  45   2.0000      -0.592717       -16.1286
  46   2.0000      -0.566486       -15.4149
  47   2.0000      -0.509539       -13.8653
  48   2.0000      -0.501370       -13.6430
  49   2.0000      -0.496631       -13.5140
  50   2.0000      -0.485064       -13.1993
  51   2.0000      -0.457451       -12.4479
  52   2.0000      -0.455882       -12.4052
  53   2.0000      -0.452466       -12.3122
  54   2.0000      -0.431851       -11.7513
  55   2.0000      -0.426327       -11.6009
  56   2.0000      -0.418840       -11.3972
  57   2.0000      -0.414378       -11.2758
  58   2.0000      -0.410845       -11.1797
  59   2.0000      -0.398269       -10.8374
  60   2.0000      -0.395221       -10.7545
  61   2.0000      -0.391343       -10.6490
  62   2.0000      -0.389637       -10.6026
  63   2.0000      -0.378486       -10.2991
  64   2.0000      -0.372585       -10.1385
  65   2.0000      -0.369236       -10.0474
  66   2.0000      -0.359801        -9.7907
  67   2.0000      -0.351538        -9.5658
  68   2.0000      -0.343465        -9.3462
  69   2.0000      -0.339668        -9.2428
  70   2.0000      -0.333509        -9.0752
  71   2.0000      -0.326627        -8.8880
  72   2.0000      -0.320753        -8.7281
  73   2.0000      -0.305325        -8.3083
  74   2.0000      -0.299781        -8.1574
  75   2.0000      -0.292116        -7.9489
  76   2.0000      -0.283296        -7.7089
  77   2.0000      -0.277660        -7.5555
  78   2.0000      -0.267543        -7.2802
  79   2.0000      -0.263195        -7.1619
  80   2.0000      -0.252700        -6.8763
  81   2.0000      -0.244083        -6.6418
  82   2.0000      -0.237034        -6.4500
  83   2.0000      -0.231835        -6.3086
  84   2.0000      -0.195595        -5.3224
  85   2.0000      -0.180284        -4.9058
  86   2.0000      -0.175130        -4.7655
  87   0.0000      -0.042937        -1.1684
  88   0.0000      -0.036785        -1.0010
  89   0.0000      -0.026931        -0.7328
  90   0.0000       0.005059         0.1377
  91   0.0000       0.035472         0.9652

MULLIKEN ATOMIC CHARGES
-----------------------
   0 C :   -0.314831
   1 C :   -0.022305
   2 O :   -0.224001
   3 C :    0.097378
   4 O :   -0.190846
   5 C :   -0.043943
   6 C :   -0.301518
   7 H :    0.153294
   8 C :    0.199299
   9 O :   -0.176402
  10 O :   -0.222832
  11 C :   -0.010630
  12 C :   -0.328580
  13 S :   -0.096734
  14 P :    0.651285
  15 S :   -0.335750
  16 O :   -0.361506
  17 C :   -0.102031
  18 O :   -0.402142
  19 C :   -0.087202
  20 H :    0.108032
  21 H :    0.113166
  22 H :    0.149990
  23 H :    0.115220
  24 H :    0.100786
  25 H :    0.123027
  26 H :    0.117226
  27 H :    0.104234
  28 H :    0.118521
  29 H :    0.154576
  30 H :    0.116469
  31 H :    0.111629
  32 H :    0.111757
  33 H :    0.123010
  34 H :    0.115783
  35 H :    0.109844
  36 H :    0.114614
  37 H :    0.112114
Sum of atomic charges:    0.0000000

LOEWDIN ATOMIC CHARGES
----------------------
   0 C :   -0.358058
   1 C :   -0.109989
   2 O :   -0.050238
   3 C :    0.027418
   4 O :   -0.165483
   5 C :   -0.250988
   6 C :   -0.262454
   7 H :    0.153018
   8 C :    0.012357
   9 O :   -0.147573
  10 O :   -0.039832
  11 C :   -0.104693
  12 C :   -0.361176
  13 S :    0.101254
  14 P :    0.598704
  15 S :   -0.307875
  16 O :   -0.240084
  17 C :   -0.213926
  18 O :   -0.265026
  19 C :   -0.213343
  20 H :    0.129808
  21 H :    0.121036
  22 H :    0.126739
  23 H :    0.121667
  24 H :    0.116029
  25 H :    0.147833
  26 H :    0.139270
  27 H :    0.118364
  28 H :    0.124997
  29 H :    0.130663
  30 H :    0.123032
  31 H :    0.131315
  32 H :    0.103785
  33 H :    0.122090
  34 H :    0.111189
  35 H :    0.113152
  36 H :    0.108513
  37 H :    0.108505

  Mayer bond orders larger than 0.100000
B(  0-C ,  1-C ) :   1.1817 B(  0-C , 20-H ) :   0.9402 B(  0-C , 21-H ) :   0.9442
B(  0-C , 22-H ) :   0.9265 B(  1-C ,  2-O ) :   0.9048 B(  1-C , 23-H ) :   0.9051
B(  1-C , 24-H ) :   0.9355 B(  2-O ,  3-C ) :   1.2496 B(  3-C ,  4-O ) :   1.9837
B(  3-C ,  5-C ) :   1.0004 B(  5-C ,  6-C ) :   1.0273 B(  5-C , 25-H ) :   0.8862
B(  5-C , 26-H ) :   0.8864 B(  6-C ,  7-H ) :   0.8708 B(  6-C ,  8-C ) :   0.8952
B(  6-C , 13-S ) :   1.0440 B(  8-C ,  9-O ) :   1.9886 B(  8-C , 10-O ) :   1.2672
B( 10-O , 11-C ) :   0.8942 B( 11-C , 12-C ) :   1.1800 B( 11-C , 27-H ) :   0.9365
B( 11-C , 28-H ) :   0.9110 B( 12-C , 29-H ) :   0.9233 B( 12-C , 30-H ) :   0.9431
B( 12-C , 31-H ) :   0.9392 B( 13-S , 14-P ) :   0.9177 B( 13-S , 15-S ) :   0.1181
B( 14-P , 15-S ) :   1.5587 B( 14-P , 16-O ) :   1.1172 B( 14-P , 18-O ) :   1.0568
B( 16-O , 17-C ) :   0.9337 B( 17-C , 32-H ) :   0.9361 B( 17-C , 33-H ) :   0.9602
B( 17-C , 34-H ) :   0.9463 B( 18-O , 19-C ) :   0.9388 B( 19-C , 35-H ) :   0.9563
B( 19-C , 36-H ) :   0.9387 B( 19-C , 37-H ) :   0.9488

Dispersion correction           -0.056174596
FINAL SINGLE POINT ENERGY     -1979.001082453763

DIPOLE MOMENT
-------------

Method             : SCF
Type of density    : Electron Density
Multiplicity       :   1
Irrep              :   0
Energy             : -1979.1293390428681960 Eh
Relativity type    :
Basis              : AO
                                X                 Y                 Z
Electronic contribution:    -13.184319202       1.834995248      -5.648857165
Nuclear contribution   :     14.228576802      -1.474149366       4.586759416
                        -----------------------------------------
Total Dipole Moment    :      1.044257600       0.360845882      -1.062097749
                        -----------------------------------------
Magnitude (a.u.)       :      1.532558421
Magnitude (Debye)      :      3.895453929

Rotational constants in cm-1:             0.012960             0.009099             0.007622
Rotational constants in MHz :           388.521886           272.787567           228.509832

                             ****ORCA TERMINATED NORMALLY****
TOTAL RUN TIME: 0 days 0 hours 1 minutes 32 seconds 362 msec
