                         Program Version 6.0.0  -   RELEASE  -
|  1> ! pbe def2-sv(p) def2/J RI DEFGRID1 loosescf d4 GCP(DFT/SV(P)) printgap
|  2> %output
|  3>     printlevel normal
|  4> end
|  5> * xyz 0 1
|  6> C 4.1647341103 -1.3423580477 -2.5902528948
|  7> C 4.3044378649 -1.3663024159 -1.0813073492
|  8> O 3.9054549771 -0.0838547966 -0.5296506186
|  9> P 2.6326080411 0.105983138 0.3819489766
| 10> S 2.4388958001 1.9652526445 0.9481364886
| 11> O 2.8986226075 -0.9504373279 1.5424930645
| 12> C 2.2289219329 -0.880838899 2.8141242748
| 13> C 0.7668198483 -1.2643578973 2.7104159943
| 14> S 1.0313320509 -0.7674250076 -0.7427044485
| 15> C 0.3554890145 0.7694277674 -1.4163448615
| 16> S -0.8115321893 1.5893695648 -0.2975817181
| 17> P -2.3867574811 0.2063600331 -0.5776902958
| 18> S -2.6665706626 -0.4498497878 -2.3957584406
| 19> O -3.6833126205 0.9233865059 -0.0159629745
| 20> C -3.8245252127 1.3747113009 1.3536218977
| 21> C -3.5085813207 2.8518561157 1.4749971806
| 22> O -1.9677364615 -0.8989426441 0.501364885
| 23> C -2.3333966748 -2.2836682892 0.351136337
| 24> C -3.811211932 -2.4958491014 0.6092312481
| 25> H 4.7156346945 -0.5008785278 -3.0011468986
| 26> H 4.563769925 -2.2654055269 -2.9984841603
| 27> H 3.1191816228 -1.2523795271 -2.875497179
| 28> H 5.3448664139 -1.494150436 -0.7795059438
| 29> H 3.6928222551 -2.1542427948 -0.6366797064
| 30> H 2.7842733809 -1.581610725 3.439310933
| 31> H 2.33646658 0.135294054 3.2064734632
| 32> H 0.220506021 -0.5179681445 2.1352984685
| 33> H 0.6673325462 -2.2287722294 2.2182080869
| 34> H 0.3397309743 -1.3202741166 3.70654753
| 35> H -0.1647218471 0.511174739 -2.3392850588
| 36> H 1.1614769449 1.478543481 -1.5949267717
| 37> H -4.8704180578 1.1752741547 1.5938104403
| 38> H -3.1736656504 0.7762968212 1.9953721981
| 39> H -4.1180075529 3.4213336731 0.7787113932
| 40> H -3.7220331853 3.1780639006 2.4881190349
| 41> H -2.4592821364 3.0405310989 1.2557218035
| 42> H -2.0658844914 -2.6058986179 -0.6597895951
| 43> H -1.7132686354 -2.8033915866 1.0821530679
| 44> H -4.3947981409 -1.9407418826 -0.1251519417
| 45> H -4.044962547 -3.5518400838 0.5184040545
| 46> H -4.0769703662 -2.1522660274 1.6055567478
| 47> *
| 48>
| 49>                          ****END OF INPUT****

CARTESIAN COORDINATES (ANGSTROEM)
---------------------------------
  C      4.164734   -1.342358   -2.590253
  C      4.304438   -1.366302   -1.081307
  O      3.905455   -0.083855   -0.529651
  P      2.632608    0.105983    0.381949
  S      2.438896    1.965253    0.948136
  O      2.898623   -0.950437    1.542493
  C      2.228922   -0.880839    2.814124
  C      0.766820   -1.264358    2.710416
  S      1.031332   -0.767425   -0.742704
  C      0.355489    0.769428   -1.416345
  S     -0.811532    1.589370   -0.297582
  P     -2.386757    0.206360   -0.577690
  S     -2.666571   -0.449850   -2.395758
  O     -3.683313    0.923387   -0.015963
  C     -3.824525    1.374711    1.353622
  C     -3.508581    2.851856    1.474997
  O     -1.967736   -0.898943    0.501365
  C     -2.333397   -2.283668    0.351136
  C     -3.811212   -2.495849    0.609231
  H      4.715635   -0.500879   -3.001147
  H      4.563770   -2.265406   -2.998484
  H      3.119182   -1.252380   -2.875497
  H      5.344866   -1.494150   -0.779506
  H      3.692822   -2.154243   -0.636680
  H      2.784273   -1.581611    3.439311
  H      2.336467    0.135294    3.206473
  H      0.220506   -0.517968    2.135298
  H      0.667333   -2.228772    2.218208
  H      0.339731   -1.320274    3.706548
  H     -0.164722    0.511175   -2.339285
  H      1.161477    1.478543   -1.594927
  H     -4.870418    1.175274    1.593810
  H     -3.173666    0.776297    1.995372
  H     -4.118008    3.421334    0.778711
  H     -3.722033    3.178064    2.488119
  H     -2.459282    3.040531    1.255722
  H     -2.065884   -2.605899   -0.659790
  H     -1.713269   -2.803392    1.082153
  H     -4.394798   -1.940742   -0.125152
  H     -4.044963   -3.551840    0.518404
  H     -4.076970   -2.152266    1.605557

 Total Charge           Charge          ....    0
 Multiplicity           Mult            ....    1
 Number of Electrons    NEL             ....  202
 Basis Dimension        Dim             ....  334

ORBITAL ENERGIES
----------------

  NO   OCC          E(Eh)            E(eV)
   0   2.0000     -88.042808     -2395.7666
   1   2.0000     -88.040765     -2395.7110
   2   2.0000     -87.989041     -2394.3035
   3   2.0000     -87.986215     -2394.2266
   4   2.0000     -76.427326     -2079.6933
   5   2.0000     -76.424711     -2079.6221
   6   2.0000     -18.795458      -511.4504
   7   2.0000     -18.794808      -511.4327
   8   2.0000     -18.792148      -511.3603
   9   2.0000     -18.790669      -511.3201
  10   2.0000      -9.960801      -271.0472
  11   2.0000      -9.958338      -270.9802
  12   2.0000      -9.954252      -270.8690
  13   2.0000      -9.953824      -270.8573
  14   2.0000      -9.951979      -270.8071
  15   2.0000      -9.890328      -269.1295
  16   2.0000      -9.887297      -269.0470
  17   2.0000      -9.886980      -269.0384
  18   2.0000      -9.884130      -268.9609
  19   2.0000      -7.687381      -209.1843
  20   2.0000      -7.685533      -209.1340
  21   2.0000      -7.634261      -207.7388
  22   2.0000      -7.631493      -207.6635
  23   2.0000      -6.424948      -174.8317
  24   2.0000      -6.422837      -174.7743
  25   2.0000      -5.715108      -155.5160
  26   2.0000      -5.713356      -155.4683
  27   2.0000      -5.712045      -155.4326
  28   2.0000      -5.710274      -155.3845
  29   2.0000      -5.704381      -155.2241
  30   2.0000      -5.702386      -155.1698
  31   2.0000      -5.663286      -154.1058
  32   2.0000      -5.660470      -154.0292
  33   2.0000      -5.654791      -153.8747
  34   2.0000      -5.654392      -153.8638
  35   2.0000      -5.652092      -153.8012
  36   2.0000      -5.651547      -153.7864
  37   2.0000      -4.647731      -126.4712
  38   2.0000      -4.646647      -126.4417
  39   2.0000      -4.645838      -126.4197
  40   2.0000      -4.645279      -126.4045
  41   2.0000      -4.644112      -126.3727
  42   2.0000      -4.643309      -126.3509
  43   2.0000      -0.988982       -26.9116
  44   2.0000      -0.986813       -26.8526
  45   2.0000      -0.946066       -25.7438
  46   2.0000      -0.945774       -25.7358
  47   2.0000      -0.763657       -20.7802
  48   2.0000      -0.722856       -19.6699
  49   2.0000      -0.712567       -19.3899
  50   2.0000      -0.694003       -18.8848
  51   2.0000      -0.690041       -18.7770
  52   2.0000      -0.676536       -18.4095
  53   2.0000      -0.651574       -17.7302
  54   2.0000      -0.639343       -17.3974
  55   2.0000      -0.597925       -16.2704
  56   2.0000      -0.589725       -16.0472
  57   2.0000      -0.581102       -15.8126
  58   2.0000      -0.576481       -15.6868
  59   2.0000      -0.558443       -15.1960
  60   2.0000      -0.506080       -13.7711
  61   2.0000      -0.500594       -13.6218
  62   2.0000      -0.480753       -13.0820
  63   2.0000      -0.475018       -12.9259
  64   2.0000      -0.460579       -12.5330
  65   2.0000      -0.448785       -12.2121
  66   2.0000      -0.443472       -12.0675
  67   2.0000      -0.438592       -11.9347
  68   2.0000      -0.432465       -11.7680
  69   2.0000      -0.419991       -11.4285
  70   2.0000      -0.408592       -11.1183
  71   2.0000      -0.401197       -10.9171
  72   2.0000      -0.394120       -10.7245
  73   2.0000      -0.379801       -10.3349
  74   2.0000      -0.375352       -10.2139
  75   2.0000      -0.372762       -10.1434
  76   2.0000      -0.369620       -10.0579
  77   2.0000      -0.360060        -9.7977
  78   2.0000      -0.358675        -9.7600
  79   2.0000      -0.357218        -9.7204
  80   2.0000      -0.352898        -9.6029
  81   2.0000      -0.349507        -9.5106
  82   2.0000      -0.346464        -9.4278
  83   2.0000      -0.343109        -9.3365
  84   2.0000      -0.335407        -9.1269
  85   2.0000      -0.318401        -8.6641
  86   2.0000      -0.314788        -8.5658
  87   2.0000      -0.305960        -8.3256
  88   2.0000      -0.301611        -8.2072
  89   2.0000      -0.296093        -8.0571
  90   2.0000      -0.282220        -7.6796
  91   2.0000      -0.272935        -7.4269
  92   2.0000      -0.272258        -7.4085
  93   2.0000      -0.271238        -7.3808
  94   2.0000      -0.260381        -7.0853
  95   2.0000      -0.231814        -6.3080
  96   2.0000      -0.216518        -5.8918
  97   2.0000      -0.212227        -5.7750
  98   2.0000      -0.207459        -5.6452
  99   2.0000      -0.203498        -5.5375
 100   2.0000      -0.196720        -5.3530
 101   0.0000      -0.043352        -1.1797
 102   0.0000      -0.027746        -0.7550
 103   0.0000      -0.008594        -0.2339
 104   0.0000       0.007057         0.1920
 105   0.0000       0.009276         0.2524

MULLIKEN ATOMIC CHARGES
-----------------------
   0 C :   -0.284662
   1 C :   -0.012200
   2 O :   -0.357194
   3 P :    0.590365
   4 S :   -0.306210
   5 O :   -0.379731
   6 C :    0.002479
   7 C :   -0.343315
   8 S :   -0.098610
   9 C :   -0.348636
  10 S :   -0.075183
  11 P :    0.616536
  12 S :   -0.318609
  13 O :   -0.367434
  14 C :   -0.031361
  15 C :   -0.300451
  16 O :   -0.378478
  17 C :   -0.009485
  18 C :   -0.313109
  19 H :    0.120377
  20 H :    0.109451
  21 H :    0.117837
  22 H :    0.112961
  23 H :    0.105512
  24 H :    0.103232
  25 H :    0.112165
  26 H :    0.151753
  27 H :    0.116651
  28 H :    0.108497
  29 H :    0.192433
  30 H :    0.189583
  31 H :    0.111596
  32 H :    0.111788
  33 H :    0.125088
  34 H :    0.112935
  35 H :    0.139678
  36 H :    0.111880
  37 H :    0.107237
  38 H :    0.130566
  39 H :    0.113594
  40 H :    0.110478
Sum of atomic charges:   -0.0000000

LOEWDIN ATOMIC CHARGES
----------------------
   0 C :   -0.358707
   1 C :   -0.112800
   2 O :   -0.241745
   3 P :    0.569596
   4 S :   -0.303036
   5 O :   -0.249409
   6 C :   -0.116271
   7 C :   -0.373271
   8 S :    0.075349
   9 C :   -0.482365
  10 S :    0.096350
  11 P :    0.568610
  12 S :   -0.311708
  13 O :   -0.242070
  14 C :   -0.117591
  15 C :   -0.360862
  16 O :   -0.249591
  17 C :   -0.121478
  18 C :   -0.365354
  19 H :    0.129324
  20 H :    0.129671
  21 H :    0.121240
  22 H :    0.122388
  23 H :    0.107307
  24 H :    0.117706
  25 H :    0.111920
  26 H :    0.123402
  27 H :    0.121086
  28 H :    0.128871
  29 H :    0.128967
  30 H :    0.132625
  31 H :    0.121474
  32 H :    0.110415
  33 H :    0.131528
  34 H :    0.131944
  35 H :    0.121706
  36 H :    0.109336
  37 H :    0.116114
  38 H :    0.125975
  39 H :    0.131489
  40 H :    0.121865

  Mayer bond orders larger than 0.100000
B(  0-C ,  1-C ) :   1.1635 B(  0-C , 19-H ) :   0.9462 B(  0-C , 20-H ) :   0.9401
B(  0-C , 21-H ) :   0.9399 B(  1-C ,  2-O ) :   0.8866 B(  1-C , 22-H ) :   0.9336
B(  1-C , 23-H ) :   0.9182 B(  2-O ,  3-P ) :   1.1390 B(  3-P ,  4-S ) :   1.6396
B(  3-P ,  5-O ) :   1.0934 B(  3-P ,  8-S ) :   0.9405 B(  4-S ,  8-S ) :   0.1116
B(  5-O ,  6-C ) :   0.9091 B(  6-C ,  7-C ) :   1.1615 B(  6-C , 24-H ) :   0.9337
B(  6-C , 25-H ) :   0.9159 B(  7-C , 26-H ) :   0.9264 B(  7-C , 27-H ) :   0.9405
B(  7-C , 28-H ) :   0.9377 B(  8-S ,  9-C ) :   0.9967 B(  9-C , 10-S ) :   1.0116
B(  9-C , 29-H ) :   0.8688 B(  9-C , 30-H ) :   0.8896 B( 10-S , 11-P ) :   0.9673
B( 10-S , 12-S ) :   0.1019 B( 11-P , 12-S ) :   1.6243 B( 11-P , 13-O ) :   1.1244
B( 11-P , 16-O ) :   1.0677 B( 13-O , 14-C ) :   0.8995 B( 14-C , 15-C ) :   1.1691
B( 14-C , 31-H ) :   0.9337 B( 14-C , 32-H ) :   0.9150 B( 15-C , 33-H ) :   0.9459
B( 15-C , 34-H ) :   0.9381 B( 15-C , 35-H ) :   0.9329 B( 16-O , 17-C ) :   0.9077
B( 17-C , 18-C ) :   1.1616 B( 17-C , 36-H ) :   0.9125 B( 17-C , 37-H ) :   0.9292
B( 18-C , 38-H ) :   0.9348 B( 18-C , 39-H ) :   0.9401 B( 18-C , 40-H ) :   0.9471

Dispersion correction           -0.064619228
FINAL SINGLE POINT ENERGY     -2929.519666604781

DIPOLE MOMENT
-------------

Method             : SCF
Type of density    : Electron Density
Multiplicity       :   1
Irrep              :   0
Energy             : -2929.6399728708570365 Eh
Relativity type    :
Basis              : AO
                                X                 Y                 Z
Electronic contribution:      5.646566167      10.959943611      -9.379821662
Nuclear contribution   :     -5.698128917     -12.232673129      10.601395750
                        -----------------------------------------
Total Dipole Moment    :     -0.051562750      -1.272729518       1.221574088
                        -----------------------------------------
Magnitude (a.u.)       :      1.764863280
Magnitude (Debye)      :      4.485925954

Rotational constants in cm-1:             0.011678             0.004867             0.004603
Rotational constants in MHz :           350.090002           145.904901           138.001206

                             ****ORCA TERMINATED NORMALLY****
TOTAL RUN TIME: 0 days 0 hours 0 minutes 21 seconds 146 msec
