                         Program Version 6.0.0  -   RELEASE  -
|  1> ! pbe def2-sv(p) def2/J RI DEFGRID1 loosescf d4 GCP(DFT/SV(P)) printgap
|  2> %output
|  3>     printlevel normal
|  4> end
|  5> * xyz 0 1
|  6> C 3.896614394 2.6835608253 0.5385310798
|  7> C 2.8183864899 2.0359200953 -0.3060575575
|  8> O 1.7565551935 1.5090510233 0.5327319603
|  9> P 1.6727677848 -0.0192355052 0.912198445
| 10> S 0.3106465973 -0.4401682655 2.2472058816
| 11> O 3.1670854262 -0.2932293557 1.4064128581
| 12> C 3.5278828574 -1.4309397143 2.2037700404
| 13> C 3.3535299016 -2.7419648991 1.4637072171
| 14> S 1.5822776998 -1.0490755766 -0.9650150249
| 15> C 0.076235025 -2.0278776232 -0.7407567459
| 16> S -1.2673794766 -1.5935008138 -1.8953295883
| 17> P -2.172509079 -0.0120565427 -0.8488695102
| 18> S -3.7324662224 0.8212513694 -1.6856507185
| 19> O -0.975748545 1.0006200926 -0.5016259303
| 20> C -0.7793856354 2.1824360034 -1.2971363157
| 21> C -0.1886810902 1.8543763388 -2.6542818047
| 22> O -2.4326112774 -0.7428978236 0.5333377524
| 23> C -3.4283672988 -0.2822215013 1.4693154132
| 24> C -3.1041239039 1.0885780969 2.022947819
| 25> H 4.3844450066 1.9423092174 1.1651409144
| 26> H 4.6323448758 3.1390658009 -0.1169109532
| 27> H 3.4608510175 3.4487329399 1.1751988204
| 28> H 3.2252806198 1.2253950545 -0.9164556394
| 29> H 2.3300319669 2.7705053241 -0.9489996254
| 30> H 4.5740052075 -1.2512774808 2.4559941494
| 31> H 2.9202480268 -1.4205958542 3.1141142893
| 32> H 3.8553460094 -2.704048485 0.5001204639
| 33> H 3.7760885729 -3.5455582557 2.0583886612
| 34> H 2.294844742 -2.9435775316 1.3062810471
| 35> H -0.2777360902 -1.9106240723 0.2857161783
| 36> H 0.3177376894 -3.0625208272 -0.9683751149
| 37> H -1.7468655036 2.6817342294 -1.4151067563
| 38> H -0.1168300901 2.8013927222 -0.6912820023
| 39> H 0.7334536478 1.2874384915 -2.5483526048
| 40> H -0.89956088 1.259246369 -3.2280332677
| 41> H 0.0120785496 2.7755211627 -3.1918313356
| 42> H -4.3970037825 -0.2745990662 0.9597646738
| 43> H -3.4179362627 -1.0440749371 2.2497283225
| 44> H -3.8287056337 1.348281588 2.7880179547
| 45> H -2.1060240239 1.0897580977 2.4550206201
| 46> H -3.1468679552 1.830392901 1.2258810807
| 47> *
| 48>
| 49>                          ****END OF INPUT****

CARTESIAN COORDINATES (ANGSTROEM)
---------------------------------
  C      3.896614    2.683561    0.538531
  C      2.818386    2.035920   -0.306058
  O      1.756555    1.509051    0.532732
  P      1.672768   -0.019236    0.912198
  S      0.310647   -0.440168    2.247206
  O      3.167085   -0.293229    1.406413
  C      3.527883   -1.430940    2.203770
  C      3.353530   -2.741965    1.463707
  S      1.582278   -1.049076   -0.965015
  C      0.076235   -2.027878   -0.740757
  S     -1.267379   -1.593501   -1.895330
  P     -2.172509   -0.012057   -0.848870
  S     -3.732466    0.821251   -1.685651
  O     -0.975749    1.000620   -0.501626
  C     -0.779386    2.182436   -1.297136
  C     -0.188681    1.854376   -2.654282
  O     -2.432611   -0.742898    0.533338
  C     -3.428367   -0.282222    1.469315
  C     -3.104124    1.088578    2.022948
  H      4.384445    1.942309    1.165141
  H      4.632345    3.139066   -0.116911
  H      3.460851    3.448733    1.175199
  H      3.225281    1.225395   -0.916456
  H      2.330032    2.770505   -0.949000
  H      4.574005   -1.251277    2.455994
  H      2.920248   -1.420596    3.114114
  H      3.855346   -2.704048    0.500120
  H      3.776089   -3.545558    2.058389
  H      2.294845   -2.943578    1.306281
  H     -0.277736   -1.910624    0.285716
  H      0.317738   -3.062521   -0.968375
  H     -1.746866    2.681734   -1.415107
  H     -0.116830    2.801393   -0.691282
  H      0.733454    1.287438   -2.548353
  H     -0.899561    1.259246   -3.228033
  H      0.012079    2.775521   -3.191831
  H     -4.397004   -0.274599    0.959765
  H     -3.417936   -1.044075    2.249728
  H     -3.828706    1.348282    2.788018
  H     -2.106024    1.089758    2.455021
  H     -3.146868    1.830393    1.225881

 Total Charge           Charge          ....    0
 Multiplicity           Mult            ....    1
 Number of Electrons    NEL             ....  202
 Basis Dimension        Dim             ....  334

ORBITAL ENERGIES
----------------

  NO   OCC          E(Eh)            E(eV)
   0   2.0000     -88.046053     -2395.8549
   1   2.0000     -88.038834     -2395.6585
   2   2.0000     -87.994741     -2394.4586
   3   2.0000     -87.984265     -2394.1736
   4   2.0000     -76.432649     -2079.8381
   5   2.0000     -76.420581     -2079.5097
   6   2.0000     -18.799027      -511.5475
   7   2.0000     -18.796752      -511.4856
   8   2.0000     -18.783349      -511.1209
   9   2.0000     -18.783193      -511.1167
  10   2.0000      -9.966950      -271.2145
  11   2.0000      -9.957925      -270.9689
  12   2.0000      -9.957642      -270.9612
  13   2.0000      -9.944119      -270.5932
  14   2.0000      -9.942367      -270.5456
  15   2.0000      -9.893170      -269.2068
  16   2.0000      -9.889907      -269.1181
  17   2.0000      -9.876514      -268.7536
  18   2.0000      -9.871434      -268.6154
  19   2.0000      -7.690762      -209.2763
  20   2.0000      -7.684531      -209.1067
  21   2.0000      -7.639705      -207.8869
  22   2.0000      -7.629425      -207.6072
  23   2.0000      -6.430049      -174.9705
  24   2.0000      -6.418458      -174.6551
  25   2.0000      -5.718648      -155.6123
  26   2.0000      -5.715288      -155.5209
  27   2.0000      -5.712757      -155.4520
  28   2.0000      -5.708789      -155.3441
  29   2.0000      -5.707736      -155.3154
  30   2.0000      -5.701294      -155.1401
  31   2.0000      -5.668623      -154.2511
  32   2.0000      -5.660516      -154.0305
  33   2.0000      -5.659576      -154.0049
  34   2.0000      -5.658401      -153.9729
  35   2.0000      -5.650056      -153.7459
  36   2.0000      -5.649502      -153.7308
  37   2.0000      -4.652843      -126.6103
  38   2.0000      -4.651613      -126.5768
  39   2.0000      -4.650513      -126.5469
  40   2.0000      -4.640713      -126.2802
  41   2.0000      -4.640370      -126.2709
  42   2.0000      -4.639058      -126.2352
  43   2.0000      -0.995040       -27.0764
  44   2.0000      -0.977163       -26.5900
  45   2.0000      -0.950400       -25.8617
  46   2.0000      -0.937727       -25.5169
  47   2.0000      -0.761659       -20.7258
  48   2.0000      -0.724129       -19.7046
  49   2.0000      -0.707004       -19.2385
  50   2.0000      -0.696251       -18.9460
  51   2.0000      -0.678928       -18.4746
  52   2.0000      -0.673738       -18.3333
  53   2.0000      -0.655029       -17.8242
  54   2.0000      -0.640873       -17.4390
  55   2.0000      -0.600423       -16.3383
  56   2.0000      -0.591001       -16.0819
  57   2.0000      -0.582219       -15.8430
  58   2.0000      -0.565028       -15.3752
  59   2.0000      -0.562273       -15.3002
  60   2.0000      -0.508942       -13.8490
  61   2.0000      -0.485862       -13.2210
  62   2.0000      -0.479806       -13.0562
  63   2.0000      -0.466750       -12.7009
  64   2.0000      -0.457287       -12.4434
  65   2.0000      -0.453792       -12.3483
  66   2.0000      -0.439638       -11.9632
  67   2.0000      -0.437182       -11.8963
  68   2.0000      -0.428983       -11.6732
  69   2.0000      -0.418888       -11.3985
  70   2.0000      -0.407837       -11.0978
  71   2.0000      -0.400694       -10.9035
  72   2.0000      -0.392099       -10.6696
  73   2.0000      -0.387692       -10.5496
  74   2.0000      -0.385869       -10.5000
  75   2.0000      -0.373104       -10.1527
  76   2.0000      -0.365507        -9.9459
  77   2.0000      -0.359412        -9.7801
  78   2.0000      -0.358456        -9.7541
  79   2.0000      -0.351855        -9.5745
  80   2.0000      -0.348237        -9.4760
  81   2.0000      -0.343962        -9.3597
  82   2.0000      -0.339213        -9.2305
  83   2.0000      -0.333861        -9.0848
  84   2.0000      -0.324610        -8.8331
  85   2.0000      -0.320463        -8.7202
  86   2.0000      -0.314544        -8.5592
  87   2.0000      -0.306119        -8.3299
  88   2.0000      -0.298878        -8.1329
  89   2.0000      -0.289128        -7.8676
  90   2.0000      -0.281593        -7.6625
  91   2.0000      -0.275994        -7.5102
  92   2.0000      -0.267754        -7.2860
  93   2.0000      -0.266689        -7.2570
  94   2.0000      -0.257374        -7.0035
  95   2.0000      -0.227415        -6.1883
  96   2.0000      -0.218365        -5.9420
  97   2.0000      -0.212450        -5.7811
  98   2.0000      -0.208054        -5.6614
  99   2.0000      -0.203514        -5.5379
 100   2.0000      -0.199590        -5.4311
 101   0.0000      -0.043964        -1.1963
 102   0.0000      -0.031154        -0.8478
 103   0.0000      -0.017296        -0.4707
 104   0.0000      -0.000693        -0.0188
 105   0.0000       0.005963         0.1623

MULLIKEN ATOMIC CHARGES
-----------------------
   0 C :   -0.277476
   1 C :   -0.035484
   2 O :   -0.359864
   3 P :    0.611950
   4 S :   -0.289321
   5 O :   -0.384749
   6 C :    0.001236
   7 C :   -0.316981
   8 S :   -0.106058
   9 C :   -0.366969
  10 S :   -0.067986
  11 P :    0.620647
  12 S :   -0.323407
  13 O :   -0.379504
  14 C :   -0.018655
  15 C :   -0.322647
  16 O :   -0.373449
  17 C :    0.004953
  18 C :   -0.321469
  19 H :    0.124639
  20 H :    0.110898
  21 H :    0.120985
  22 H :    0.111459
  23 H :    0.116177
  24 H :    0.104120
  25 H :    0.112268
  26 H :    0.119977
  27 H :    0.114522
  28 H :    0.121422
  29 H :    0.213318
  30 H :    0.184719
  31 H :    0.112659
  32 H :    0.109649
  33 H :    0.128987
  34 H :    0.121577
  35 H :    0.104598
  36 H :    0.110121
  37 H :    0.102792
  38 H :    0.106570
  39 H :    0.135272
  40 H :    0.118505
Sum of atomic charges:    0.0000000

LOEWDIN ATOMIC CHARGES
----------------------
   0 C :   -0.357016
   1 C :   -0.112502
   2 O :   -0.232257
   3 P :    0.579527
   4 S :   -0.273828
   5 O :   -0.252469
   6 C :   -0.117965
   7 C :   -0.370518
   8 S :    0.073779
   9 C :   -0.481331
  10 S :    0.087995
  11 P :    0.575126
  12 S :   -0.316783
  13 O :   -0.246683
  14 C :   -0.128490
  15 C :   -0.372753
  16 O :   -0.241526
  17 C :   -0.113234
  18 C :   -0.371651
  19 H :    0.128014
  20 H :    0.130579
  21 H :    0.130096
  22 H :    0.107490
  23 H :    0.118738
  24 H :    0.118103
  25 H :    0.111444
  26 H :    0.124234
  27 H :    0.131409
  28 H :    0.119383
  29 H :    0.127663
  30 H :    0.138301
  31 H :    0.106965
  32 H :    0.114406
  33 H :    0.115176
  34 H :    0.121843
  35 H :    0.126815
  36 H :    0.110697
  37 H :    0.118932
  38 H :    0.128179
  39 H :    0.124137
  40 H :    0.119976

  Mayer bond orders larger than 0.100000
B(  0-C ,  1-C ) :   1.1673 B(  0-C , 19-H ) :   0.9413 B(  0-C , 20-H ) :   0.9388
B(  0-C , 21-H ) :   0.9462 B(  1-C ,  2-O ) :   0.8919 B(  1-C , 22-H ) :   0.9161
B(  1-C , 23-H ) :   0.9251 B(  2-O ,  3-P ) :   1.1249 B(  3-P ,  4-S ) :   1.6356
B(  3-P ,  5-O ) :   1.0612 B(  3-P ,  8-S ) :   0.9478 B(  4-S ,  8-S ) :   0.1153
B(  5-O ,  6-C ) :   0.9160 B(  6-C ,  7-C ) :   1.1657 B(  6-C , 24-H ) :   0.9337
B(  6-C , 25-H ) :   0.9175 B(  7-C , 26-H ) :   0.9412 B(  7-C , 27-H ) :   0.9369
B(  7-C , 28-H ) :   0.9389 B(  8-S ,  9-C ) :   1.0009 B(  9-C , 10-S ) :   0.9873
B(  9-C , 29-H ) :   0.8467 B(  9-C , 30-H ) :   0.9091 B( 10-S , 11-P ) :   0.9825
B( 11-P , 12-S ) :   1.6259 B( 11-P , 13-O ) :   1.0681 B( 11-P , 16-O ) :   1.1173
B( 13-O , 14-C ) :   0.9067 B( 14-C , 15-C ) :   1.1675 B( 14-C , 31-H ) :   0.9083
B( 14-C , 32-H ) :   0.9214 B( 15-C , 33-H ) :   0.9318 B( 15-C , 34-H ) :   0.9338
B( 15-C , 35-H ) :   0.9387 B( 16-O , 17-C ) :   0.8996 B( 17-C , 18-C ) :   1.1648
B( 17-C , 36-H ) :   0.9217 B( 17-C , 37-H ) :   0.9341 B( 18-C , 38-H ) :   0.9372
B( 18-C , 39-H ) :   0.9343 B( 18-C , 40-H ) :   0.9335

Dispersion correction           -0.069438611
FINAL SINGLE POINT ENERGY     -2929.517173825393

DIPOLE MOMENT
-------------

Method             : SCF
Type of density    : Electron Density
Multiplicity       :   1
Irrep              :   0
Energy             : -2929.6375270588655439 Eh
Relativity type    :
Basis              : AO
                                X                 Y                 Z
Electronic contribution:    -14.133058444      -8.915307118      -6.775272527
Nuclear contribution   :     16.113061806       8.974307148       7.276223442
                        -----------------------------------------
Total Dipole Moment    :      1.980003362       0.059000030       0.500950915
                        -----------------------------------------
Magnitude (a.u.)       :      2.043244023
Magnitude (Debye)      :      5.193513570

Rotational constants in cm-1:             0.011951             0.005713             0.005404
Rotational constants in MHz :           358.279134           171.266630           162.013775

                             ****ORCA TERMINATED NORMALLY****
TOTAL RUN TIME: 0 days 0 hours 0 minutes 22 seconds 89 msec
