                         Program Version 6.0.1  -  RELEASE   -
|  1> ! pbe def2-sv(p) def2/J RI DEFGRID1 loosescf d4 GCP(DFT/SV(P)) printgap
|  2> %output
|  3>     printlevel normal
|  4> end
|  5> * xyz 0 1
|  6> C 2.6579899862 -4.1131771076 -0.0261036018
|  7> C 2.6403781526 -2.647726015 0.3592463306
|  8> O 2.1564474561 -1.8992342503 -0.7725929401
|  9> C 2.1007558964 -0.5919315087 -0.6832347647
| 10> O 2.4156110962 0.0535517184 0.2975398227
| 11> C 1.6128784955 0.0494098723 -1.9698543152
| 12> C 0.3887354387 0.9302136563 -1.7020456975
| 13> H 0.228902986 1.6078545085 -2.5440172531
| 14> C 0.5668580239 1.7423778502 -0.433753861
| 15> O -0.1411571927 1.5819200599 0.5453317788
| 16> O 1.51418447 2.6248868663 -0.5462993585
| 17> C 1.8457609378 3.4297912348 0.6063258173
| 18> C 0.8698526565 4.5821708737 0.7744749125
| 19> S -1.1458758419 -0.0418143945 -1.5699349187
| 20> P -1.5713557578 -0.3481226352 0.5000613736
| 21> S -0.2946797015 -1.0614074161 1.8083859005
| 22> O -2.531097317 0.8001752461 1.0256737766
| 23> C -3.7757672724 1.1215483744 0.3768193454
| 24> O -2.7089474137 -1.4676389204 0.2207334286
| 25> C -2.3757950268 -2.8138527911 -0.1151713596
| 26> H 1.6541235154 -4.4416147359 -0.2776494036
| 27> H 3.3060233512 -4.265643473 -0.8839122375
| 28> H 3.0240993701 -4.6964384443 0.8118060053
| 29> H 3.6381102578 -2.276230716 0.6125062514
| 30> H 1.9761072277 -2.4528660104 1.2080780397
| 31> H 1.3691718943 -0.722686266 -2.6979192776
| 32> H 2.4197405069 0.681590836 -2.3459193229
| 33> H 1.8495141556 2.7793034861 1.48543874
| 34> H 2.8543415374 3.7836775504 0.3945428755
| 35> H 1.1964382225 5.2046935006 1.6007922725
| 36> H 0.8343626071 5.179074054 -0.1326559317
| 37> H -0.1258914937 4.2032078118 0.9944537801
| 38> H -3.6195468619 1.2631158676 -0.6929180603
| 39> H -4.1059572101 2.0454505083 0.8450565994
| 40> H -4.4950899012 0.3217836247 0.5433655789
| 41> H -3.2865124002 -3.3889412607 0.0315264577
| 42> H -1.585653368 -3.1770274118 0.5454748823
| 43> H -2.0492834027 -2.868729529 -1.1536991168
| 44> *
| 45>
| 46>                          ****END OF INPUT****

CARTESIAN COORDINATES (ANGSTROEM)
---------------------------------
  C      2.657990   -4.113177   -0.026104
  C      2.640378   -2.647726    0.359246
  O      2.156447   -1.899234   -0.772593
  C      2.100756   -0.591932   -0.683235
  O      2.415611    0.053552    0.297540
  C      1.612878    0.049410   -1.969854
  C      0.388735    0.930214   -1.702046
  H      0.228903    1.607855   -2.544017
  C      0.566858    1.742378   -0.433754
  O     -0.141157    1.581920    0.545332
  O      1.514184    2.624887   -0.546299
  C      1.845761    3.429791    0.606326
  C      0.869853    4.582171    0.774475
  S     -1.145876   -0.041814   -1.569935
  P     -1.571356   -0.348123    0.500061
  S     -0.294680   -1.061407    1.808386
  O     -2.531097    0.800175    1.025674
  C     -3.775767    1.121548    0.376819
  O     -2.708947   -1.467639    0.220733
  C     -2.375795   -2.813853   -0.115171
  H      1.654124   -4.441615   -0.277649
  H      3.306023   -4.265643   -0.883912
  H      3.024099   -4.696438    0.811806
  H      3.638110   -2.276231    0.612506
  H      1.976107   -2.452866    1.208078
  H      1.369172   -0.722686   -2.697919
  H      2.419741    0.681591   -2.345919
  H      1.849514    2.779303    1.485439
  H      2.854342    3.783678    0.394543
  H      1.196438    5.204694    1.600792
  H      0.834363    5.179074   -0.132656
  H     -0.125891    4.203208    0.994454
  H     -3.619547    1.263116   -0.692918
  H     -4.105957    2.045451    0.845057
  H     -4.495090    0.321784    0.543366
  H     -3.286512   -3.388941    0.031526
  H     -1.585653   -3.177027    0.545475
  H     -2.049283   -2.868730   -1.153699

 Total Charge           Charge          ....    0
 Multiplicity           Mult            ....    1
 Number of Electrons    NEL             ....  174
 Basis Dimension        Dim             ....  316

ORBITAL ENERGIES
----------------

  NO   OCC          E(Eh)            E(eV)
   0   2.0000     -88.034198     -2395.5323
   1   2.0000     -87.960900     -2393.5378
   2   2.0000     -76.415853     -2079.3811
   3   2.0000     -18.816048      -512.0107
   4   2.0000     -18.801997      -511.6284
   5   2.0000     -18.773662      -510.8573
   6   2.0000     -18.771581      -510.8007
   7   2.0000     -18.755357      -510.3592
   8   2.0000     -18.735675      -509.8236
   9   2.0000     -10.026576      -272.8370
  10   2.0000     -10.009181      -272.3637
  11   2.0000      -9.954949      -270.8879
  12   2.0000      -9.951357      -270.7902
  13   2.0000      -9.938251      -270.4335
  14   2.0000      -9.936483      -270.3855
  15   2.0000      -9.928687      -270.1733
  16   2.0000      -9.916094      -269.8306
  17   2.0000      -9.888563      -269.0815
  18   2.0000      -9.883492      -268.9435
  19   2.0000      -7.679030      -208.9570
  20   2.0000      -7.606031      -206.9706
  21   2.0000      -6.410668      -174.4431
  22   2.0000      -5.707137      -155.2991
  23   2.0000      -5.703082      -155.1887
  24   2.0000      -5.696238      -155.0025
  25   2.0000      -5.635417      -153.3475
  26   2.0000      -5.626813      -153.1134
  27   2.0000      -5.625473      -153.0769
  28   2.0000      -4.633909      -126.0951
  29   2.0000      -4.632778      -126.0643
  30   2.0000      -4.630784      -126.0100
  31   2.0000      -1.027600       -27.9624
  32   2.0000      -1.008471       -27.4419
  33   2.0000      -0.968361       -26.3504
  34   2.0000      -0.933750       -25.4086
  35   2.0000      -0.920911       -25.0593
  36   2.0000      -0.913181       -24.8489
  37   2.0000      -0.766962       -20.8701
  38   2.0000      -0.710853       -19.3433
  39   2.0000      -0.705906       -19.2087
  40   2.0000      -0.683734       -18.6053
  41   2.0000      -0.654735       -17.8162
  42   2.0000      -0.624835       -17.0026
  43   2.0000      -0.620689       -16.8898
  44   2.0000      -0.603816       -16.4307
  45   2.0000      -0.589575       -16.0431
  46   2.0000      -0.561491       -15.2789
  47   2.0000      -0.511447       -13.9172
  48   2.0000      -0.505962       -13.7679
  49   2.0000      -0.497462       -13.5366
  50   2.0000      -0.485780       -13.2188
  51   2.0000      -0.463277       -12.6064
  52   2.0000      -0.458200       -12.4683
  53   2.0000      -0.446350       -12.1458
  54   2.0000      -0.434051       -11.8111
  55   2.0000      -0.427131       -11.6228
  56   2.0000      -0.421902       -11.4805
  57   2.0000      -0.416281       -11.3276
  58   2.0000      -0.410264       -11.1638
  59   2.0000      -0.407276       -11.0825
  60   2.0000      -0.401074       -10.9138
  61   2.0000      -0.398260       -10.8372
  62   2.0000      -0.383946       -10.4477
  63   2.0000      -0.382801       -10.4166
  64   2.0000      -0.370288       -10.0760
  65   2.0000      -0.362067        -9.8523
  66   2.0000      -0.357582        -9.7303
  67   2.0000      -0.351828        -9.5737
  68   2.0000      -0.345461        -9.4005
  69   2.0000      -0.344096        -9.3633
  70   2.0000      -0.333966        -9.0877
  71   2.0000      -0.328511        -8.9392
  72   2.0000      -0.313156        -8.5214
  73   2.0000      -0.307126        -8.3573
  74   2.0000      -0.301731        -8.2105
  75   2.0000      -0.296869        -8.0782
  76   2.0000      -0.284115        -7.7312
  77   2.0000      -0.280592        -7.6353
  78   2.0000      -0.275336        -7.4923
  79   2.0000      -0.257062        -6.9950
  80   2.0000      -0.254467        -6.9244
  81   2.0000      -0.243324        -6.6212
  82   2.0000      -0.239135        -6.5072
  83   2.0000      -0.223946        -6.0939
  84   2.0000      -0.221656        -6.0316
  85   2.0000      -0.181606        -4.9417
  86   2.0000      -0.170654        -4.6437
  87   0.0000      -0.039952        -1.0871
  88   0.0000      -0.030103        -0.8191
  89   0.0000      -0.024803        -0.6749
  90   0.0000       0.004065         0.1106
  91   0.0000       0.031342         0.8529

MULLIKEN ATOMIC CHARGES
-----------------------
   0 C :   -0.274387
   1 C :   -0.040144
   2 O :   -0.217788
   3 C :    0.096985
   4 O :   -0.205605
   5 C :   -0.028810
   6 C :   -0.292258
   7 H :    0.146131
   8 C :    0.228870
   9 O :   -0.192252
  10 O :   -0.219923
  11 C :   -0.004872
  12 C :   -0.314406
  13 S :   -0.115253
  14 P :    0.637587
  15 S :   -0.322290
  16 O :   -0.367815
  17 C :   -0.097054
  18 O :   -0.409563
  19 C :   -0.098438
  20 H :    0.116137
  21 H :    0.109123
  22 H :    0.111246
  23 H :    0.099182
  24 H :    0.134954
  25 H :    0.113870
  26 H :    0.123442
  27 H :    0.131372
  28 H :    0.105005
  29 H :    0.117472
  30 H :    0.110635
  31 H :    0.136337
  32 H :    0.106835
  33 H :    0.122623
  34 H :    0.121831
  35 H :    0.115427
  36 H :    0.109558
  37 H :    0.106238
Sum of atomic charges:    0.0000000

LOEWDIN ATOMIC CHARGES
----------------------
   0 C :   -0.350109
   1 C :   -0.112196
   2 O :   -0.046079
   3 C :    0.024912
   4 O :   -0.157977
   5 C :   -0.246212
   6 C :   -0.260513
   7 H :    0.146809
   8 C :    0.026688
   9 O :   -0.140287
  10 O :   -0.034680
  11 C :   -0.101870
  12 C :   -0.358612
  13 S :    0.085463
  14 P :    0.585708
  15 S :   -0.311295
  16 O :   -0.242876
  17 C :   -0.209771
  18 O :   -0.275458
  19 C :   -0.223395
  20 H :    0.126780
  21 H :    0.123272
  22 H :    0.130964
  23 H :    0.114417
  24 H :    0.117151
  25 H :    0.134822
  26 H :    0.147548
  27 H :    0.132194
  28 H :    0.120280
  29 H :    0.133410
  30 H :    0.123336
  31 H :    0.133342
  32 H :    0.104120
  33 H :    0.121167
  34 H :    0.115136
  35 H :    0.117433
  36 H :    0.103192
  37 H :    0.103184

  Mayer bond orders larger than 0.100000
B(  0-C ,  1-C ) :   1.1553 B(  0-C , 20-H ) :   0.9489 B(  0-C , 21-H ) :   0.9506
B(  0-C , 22-H ) :   0.9443 B(  1-C ,  2-O ) :   0.8958 B(  1-C , 23-H ) :   0.9296
B(  1-C , 24-H ) :   0.9105 B(  2-O ,  3-C ) :   1.2678 B(  2-O ,  4-O ) :   0.1016
B(  3-C ,  4-O ) :   1.9739 B(  3-C ,  5-C ) :   1.0040 B(  5-C ,  6-C ) :   1.0268
B(  5-C , 25-H ) :   0.9048 B(  5-C , 26-H ) :   0.8768 B(  6-C ,  7-H ) :   0.8778
B(  6-C ,  8-C ) :   0.9103 B(  6-C , 13-S ) :   1.0281 B(  8-C ,  9-O ) :   1.8901
B(  8-C , 10-O ) :   1.2733 B(  9-O , 14-P ) :   0.1678 B( 10-O , 11-C ) :   0.8963
B( 11-C , 12-C ) :   1.1718 B( 11-C , 27-H ) :   0.9173 B( 11-C , 28-H ) :   0.9385
B( 12-C , 29-H ) :   0.9437 B( 12-C , 30-H ) :   0.9470 B( 12-C , 31-H ) :   0.9430
B( 13-S , 14-P ) :   0.9329 B( 13-S , 15-S ) :   0.1104 B( 14-P , 15-S ) :   1.6057
B( 14-P , 16-O ) :   1.1030 B( 14-P , 18-O ) :   1.0002 B( 16-O , 17-C ) :   0.9307
B( 17-C , 32-H ) :   0.9386 B( 17-C , 33-H ) :   0.9587 B( 17-C , 34-H ) :   0.9481
B( 18-O , 19-C ) :   0.9477 B( 19-C , 35-H ) :   0.9586 B( 19-C , 36-H ) :   0.9259
B( 19-C , 37-H ) :   0.9477

Dispersion correction           -0.053464571
FINAL SINGLE POINT ENERGY     -1979.006517843992

DIPOLE MOMENT
-------------

Method             : SCF
Type of density    : Electron Density
Multiplicity       :   1
Irrep              :   0
Energy             : -1979.1359973999774411 Eh
Relativity type    :
Basis              : AO
                                X                 Y                 Z
Electronic contribution:     -5.933045650       1.286765471       0.610496103
Nuclear contribution   :      6.224886204      -0.776898693      -1.995584067
                        -----------------------------------------
Total Dipole Moment    :      0.291840554       0.509866778      -1.385087964
                        -----------------------------------------
Magnitude (a.u.)       :      1.504527736
Magnitude (Debye)      :      3.824205590

Rotational constants in cm-1:             0.010629             0.009947             0.006535
Rotational constants in MHz :           318.641300           298.195916           195.914369

                             ****ORCA TERMINATED NORMALLY****
TOTAL RUN TIME: 0 days 0 hours 0 minutes 36 seconds 472 msec
