                         Program Version 6.0.0  -   RELEASE  -
|  1> ! r2scan-3c def2/J RI DEFGRID2 scfconv6 printgap
|  2> %output
|  3>     printlevel normal
|  4> end
|  5> * xyz 0 1
|  6> C 5.7402709654 -1.1592296412 -0.1622330503
|  7> C 4.5309991611 -1.4049127445 0.7191913631
|  8> O 3.6921725572 -0.2322057361 0.7719597955
|  9> P 2.4077295631 -0.0649791446 -0.1535251058
| 10> S 2.6886148255 -0.3899805648 -2.0709495773
| 11> O 1.9402535749 1.3871429916 0.2636892624
| 12> C 2.3438940484 2.5727764747 -0.4602474474
| 13> C 1.2466391238 3.0190612216 -1.4052639573
| 14> S 0.9693903257 -1.2736978335 0.7987445502
| 15> C -0.1935031794 -1.3528000289 -0.5910284129
| 16> S -1.0228402424 0.2250912409 -0.9376184693
| 17> P -2.6513441624 -0.0122439484 0.4144754087
| 18> S -3.9694351779 1.4336941753 0.4616585306
| 19> O -1.9665498271 -0.4030238276 1.7928621079
| 20> C -1.7600201889 0.5627561603 2.8384102352
| 21> C -0.7887288266 1.6549130097 2.4367821265
| 22> O -3.2206707512 -1.460589804 0.0842079191
| 23> C -4.3082516038 -1.6459630634 -0.8393757682
| 24> C -3.8967034146 -1.373179046 -2.2728599109
| 25> H 5.4275479352 -0.9835639011 -1.1892518167
| 26> H 6.2895864644 -0.2912922939 0.1914377193
| 27> H 6.3867577629 -2.0303317449 -0.1337331206
| 28> H 4.8225977052 -1.5844142711 1.7555133907
| 29> H 3.9455546083 -2.2529014597 0.3530487071
| 30> H 2.534512359 3.3174797826 0.3137615257
| 31> H 3.2671301454 2.364321322 -1.0073997646
| 32> H 0.3187551907 3.1742600326 -0.861692111
| 33> H 1.542831042 3.9466762348 -1.8841456749
| 34> H 1.0754552182 2.2624291236 -2.1682834575
| 35> H -0.933366715 -2.1078026824 -0.337354546
| 36> H 0.3567162946 -1.6128042339 -1.4956220061
| 37> H -2.7291433771 0.9973219573 3.1027485777
| 38> H -1.3773469285 -0.0313678366 3.6693308556
| 39> H -1.1964690759 2.219817551 1.5979828751
| 40> H -0.6405227201 2.3288663695 3.274490569
| 41> H 0.1701414875 1.2334081531 2.1443144699
| 42> H -4.6012627428 -2.6867408915 -0.693991043
| 43> H -5.1294645943 -0.9847715742 -0.5452808787
| 44> H -4.7284177308 -1.6006163118 -2.9320307055
| 45> H -3.6314036385 -0.3228562329 -2.3905400553
| 46> H -3.0422696075 -1.9852593563 -2.5507826623
| 47> *
| 48>
| 49>                          ****END OF INPUT****

CARTESIAN COORDINATES (ANGSTROEM)
---------------------------------
  C      5.740271   -1.159230   -0.162233
  C      4.530999   -1.404913    0.719191
  O      3.692173   -0.232206    0.771960
  P      2.407730   -0.064979   -0.153525
  S      2.688615   -0.389981   -2.070950
  O      1.940254    1.387143    0.263689
  C      2.343894    2.572776   -0.460247
  C      1.246639    3.019061   -1.405264
  S      0.969390   -1.273698    0.798745
  C     -0.193503   -1.352800   -0.591028
  S     -1.022840    0.225091   -0.937618
  P     -2.651344   -0.012244    0.414475
  S     -3.969435    1.433694    0.461659
  O     -1.966550   -0.403024    1.792862
  C     -1.760020    0.562756    2.838410
  C     -0.788729    1.654913    2.436782
  O     -3.220671   -1.460590    0.084208
  C     -4.308252   -1.645963   -0.839376
  C     -3.896703   -1.373179   -2.272860
  H      5.427548   -0.983564   -1.189252
  H      6.289586   -0.291292    0.191438
  H      6.386758   -2.030332   -0.133733
  H      4.822598   -1.584414    1.755513
  H      3.945555   -2.252901    0.353049
  H      2.534512    3.317480    0.313762
  H      3.267130    2.364321   -1.007400
  H      0.318755    3.174260   -0.861692
  H      1.542831    3.946676   -1.884146
  H      1.075455    2.262429   -2.168283
  H     -0.933367   -2.107803   -0.337355
  H      0.356716   -1.612804   -1.495622
  H     -2.729143    0.997322    3.102749
  H     -1.377347   -0.031368    3.669331
  H     -1.196469    2.219818    1.597983
  H     -0.640523    2.328866    3.274491
  H      0.170141    1.233408    2.144314
  H     -4.601263   -2.686741   -0.693991
  H     -5.129465   -0.984772   -0.545281
  H     -4.728418   -1.600616   -2.932031
  H     -3.631404   -0.322856   -2.390540
  H     -3.042270   -1.985259   -2.550783

 Total Charge           Charge          ....    0
 Multiplicity           Mult            ....    1
 Number of Electrons    NEL             ....  202
 Basis Dimension        Dim             ....  539

ORBITAL ENERGIES
----------------

  NO   OCC          E(Eh)            E(eV)
   0   2.0000     -88.579961     -2410.3833
   1   2.0000     -88.574456     -2410.2335
   2   2.0000     -88.525902     -2408.9123
   3   2.0000     -88.523698     -2408.8523
   4   2.0000     -76.918607     -2093.0617
   5   2.0000     -76.914661     -2092.9543
   6   2.0000     -18.995202      -516.8857
   7   2.0000     -18.992664      -516.8167
   8   2.0000     -18.991274      -516.7788
   9   2.0000     -18.988362      -516.6996
  10   2.0000     -10.108732      -275.0726
  11   2.0000     -10.103366      -274.9266
  12   2.0000     -10.100494      -274.8484
  13   2.0000     -10.098992      -274.8075
  14   2.0000     -10.094972      -274.6982
  15   2.0000     -10.028937      -272.9013
  16   2.0000     -10.028871      -272.8994
  17   2.0000     -10.024270      -272.7743
  18   2.0000     -10.019240      -272.6374
  19   2.0000      -7.874325      -214.2713
  20   2.0000      -7.868521      -214.1133
  21   2.0000      -7.820720      -212.8126
  22   2.0000      -7.818294      -212.7466
  23   2.0000      -6.597000      -179.5135
  24   2.0000      -6.593079      -179.4068
  25   2.0000      -5.821152      -158.4016
  26   2.0000      -5.818146      -158.3198
  27   2.0000      -5.815741      -158.2544
  28   2.0000      -5.812175      -158.1573
  29   2.0000      -5.811513      -158.1393
  30   2.0000      -5.805534      -157.9766
  31   2.0000      -5.768305      -156.9636
  32   2.0000      -5.765951      -156.8995
  33   2.0000      -5.761050      -156.7661
  34   2.0000      -5.760735      -156.7576
  35   2.0000      -5.758495      -156.6966
  36   2.0000      -5.758401      -156.6941
  37   2.0000      -4.742471      -129.0492
  38   2.0000      -4.741884      -129.0332
  39   2.0000      -4.740823      -129.0043
  40   2.0000      -4.738391      -128.9382
  41   2.0000      -4.738270      -128.9349
  42   2.0000      -4.736734      -128.8931
  43   2.0000      -1.052431       -28.6381
  44   2.0000      -1.050989       -28.5989
  45   2.0000      -1.012659       -27.5559
  46   2.0000      -1.009817       -27.4785
  47   2.0000      -0.803256       -21.8577
  48   2.0000      -0.759459       -20.6659
  49   2.0000      -0.749063       -20.3831
  50   2.0000      -0.731175       -19.8963
  51   2.0000      -0.725034       -19.7292
  52   2.0000      -0.713858       -19.4251
  53   2.0000      -0.691946       -18.8288
  54   2.0000      -0.671937       -18.2843
  55   2.0000      -0.631133       -17.1740
  56   2.0000      -0.625013       -17.0075
  57   2.0000      -0.608220       -16.5505
  58   2.0000      -0.601505       -16.3678
  59   2.0000      -0.591790       -16.1034
  60   2.0000      -0.531797       -14.4709
  61   2.0000      -0.519048       -14.1240
  62   2.0000      -0.497985       -13.5508
  63   2.0000      -0.484481       -13.1834
  64   2.0000      -0.480293       -13.0694
  65   2.0000      -0.464009       -12.6263
  66   2.0000      -0.461534       -12.5590
  67   2.0000      -0.453056       -12.3283
  68   2.0000      -0.439479       -11.9588
  69   2.0000      -0.438118       -11.9218
  70   2.0000      -0.423358       -11.5201
  71   2.0000      -0.418654       -11.3922
  72   2.0000      -0.415284       -11.3005
  73   2.0000      -0.406440       -11.0598
  74   2.0000      -0.400947       -10.9103
  75   2.0000      -0.387516       -10.5448
  76   2.0000      -0.386689       -10.5223
  77   2.0000      -0.372230       -10.1289
  78   2.0000      -0.366269        -9.9667
  79   2.0000      -0.365259        -9.9392
  80   2.0000      -0.361631        -9.8405
  81   2.0000      -0.358298        -9.7498
  82   2.0000      -0.354795        -9.6545
  83   2.0000      -0.349460        -9.5093
  84   2.0000      -0.345272        -9.3953
  85   2.0000      -0.334785        -9.1100
  86   2.0000      -0.325344        -8.8531
  87   2.0000      -0.316090        -8.6013
  88   2.0000      -0.314186        -8.5494
  89   2.0000      -0.306756        -8.3473
  90   2.0000      -0.301793        -8.2122
  91   2.0000      -0.295160        -8.0317
  92   2.0000      -0.285058        -7.7568
  93   2.0000      -0.280733        -7.6391
  94   2.0000      -0.270821        -7.3694
  95   2.0000      -0.245670        -6.6850
  96   2.0000      -0.232128        -6.3165
  97   2.0000      -0.224165        -6.0998
  98   2.0000      -0.222528        -6.0553
  99   2.0000      -0.221270        -6.0210
 100   2.0000      -0.218364        -5.9420
 101   0.0000      -0.045938        -1.2500
 102   0.0000      -0.027923        -0.7598
 103   0.0000      -0.014356        -0.3906
 104   0.0000       0.002591         0.0705
 105   0.0000       0.005146         0.1400

MULLIKEN ATOMIC CHARGES
-----------------------
   0 C :   -0.454243
   1 C :   -0.124484
   2 O :   -0.298635
   3 P :    0.642290
   4 S :   -0.473742
   5 O :   -0.266087
   6 C :   -0.108501
   7 C :   -0.471308
   8 S :   -0.107925
   9 C :   -0.248335
  10 S :   -0.116980
  11 P :    0.662328
  12 S :   -0.450582
  13 O :   -0.293057
  14 C :   -0.135853
  15 C :   -0.460926
  16 O :   -0.315905
  17 C :   -0.155239
  18 C :   -0.429981
  19 H :    0.179807
  20 H :    0.151851
  21 H :    0.145540
  22 H :    0.150823
  23 H :    0.152365
  24 H :    0.150003
  25 H :    0.155630
  26 H :    0.162336
  27 H :    0.144664
  28 H :    0.177844
  29 H :    0.211917
  30 H :    0.219033
  31 H :    0.165438
  32 H :    0.148648
  33 H :    0.170352
  34 H :    0.144814
  35 H :    0.181283
  36 H :    0.149098
  37 H :    0.173123
  38 H :    0.147816
  39 H :    0.175882
  40 H :    0.148897
Sum of atomic charges:   -0.0000000

LOEWDIN ATOMIC CHARGES
----------------------
   0 C :   -0.400148
   1 C :    0.021786
   2 O :   -0.659880
   3 P :    0.371181
   4 S :   -0.131059
   5 O :   -0.671786
   6 C :    0.026803
   7 C :   -0.403487
   8 S :    0.176117
   9 C :   -0.415421
  10 S :    0.166511
  11 P :    0.375105
  12 S :   -0.108467
  13 O :   -0.666549
  14 C :    0.021366
  15 C :   -0.411604
  16 O :   -0.677813
  17 C :    0.021118
  18 C :   -0.403840
  19 H :    0.168121
  20 H :    0.158388
  21 H :    0.158538
  22 H :    0.178459
  23 H :    0.175970
  24 H :    0.178824
  25 H :    0.176885
  26 H :    0.161739
  27 H :    0.158008
  28 H :    0.166635
  29 H :    0.195292
  30 H :    0.194049
  31 H :    0.178797
  32 H :    0.181337
  33 H :    0.165161
  34 H :    0.157855
  35 H :    0.172348
  36 H :    0.179616
  37 H :    0.180640
  38 H :    0.159420
  39 H :    0.166562
  40 H :    0.157423

  Mayer bond orders larger than 0.100000
B(  0-C ,  1-C ) :   0.9580 B(  0-C , 19-H ) :   0.9583 B(  0-C , 20-H ) :   0.9748
B(  0-C , 21-H ) :   0.9647 B(  1-C ,  2-O ) :   0.7718 B(  1-C , 22-H ) :   0.9630
B(  1-C , 23-H ) :   0.9620 B(  2-O ,  3-P ) :   1.0695 B(  3-P ,  4-S ) :   1.7520
B(  3-P ,  5-O ) :   1.1634 B(  3-P ,  8-S ) :   1.1161 B(  5-O ,  6-C ) :   0.7540
B(  6-C ,  7-C ) :   0.9455 B(  6-C , 24-H ) :   0.9589 B(  6-C , 25-H ) :   0.9655
B(  7-C , 26-H ) :   0.9684 B(  7-C , 27-H ) :   0.9625 B(  7-C , 28-H ) :   0.9631
B(  8-S ,  9-C ) :   0.9131 B(  9-C , 10-S ) :   0.8917 B(  9-C , 29-H ) :   0.9120
B(  9-C , 30-H ) :   0.9086 B( 10-S , 11-P ) :   1.0646 B( 11-P , 12-S ) :   1.8286
B( 11-P , 13-O ) :   1.0945 B( 11-P , 16-O ) :   1.0709 B( 13-O , 14-C ) :   0.8003
B( 14-C , 15-C ) :   0.9187 B( 14-C , 31-H ) :   0.9635 B( 14-C , 32-H ) :   0.9606
B( 15-C , 33-H ) :   0.9614 B( 15-C , 34-H ) :   0.9613 B( 15-C , 35-H ) :   0.9573
B( 16-O , 17-C ) :   0.8165 B( 17-C , 18-C ) :   0.9248 B( 17-C , 36-H ) :   0.9597
B( 17-C , 37-H ) :   0.9662 B( 18-C , 38-H ) :   0.9604 B( 18-C , 39-H ) :   0.9619
B( 18-C , 40-H ) :   0.9680

Dispersion correction           -0.021666190
FINAL SINGLE POINT ENERGY     -2932.463704778684

DIPOLE MOMENT
-------------

Method             : SCF
Type of density    : Electron Density
Multiplicity       :   1
Irrep              :   0
Energy             : -2932.4886348537097547 Eh
Relativity type    :
Basis              : AO
                                X                 Y                 Z
Electronic contribution:     -7.102337767      -3.734769587       2.247924120
Nuclear contribution   :      7.888272392       3.220150808      -1.816380480
                        -----------------------------------------
Total Dipole Moment    :      0.785934625      -0.514618779       0.431543640
                        -----------------------------------------
Magnitude (a.u.)       :      1.033806382
Magnitude (Debye)      :      2.627726995

Rotational constants in cm-1:             0.013621             0.004530             0.004375
Rotational constants in MHz :           408.355917           135.811153           131.166689

                             ****ORCA TERMINATED NORMALLY****
TOTAL RUN TIME: 0 days 0 hours 1 minutes 23 seconds 350 msec
