                         Program Version 6.0.0  -   RELEASE  -
|  1> ! r2scan-3c def2/J RI DEFGRID2 scfconv6 printgap
|  2> %output
|  3>     printlevel normal
|  4> end
|  5> %cpcm
|  6>     smd true
|  7>     smdsolvent "water"
|  8> end
|  9> * xyz 0 1
| 10> C 5.7402709654 -1.1592296412 -0.1622330503
| 11> C 4.5309991611 -1.4049127445 0.7191913631
| 12> O 3.6921725572 -0.2322057361 0.7719597955
| 13> P 2.4077295631 -0.0649791446 -0.1535251058
| 14> S 2.6886148255 -0.3899805648 -2.0709495773
| 15> O 1.9402535749 1.3871429916 0.2636892624
| 16> C 2.3438940484 2.5727764747 -0.4602474474
| 17> C 1.2466391238 3.0190612216 -1.4052639573
| 18> S 0.9693903257 -1.2736978335 0.7987445502
| 19> C -0.1935031794 -1.3528000289 -0.5910284129
| 20> S -1.0228402424 0.2250912409 -0.9376184693
| 21> P -2.6513441624 -0.0122439484 0.4144754087
| 22> S -3.9694351779 1.4336941753 0.4616585306
| 23> O -1.9665498271 -0.4030238276 1.7928621079
| 24> C -1.7600201889 0.5627561603 2.8384102352
| 25> C -0.7887288266 1.6549130097 2.4367821265
| 26> O -3.2206707512 -1.460589804 0.0842079191
| 27> C -4.3082516038 -1.6459630634 -0.8393757682
| 28> C -3.8967034146 -1.373179046 -2.2728599109
| 29> H 5.4275479352 -0.9835639011 -1.1892518167
| 30> H 6.2895864644 -0.2912922939 0.1914377193
| 31> H 6.3867577629 -2.0303317449 -0.1337331206
| 32> H 4.8225977052 -1.5844142711 1.7555133907
| 33> H 3.9455546083 -2.2529014597 0.3530487071
| 34> H 2.534512359 3.3174797826 0.3137615257
| 35> H 3.2671301454 2.364321322 -1.0073997646
| 36> H 0.3187551907 3.1742600326 -0.861692111
| 37> H 1.542831042 3.9466762348 -1.8841456749
| 38> H 1.0754552182 2.2624291236 -2.1682834575
| 39> H -0.933366715 -2.1078026824 -0.337354546
| 40> H 0.3567162946 -1.6128042339 -1.4956220061
| 41> H -2.7291433771 0.9973219573 3.1027485777
| 42> H -1.3773469285 -0.0313678366 3.6693308556
| 43> H -1.1964690759 2.219817551 1.5979828751
| 44> H -0.6405227201 2.3288663695 3.274490569
| 45> H 0.1701414875 1.2334081531 2.1443144699
| 46> H -4.6012627428 -2.6867408915 -0.693991043
| 47> H -5.1294645943 -0.9847715742 -0.5452808787
| 48> H -4.7284177308 -1.6006163118 -2.9320307055
| 49> H -3.6314036385 -0.3228562329 -2.3905400553
| 50> H -3.0422696075 -1.9852593563 -2.5507826623
| 51> *
| 52>
| 53>                          ****END OF INPUT****

CARTESIAN COORDINATES (ANGSTROEM)
---------------------------------
  C      5.740271   -1.159230   -0.162233
  C      4.530999   -1.404913    0.719191
  O      3.692173   -0.232206    0.771960
  P      2.407730   -0.064979   -0.153525
  S      2.688615   -0.389981   -2.070950
  O      1.940254    1.387143    0.263689
  C      2.343894    2.572776   -0.460247
  C      1.246639    3.019061   -1.405264
  S      0.969390   -1.273698    0.798745
  C     -0.193503   -1.352800   -0.591028
  S     -1.022840    0.225091   -0.937618
  P     -2.651344   -0.012244    0.414475
  S     -3.969435    1.433694    0.461659
  O     -1.966550   -0.403024    1.792862
  C     -1.760020    0.562756    2.838410
  C     -0.788729    1.654913    2.436782
  O     -3.220671   -1.460590    0.084208
  C     -4.308252   -1.645963   -0.839376
  C     -3.896703   -1.373179   -2.272860
  H      5.427548   -0.983564   -1.189252
  H      6.289586   -0.291292    0.191438
  H      6.386758   -2.030332   -0.133733
  H      4.822598   -1.584414    1.755513
  H      3.945555   -2.252901    0.353049
  H      2.534512    3.317480    0.313762
  H      3.267130    2.364321   -1.007400
  H      0.318755    3.174260   -0.861692
  H      1.542831    3.946676   -1.884146
  H      1.075455    2.262429   -2.168283
  H     -0.933367   -2.107803   -0.337355
  H      0.356716   -1.612804   -1.495622
  H     -2.729143    0.997322    3.102749
  H     -1.377347   -0.031368    3.669331
  H     -1.196469    2.219818    1.597983
  H     -0.640523    2.328866    3.274491
  H      0.170141    1.233408    2.144314
  H     -4.601263   -2.686741   -0.693991
  H     -5.129465   -0.984772   -0.545281
  H     -4.728418   -1.600616   -2.932031
  H     -3.631404   -0.322856   -2.390540
  H     -3.042270   -1.985259   -2.550783

 Total Charge           Charge          ....    0
 Multiplicity           Mult            ....    1
 Number of Electrons    NEL             ....  202
 Basis Dimension        Dim             ....  539

ORBITAL ENERGIES
----------------

  NO   OCC          E(Eh)            E(eV)
   0   2.0000     -88.580622     -2410.4013
   1   2.0000     -88.576652     -2410.2932
   2   2.0000     -88.532013     -2409.0785
   3   2.0000     -88.529255     -2409.0035
   4   2.0000     -76.920313     -2093.1081
   5   2.0000     -76.919802     -2093.0942
   6   2.0000     -18.994866      -516.8766
   7   2.0000     -18.992975      -516.8251
   8   2.0000     -18.992964      -516.8248
   9   2.0000     -18.992592      -516.8147
  10   2.0000     -10.105417      -274.9824
  11   2.0000     -10.091195      -274.5954
  12   2.0000     -10.090633      -274.5801
  13   2.0000     -10.089779      -274.5569
  14   2.0000     -10.089703      -274.5548
  15   2.0000     -10.018138      -272.6074
  16   2.0000     -10.016883      -272.5732
  17   2.0000     -10.016257      -272.5562
  18   2.0000     -10.015576      -272.5377
  19   2.0000      -7.874977      -214.2890
  20   2.0000      -7.870759      -214.1742
  21   2.0000      -7.826952      -212.9822
  22   2.0000      -7.824333      -212.9109
  23   2.0000      -6.598747      -179.5610
  24   2.0000      -6.598308      -179.5491
  25   2.0000      -5.821801      -158.4193
  26   2.0000      -5.818788      -158.3373
  27   2.0000      -5.817972      -158.3151
  28   2.0000      -5.814389      -158.2176
  29   2.0000      -5.812191      -158.1578
  30   2.0000      -5.807800      -158.0383
  31   2.0000      -5.774515      -157.1325
  32   2.0000      -5.771872      -157.0606
  33   2.0000      -5.767196      -156.9334
  34   2.0000      -5.767045      -156.9293
  35   2.0000      -5.764656      -156.8643
  36   2.0000      -5.764352      -156.8560
  37   2.0000      -4.744188      -129.0959
  38   2.0000      -4.743628      -129.0807
  39   2.0000      -4.743590      -129.0797
  40   2.0000      -4.743510      -129.0775
  41   2.0000      -4.742624      -129.0534
  42   2.0000      -4.742006      -129.0365
  43   2.0000      -1.053705       -28.6728
  44   2.0000      -1.052151       -28.6305
  45   2.0000      -1.011816       -27.5329
  46   2.0000      -1.011721       -27.5303
  47   2.0000      -0.802572       -21.8391
  48   2.0000      -0.755970       -20.5710
  49   2.0000      -0.743628       -20.2351
  50   2.0000      -0.721828       -19.6419
  51   2.0000      -0.718706       -19.5570
  52   2.0000      -0.713131       -19.4053
  53   2.0000      -0.694585       -18.9006
  54   2.0000      -0.675719       -18.3872
  55   2.0000      -0.629799       -17.1377
  56   2.0000      -0.620905       -16.8957
  57   2.0000      -0.600653       -16.3446
  58   2.0000      -0.596545       -16.2328
  59   2.0000      -0.588590       -16.0163
  60   2.0000      -0.525753       -14.3065
  61   2.0000      -0.515834       -14.0366
  62   2.0000      -0.492771       -13.4090
  63   2.0000      -0.482600       -13.1322
  64   2.0000      -0.479151       -13.0384
  65   2.0000      -0.463024       -12.5995
  66   2.0000      -0.456409       -12.4195
  67   2.0000      -0.447161       -12.1679
  68   2.0000      -0.435076       -11.8390
  69   2.0000      -0.433582       -11.7984
  70   2.0000      -0.419551       -11.4166
  71   2.0000      -0.414199       -11.2709
  72   2.0000      -0.412282       -11.2188
  73   2.0000      -0.404644       -11.0109
  74   2.0000      -0.396949       -10.8015
  75   2.0000      -0.385179       -10.4813
  76   2.0000      -0.382340       -10.4040
  77   2.0000      -0.367574       -10.0022
  78   2.0000      -0.360753        -9.8166
  79   2.0000      -0.357626        -9.7315
  80   2.0000      -0.355823        -9.6824
  81   2.0000      -0.353208        -9.6113
  82   2.0000      -0.347644        -9.4599
  83   2.0000      -0.344692        -9.3795
  84   2.0000      -0.341845        -9.3021
  85   2.0000      -0.334676        -9.1070
  86   2.0000      -0.322202        -8.7676
  87   2.0000      -0.310466        -8.4482
  88   2.0000      -0.307907        -8.3786
  89   2.0000      -0.302794        -8.2394
  90   2.0000      -0.299924        -8.1613
  91   2.0000      -0.292999        -7.9729
  92   2.0000      -0.283600        -7.7172
  93   2.0000      -0.279423        -7.6035
  94   2.0000      -0.271832        -7.3969
  95   2.0000      -0.247355        -6.7309
  96   2.0000      -0.237526        -6.4634
  97   2.0000      -0.231919        -6.3108
  98   2.0000      -0.228164        -6.2087
  99   2.0000      -0.226415        -6.1611
 100   2.0000      -0.221806        -6.0357
 101   0.0000      -0.047837        -1.3017
 102   0.0000      -0.032184        -0.8758
 103   0.0000      -0.016605        -0.4518
 104   0.0000      -0.001366        -0.0372
 105   0.0000       0.004715         0.1283

MULLIKEN ATOMIC CHARGES
-----------------------
   0 C :   -0.492270
   1 C :   -0.121391
   2 O :   -0.326634
   3 P :    0.670452
   4 S :   -0.515461
   5 O :   -0.290089
   6 C :   -0.112174
   7 C :   -0.503961
   8 S :   -0.115269
   9 C :   -0.255230
  10 S :   -0.133757
  11 P :    0.690502
  12 S :   -0.502836
  13 O :   -0.314526
  14 C :   -0.138218
  15 C :   -0.492076
  16 O :   -0.336559
  17 C :   -0.149396
  18 C :   -0.470319
  19 H :    0.170959
  20 H :    0.166666
  21 H :    0.169829
  22 H :    0.176464
  23 H :    0.164084
  24 H :    0.175749
  25 H :    0.170318
  26 H :    0.168095
  27 H :    0.169037
  28 H :    0.170909
  29 H :    0.242998
  30 H :    0.235267
  31 H :    0.173742
  32 H :    0.176250
  33 H :    0.171109
  34 H :    0.171917
  35 H :    0.175902
  36 H :    0.175147
  37 H :    0.176180
  38 H :    0.171107
  39 H :    0.168749
  40 H :    0.168734
Sum of atomic charges:   -0.0000000

LOEWDIN ATOMIC CHARGES
----------------------
   0 C :   -0.404613
   1 C :    0.026773
   2 O :   -0.673569
   3 P :    0.375699
   4 S :   -0.157041
   5 O :   -0.684463
   6 C :    0.031380
   7 C :   -0.408009
   8 S :    0.173497
   9 C :   -0.406298
  10 S :    0.159423
  11 P :    0.380173
  12 S :   -0.145255
  13 O :   -0.677995
  14 C :    0.025092
  15 C :   -0.414361
  16 O :   -0.685998
  17 C :    0.026377
  18 C :   -0.407319
  19 H :    0.162532
  20 H :    0.162421
  21 H :    0.167566
  22 H :    0.189361
  23 H :    0.180185
  24 H :    0.189436
  25 H :    0.181670
  26 H :    0.162141
  27 H :    0.166400
  28 H :    0.161814
  29 H :    0.206285
  30 H :    0.199492
  31 H :    0.181687
  32 H :    0.191951
  33 H :    0.162628
  34 H :    0.167446
  35 H :    0.169187
  36 H :    0.190893
  37 H :    0.181168
  38 H :    0.167682
  39 H :    0.161412
  40 H :    0.163148

  Mayer bond orders larger than 0.100000
B(  0-C ,  1-C ) :   0.9476 B(  0-C , 19-H ) :   0.9623 B(  0-C , 20-H ) :   0.9719
B(  0-C , 21-H ) :   0.9597 B(  1-C ,  2-O ) :   0.7592 B(  1-C , 22-H ) :   0.9530
B(  1-C , 23-H ) :   0.9555 B(  2-O ,  3-P ) :   1.0728 B(  3-P ,  4-S ) :   1.7188
B(  3-P ,  5-O ) :   1.1676 B(  3-P ,  8-S ) :   1.1272 B(  5-O ,  6-C ) :   0.7426
B(  6-C ,  7-C ) :   0.9328 B(  6-C , 24-H ) :   0.9496 B(  6-C , 25-H ) :   0.9633
B(  7-C , 26-H ) :   0.9667 B(  7-C , 27-H ) :   0.9586 B(  7-C , 28-H ) :   0.9655
B(  8-S ,  9-C ) :   0.9094 B(  9-C , 10-S ) :   0.8896 B(  9-C , 29-H ) :   0.9007
B(  9-C , 30-H ) :   0.9038 B( 10-S , 11-P ) :   1.0758 B( 11-P , 12-S ) :   1.7954
B( 11-P , 13-O ) :   1.0982 B( 11-P , 16-O ) :   1.0795 B( 13-O , 14-C ) :   0.7904
B( 14-C , 15-C ) :   0.9071 B( 14-C , 31-H ) :   0.9604 B( 14-C , 32-H ) :   0.9515
B( 15-C , 33-H ) :   0.9629 B( 15-C , 34-H ) :   0.9560 B( 15-C , 35-H ) :   0.9585
B( 16-O , 17-C ) :   0.8055 B( 17-C , 18-C ) :   0.9148 B( 17-C , 36-H ) :   0.9493
B( 17-C , 37-H ) :   0.9642 B( 18-C , 38-H ) :   0.9554 B( 18-C , 39-H ) :   0.9641
B( 18-C , 40-H ) :   0.9650

Dispersion correction           -0.021666190
FINAL SINGLE POINT ENERGY     -2932.470870523970

DIPOLE MOMENT
-------------

Method             : SCF
Type of density    : Electron Density
Multiplicity       :   1
Irrep              :   0
Energy             : -2932.4958005989960839 Eh
Relativity type    :
Basis              : AO
                                X                 Y                 Z
Electronic contribution:     -6.868650947      -4.053695698       2.412920016
Nuclear contribution   :      7.888272392       3.220150808      -1.816380480
                        -----------------------------------------
Total Dipole Moment    :      1.019621445      -0.833544890       0.596539535
                        -----------------------------------------
Magnitude (a.u.)       :      1.445781586
Magnitude (Debye)      :      3.674884743

Rotational constants in cm-1:             0.013621             0.004530             0.004375
Rotational constants in MHz :           408.355917           135.811153           131.166689

                             ****ORCA TERMINATED NORMALLY****
TOTAL RUN TIME: 0 days 0 hours 1 minutes 49 seconds 673 msec
