                         Program Version 6.0.1  -  RELEASE   -
|  1> ! r2scan-3c def2/J RI DEFGRID2 scfconv6 printgap
|  2> %output
|  3>     printlevel normal
|  4> end
|  5> * xyz 0 1
|  6> C 4.664474275 -4.2903276169 -1.1707777246
|  7> C 3.5873282818 -3.3895754619 -1.7418977129
|  8> O 3.3171567644 -2.352311363 -0.7778507327
|  9> C 2.3149702649 -1.5335961018 -1.0193730099
| 10> O 1.6041903428 -1.5943748381 -1.9981724215
| 11> C 2.1752437727 -0.4972174904 0.0802888686
| 12> C 0.8067539668 0.1615104433 0.017345531
| 13> H 0.5825092531 0.4338032114 -1.0227024735
| 14> C 0.6772584826 1.4190885724 0.8544903691
| 15> O -0.2986155963 1.6395082302 1.5423485708
| 16> O 1.7061500066 2.2116953615 0.722649925
| 17> C 1.6548815157 3.5084344095 1.3584261833
| 18> C 0.9678592468 4.5151039261 0.4509885004
| 19> S -0.4957294158 -0.9979371767 0.557669508
| 20> P -2.1693064106 0.2618623781 0.2012454688
| 21> S -1.9585319388 1.7287415268 -1.0767764323
| 22> O -3.2462265628 -0.8286511649 -0.2949923566
| 23> C -3.1187869701 -1.4664457994 -1.5670232854
| 24> O -2.8517332376 0.6786881605 1.5607838331
| 25> C -3.115911412 -0.2643013841 2.6177117216
| 26> H 5.5642999804 -3.7154128761 -0.9745084122
| 27> H 4.3233050008 -4.7360005284 -0.2413498905
| 28> H 4.8895744899 -5.0765348582 -1.883558726
| 29> H 2.6569318682 -3.9330240187 -1.9328835915
| 30> H 3.9064700931 -2.9157495938 -2.6752582235
| 31> H 2.9447878096 0.2637047333 -0.0687634247
| 32> H 2.3430421217 -0.9798284932 1.042998769
| 33> H 1.1210404155 3.4107923756 2.3072268452
| 34> H 2.6997021466 3.7676658723 1.5275295128
| 35> H 0.9571801002 5.4869620313 0.9327561242
| 36> H 1.4932087685 4.5881512421 -0.4971015704
| 37> H -0.058011495 4.20643647 0.2554155948
| 38> H -4.0299650859 -2.0439342338 -1.6985312454
| 39> H -2.2445423196 -2.1186325781 -1.5749423112
| 40> H -3.0238003485 -0.7163601853 -2.3540763739
| 41> H -2.1875800682 -0.746645554 2.9238231607
| 42> H -3.8338685919 -1.0092131067 2.27900674
| 43> H -3.5244901528 0.3319461615 3.4292896147
| 44> *
| 45>
| 46>                          ****END OF INPUT****

CARTESIAN COORDINATES (ANGSTROEM)
---------------------------------
  C      4.664474   -4.290328   -1.170778
  C      3.587328   -3.389575   -1.741898
  O      3.317157   -2.352311   -0.777851
  C      2.314970   -1.533596   -1.019373
  O      1.604190   -1.594375   -1.998172
  C      2.175244   -0.497217    0.080289
  C      0.806754    0.161510    0.017346
  H      0.582509    0.433803   -1.022702
  C      0.677258    1.419089    0.854490
  O     -0.298616    1.639508    1.542349
  O      1.706150    2.211695    0.722650
  C      1.654882    3.508434    1.358426
  C      0.967859    4.515104    0.450989
  S     -0.495729   -0.997937    0.557670
  P     -2.169306    0.261862    0.201245
  S     -1.958532    1.728742   -1.076776
  O     -3.246227   -0.828651   -0.294992
  C     -3.118787   -1.466446   -1.567023
  O     -2.851733    0.678688    1.560784
  C     -3.115911   -0.264301    2.617712
  H      5.564300   -3.715413   -0.974508
  H      4.323305   -4.736001   -0.241350
  H      4.889574   -5.076535   -1.883559
  H      2.656932   -3.933024   -1.932884
  H      3.906470   -2.915750   -2.675258
  H      2.944788    0.263705   -0.068763
  H      2.343042   -0.979828    1.042999
  H      1.121040    3.410792    2.307227
  H      2.699702    3.767666    1.527530
  H      0.957180    5.486962    0.932756
  H      1.493209    4.588151   -0.497102
  H     -0.058011    4.206436    0.255416
  H     -4.029965   -2.043934   -1.698531
  H     -2.244542   -2.118633   -1.574942
  H     -3.023800   -0.716360   -2.354076
  H     -2.187580   -0.746646    2.923823
  H     -3.833869   -1.009213    2.279007
  H     -3.524490    0.331946    3.429290

 Total Charge           Charge          ....    0
 Multiplicity           Mult            ....    1
 Number of Electrons    NEL             ....  174
 Basis Dimension        Dim             ....  510

ORBITAL ENERGIES
----------------

  NO   OCC          E(Eh)            E(eV)
   0   2.0000     -88.567284     -2410.0383
   1   2.0000     -88.505195     -2408.3488
   2   2.0000     -76.903368     -2092.6470
   3   2.0000     -19.012669      -517.3610
   4   2.0000     -19.009314      -517.2697
   5   2.0000     -18.979714      -516.4643
   6   2.0000     -18.975227      -516.3422
   7   2.0000     -18.940251      -515.3904
   8   2.0000     -18.938224      -515.3353
   9   2.0000     -10.165517      -276.6178
  10   2.0000     -10.165516      -276.6178
  11   2.0000     -10.100895      -274.8593
  12   2.0000     -10.098938      -274.8061
  13   2.0000     -10.091479      -274.6031
  14   2.0000     -10.087254      -274.4881
  15   2.0000     -10.076427      -274.1935
  16   2.0000     -10.067286      -273.9448
  17   2.0000     -10.038954      -273.1738
  18   2.0000     -10.027785      -272.8699
  19   2.0000      -7.861622      -213.9256
  20   2.0000      -7.800166      -212.2533
  21   2.0000      -6.581183      -179.0831
  22   2.0000      -5.808465      -158.0564
  23   2.0000      -5.805640      -157.9795
  24   2.0000      -5.798608      -157.7881
  25   2.0000      -5.748103      -156.4138
  26   2.0000      -5.740555      -156.2084
  27   2.0000      -5.739730      -156.1860
  28   2.0000      -4.726873      -128.6247
  29   2.0000      -4.726372      -128.6111
  30   2.0000      -4.724646      -128.5642
  31   2.0000      -1.090281       -29.6681
  32   2.0000      -1.086256       -29.5585
  33   2.0000      -1.036572       -28.2066
  34   2.0000      -0.994252       -27.0550
  35   2.0000      -0.990381       -26.9496
  36   2.0000      -0.989116       -26.9152
  37   2.0000      -0.809906       -22.0387
  38   2.0000      -0.761560       -20.7231
  39   2.0000      -0.747948       -20.3527
  40   2.0000      -0.726065       -19.7572
  41   2.0000      -0.695549       -18.9268
  42   2.0000      -0.663091       -18.0436
  43   2.0000      -0.657684       -17.8965
  44   2.0000      -0.644724       -17.5438
  45   2.0000      -0.626259       -17.0414
  46   2.0000      -0.594775       -16.1846
  47   2.0000      -0.545027       -14.8309
  48   2.0000      -0.534914       -14.5558
  49   2.0000      -0.523136       -14.2353
  50   2.0000      -0.501097       -13.6355
  51   2.0000      -0.486565       -13.2401
  52   2.0000      -0.480640       -13.0789
  53   2.0000      -0.468565       -12.7503
  54   2.0000      -0.461705       -12.5636
  55   2.0000      -0.457739       -12.4557
  56   2.0000      -0.443988       -12.0815
  57   2.0000      -0.439179       -11.9507
  58   2.0000      -0.432918       -11.7803
  59   2.0000      -0.430799       -11.7226
  60   2.0000      -0.419442       -11.4136
  61   2.0000      -0.415306       -11.3010
  62   2.0000      -0.405772       -11.0416
  63   2.0000      -0.401715       -10.9312
  64   2.0000      -0.386893       -10.5279
  65   2.0000      -0.381914       -10.3924
  66   2.0000      -0.379530       -10.3275
  67   2.0000      -0.371982       -10.1221
  68   2.0000      -0.366554        -9.9744
  69   2.0000      -0.354683        -9.6514
  70   2.0000      -0.346137        -9.4189
  71   2.0000      -0.344749        -9.3811
  72   2.0000      -0.335891        -9.1401
  73   2.0000      -0.327646        -8.9157
  74   2.0000      -0.323734        -8.8092
  75   2.0000      -0.316423        -8.6103
  76   2.0000      -0.307642        -8.3714
  77   2.0000      -0.302107        -8.2207
  78   2.0000      -0.284734        -7.7480
  79   2.0000      -0.283686        -7.7195
  80   2.0000      -0.276467        -7.5230
  81   2.0000      -0.264148        -7.1878
  82   2.0000      -0.250683        -6.8214
  83   2.0000      -0.247240        -6.7277
  84   2.0000      -0.227079        -6.1791
  85   2.0000      -0.207461        -5.6453
  86   2.0000      -0.199873        -5.4388
  87   0.0000      -0.040458        -1.1009
  88   0.0000      -0.029377        -0.7994
  89   0.0000      -0.017621        -0.4795
  90   0.0000       0.011320         0.3080
  91   0.0000       0.029058         0.7907

MULLIKEN ATOMIC CHARGES
-----------------------
   0 C :   -0.440499
   1 C :   -0.151517
   2 O :   -0.152343
   3 C :    0.353477
   4 O :   -0.412119
   5 C :   -0.421680
   6 C :   -0.037780
   7 H :    0.260961
   8 C :    0.369346
   9 O :   -0.402745
  10 O :   -0.172151
  11 C :   -0.134793
  12 C :   -0.467781
  13 S :   -0.218815
  14 P :    0.816661
  15 S :   -0.470508
  16 O :   -0.363802
  17 C :   -0.295519
  18 O :   -0.302846
  19 C :   -0.298451
  20 H :    0.153054
  21 H :    0.154023
  22 H :    0.150064
  23 H :    0.163356
  24 H :    0.154768
  25 H :    0.202925
  26 H :    0.189228
  27 H :    0.169496
  28 H :    0.148526
  29 H :    0.147437
  30 H :    0.152526
  31 H :    0.190583
  32 H :    0.146363
  33 H :    0.159396
  34 H :    0.173399
  35 H :    0.165727
  36 H :    0.167047
  37 H :    0.154983
Sum of atomic charges:   -0.0000000

LOEWDIN ATOMIC CHARGES
----------------------
   0 C :   -0.384835
   1 C :    0.037184
   2 O :   -0.587210
   3 C :    0.352686
   4 O :   -0.426370
   5 C :   -0.203448
   6 C :   -0.198504
   7 H :    0.224452
   8 C :    0.348276
   9 O :   -0.453122
  10 O :   -0.581932
  11 C :    0.035323
  12 C :   -0.387144
  13 S :    0.207481
  14 P :    0.409539
  15 S :   -0.088393
  16 O :   -0.693700
  17 C :   -0.064523
  18 O :   -0.639168
  19 C :   -0.050977
  20 H :    0.160016
  21 H :    0.160237
  22 H :    0.160879
  23 H :    0.183038
  24 H :    0.178542
  25 H :    0.205634
  26 H :    0.191186
  27 H :    0.189941
  28 H :    0.178241
  29 H :    0.159679
  30 H :    0.158248
  31 H :    0.174223
  32 H :    0.174087
  33 H :    0.169760
  34 H :    0.175968
  35 H :    0.172639
  36 H :    0.171844
  37 H :    0.180223

  Mayer bond orders larger than 0.100000
B(  0-C ,  1-C ) :   0.9455 B(  0-C , 20-H ) :   0.9707 B(  0-C , 21-H ) :   0.9728
B(  0-C , 22-H ) :   0.9678 B(  1-C ,  2-O ) :   0.7888 B(  1-C , 23-H ) :   0.9552
B(  1-C , 24-H ) :   0.9476 B(  2-O ,  3-C ) :   1.1379 B(  3-C ,  4-O ) :   1.8210
B(  3-C ,  5-C ) :   0.9574 B(  5-C ,  6-C ) :   0.8952 B(  5-C , 25-H ) :   0.9226
B(  5-C , 26-H ) :   0.9691 B(  6-C ,  7-H ) :   0.9090 B(  6-C ,  8-C ) :   0.8860
B(  6-C , 13-S ) :   0.8875 B(  8-C ,  9-O ) :   1.8370 B(  8-C , 10-O ) :   1.1462
B( 10-O , 11-C ) :   0.7908 B( 11-C , 12-C ) :   0.9462 B( 11-C , 27-H ) :   0.9665
B( 11-C , 28-H ) :   0.9614 B( 12-C , 29-H ) :   0.9645 B( 12-C , 30-H ) :   0.9723
B( 12-C , 31-H ) :   0.9601 B( 13-S , 14-P ) :   0.9800 B( 14-P , 15-S ) :   1.7697
B( 14-P , 16-O ) :   1.0081 B( 14-P , 18-O ) :   1.1941 B( 16-O , 17-C ) :   0.8411
B( 17-C , 32-H ) :   0.9692 B( 17-C , 33-H ) :   0.9537 B( 17-C , 34-H ) :   0.9586
B( 18-O , 19-C ) :   0.7962 B( 19-C , 35-H ) :   0.9590 B( 19-C , 36-H ) :   0.9633
B( 19-C , 37-H ) :   0.9655

Dispersion correction           -0.016433686
FINAL SINGLE POINT ENERGY     -1981.448849541392

DIPOLE MOMENT
-------------

Method             : SCF
Type of density    : Electron Density
Multiplicity       :   1
Irrep              :   0
Energy             : -1981.4698790965535409 Eh
Relativity type    :
Basis              : AO
                                X                 Y                 Z
Electronic contribution:    -14.026653785       4.463626540       1.121062423
Nuclear contribution   :     15.691101666      -5.420467026      -0.365287808
                        -----------------------------------------
Total Dipole Moment    :      1.664447881      -0.956840485       0.755774615
                        -----------------------------------------
Magnitude (a.u.)       :      2.063280333
Magnitude (Debye)      :      5.244441824

Rotational constants in cm-1:             0.011541             0.006417             0.004899
Rotational constants in MHz :           345.991881           192.377313           146.874846

                             ****ORCA TERMINATED NORMALLY****
TOTAL RUN TIME: 0 days 0 hours 1 minutes 10 seconds 354 msec
