                         Program Version 6.0.1  -  RELEASE   -
|  1> ! r2scan-3c def2/J RI DEFGRID2 scfconv6 printgap
|  2> %output
|  3>     printlevel normal
|  4> end
|  5> %cpcm
|  6>     smd true
|  7>     smdsolvent "water"
|  8> end
|  9> * xyz 0 1
| 10> C 4.664474275 -4.2903276169 -1.1707777246
| 11> C 3.5873282818 -3.3895754619 -1.7418977129
| 12> O 3.3171567644 -2.352311363 -0.7778507327
| 13> C 2.3149702649 -1.5335961018 -1.0193730099
| 14> O 1.6041903428 -1.5943748381 -1.9981724215
| 15> C 2.1752437727 -0.4972174904 0.0802888686
| 16> C 0.8067539668 0.1615104433 0.017345531
| 17> H 0.5825092531 0.4338032114 -1.0227024735
| 18> C 0.6772584826 1.4190885724 0.8544903691
| 19> O -0.2986155963 1.6395082302 1.5423485708
| 20> O 1.7061500066 2.2116953615 0.722649925
| 21> C 1.6548815157 3.5084344095 1.3584261833
| 22> C 0.9678592468 4.5151039261 0.4509885004
| 23> S -0.4957294158 -0.9979371767 0.557669508
| 24> P -2.1693064106 0.2618623781 0.2012454688
| 25> S -1.9585319388 1.7287415268 -1.0767764323
| 26> O -3.2462265628 -0.8286511649 -0.2949923566
| 27> C -3.1187869701 -1.4664457994 -1.5670232854
| 28> O -2.8517332376 0.6786881605 1.5607838331
| 29> C -3.115911412 -0.2643013841 2.6177117216
| 30> H 5.5642999804 -3.7154128761 -0.9745084122
| 31> H 4.3233050008 -4.7360005284 -0.2413498905
| 32> H 4.8895744899 -5.0765348582 -1.883558726
| 33> H 2.6569318682 -3.9330240187 -1.9328835915
| 34> H 3.9064700931 -2.9157495938 -2.6752582235
| 35> H 2.9447878096 0.2637047333 -0.0687634247
| 36> H 2.3430421217 -0.9798284932 1.042998769
| 37> H 1.1210404155 3.4107923756 2.3072268452
| 38> H 2.6997021466 3.7676658723 1.5275295128
| 39> H 0.9571801002 5.4869620313 0.9327561242
| 40> H 1.4932087685 4.5881512421 -0.4971015704
| 41> H -0.058011495 4.20643647 0.2554155948
| 42> H -4.0299650859 -2.0439342338 -1.6985312454
| 43> H -2.2445423196 -2.1186325781 -1.5749423112
| 44> H -3.0238003485 -0.7163601853 -2.3540763739
| 45> H -2.1875800682 -0.746645554 2.9238231607
| 46> H -3.8338685919 -1.0092131067 2.27900674
| 47> H -3.5244901528 0.3319461615 3.4292896147
| 48> *
| 49>
| 50>                          ****END OF INPUT****

CARTESIAN COORDINATES (ANGSTROEM)
---------------------------------
  C      4.664474   -4.290328   -1.170778
  C      3.587328   -3.389575   -1.741898
  O      3.317157   -2.352311   -0.777851
  C      2.314970   -1.533596   -1.019373
  O      1.604190   -1.594375   -1.998172
  C      2.175244   -0.497217    0.080289
  C      0.806754    0.161510    0.017346
  H      0.582509    0.433803   -1.022702
  C      0.677258    1.419089    0.854490
  O     -0.298616    1.639508    1.542349
  O      1.706150    2.211695    0.722650
  C      1.654882    3.508434    1.358426
  C      0.967859    4.515104    0.450989
  S     -0.495729   -0.997937    0.557670
  P     -2.169306    0.261862    0.201245
  S     -1.958532    1.728742   -1.076776
  O     -3.246227   -0.828651   -0.294992
  C     -3.118787   -1.466446   -1.567023
  O     -2.851733    0.678688    1.560784
  C     -3.115911   -0.264301    2.617712
  H      5.564300   -3.715413   -0.974508
  H      4.323305   -4.736001   -0.241350
  H      4.889574   -5.076535   -1.883559
  H      2.656932   -3.933024   -1.932884
  H      3.906470   -2.915750   -2.675258
  H      2.944788    0.263705   -0.068763
  H      2.343042   -0.979828    1.042999
  H      1.121040    3.410792    2.307227
  H      2.699702    3.767666    1.527530
  H      0.957180    5.486962    0.932756
  H      1.493209    4.588151   -0.497102
  H     -0.058011    4.206436    0.255416
  H     -4.029965   -2.043934   -1.698531
  H     -2.244542   -2.118633   -1.574942
  H     -3.023800   -0.716360   -2.354076
  H     -2.187580   -0.746646    2.923823
  H     -3.833869   -1.009213    2.279007
  H     -3.524490    0.331946    3.429290

 Total Charge           Charge          ....    0
 Multiplicity           Mult            ....    1
 Number of Electrons    NEL             ....  174
 Basis Dimension        Dim             ....  510

ORBITAL ENERGIES
----------------

  NO   OCC          E(Eh)            E(eV)
   0   2.0000     -88.577773     -2410.3237
   1   2.0000     -88.525092     -2408.8902
   2   2.0000     -76.919293     -2093.0804
   3   2.0000     -19.015298      -517.4326
   4   2.0000     -19.008922      -517.2591
   5   2.0000     -18.995072      -516.8822
   6   2.0000     -18.988430      -516.7015
   7   2.0000     -18.951489      -515.6962
   8   2.0000     -18.950578      -515.6714
   9   2.0000     -10.175833      -276.8985
  10   2.0000     -10.171807      -276.7889
  11   2.0000     -10.096493      -274.7395
  12   2.0000     -10.089104      -274.5385
  13   2.0000     -10.086984      -274.4808
  14   2.0000     -10.084523      -274.4138
  15   2.0000     -10.078423      -274.2478
  16   2.0000     -10.060852      -273.7697
  17   2.0000     -10.020209      -272.6638
  18   2.0000     -10.019800      -272.6526
  19   2.0000      -7.872043      -214.2092
  20   2.0000      -7.820386      -212.8035
  21   2.0000      -6.597254      -179.5204
  22   2.0000      -5.818880      -158.3398
  23   2.0000      -5.816053      -158.2629
  24   2.0000      -5.809055      -158.0724
  25   2.0000      -5.768190      -156.9604
  26   2.0000      -5.760832      -156.7602
  27   2.0000      -5.759957      -156.7364
  28   2.0000      -4.742934      -129.0618
  29   2.0000      -4.742360      -129.0462
  30   2.0000      -4.740821      -129.0043
  31   2.0000      -1.094901       -29.7938
  32   2.0000      -1.087737       -29.5988
  33   2.0000      -1.050878       -28.5958
  34   2.0000      -1.007277       -27.4094
  35   2.0000      -1.001841       -27.2615
  36   2.0000      -0.997087       -27.1321
  37   2.0000      -0.812618       -22.1125
  38   2.0000      -0.752888       -20.4871
  39   2.0000      -0.745777       -20.2936
  40   2.0000      -0.729428       -19.8488
  41   2.0000      -0.696816       -18.9613
  42   2.0000      -0.666766       -18.1436
  43   2.0000      -0.659778       -17.9535
  44   2.0000      -0.655858       -17.8468
  45   2.0000      -0.618964       -16.8429
  46   2.0000      -0.591341       -16.0912
  47   2.0000      -0.538451       -14.6520
  48   2.0000      -0.538221       -14.6457
  49   2.0000      -0.524742       -14.2790
  50   2.0000      -0.503188       -13.6924
  51   2.0000      -0.489538       -13.3210
  52   2.0000      -0.487321       -13.2607
  53   2.0000      -0.471003       -12.8166
  54   2.0000      -0.464927       -12.6513
  55   2.0000      -0.462171       -12.5763
  56   2.0000      -0.449717       -12.2374
  57   2.0000      -0.446742       -12.1565
  58   2.0000      -0.436837       -11.8869
  59   2.0000      -0.429103       -11.6765
  60   2.0000      -0.423947       -11.5362
  61   2.0000      -0.416311       -11.3284
  62   2.0000      -0.408077       -11.1043
  63   2.0000      -0.403390       -10.9768
  64   2.0000      -0.385032       -10.4772
  65   2.0000      -0.380463       -10.3529
  66   2.0000      -0.369938       -10.0665
  67   2.0000      -0.367055        -9.9881
  68   2.0000      -0.358998        -9.7688
  69   2.0000      -0.354315        -9.6414
  70   2.0000      -0.350213        -9.5298
  71   2.0000      -0.343700        -9.3526
  72   2.0000      -0.333228        -9.0676
  73   2.0000      -0.327452        -8.9104
  74   2.0000      -0.321253        -8.7417
  75   2.0000      -0.318488        -8.6665
  76   2.0000      -0.312339        -8.4992
  77   2.0000      -0.309771        -8.4293
  78   2.0000      -0.290008        -7.8915
  79   2.0000      -0.286485        -7.7957
  80   2.0000      -0.282945        -7.6993
  81   2.0000      -0.275935        -7.5086
  82   2.0000      -0.263749        -7.1770
  83   2.0000      -0.258792        -7.0421
  84   2.0000      -0.239998        -6.5307
  85   2.0000      -0.227840        -6.1998
  86   2.0000      -0.220274        -5.9940
  87   0.0000      -0.050515        -1.3746
  88   0.0000      -0.038086        -1.0364
  89   0.0000      -0.023047        -0.6271
  90   0.0000       0.002014         0.0548
  91   0.0000       0.016188         0.4405

MULLIKEN ATOMIC CHARGES
-----------------------
   0 C :   -0.490039
   1 C :   -0.154099
   2 O :   -0.160030
   3 C :    0.392650
   4 O :   -0.488124
   5 C :   -0.429352
   6 C :   -0.027320
   7 H :    0.260236
   8 C :    0.382050
   9 O :   -0.458561
  10 O :   -0.175699
  11 C :   -0.131851
  12 C :   -0.502526
  13 S :   -0.215481
  14 P :    0.816770
  15 S :   -0.515998
  16 O :   -0.391335
  17 C :   -0.308770
  18 O :   -0.352476
  19 C :   -0.302070
  20 H :    0.165639
  21 H :    0.166206
  22 H :    0.170984
  23 H :    0.174579
  24 H :    0.174814
  25 H :    0.234908
  26 H :    0.221519
  27 H :    0.178363
  28 H :    0.179537
  29 H :    0.173737
  30 H :    0.170741
  31 H :    0.170798
  32 H :    0.177433
  33 H :    0.171300
  34 H :    0.175711
  35 H :    0.178529
  36 H :    0.185076
  37 H :    0.182153
Sum of atomic charges:   -0.0000000

LOEWDIN ATOMIC CHARGES
----------------------
   0 C :   -0.388202
   1 C :    0.040362
   2 O :   -0.583738
   3 C :    0.365023
   4 O :   -0.482257
   5 C :   -0.194327
   6 C :   -0.193903
   7 H :    0.224131
   8 C :    0.357237
   9 O :   -0.496375
  10 O :   -0.573735
  11 C :    0.043028
  12 C :   -0.391359
  13 S :    0.214876
  14 P :    0.404643
  15 S :   -0.126608
  16 O :   -0.706850
  17 C :   -0.061228
  18 O :   -0.670754
  19 C :   -0.043020
  20 H :    0.163261
  21 H :    0.163120
  22 H :    0.169160
  23 H :    0.187154
  24 H :    0.185323
  25 H :    0.219891
  26 H :    0.204428
  27 H :    0.192656
  28 H :    0.192056
  29 H :    0.169449
  30 H :    0.163207
  31 H :    0.163956
  32 H :    0.187357
  33 H :    0.174266
  34 H :    0.175990
  35 H :    0.179186
  36 H :    0.180934
  37 H :    0.191661

  Mayer bond orders larger than 0.100000
B(  0-C ,  1-C ) :   0.9428 B(  0-C , 20-H ) :   0.9686 B(  0-C , 21-H ) :   0.9714
B(  0-C , 22-H ) :   0.9617 B(  1-C ,  2-O ) :   0.7760 B(  1-C , 23-H ) :   0.9487
B(  1-C , 24-H ) :   0.9400 B(  2-O ,  3-C ) :   1.1640 B(  3-C ,  4-O ) :   1.7681
B(  3-C ,  5-C ) :   0.9494 B(  5-C ,  6-C ) :   0.9015 B(  5-C , 25-H ) :   0.9093
B(  5-C , 26-H ) :   0.9612 B(  6-C ,  7-H ) :   0.8997 B(  6-C ,  8-C ) :   0.9003
B(  6-C , 13-S ) :   0.8762 B(  8-C ,  9-O ) :   1.7974 B(  8-C , 10-O ) :   1.1690
B( 10-O , 11-C ) :   0.7744 B( 11-C , 12-C ) :   0.9311 B( 11-C , 27-H ) :   0.9639
B( 11-C , 28-H ) :   0.9507 B( 12-C , 29-H ) :   0.9588 B( 12-C , 30-H ) :   0.9699
B( 12-C , 31-H ) :   0.9662 B( 13-S , 14-P ) :   1.0003 B( 14-P , 15-S ) :   1.7695
B( 14-P , 16-O ) :   1.0055 B( 14-P , 18-O ) :   1.1832 B( 16-O , 17-C ) :   0.8320
B( 17-C , 32-H ) :   0.9584 B( 17-C , 33-H ) :   0.9493 B( 17-C , 34-H ) :   0.9553
B( 18-O , 19-C ) :   0.7893 B( 19-C , 35-H ) :   0.9489 B( 19-C , 36-H ) :   0.9535
B( 19-C , 37-H ) :   0.9544

Dispersion correction           -0.016433686
FINAL SINGLE POINT ENERGY     -1981.464293529850

DIPOLE MOMENT
-------------

Method             : SCF
Type of density    : Electron Density
Multiplicity       :   1
Irrep              :   0
Energy             : -1981.4853230850112595 Eh
Relativity type    :
Basis              : AO
                                X                 Y                 Z
Electronic contribution:    -13.202352890       4.026592640       1.451454646
Nuclear contribution   :     15.691101666      -5.420467026      -0.365287808
                        -----------------------------------------
Total Dipole Moment    :      2.488748776      -1.393874386       1.086166837
                        -----------------------------------------
Magnitude (a.u.)       :      3.052296623
Magnitude (Debye)      :      7.758321452

Rotational constants in cm-1:             0.011541             0.006417             0.004899
Rotational constants in MHz :           345.991881           192.377313           146.874846

                             ****ORCA TERMINATED NORMALLY****
TOTAL RUN TIME: 0 days 0 hours 1 minutes 39 seconds 495 msec
