                         Program Version 6.0.0  -   RELEASE  -
|  1> ! pbe def2-sv(p) def2/J RI DEFGRID1 loosescf d4 GCP(DFT/SV(P)) printgap
|  2> %output
|  3>     printlevel normal
|  4> end
|  5> * xyz 0 1
|  6> C 1.3602430061 2.0796336968 -1.4358290125
|  7> C 2.7048762659 1.8131253239 -0.7888087289
|  8> O 2.5451419241 1.1866057434 0.5073160709
|  9> P 2.6339967669 -0.3560076897 0.8186797043
| 10> S 2.623442437 -0.6033576653 2.7592576006
| 11> O 3.9344696074 -0.7640709814 0.0025584936
| 12> C 4.2987865017 -2.1080113591 -0.3664187099
| 13> C 4.3607981333 -3.0440118714 0.8219359822
| 14> S 1.0786547721 -1.3838563527 -0.2262926636
| 15> C -0.1747167664 -1.1952820369 1.0585459552
| 16> S -0.8401258079 0.4917305962 1.1829409128
| 17> P -2.271396081 0.3270306121 -0.3669617181
| 18> S -1.6870607552 -0.2847726623 -2.1387743894
| 19> O -2.9715261679 1.7500259327 -0.3447134931
| 20> C -2.5404874922 2.8573597859 -1.1610365121
| 21> C -3.7675635251 3.6149988593 -1.6291553647
| 22> O -3.3219529279 -0.6042632033 0.3640042592
| 23> C -4.3276013852 -1.3386981717 -0.3679239531
| 24> C -5.3509235008 -0.4158872746 -0.9941999862
| 25> H 0.7145675768 2.6103813496 -0.739446654
| 26> H 1.5062646467 2.687510928 -2.3230612761
| 27> H 0.875136396 1.1500546727 -1.7274768822
| 28> H 3.2237037382 2.7468987676 -0.5651645236
| 29> H 3.3343903128 1.1823639008 -1.4183728604
| 30> H 3.5767513943 -2.4664666683 -1.1053970294
| 31> H 5.2788658021 -1.987805494 -0.8315698861
| 32> H 3.370679011 -3.1608961462 1.2601145764
| 33> H 4.7220795532 -4.0145971228 0.4977660007
| 34> H 5.0269563679 -2.646066365 1.5837282088
| 35> H 0.280791571 -1.4150622253 2.0258453114
| 36> H -0.9791785815 -1.8902295045 0.8313608711
| 37> H -1.8975295346 3.4892355954 -0.5437542624
| 38> H -1.966085695 2.4693587762 -2.0090233019
| 39> H -3.4521240289 4.4870558803 -2.1924716533
| 40> H -4.381909653 2.9832199826 -2.264729402
| 41> H -4.3560468927 3.9326278264 -0.7733450615
| 42> H -3.8288499581 -1.9386448214 -1.1361066769
| 43> H -4.7733538415 -1.9903778612 0.3846623679
| 44> H -5.7691056019 0.2470920732 -0.2414847161
| 45> H -4.8777931094 0.1838649876 -1.7704367827
| 46> H -6.1450083591 -1.0070715655 -1.4394944412
| 47> *
| 48>
| 49>                          ****END OF INPUT****

CARTESIAN COORDINATES (ANGSTROEM)
---------------------------------
  C      1.360243    2.079634   -1.435829
  C      2.704876    1.813125   -0.788809
  O      2.545142    1.186606    0.507316
  P      2.633997   -0.356008    0.818680
  S      2.623442   -0.603358    2.759258
  O      3.934470   -0.764071    0.002558
  C      4.298787   -2.108011   -0.366419
  C      4.360798   -3.044012    0.821936
  S      1.078655   -1.383856   -0.226293
  C     -0.174717   -1.195282    1.058546
  S     -0.840126    0.491731    1.182941
  P     -2.271396    0.327031   -0.366962
  S     -1.687061   -0.284773   -2.138774
  O     -2.971526    1.750026   -0.344713
  C     -2.540487    2.857360   -1.161037
  C     -3.767564    3.614999   -1.629155
  O     -3.321953   -0.604263    0.364004
  C     -4.327601   -1.338698   -0.367924
  C     -5.350924   -0.415887   -0.994200
  H      0.714568    2.610381   -0.739447
  H      1.506265    2.687511   -2.323061
  H      0.875136    1.150055   -1.727477
  H      3.223704    2.746899   -0.565165
  H      3.334390    1.182364   -1.418373
  H      3.576751   -2.466467   -1.105397
  H      5.278866   -1.987805   -0.831570
  H      3.370679   -3.160896    1.260115
  H      4.722080   -4.014597    0.497766
  H      5.026956   -2.646066    1.583728
  H      0.280792   -1.415062    2.025845
  H     -0.979179   -1.890230    0.831361
  H     -1.897530    3.489236   -0.543754
  H     -1.966086    2.469359   -2.009023
  H     -3.452124    4.487056   -2.192472
  H     -4.381910    2.983220   -2.264729
  H     -4.356047    3.932628   -0.773345
  H     -3.828850   -1.938645   -1.136107
  H     -4.773354   -1.990378    0.384662
  H     -5.769106    0.247092   -0.241485
  H     -4.877793    0.183865   -1.770437
  H     -6.145008   -1.007072   -1.439494

 Total Charge           Charge          ....    0
 Multiplicity           Mult            ....    1
 Number of Electrons    NEL             ....  202
 Basis Dimension        Dim             ....  334

ORBITAL ENERGIES
----------------

  NO   OCC          E(Eh)            E(eV)
   0   2.0000     -88.040137     -2395.6939
   1   2.0000     -88.039766     -2395.6838
   2   2.0000     -87.992135     -2394.3877
   3   2.0000     -87.978452     -2394.0154
   4   2.0000     -76.429368     -2079.7488
   5   2.0000     -76.422654     -2079.5661
   6   2.0000     -18.797959      -511.5185
   7   2.0000     -18.796209      -511.4709
   8   2.0000     -18.793931      -511.4089
   9   2.0000     -18.784507      -511.1524
  10   2.0000      -9.958060      -270.9726
  11   2.0000      -9.958024      -270.9716
  12   2.0000      -9.956030      -270.9173
  13   2.0000      -9.953752      -270.8554
  14   2.0000      -9.949559      -270.7413
  15   2.0000      -9.892350      -269.1845
  16   2.0000      -9.888374      -269.0763
  17   2.0000      -9.881832      -268.8983
  18   2.0000      -9.876186      -268.7447
  19   2.0000      -7.685402      -209.1304
  20   2.0000      -7.684474      -209.1052
  21   2.0000      -7.636834      -207.8088
  22   2.0000      -7.623849      -207.4555
  23   2.0000      -6.427070      -174.8895
  24   2.0000      -6.419851      -174.6930
  25   2.0000      -5.713170      -155.4633
  26   2.0000      -5.712073      -155.4334
  27   2.0000      -5.710138      -155.3808
  28   2.0000      -5.709089      -155.3522
  29   2.0000      -5.702206      -155.1649
  30   2.0000      -5.701675      -155.1505
  31   2.0000      -5.665570      -154.1680
  32   2.0000      -5.657471      -153.9476
  33   2.0000      -5.657216      -153.9407
  34   2.0000      -5.652857      -153.8221
  35   2.0000      -5.644422      -153.5925
  36   2.0000      -5.643898      -153.5783
  37   2.0000      -4.649637      -126.5230
  38   2.0000      -4.648819      -126.5008
  39   2.0000      -4.647509      -126.4652
  40   2.0000      -4.642815      -126.3374
  41   2.0000      -4.641728      -126.3078
  42   2.0000      -4.639889      -126.2578
  43   2.0000      -0.991539       -26.9812
  44   2.0000      -0.985344       -26.8126
  45   2.0000      -0.951773       -25.8991
  46   2.0000      -0.940531       -25.5932
  47   2.0000      -0.762799       -20.7568
  48   2.0000      -0.723885       -19.6979
  49   2.0000      -0.710698       -19.3391
  50   2.0000      -0.693673       -18.8758
  51   2.0000      -0.687260       -18.7013
  52   2.0000      -0.673077       -18.3153
  53   2.0000      -0.652014       -17.7422
  54   2.0000      -0.636727       -17.3262
  55   2.0000      -0.602073       -16.3833
  56   2.0000      -0.587728       -15.9929
  57   2.0000      -0.574858       -15.6427
  58   2.0000      -0.571614       -15.5544
  59   2.0000      -0.561046       -15.2668
  60   2.0000      -0.508568       -13.8388
  61   2.0000      -0.498812       -13.5734
  62   2.0000      -0.483458       -13.1556
  63   2.0000      -0.469319       -12.7708
  64   2.0000      -0.459471       -12.5028
  65   2.0000      -0.445910       -12.1338
  66   2.0000      -0.441077       -12.0023
  67   2.0000      -0.436222       -11.8702
  68   2.0000      -0.431983       -11.7549
  69   2.0000      -0.416345       -11.3293
  70   2.0000      -0.410127       -11.1601
  71   2.0000      -0.400463       -10.8971
  72   2.0000      -0.396865       -10.7992
  73   2.0000      -0.385965       -10.5026
  74   2.0000      -0.380766       -10.3612
  75   2.0000      -0.376393       -10.2422
  76   2.0000      -0.361985        -9.8501
  77   2.0000      -0.356013        -9.6876
  78   2.0000      -0.353304        -9.6139
  79   2.0000      -0.351854        -9.5744
  80   2.0000      -0.347281        -9.4500
  81   2.0000      -0.347017        -9.4428
  82   2.0000      -0.342078        -9.3084
  83   2.0000      -0.337939        -9.1958
  84   2.0000      -0.335625        -9.1328
  85   2.0000      -0.323969        -8.8157
  86   2.0000      -0.310400        -8.4464
  87   2.0000      -0.302168        -8.2224
  88   2.0000      -0.295948        -8.0532
  89   2.0000      -0.290104        -7.8941
  90   2.0000      -0.286975        -7.8090
  91   2.0000      -0.278565        -7.5801
  92   2.0000      -0.273855        -7.4520
  93   2.0000      -0.267122        -7.2687
  94   2.0000      -0.258663        -7.0386
  95   2.0000      -0.235166        -6.3992
  96   2.0000      -0.216809        -5.8997
  97   2.0000      -0.212371        -5.7789
  98   2.0000      -0.202854        -5.5199
  99   2.0000      -0.197812        -5.3827
 100   2.0000      -0.191793        -5.2190
 101   0.0000      -0.040824        -1.1109
 102   0.0000      -0.025973        -0.7068
 103   0.0000      -0.004083        -0.1111
 104   0.0000       0.002988         0.0813
 105   0.0000       0.012311         0.3350

MULLIKEN ATOMIC CHARGES
-----------------------
   0 C :   -0.327876
   1 C :   -0.002561
   2 O :   -0.349294
   3 P :    0.608364
   4 S :   -0.317652
   5 O :   -0.383452
   6 C :   -0.011558
   7 C :   -0.307176
   8 S :   -0.096892
   9 C :   -0.359849
  10 S :   -0.058429
  11 P :    0.605815
  12 S :   -0.327733
  13 O :   -0.375419
  14 C :   -0.029214
  15 C :   -0.283728
  16 O :   -0.367840
  17 C :   -0.006128
  18 C :   -0.313928
  19 H :    0.118756
  20 H :    0.102128
  21 H :    0.146097
  22 H :    0.105445
  23 H :    0.101643
  24 H :    0.115178
  25 H :    0.108634
  26 H :    0.124651
  27 H :    0.110715
  28 H :    0.127111
  29 H :    0.198344
  30 H :    0.181915
  31 H :    0.113611
  32 H :    0.116250
  33 H :    0.112591
  34 H :    0.122983
  35 H :    0.119399
  36 H :    0.111038
  37 H :    0.108108
  38 H :    0.120460
  39 H :    0.125512
  40 H :    0.113981
Sum of atomic charges:    0.0000000

LOEWDIN ATOMIC CHARGES
----------------------
   0 C :   -0.373424
   1 C :   -0.109998
   2 O :   -0.233162
   3 P :    0.566105
   4 S :   -0.310749
   5 O :   -0.244854
   6 C :   -0.114742
   7 C :   -0.368853
   8 S :    0.076522
   9 C :   -0.482095
  10 S :    0.097268
  11 P :    0.568309
  12 S :   -0.317269
  13 O :   -0.244603
  14 C :   -0.118945
  15 C :   -0.351001
  16 O :   -0.241343
  17 C :   -0.118323
  18 C :   -0.365457
  19 H :    0.120185
  20 H :    0.125840
  21 H :    0.117842
  22 H :    0.119783
  23 H :    0.108836
  24 H :    0.108580
  25 H :    0.120904
  26 H :    0.121135
  27 H :    0.129835
  28 H :    0.130807
  29 H :    0.129179
  30 H :    0.131652
  31 H :    0.114805
  32 H :    0.109024
  33 H :    0.131499
  34 H :    0.127651
  35 H :    0.128212
  36 H :    0.110191
  37 H :    0.120043
  38 H :    0.127954
  39 H :    0.121090
  40 H :    0.131564

  Mayer bond orders larger than 0.100000
B(  0-C ,  1-C ) :   1.1655 B(  0-C , 19-H ) :   0.9391 B(  0-C , 20-H ) :   0.9373
B(  0-C , 21-H ) :   0.9242 B(  1-C ,  2-O ) :   0.9006 B(  1-C , 22-H ) :   0.9345
B(  1-C , 23-H ) :   0.9207 B(  2-O ,  3-P ) :   1.1450 B(  3-P ,  4-S ) :   1.6339
B(  3-P ,  5-O ) :   1.0879 B(  3-P ,  8-S ) :   0.9343 B(  4-S ,  8-S ) :   0.1115
B(  4-S , 29-H ) :   0.1004 B(  5-O ,  6-C ) :   0.9102 B(  6-C ,  7-C ) :   1.1672
B(  6-C , 24-H ) :   0.9258 B(  6-C , 25-H ) :   0.9333 B(  7-C , 26-H ) :   0.9318
B(  7-C , 27-H ) :   0.9351 B(  7-C , 28-H ) :   0.9433 B(  8-S ,  9-C ) :   1.0168
B(  9-C , 10-S ) :   0.9931 B(  9-C , 29-H ) :   0.8622 B(  9-C , 30-H ) :   0.8949
B( 10-S , 11-P ) :   0.9810 B( 10-S , 12-S ) :   0.1129 B( 11-P , 12-S ) :   1.6006
B( 11-P , 13-O ) :   1.1123 B( 11-P , 16-O ) :   1.1165 B( 13-O , 14-C ) :   0.9032
B( 14-C , 15-C ) :   1.1603 B( 14-C , 31-H ) :   0.9290 B( 14-C , 32-H ) :   0.9031
B( 15-C , 33-H ) :   0.9409 B( 15-C , 34-H ) :   0.9481 B( 15-C , 35-H ) :   0.9494
B( 16-O , 17-C ) :   0.9030 B( 17-C , 18-C ) :   1.1663 B( 17-C , 36-H ) :   0.9157
B( 17-C , 37-H ) :   0.9338 B( 18-C , 38-H ) :   0.9458 B( 18-C , 39-H ) :   0.9331
B( 18-C , 40-H ) :   0.9378

Dispersion correction           -0.064552766
FINAL SINGLE POINT ENERGY     -2929.519540938426

DIPOLE MOMENT
-------------

Method             : SCF
Type of density    : Electron Density
Multiplicity       :   1
Irrep              :   0
Energy             : -2929.6391558503555643 Eh
Relativity type    :
Basis              : AO
                                X                 Y                 Z
Electronic contribution:      9.528229704      -5.302852876      12.735834462
Nuclear contribution   :    -10.221803403       5.403617776     -14.042910660
                        -----------------------------------------
Total Dipole Moment    :     -0.693573699       0.100764900      -1.307076198
                        -----------------------------------------
Magnitude (a.u.)       :      1.483120436
Magnitude (Debye)      :      3.769792559

Rotational constants in cm-1:             0.014131             0.004362             0.004035
Rotational constants in MHz :           423.627470           130.768705           120.954263

                             ****ORCA TERMINATED NORMALLY****
TOTAL RUN TIME: 0 days 0 hours 0 minutes 20 seconds 729 msec
