                         Program Version 6.0.0  -   RELEASE  -
|  1> ! r2scan-3c def2/J RI DEFGRID2 scfconv6 printgap
|  2> %output
|  3>     printlevel normal
|  4> end
|  5> * xyz 0 1
|  6> C 1.0297987932 -2.7518484361 1.4520278976
|  7> C 2.1063576055 -1.7205838114 1.7254072626
|  8> O 1.7879203989 -0.4603722537 1.1017265145
|  9> P 2.4104203262 0.013151448 -0.2929346367
| 10> S 3.0115776869 -1.423530526 -1.4717412937
| 11> O 3.6336630125 0.9656358558 0.0495717659
| 12> C 3.5525277761 2.3181213066 0.5546206491
| 13> C 2.8541093327 2.3987605048 1.8959135384
| 14> S 0.9149573163 1.3342734853 -0.9861487368
| 15> C 0.0514204989 0.1620004631 -2.0624984584
| 16> S -0.7447432909 -1.1948310633 -1.1645751051
| 17> P -2.0420873631 0.0008416887 -0.0016030563
| 18> S -2.7970244667 1.6007309859 -0.855564237
| 19> O -1.1294331798 0.2364614524 1.2711333757
| 20> C -1.3146852674 1.3591546589 2.1549806427
| 21> C -2.6180260169 1.2646272566 2.9199812218
| 22> O -3.108654917 -1.0290446168 0.5707606285
| 23> C -4.3384042037 -1.3286622023 -0.1108024811
| 24> C -4.1078542966 -2.1037013407 -1.3922174733
| 25> H 0.0534805497 -2.3500773472 1.7127077291
| 26> H 1.0258357454 -3.0218194434 0.3980657186
| 27> H 1.2263138608 -3.6390966994 2.0452852663
| 28> H 3.0775225 -2.068310888 1.3605030096
| 29> H 2.1735733387 -1.4906812292 2.7903648461
| 30> H 4.5981014689 2.6227099354 0.6234387068
| 31> H 3.0364731638 2.9305925925 -0.1894531357
| 32> H 3.3517463633 1.759265944 2.6204418084
| 33> H 2.8782429353 3.4256906971 2.2466430347
| 34> H 1.8175580083 2.0826994521 1.795185255
| 35> H 0.7629324006 -0.2987626749 -2.7471556639
| 36> H -0.7001046046 0.7429651061 -2.5962433132
| 37> H -0.4510415109 1.3130508189 2.820321043
| 38> H -1.278890292 2.2779325136 1.5601502371
| 39> H -3.4571760393 1.3427516573 2.2295148033
| 40> H -2.680335291 0.3136248964 3.4424144019
| 41> H -2.6746987345 2.0776102298 3.6370053722
| 42> H -4.9057081564 -1.9118148808 0.615812675
| 43> H -4.8561286519 -0.3869062209 -0.3199291113
| 44> H -3.4962096287 -2.9813819764 -1.1985439697
| 45> H -5.0638292111 -2.4127585684 -1.8027277945
| 46> H -3.5971065468 -1.4762546324 -2.121471588
| 47> *
| 48>
| 49>                          ****END OF INPUT****

CARTESIAN COORDINATES (ANGSTROEM)
---------------------------------
  C      1.029799   -2.751848    1.452028
  C      2.106358   -1.720584    1.725407
  O      1.787920   -0.460372    1.101727
  P      2.410420    0.013151   -0.292935
  S      3.011578   -1.423531   -1.471741
  O      3.633663    0.965636    0.049572
  C      3.552528    2.318121    0.554621
  C      2.854109    2.398761    1.895914
  S      0.914957    1.334273   -0.986149
  C      0.051420    0.162000   -2.062498
  S     -0.744743   -1.194831   -1.164575
  P     -2.042087    0.000842   -0.001603
  S     -2.797024    1.600731   -0.855564
  O     -1.129433    0.236461    1.271133
  C     -1.314685    1.359155    2.154981
  C     -2.618026    1.264627    2.919981
  O     -3.108655   -1.029045    0.570761
  C     -4.338404   -1.328662   -0.110802
  C     -4.107854   -2.103701   -1.392217
  H      0.053481   -2.350077    1.712708
  H      1.025836   -3.021819    0.398066
  H      1.226314   -3.639097    2.045285
  H      3.077523   -2.068311    1.360503
  H      2.173573   -1.490681    2.790365
  H      4.598101    2.622710    0.623439
  H      3.036473    2.930593   -0.189453
  H      3.351746    1.759266    2.620442
  H      2.878243    3.425691    2.246643
  H      1.817558    2.082699    1.795185
  H      0.762932   -0.298763   -2.747156
  H     -0.700105    0.742965   -2.596243
  H     -0.451042    1.313051    2.820321
  H     -1.278890    2.277933    1.560150
  H     -3.457176    1.342752    2.229515
  H     -2.680335    0.313625    3.442414
  H     -2.674699    2.077610    3.637005
  H     -4.905708   -1.911815    0.615813
  H     -4.856129   -0.386906   -0.319929
  H     -3.496210   -2.981382   -1.198544
  H     -5.063829   -2.412759   -1.802728
  H     -3.597107   -1.476255   -2.121472

 Total Charge           Charge          ....    0
 Multiplicity           Mult            ....    1
 Number of Electrons    NEL             ....  202
 Basis Dimension        Dim             ....  539

ORBITAL ENERGIES
----------------

  NO   OCC          E(Eh)            E(eV)
   0   2.0000     -88.576663     -2410.2935
   1   2.0000     -88.575102     -2410.2511
   2   2.0000     -88.523988     -2408.8602
   3   2.0000     -88.515839     -2408.6384
   4   2.0000     -76.915414     -2092.9748
   5   2.0000     -76.912090     -2092.8844
   6   2.0000     -18.995330      -516.8892
   7   2.0000     -18.988806      -516.7117
   8   2.0000     -18.988756      -516.7103
   9   2.0000     -18.982948      -516.5523
  10   2.0000     -10.107838      -275.0483
  11   2.0000     -10.105740      -274.9912
  12   2.0000     -10.100897      -274.8594
  13   2.0000     -10.099108      -274.8107
  14   2.0000     -10.093648      -274.6621
  15   2.0000     -10.037273      -273.1281
  16   2.0000     -10.030470      -272.9430
  17   2.0000     -10.030239      -272.9367
  18   2.0000     -10.018504      -272.6173
  19   2.0000      -7.871225      -214.1869
  20   2.0000      -7.869571      -214.1419
  21   2.0000      -7.818717      -212.7581
  22   2.0000      -7.810765      -212.5417
  23   2.0000      -6.594008      -179.4321
  24   2.0000      -6.590234      -179.3294
  25   2.0000      -5.818147      -158.3198
  26   2.0000      -5.816481      -158.2745
  27   2.0000      -5.815071      -158.2361
  28   2.0000      -5.813495      -158.1932
  29   2.0000      -5.808240      -158.0502
  30   2.0000      -5.806546      -158.0041
  31   2.0000      -5.766315      -156.9094
  32   2.0000      -5.759001      -156.7104
  33   2.0000      -5.758773      -156.7042
  34   2.0000      -5.758565      -156.6985
  35   2.0000      -5.751288      -156.5005
  36   2.0000      -5.750339      -156.4747
  37   2.0000      -4.739367      -128.9647
  38   2.0000      -4.738874      -128.9513
  39   2.0000      -4.737920      -128.9253
  40   2.0000      -4.736046      -128.8744
  41   2.0000      -4.734959      -128.8448
  42   2.0000      -4.733926      -128.8167
  43   2.0000      -1.051662       -28.6172
  44   2.0000      -1.041746       -28.3473
  45   2.0000      -1.012516       -27.5520
  46   2.0000      -1.004731       -27.3401
  47   2.0000      -0.804241       -21.8845
  48   2.0000      -0.759132       -20.6570
  49   2.0000      -0.750826       -20.4310
  50   2.0000      -0.733701       -19.9650
  51   2.0000      -0.731955       -19.9175
  52   2.0000      -0.710639       -19.3375
  53   2.0000      -0.686643       -18.6845
  54   2.0000      -0.671100       -18.2616
  55   2.0000      -0.635126       -17.2827
  56   2.0000      -0.622284       -16.9332
  57   2.0000      -0.610429       -16.6106
  58   2.0000      -0.607068       -16.5192
  59   2.0000      -0.589670       -16.0457
  60   2.0000      -0.524437       -14.2707
  61   2.0000      -0.517668       -14.0865
  62   2.0000      -0.494924       -13.4676
  63   2.0000      -0.493085       -13.4175
  64   2.0000      -0.475969       -12.9518
  65   2.0000      -0.465327       -12.6622
  66   2.0000      -0.460495       -12.5307
  67   2.0000      -0.453799       -12.3485
  68   2.0000      -0.447153       -12.1677
  69   2.0000      -0.431729       -11.7479
  70   2.0000      -0.423786       -11.5318
  71   2.0000      -0.414540       -11.2802
  72   2.0000      -0.413111       -11.2413
  73   2.0000      -0.405916       -11.0455
  74   2.0000      -0.397814       -10.8251
  75   2.0000      -0.387602       -10.5472
  76   2.0000      -0.383494       -10.4354
  77   2.0000      -0.374697       -10.1960
  78   2.0000      -0.370137       -10.0719
  79   2.0000      -0.369177       -10.0458
  80   2.0000      -0.363132        -9.8813
  81   2.0000      -0.360891        -9.8203
  82   2.0000      -0.359973        -9.7954
  83   2.0000      -0.353853        -9.6288
  84   2.0000      -0.349810        -9.5188
  85   2.0000      -0.333670        -9.0796
  86   2.0000      -0.322686        -8.7807
  87   2.0000      -0.315413        -8.5828
  88   2.0000      -0.311669        -8.4809
  89   2.0000      -0.301172        -8.1953
  90   2.0000      -0.293057        -7.9745
  91   2.0000      -0.292366        -7.9557
  92   2.0000      -0.286802        -7.8043
  93   2.0000      -0.280878        -7.6431
  94   2.0000      -0.272899        -7.4260
  95   2.0000      -0.242913        -6.6100
  96   2.0000      -0.229849        -6.2545
  97   2.0000      -0.228113        -6.2073
  98   2.0000      -0.220996        -6.0136
  99   2.0000      -0.213163        -5.8005
 100   2.0000      -0.209199        -5.6926
 101   0.0000      -0.048455        -1.3185
 102   0.0000      -0.026931        -0.7328
 103   0.0000      -0.001982        -0.0539
 104   0.0000       0.006420         0.1747
 105   0.0000       0.007935         0.2159

MULLIKEN ATOMIC CHARGES
-----------------------
   0 C :   -0.465987
   1 C :   -0.134905
   2 O :   -0.239321
   3 P :    0.646653
   4 S :   -0.457508
   5 O :   -0.262275
   6 C :   -0.172914
   7 C :   -0.426990
   8 S :   -0.160150
   9 C :   -0.248008
  10 S :   -0.107605
  11 P :    0.683786
  12 S :   -0.484675
  13 O :   -0.251372
  14 C :   -0.167235
  15 C :   -0.451129
  16 O :   -0.302972
  17 C :   -0.152271
  18 C :   -0.449764
  19 H :    0.162003
  20 H :    0.179914
  21 H :    0.139234
  22 H :    0.161254
  23 H :    0.143609
  24 H :    0.156088
  25 H :    0.164701
  26 H :    0.155978
  27 H :    0.152400
  28 H :    0.160906
  29 H :    0.211859
  30 H :    0.211419
  31 H :    0.153333
  32 H :    0.177495
  33 H :    0.170070
  34 H :    0.156226
  35 H :    0.146854
  36 H :    0.148712
  37 H :    0.171488
  38 H :    0.156368
  39 H :    0.148602
  40 H :    0.176127
Sum of atomic charges:    0.0000000

LOEWDIN ATOMIC CHARGES
----------------------
   0 C :   -0.407040
   1 C :    0.022532
   2 O :   -0.685010
   3 P :    0.387676
   4 S :   -0.103190
   5 O :   -0.662562
   6 C :    0.020634
   7 C :   -0.401020
   8 S :    0.166917
   9 C :   -0.417563
  10 S :    0.180405
  11 P :    0.379065
  12 S :   -0.130336
  13 O :   -0.674714
  14 C :    0.013943
  15 C :   -0.399624
  16 O :   -0.661234
  17 C :    0.019770
  18 C :   -0.406522
  19 H :    0.163421
  20 H :    0.167074
  21 H :    0.155173
  22 H :    0.178193
  23 H :    0.174700
  24 H :    0.183821
  25 H :    0.174902
  26 H :    0.161660
  27 H :    0.160192
  28 H :    0.165334
  29 H :    0.192589
  30 H :    0.189736
  31 H :    0.179936
  32 H :    0.180956
  33 H :    0.165565
  34 H :    0.160674
  35 H :    0.159269
  36 H :    0.179633
  37 H :    0.179449
  38 H :    0.160773
  39 H :    0.159512
  40 H :    0.165313

  Mayer bond orders larger than 0.100000
B(  0-C ,  1-C ) :   0.9438 B(  0-C , 19-H ) :   0.9690 B(  0-C , 20-H ) :   0.9622
B(  0-C , 21-H ) :   0.9620 B(  1-C ,  2-O ) :   0.7768 B(  1-C , 22-H ) :   0.9633
B(  1-C , 23-H ) :   0.9643 B(  2-O ,  3-P ) :   1.0638 B(  3-P ,  4-S ) :   1.8291
B(  3-P ,  5-O ) :   1.1390 B(  3-P ,  8-S ) :   1.0412 B(  5-O ,  6-C ) :   0.8036
B(  6-C ,  7-C ) :   0.9269 B(  6-C , 24-H ) :   0.9556 B(  6-C , 25-H ) :   0.9688
B(  7-C , 26-H ) :   0.9703 B(  7-C , 27-H ) :   0.9633 B(  7-C , 28-H ) :   0.9563
B(  8-S ,  9-C ) :   0.9033 B(  9-C , 10-S ) :   0.9000 B(  9-C , 29-H ) :   0.9097
B(  9-C , 30-H ) :   0.9134 B( 10-S , 11-P ) :   1.0932 B( 11-P , 12-S ) :   1.7428
B( 11-P , 13-O ) :   1.1401 B( 11-P , 16-O ) :   1.0615 B( 13-O , 14-C ) :   0.7871
B( 14-C , 15-C ) :   0.9241 B( 14-C , 31-H ) :   0.9601 B( 14-C , 32-H ) :   0.9627
B( 15-C , 33-H ) :   0.9601 B( 15-C , 34-H ) :   0.9729 B( 15-C , 35-H ) :   0.9618
B( 16-O , 17-C ) :   0.8127 B( 17-C , 18-C ) :   0.9236 B( 17-C , 36-H ) :   0.9580
B( 17-C , 37-H ) :   0.9672 B( 18-C , 38-H ) :   0.9683 B( 18-C , 39-H ) :   0.9588
B( 18-C , 40-H ) :   0.9627

Dispersion correction           -0.022508601
FINAL SINGLE POINT ENERGY     -2932.459201500693

DIPOLE MOMENT
-------------

Method             : SCF
Type of density    : Electron Density
Multiplicity       :   1
Irrep              :   0
Energy             : -2932.4831469951077452 Eh
Relativity type    :
Basis              : AO
                                X                 Y                 Z
Electronic contribution:      8.285188272       1.372550050     -16.657069927
Nuclear contribution   :     -8.915853713      -1.103856011      18.189523085
                        -----------------------------------------
Total Dipole Moment    :     -0.630665441       0.268694039       1.532453158
                        -----------------------------------------
Magnitude (a.u.)       :      1.678793635
Magnitude (Debye)      :      4.267154303

Rotational constants in cm-1:             0.011929             0.005707             0.005199
Rotational constants in MHz :           357.629732           171.076697           155.852867

                             ****ORCA TERMINATED NORMALLY****
TOTAL RUN TIME: 0 days 0 hours 1 minutes 28 seconds 790 msec
