                         Program Version 6.0.0  -   RELEASE  -
|  1> ! r2scan-3c def2/J RI DEFGRID2 scfconv6 printgap
|  2> %output
|  3>     printlevel normal
|  4> end
|  5> %cpcm
|  6>     smd true
|  7>     smdsolvent "water"
|  8> end
|  9> * xyz 0 1
| 10> C 1.0297987932 -2.7518484361 1.4520278976
| 11> C 2.1063576055 -1.7205838114 1.7254072626
| 12> O 1.7879203989 -0.4603722537 1.1017265145
| 13> P 2.4104203262 0.013151448 -0.2929346367
| 14> S 3.0115776869 -1.423530526 -1.4717412937
| 15> O 3.6336630125 0.9656358558 0.0495717659
| 16> C 3.5525277761 2.3181213066 0.5546206491
| 17> C 2.8541093327 2.3987605048 1.8959135384
| 18> S 0.9149573163 1.3342734853 -0.9861487368
| 19> C 0.0514204989 0.1620004631 -2.0624984584
| 20> S -0.7447432909 -1.1948310633 -1.1645751051
| 21> P -2.0420873631 0.0008416887 -0.0016030563
| 22> S -2.7970244667 1.6007309859 -0.855564237
| 23> O -1.1294331798 0.2364614524 1.2711333757
| 24> C -1.3146852674 1.3591546589 2.1549806427
| 25> C -2.6180260169 1.2646272566 2.9199812218
| 26> O -3.108654917 -1.0290446168 0.5707606285
| 27> C -4.3384042037 -1.3286622023 -0.1108024811
| 28> C -4.1078542966 -2.1037013407 -1.3922174733
| 29> H 0.0534805497 -2.3500773472 1.7127077291
| 30> H 1.0258357454 -3.0218194434 0.3980657186
| 31> H 1.2263138608 -3.6390966994 2.0452852663
| 32> H 3.0775225 -2.068310888 1.3605030096
| 33> H 2.1735733387 -1.4906812292 2.7903648461
| 34> H 4.5981014689 2.6227099354 0.6234387068
| 35> H 3.0364731638 2.9305925925 -0.1894531357
| 36> H 3.3517463633 1.759265944 2.6204418084
| 37> H 2.8782429353 3.4256906971 2.2466430347
| 38> H 1.8175580083 2.0826994521 1.795185255
| 39> H 0.7629324006 -0.2987626749 -2.7471556639
| 40> H -0.7001046046 0.7429651061 -2.5962433132
| 41> H -0.4510415109 1.3130508189 2.820321043
| 42> H -1.278890292 2.2779325136 1.5601502371
| 43> H -3.4571760393 1.3427516573 2.2295148033
| 44> H -2.680335291 0.3136248964 3.4424144019
| 45> H -2.6746987345 2.0776102298 3.6370053722
| 46> H -4.9057081564 -1.9118148808 0.615812675
| 47> H -4.8561286519 -0.3869062209 -0.3199291113
| 48> H -3.4962096287 -2.9813819764 -1.1985439697
| 49> H -5.0638292111 -2.4127585684 -1.8027277945
| 50> H -3.5971065468 -1.4762546324 -2.121471588
| 51> *
| 52>
| 53>                          ****END OF INPUT****

CARTESIAN COORDINATES (ANGSTROEM)
---------------------------------
  C      1.029799   -2.751848    1.452028
  C      2.106358   -1.720584    1.725407
  O      1.787920   -0.460372    1.101727
  P      2.410420    0.013151   -0.292935
  S      3.011578   -1.423531   -1.471741
  O      3.633663    0.965636    0.049572
  C      3.552528    2.318121    0.554621
  C      2.854109    2.398761    1.895914
  S      0.914957    1.334273   -0.986149
  C      0.051420    0.162000   -2.062498
  S     -0.744743   -1.194831   -1.164575
  P     -2.042087    0.000842   -0.001603
  S     -2.797024    1.600731   -0.855564
  O     -1.129433    0.236461    1.271133
  C     -1.314685    1.359155    2.154981
  C     -2.618026    1.264627    2.919981
  O     -3.108655   -1.029045    0.570761
  C     -4.338404   -1.328662   -0.110802
  C     -4.107854   -2.103701   -1.392217
  H      0.053481   -2.350077    1.712708
  H      1.025836   -3.021819    0.398066
  H      1.226314   -3.639097    2.045285
  H      3.077523   -2.068311    1.360503
  H      2.173573   -1.490681    2.790365
  H      4.598101    2.622710    0.623439
  H      3.036473    2.930593   -0.189453
  H      3.351746    1.759266    2.620442
  H      2.878243    3.425691    2.246643
  H      1.817558    2.082699    1.795185
  H      0.762932   -0.298763   -2.747156
  H     -0.700105    0.742965   -2.596243
  H     -0.451042    1.313051    2.820321
  H     -1.278890    2.277933    1.560150
  H     -3.457176    1.342752    2.229515
  H     -2.680335    0.313625    3.442414
  H     -2.674699    2.077610    3.637005
  H     -4.905708   -1.911815    0.615813
  H     -4.856129   -0.386906   -0.319929
  H     -3.496210   -2.981382   -1.198544
  H     -5.063829   -2.412759   -1.802728
  H     -3.597107   -1.476255   -2.121472

 Total Charge           Charge          ....    0
 Multiplicity           Mult            ....    1
 Number of Electrons    NEL             ....  202
 Basis Dimension        Dim             ....  539

ORBITAL ENERGIES
----------------

  NO   OCC          E(Eh)            E(eV)
   0   2.0000     -88.580608     -2410.4009
   1   2.0000     -88.577370     -2410.3128
   2   2.0000     -88.528649     -2408.9870
   3   2.0000     -88.527244     -2408.9488
   4   2.0000     -76.919549     -2093.0873
   5   2.0000     -76.918530     -2093.0596
   6   2.0000     -18.995658      -516.8981
   7   2.0000     -18.992706      -516.8178
   8   2.0000     -18.990613      -516.7609
   9   2.0000     -18.987594      -516.6787
  10   2.0000     -10.106555      -275.0134
  11   2.0000     -10.093644      -274.6620
  12   2.0000     -10.089716      -274.5551
  13   2.0000     -10.088771      -274.5294
  14   2.0000     -10.087529      -274.4956
  15   2.0000     -10.020819      -272.6803
  16   2.0000     -10.018520      -272.6178
  17   2.0000     -10.018266      -272.6109
  18   2.0000     -10.014048      -272.4961
  19   2.0000      -7.875125      -214.2930
  20   2.0000      -7.871886      -214.2049
  21   2.0000      -7.823650      -212.8923
  22   2.0000      -7.822535      -212.8620
  23   2.0000      -6.597731      -179.5334
  24   2.0000      -6.597158      -179.5178
  25   2.0000      -5.822048      -158.4260
  26   2.0000      -5.818945      -158.3416
  27   2.0000      -5.818782      -158.3371
  28   2.0000      -5.815806      -158.2561
  29   2.0000      -5.812174      -158.1573
  30   2.0000      -5.808879      -158.0676
  31   2.0000      -5.771203      -157.0424
  32   2.0000      -5.770221      -157.0157
  33   2.0000      -5.763916      -156.8441
  34   2.0000      -5.763717      -156.8387
  35   2.0000      -5.762988      -156.8189
  36   2.0000      -5.762223      -156.7981
  37   2.0000      -4.743487      -129.0769
  38   2.0000      -4.742474      -129.0493
  39   2.0000      -4.742431      -129.0481
  40   2.0000      -4.742033      -129.0373
  41   2.0000      -4.741542      -129.0239
  42   2.0000      -4.741128      -129.0126
  43   2.0000      -1.052309       -28.6348
  44   2.0000      -1.045503       -28.4496
  45   2.0000      -1.012656       -27.5558
  46   2.0000      -1.008061       -27.4307
  47   2.0000      -0.805823       -21.9276
  48   2.0000      -0.755884       -20.5687
  49   2.0000      -0.743612       -20.2347
  50   2.0000      -0.726301       -19.7637
  51   2.0000      -0.722876       -19.6705
  52   2.0000      -0.709254       -19.2998
  53   2.0000      -0.689277       -18.7562
  54   2.0000      -0.676235       -18.4013
  55   2.0000      -0.632945       -17.2233
  56   2.0000      -0.619794       -16.8655
  57   2.0000      -0.604907       -16.4604
  58   2.0000      -0.598825       -16.2948
  59   2.0000      -0.587682       -15.9916
  60   2.0000      -0.521254       -14.1840
  61   2.0000      -0.513106       -13.9623
  62   2.0000      -0.491683       -13.3794
  63   2.0000      -0.488398       -13.2900
  64   2.0000      -0.474599       -12.9145
  65   2.0000      -0.460775       -12.5383
  66   2.0000      -0.454560       -12.3692
  67   2.0000      -0.449313       -12.2264
  68   2.0000      -0.442329       -12.0364
  69   2.0000      -0.427330       -11.6282
  70   2.0000      -0.420588       -11.4448
  71   2.0000      -0.410786       -11.1781
  72   2.0000      -0.407098       -11.0777
  73   2.0000      -0.403645       -10.9837
  74   2.0000      -0.394347       -10.7307
  75   2.0000      -0.385580       -10.4922
  76   2.0000      -0.383961       -10.4481
  77   2.0000      -0.370918       -10.0932
  78   2.0000      -0.364456        -9.9173
  79   2.0000      -0.358585        -9.7576
  80   2.0000      -0.354216        -9.6387
  81   2.0000      -0.353339        -9.6148
  82   2.0000      -0.351996        -9.5783
  83   2.0000      -0.347258        -9.4494
  84   2.0000      -0.346616        -9.4319
  85   2.0000      -0.329910        -8.9773
  86   2.0000      -0.317185        -8.6311
  87   2.0000      -0.313538        -8.5318
  88   2.0000      -0.304640        -8.2897
  89   2.0000      -0.299380        -8.1466
  90   2.0000      -0.294977        -8.0267
  91   2.0000      -0.290198        -7.8967
  92   2.0000      -0.285443        -7.7673
  93   2.0000      -0.279422        -7.6035
  94   2.0000      -0.274625        -7.4729
  95   2.0000      -0.245620        -6.6837
  96   2.0000      -0.237156        -6.4533
  97   2.0000      -0.234005        -6.3676
  98   2.0000      -0.227477        -6.1900
  99   2.0000      -0.221694        -6.0326
 100   2.0000      -0.219460        -5.9718
 101   0.0000      -0.052400        -1.4259
 102   0.0000      -0.032478        -0.8838
 103   0.0000      -0.004533        -0.1233
 104   0.0000       0.001961         0.0534
 105   0.0000       0.007865         0.2140

MULLIKEN ATOMIC CHARGES
-----------------------
   0 C :   -0.490639
   1 C :   -0.130593
   2 O :   -0.260938
   3 P :    0.660033
   4 S :   -0.514846
   5 O :   -0.300397
   6 C :   -0.165857
   7 C :   -0.460729
   8 S :   -0.165235
   9 C :   -0.260238
  10 S :   -0.118426
  11 P :    0.724019
  12 S :   -0.527387
  13 O :   -0.286936
  14 C :   -0.155157
  15 C :   -0.492322
  16 O :   -0.330108
  17 C :   -0.153245
  18 C :   -0.486279
  19 H :    0.163690
  20 H :    0.171575
  21 H :    0.164821
  22 H :    0.167580
  23 H :    0.174196
  24 H :    0.179783
  25 H :    0.176342
  26 H :    0.171581
  27 H :    0.177369
  28 H :    0.162213
  29 H :    0.231298
  30 H :    0.235478
  31 H :    0.179802
  32 H :    0.180066
  33 H :    0.169069
  34 H :    0.170124
  35 H :    0.172238
  36 H :    0.175447
  37 H :    0.177931
  38 H :    0.169169
  39 H :    0.172908
  40 H :    0.172601
Sum of atomic charges:    0.0000000

LOEWDIN ATOMIC CHARGES
----------------------
   0 C :   -0.409595
   1 C :    0.027691
   2 O :   -0.694779
   3 P :    0.389338
   4 S :   -0.145027
   5 O :   -0.683517
   6 C :    0.027020
   7 C :   -0.400884
   8 S :    0.167318
   9 C :   -0.412127
  10 S :    0.174708
  11 P :    0.384546
  12 S :   -0.155569
  13 O :   -0.691698
  14 C :    0.019632
  15 C :   -0.403024
  16 O :   -0.672327
  17 C :    0.025349
  18 C :   -0.409985
  19 H :    0.163009
  20 H :    0.162044
  21 H :    0.164288
  22 H :    0.180648
  23 H :    0.187534
  24 H :    0.194093
  25 H :    0.180288
  26 H :    0.165593
  27 H :    0.170480
  28 H :    0.164395
  29 H :    0.198171
  30 H :    0.197360
  31 H :    0.191037
  32 H :    0.182435
  33 H :    0.162798
  34 H :    0.164137
  35 H :    0.168712
  36 H :    0.190948
  37 H :    0.181554
  38 H :    0.163636
  39 H :    0.168307
  40 H :    0.161464

  Mayer bond orders larger than 0.100000
B(  0-C ,  1-C ) :   0.9332 B(  0-C , 19-H ) :   0.9669 B(  0-C , 20-H ) :   0.9646
B(  0-C , 21-H ) :   0.9583 B(  1-C ,  2-O ) :   0.7638 B(  1-C , 22-H ) :   0.9614
B(  1-C , 23-H ) :   0.9546 B(  2-O ,  3-P ) :   1.0692 B(  3-P ,  4-S ) :   1.8018
B(  3-P ,  5-O ) :   1.1472 B(  3-P ,  8-S ) :   1.0622 B(  5-O ,  6-C ) :   0.7917
B(  6-C ,  7-C ) :   0.9160 B(  6-C , 24-H ) :   0.9453 B(  6-C , 25-H ) :   0.9587
B(  7-C , 26-H ) :   0.9693 B(  7-C , 27-H ) :   0.9568 B(  7-C , 28-H ) :   0.9532
B(  8-S ,  9-C ) :   0.8896 B(  9-C , 10-S ) :   0.8911 B(  9-C , 29-H ) :   0.9048
B(  9-C , 30-H ) :   0.9067 B( 10-S , 11-P ) :   1.1009 B( 11-P , 12-S ) :   1.7039
B( 11-P , 13-O ) :   1.1456 B( 11-P , 16-O ) :   1.0699 B( 13-O , 14-C ) :   0.7772
B( 14-C , 15-C ) :   0.9113 B( 14-C , 31-H ) :   0.9495 B( 14-C , 32-H ) :   0.9586
B( 15-C , 33-H ) :   0.9600 B( 15-C , 34-H ) :   0.9714 B( 15-C , 35-H ) :   0.9559
B( 16-O , 17-C ) :   0.8009 B( 17-C , 18-C ) :   0.9103 B( 17-C , 36-H ) :   0.9484
B( 17-C , 37-H ) :   0.9659 B( 18-C , 38-H ) :   0.9657 B( 18-C , 39-H ) :   0.9535
B( 18-C , 40-H ) :   0.9638

Dispersion correction           -0.022508601
FINAL SINGLE POINT ENERGY     -2932.469400636894

DIPOLE MOMENT
-------------

Method             : SCF
Type of density    : Electron Density
Multiplicity       :   1
Irrep              :   0
Energy             : -2932.4933461313084990 Eh
Relativity type    :
Basis              : AO
                                X                 Y                 Z
Electronic contribution:      8.047792363       1.561421315     -16.134365040
Nuclear contribution   :     -8.915853713      -1.103856011      18.189523085
                        -----------------------------------------
Total Dipole Moment    :     -0.868061349       0.457565304       2.055158045
                        -----------------------------------------
Magnitude (a.u.)       :      2.277404466
Magnitude (Debye)      :      5.788702118

Rotational constants in cm-1:             0.011929             0.005707             0.005199
Rotational constants in MHz :           357.629732           171.076697           155.852867

                             ****ORCA TERMINATED NORMALLY****
TOTAL RUN TIME: 0 days 0 hours 2 minutes 1 seconds 447 msec
