                         Program Version 6.0.0  -   RELEASE  -
|  1> ! pbe def2-sv(p) def2/J RI DEFGRID1 loosescf d4 GCP(DFT/SV(P)) printgap
|  2> %output
|  3>     printlevel normal
|  4> end
|  5> * xyz 0 1
|  6> C 4.4794860815 -1.7436160596 -0.7922495644
|  7> C 4.6148634158 -0.3435735868 -0.2288531232
|  8> O 3.4641706752 0.0515123028 0.5371719619
|  9> P 2.0402951778 0.3142763662 -0.1244664803
| 10> S 2.1167708068 1.1713040494 -1.8905232282
| 11> O 1.309743216 1.0959406495 1.0442343951
| 12> C 1.3625622448 2.5291073963 1.1698205064
| 13> C 2.7586212405 3.0264683365 1.4772389358
| 14> S 1.108127183 -1.5620667428 0.0132636176
| 15> C -0.0383036587 -1.4759703156 -1.407922035
| 16> S -1.762534815 -1.6934871787 -0.9314389669
| 17> P -1.9996102207 0.1195036596 0.153191942
| 18> S -1.3558092637 1.6870984192 -0.8339631582
| 19> O -1.2964289568 -0.0238396159 1.5541215742
| 20> C -1.7966111506 -0.7711250461 2.6932319532
| 21> C -1.90102186 -2.2568877006 2.4218427055
| 22> O -3.5342257533 0.1551343749 0.5538946535
| 23> C -4.57814491 0.4404826013 -0.3977954256
| 24> C -5.1869080675 -0.8378427472 -0.9393132669
| 25> H 3.7004687874 -1.7638444917 -1.5531300923
| 26> H 5.4204215195 -2.0390284501 -1.245183666
| 27> H 4.2198518695 -2.4455644987 -0.0039121831
| 28> H 4.7558803056 0.3815911748 -1.0369163652
| 29> H 5.4381210586 -0.2731552565 0.4832972449
| 30> H 0.9831858205 2.971095104 0.2418343424
| 31> H 0.6633947615 2.7423902964 1.9801705754
| 32> H 2.7214182789 4.0931269534 1.6754444914
| 33> H 3.1589594916 2.5071334415 2.3441146392
| 34> H 3.4119310971 2.8480890993 0.6238769277
| 35> H 0.1930943458 -2.2993201369 -2.0785988999
| 36> H 0.0943247795 -0.5115168636 -1.9061591206
| 37> H -1.056812487 -0.5569314917 3.4663577643
| 38> H -2.7644432653 -0.3516422645 2.9731178645
| 39> H -2.1521990412 -2.7639219977 3.348384948
| 40> H -2.6770153088 -2.4578465893 1.6866448191
| 41> H -0.9537110193 -2.641905516 2.0501802286
| 42> H -5.3116068962 1.0197926537 0.1663688871
| 43> H -4.1659167679 1.0620500885 -1.1990874919
| 44> H -5.565236377 -1.4450839272 -0.1220124105
| 45> H -6.0057862874 -0.5834899314 -1.6045260494
| 46> H -4.4455063629 -1.4121195633 -1.4902984521
| 47> *
| 48>
| 49>                          ****END OF INPUT****

CARTESIAN COORDINATES (ANGSTROEM)
---------------------------------
  C      4.479486   -1.743616   -0.792250
  C      4.614863   -0.343574   -0.228853
  O      3.464171    0.051512    0.537172
  P      2.040295    0.314276   -0.124466
  S      2.116771    1.171304   -1.890523
  O      1.309743    1.095941    1.044234
  C      1.362562    2.529107    1.169821
  C      2.758621    3.026468    1.477239
  S      1.108127   -1.562067    0.013264
  C     -0.038304   -1.475970   -1.407922
  S     -1.762535   -1.693487   -0.931439
  P     -1.999610    0.119504    0.153192
  S     -1.355809    1.687098   -0.833963
  O     -1.296429   -0.023840    1.554122
  C     -1.796611   -0.771125    2.693232
  C     -1.901022   -2.256888    2.421843
  O     -3.534226    0.155134    0.553895
  C     -4.578145    0.440483   -0.397795
  C     -5.186908   -0.837843   -0.939313
  H      3.700469   -1.763844   -1.553130
  H      5.420422   -2.039028   -1.245184
  H      4.219852   -2.445564   -0.003912
  H      4.755880    0.381591   -1.036916
  H      5.438121   -0.273155    0.483297
  H      0.983186    2.971095    0.241834
  H      0.663395    2.742390    1.980171
  H      2.721418    4.093127    1.675444
  H      3.158959    2.507133    2.344115
  H      3.411931    2.848089    0.623877
  H      0.193094   -2.299320   -2.078599
  H      0.094325   -0.511517   -1.906159
  H     -1.056812   -0.556931    3.466358
  H     -2.764443   -0.351642    2.973118
  H     -2.152199   -2.763922    3.348385
  H     -2.677015   -2.457847    1.686645
  H     -0.953711   -2.641906    2.050180
  H     -5.311607    1.019793    0.166369
  H     -4.165917    1.062050   -1.199087
  H     -5.565236   -1.445084   -0.122012
  H     -6.005786   -0.583490   -1.604526
  H     -4.445506   -1.412120   -1.490298

 Total Charge           Charge          ....    0
 Multiplicity           Mult            ....    1
 Number of Electrons    NEL             ....  202
 Basis Dimension        Dim             ....  334

ORBITAL ENERGIES
----------------

  NO   OCC          E(Eh)            E(eV)
   0   2.0000     -88.042261     -2395.7517
   1   2.0000     -88.039201     -2395.6685
   2   2.0000     -87.981212     -2394.0905
   3   2.0000     -87.977361     -2393.9857
   4   2.0000     -76.424245     -2079.6094
   5   2.0000     -76.419364     -2079.4766
   6   2.0000     -18.797934      -511.5178
   7   2.0000     -18.787794      -511.2419
   8   2.0000     -18.786800      -511.2148
   9   2.0000     -18.776777      -510.9421
  10   2.0000      -9.956145      -270.9205
  11   2.0000      -9.954859      -270.8855
  12   2.0000      -9.952827      -270.8302
  13   2.0000      -9.947426      -270.6832
  14   2.0000      -9.936736      -270.3923
  15   2.0000      -9.889404      -269.1044
  16   2.0000      -9.885029      -268.9853
  17   2.0000      -9.880215      -268.8543
  18   2.0000      -9.874403      -268.6962
  19   2.0000      -7.687289      -209.1818
  20   2.0000      -7.684342      -209.1016
  21   2.0000      -7.626087      -207.5164
  22   2.0000      -7.622322      -207.4139
  23   2.0000      -6.421593      -174.7404
  24   2.0000      -6.416891      -174.6125
  25   2.0000      -5.715081      -155.5153
  26   2.0000      -5.712208      -155.4371
  27   2.0000      -5.711729      -155.4241
  28   2.0000      -5.708924      -155.3477
  29   2.0000      -5.704398      -155.2246
  30   2.0000      -5.701152      -155.1362
  31   2.0000      -5.654931      -153.8785
  32   2.0000      -5.651289      -153.7794
  33   2.0000      -5.646932      -153.6608
  34   2.0000      -5.646123      -153.6388
  35   2.0000      -5.643079      -153.5560
  36   2.0000      -5.642270      -153.5340
  37   2.0000      -4.644704      -126.3888
  38   2.0000      -4.643285      -126.3502
  39   2.0000      -4.641617      -126.3048
  40   2.0000      -4.639137      -126.2373
  41   2.0000      -4.638505      -126.2201
  42   2.0000      -4.637802      -126.2010
  43   2.0000      -0.989149       -26.9161
  44   2.0000      -0.978122       -26.6161
  45   2.0000      -0.944258       -25.6946
  46   2.0000      -0.935388       -25.4532
  47   2.0000      -0.761052       -20.7093
  48   2.0000      -0.718724       -19.5575
  49   2.0000      -0.706167       -19.2158
  50   2.0000      -0.692456       -18.8427
  51   2.0000      -0.681431       -18.5427
  52   2.0000      -0.671833       -18.2815
  53   2.0000      -0.647560       -17.6210
  54   2.0000      -0.629517       -17.1300
  55   2.0000      -0.599145       -16.3036
  56   2.0000      -0.590267       -16.0620
  57   2.0000      -0.577821       -15.7233
  58   2.0000      -0.564319       -15.3559
  59   2.0000      -0.557606       -15.1732
  60   2.0000      -0.500514       -13.6197
  61   2.0000      -0.484879       -13.1942
  62   2.0000      -0.474101       -12.9009
  63   2.0000      -0.463693       -12.6177
  64   2.0000      -0.452263       -12.3067
  65   2.0000      -0.442268       -12.0347
  66   2.0000      -0.439880       -11.9697
  67   2.0000      -0.433113       -11.7856
  68   2.0000      -0.429710       -11.6930
  69   2.0000      -0.414784       -11.2868
  70   2.0000      -0.407965       -11.1013
  71   2.0000      -0.396071       -10.7777
  72   2.0000      -0.387201       -10.5363
  73   2.0000      -0.383283       -10.4296
  74   2.0000      -0.382066       -10.3965
  75   2.0000      -0.375540       -10.2190
  76   2.0000      -0.365515        -9.9462
  77   2.0000      -0.358588        -9.7577
  78   2.0000      -0.351716        -9.5707
  79   2.0000      -0.349032        -9.4976
  80   2.0000      -0.343030        -9.3343
  81   2.0000      -0.341370        -9.2892
  82   2.0000      -0.335481        -9.1289
  83   2.0000      -0.333700        -9.0804
  84   2.0000      -0.329728        -8.9723
  85   2.0000      -0.322955        -8.7880
  86   2.0000      -0.306129        -8.3302
  87   2.0000      -0.297226        -8.0879
  88   2.0000      -0.293306        -7.9813
  89   2.0000      -0.289507        -7.8779
  90   2.0000      -0.275116        -7.4863
  91   2.0000      -0.270009        -7.3473
  92   2.0000      -0.263119        -7.1598
  93   2.0000      -0.261208        -7.1078
  94   2.0000      -0.255274        -6.9464
  95   2.0000      -0.232568        -6.3285
  96   2.0000      -0.216957        -5.9037
  97   2.0000      -0.212071        -5.7707
  98   2.0000      -0.200611        -5.4589
  99   2.0000      -0.189096        -5.1456
 100   2.0000      -0.183558        -4.9949
 101   0.0000      -0.040372        -1.0986
 102   0.0000      -0.030079        -0.8185
 103   0.0000      -0.007428        -0.2021
 104   0.0000       0.011534         0.3139
 105   0.0000       0.023150         0.6299

MULLIKEN ATOMIC CHARGES
-----------------------
   0 C :   -0.307774
   1 C :   -0.002984
   2 O :   -0.375954
   3 P :    0.612291
   4 S :   -0.319799
   5 O :   -0.352616
   6 C :   -0.000693
   7 C :   -0.302073
   8 S :   -0.093832
   9 C :   -0.355192
  10 S :   -0.116628
  11 P :    0.606676
  12 S :   -0.301018
  13 O :   -0.346545
  14 C :    0.008029
  15 C :   -0.321388
  16 O :   -0.382927
  17 C :   -0.006800
  18 C :   -0.308255
  19 H :    0.119846
  20 H :    0.110246
  21 H :    0.115884
  22 H :    0.108837
  23 H :    0.102601
  24 H :    0.122097
  25 H :    0.099148
  26 H :    0.108348
  27 H :    0.111307
  28 H :    0.119234
  29 H :    0.181203
  30 H :    0.213101
  31 H :    0.109740
  32 H :    0.108062
  33 H :    0.110714
  34 H :    0.120617
  35 H :    0.129775
  36 H :    0.108367
  37 H :    0.107737
  38 H :    0.115033
  39 H :    0.114733
  40 H :    0.130855
Sum of atomic charges:    0.0000000

LOEWDIN ATOMIC CHARGES
----------------------
   0 C :   -0.369169
   1 C :   -0.120192
   2 O :   -0.246627
   3 P :    0.571725
   4 S :   -0.311997
   5 O :   -0.231184
   6 C :   -0.118631
   7 C :   -0.366186
   8 S :    0.087986
   9 C :   -0.479750
  10 S :    0.075753
  11 P :    0.564304
  12 S :   -0.295851
  13 O :   -0.227602
  14 C :   -0.106195
  15 C :   -0.371296
  16 O :   -0.247408
  17 C :   -0.117476
  18 C :   -0.364853
  19 H :    0.119362
  20 H :    0.129367
  21 H :    0.123087
  22 H :    0.109128
  23 H :    0.117352
  24 H :    0.109413
  25 H :    0.117204
  26 H :    0.128612
  27 H :    0.123583
  28 H :    0.120644
  29 H :    0.136514
  30 H :    0.126703
  31 H :    0.122748
  32 H :    0.113527
  33 H :    0.129810
  34 H :    0.116236
  35 H :    0.123872
  36 H :    0.120306
  37 H :    0.110309
  38 H :    0.125049
  39 H :    0.132652
  40 H :    0.119169

  Mayer bond orders larger than 0.100000
B(  0-C ,  1-C ) :   1.1675 B(  0-C , 19-H ) :   0.9370 B(  0-C , 20-H ) :   0.9381
B(  0-C , 21-H ) :   0.9441 B(  1-C ,  2-O ) :   0.9137 B(  1-C , 22-H ) :   0.9142
B(  1-C , 23-H ) :   0.9342 B(  2-O ,  3-P ) :   1.0941 B(  3-P ,  4-S ) :   1.5914
B(  3-P ,  5-O ) :   1.1485 B(  3-P ,  8-S ) :   0.9652 B(  4-S ,  8-S ) :   0.1141
B(  5-O ,  6-C ) :   0.9057 B(  6-C ,  7-C ) :   1.1571 B(  6-C , 24-H ) :   0.9134
B(  6-C , 25-H ) :   0.9362 B(  7-C , 26-H ) :   0.9394 B(  7-C , 27-H ) :   0.9448
B(  7-C , 28-H ) :   0.9374 B(  8-S ,  9-C ) :   0.9943 B(  9-C , 10-S ) :   1.0056
B(  9-C , 29-H ) :   0.9114 B(  9-C , 30-H ) :   0.8459 B( 10-S , 11-P ) :   0.9362
B( 10-S , 12-S ) :   0.1054 B( 11-P , 12-S ) :   1.6574 B( 11-P , 13-O ) :   1.1447
B( 11-P , 16-O ) :   1.0783 B( 13-O , 14-C ) :   0.8967 B( 14-C , 15-C ) :   1.1707
B( 14-C , 31-H ) :   0.9337 B( 14-C , 32-H ) :   0.9284 B( 15-C , 33-H ) :   0.9350
B( 15-C , 34-H ) :   0.9391 B( 15-C , 35-H ) :   0.9378 B( 16-O , 17-C ) :   0.9034
B( 17-C , 18-C ) :   1.1667 B( 17-C , 36-H ) :   0.9346 B( 17-C , 37-H ) :   0.9050
B( 18-C , 38-H ) :   0.9475 B( 18-C , 39-H ) :   0.9396 B( 18-C , 40-H ) :   0.9323

Dispersion correction           -0.068479451
FINAL SINGLE POINT ENERGY     -2929.516528077330

DIPOLE MOMENT
-------------

Method             : SCF
Type of density    : Electron Density
Multiplicity       :   1
Irrep              :   0
Energy             : -2929.6341347347820374 Eh
Relativity type    :
Basis              : AO
                                X                 Y                 Z
Electronic contribution:     -0.154015997       3.170451018      -7.388760204
Nuclear contribution   :     -0.356611429      -4.034879085       8.390301556
                        -----------------------------------------
Total Dipole Moment    :     -0.510627425      -0.864428067       1.001541352
                        -----------------------------------------
Magnitude (a.u.)       :      1.418118941
Magnitude (Debye)      :      3.604571888

Rotational constants in cm-1:             0.013283             0.005299             0.005005
Rotational constants in MHz :           398.217411           158.850414           150.036258

                             ****ORCA TERMINATED NORMALLY****
TOTAL RUN TIME: 0 days 0 hours 0 minutes 24 seconds 367 msec
