                         Program Version 6.0.0  -   RELEASE  -
|  1> ! pbe def2-sv(p) def2/J RI DEFGRID1 loosescf d4 GCP(DFT/SV(P)) printgap
|  2> %output
|  3>     printlevel normal
|  4> end
|  5> * xyz 0 1
|  6> C 5.1630169675 -2.4737733397 -1.2035864292
|  7> C 4.1069023294 -1.4229620222 -1.4786738516
|  8> O 3.3730945129 -1.2040870865 -0.2544745363
|  9> P 2.4002688235 0.0393267478 -0.095804798
| 10> S 3.1753316519 1.7939175829 -0.4687623584
| 11> O 1.9014592561 -0.0915183998 1.3892711986
| 12> C 1.3799333023 -1.3260247786 1.9424211175
| 13> C 2.4344605258 -2.0083520302 2.78812096
| 14> S 0.7561800105 -0.5066866812 -1.3508721675
| 15> C 0.0233083605 1.1413640258 -1.4138099094
| 16> S -0.6272153885 1.6745193318 0.1929960103
| 17> P -2.3697958877 0.4815426475 0.1425010698
| 18> S -3.2670578462 0.3615868614 -1.6008346701
| 19> O -3.2315330271 1.054491597 1.3493361909
| 20> C -3.9314092929 2.3140154471 1.2759910472
| 21> C -5.3702592273 2.1072521299 0.8438877881
| 22> O -1.8753201227 -0.8887797482 0.7532560629
| 23> C -2.5711350932 -2.1382575159 0.513471673
| 24> C -1.5572414999 -3.2302335029 0.2411607447
| 25> H 5.7248765763 -2.6583201706 -2.1132005102
| 26> H 5.8412185904 -2.1278934719 -0.4286275134
| 27> H 4.6937696351 -3.3973915454 -0.8777535371
| 28> H 3.4010463941 -1.7542272215 -2.2450575252
| 29> H 4.5535074216 -0.4730529154 -1.7893964489
| 30> H 0.5162737523 -1.0205458479 2.5372362034
| 31> H 1.052175605 -1.968563047 1.1211420452
| 32> H 2.7795889238 -1.334028377 3.5669955165
| 33> H 2.0071730092 -2.8955774062 3.2448099834
| 34> H 3.281872691 -2.293029945 2.1701895896
| 35> H -0.7881195403 1.107268262 -2.1419739853
| 36> H 0.7888653103 1.8639106972 -1.6974208564
| 37> H -3.8734891999 2.7192377273 2.2879251193
| 38> H -3.4047598125 2.980740352 0.5872697186
| 39> H -5.8887527066 3.0604180873 0.8617897607
| 40> H -5.4070960289 1.7027123593 -0.1651551286
| 41> H -5.8660360276 1.4145256666 1.5179844257
| 42> H -3.1598529797 -2.3493037552 1.4080277074
| 43> H -3.243153348 -2.0053786372 -0.3410398788
| 44> H -0.9427299456 -2.963496437 -0.6156688269
| 45> H -0.920218119 -3.3790088557 1.1079650796
| 46> H -2.0869325814 -4.1523856453 0.024352452
| 47> *
| 48>
| 49>                          ****END OF INPUT****

CARTESIAN COORDINATES (ANGSTROEM)
---------------------------------
  C      5.163017   -2.473773   -1.203586
  C      4.106902   -1.422962   -1.478674
  O      3.373095   -1.204087   -0.254475
  P      2.400269    0.039327   -0.095805
  S      3.175332    1.793918   -0.468762
  O      1.901459   -0.091518    1.389271
  C      1.379933   -1.326025    1.942421
  C      2.434461   -2.008352    2.788121
  S      0.756180   -0.506687   -1.350872
  C      0.023308    1.141364   -1.413810
  S     -0.627215    1.674519    0.192996
  P     -2.369796    0.481543    0.142501
  S     -3.267058    0.361587   -1.600835
  O     -3.231533    1.054492    1.349336
  C     -3.931409    2.314015    1.275991
  C     -5.370259    2.107252    0.843888
  O     -1.875320   -0.888780    0.753256
  C     -2.571135   -2.138258    0.513472
  C     -1.557241   -3.230234    0.241161
  H      5.724877   -2.658320   -2.113201
  H      5.841219   -2.127893   -0.428628
  H      4.693770   -3.397392   -0.877754
  H      3.401046   -1.754227   -2.245058
  H      4.553507   -0.473053   -1.789396
  H      0.516274   -1.020546    2.537236
  H      1.052176   -1.968563    1.121142
  H      2.779589   -1.334028    3.566996
  H      2.007173   -2.895577    3.244810
  H      3.281873   -2.293030    2.170190
  H     -0.788120    1.107268   -2.141974
  H      0.788865    1.863911   -1.697421
  H     -3.873489    2.719238    2.287925
  H     -3.404760    2.980740    0.587270
  H     -5.888753    3.060418    0.861790
  H     -5.407096    1.702712   -0.165155
  H     -5.866036    1.414526    1.517984
  H     -3.159853   -2.349304    1.408028
  H     -3.243153   -2.005379   -0.341040
  H     -0.942730   -2.963496   -0.615669
  H     -0.920218   -3.379009    1.107965
  H     -2.086933   -4.152386    0.024352

 Total Charge           Charge          ....    0
 Multiplicity           Mult            ....    1
 Number of Electrons    NEL             ....  202
 Basis Dimension        Dim             ....  334

ORBITAL ENERGIES
----------------

  NO   OCC          E(Eh)            E(eV)
   0   2.0000     -88.042409     -2395.7558
   1   2.0000     -88.040638     -2395.7075
   2   2.0000     -87.989752     -2394.3229
   3   2.0000     -87.984514     -2394.1803
   4   2.0000     -76.428126     -2079.7150
   5   2.0000     -76.425932     -2079.6553
   6   2.0000     -18.798952      -511.5455
   7   2.0000     -18.794281      -511.4184
   8   2.0000     -18.794097      -511.4134
   9   2.0000     -18.791926      -511.3543
  10   2.0000      -9.957091      -270.9462
  11   2.0000      -9.955882      -270.9133
  12   2.0000      -9.954532      -270.8766
  13   2.0000      -9.953446      -270.8470
  14   2.0000      -9.950534      -270.7678
  15   2.0000      -9.892557      -269.1902
  16   2.0000      -9.889542      -269.1081
  17   2.0000      -9.886411      -269.0229
  18   2.0000      -9.882084      -268.9052
  19   2.0000      -7.687645      -209.1915
  20   2.0000      -7.685573      -209.1351
  21   2.0000      -7.634723      -207.7514
  22   2.0000      -7.629881      -207.6196
  23   2.0000      -6.425947      -174.8589
  24   2.0000      -6.423605      -174.7952
  25   2.0000      -5.715457      -155.5255
  26   2.0000      -5.713241      -155.4652
  27   2.0000      -5.712206      -155.4370
  28   2.0000      -5.710174      -155.3817
  29   2.0000      -5.704611      -155.2304
  30   2.0000      -5.702709      -155.1786
  31   2.0000      -5.663402      -154.1090
  32   2.0000      -5.658854      -153.9853
  33   2.0000      -5.655370      -153.8904
  34   2.0000      -5.655077      -153.8825
  35   2.0000      -5.650412      -153.7555
  36   2.0000      -5.650023      -153.7449
  37   2.0000      -4.648440      -126.4905
  38   2.0000      -4.647711      -126.4707
  39   2.0000      -4.646529      -126.4385
  40   2.0000      -4.646414      -126.4354
  41   2.0000      -4.645379      -126.4072
  42   2.0000      -4.643699      -126.3615
  43   2.0000      -0.991599       -26.9828
  44   2.0000      -0.988770       -26.9058
  45   2.0000      -0.948021       -25.7970
  46   2.0000      -0.947180       -25.7741
  47   2.0000      -0.764632       -20.8067
  48   2.0000      -0.724116       -19.7042
  49   2.0000      -0.713064       -19.4035
  50   2.0000      -0.694607       -18.9012
  51   2.0000      -0.688695       -18.7403
  52   2.0000      -0.675142       -18.3715
  53   2.0000      -0.649569       -17.6757
  54   2.0000      -0.638190       -17.3660
  55   2.0000      -0.596863       -16.2415
  56   2.0000      -0.589386       -16.0380
  57   2.0000      -0.574446       -15.6315
  58   2.0000      -0.570111       -15.5135
  59   2.0000      -0.562004       -15.2929
  60   2.0000      -0.514004       -13.9868
  61   2.0000      -0.504318       -13.7232
  62   2.0000      -0.483361       -13.1529
  63   2.0000      -0.481327       -13.0976
  64   2.0000      -0.456536       -12.4230
  65   2.0000      -0.446566       -12.1517
  66   2.0000      -0.443141       -12.0585
  67   2.0000      -0.436761       -11.8849
  68   2.0000      -0.431261       -11.7352
  69   2.0000      -0.415119       -11.2960
  70   2.0000      -0.406933       -11.0732
  71   2.0000      -0.397164       -10.8074
  72   2.0000      -0.392381       -10.6772
  73   2.0000      -0.386028       -10.5043
  74   2.0000      -0.383176       -10.4267
  75   2.0000      -0.375833       -10.2269
  76   2.0000      -0.366238        -9.9658
  77   2.0000      -0.361750        -9.8437
  78   2.0000      -0.357961        -9.7406
  79   2.0000      -0.354175        -9.6376
  80   2.0000      -0.349281        -9.5044
  81   2.0000      -0.345605        -9.4044
  82   2.0000      -0.344627        -9.3778
  83   2.0000      -0.342198        -9.3117
  84   2.0000      -0.335449        -9.1280
  85   2.0000      -0.322456        -8.7745
  86   2.0000      -0.313911        -8.5419
  87   2.0000      -0.304348        -8.2817
  88   2.0000      -0.299826        -8.1587
  89   2.0000      -0.294059        -8.0018
  90   2.0000      -0.291797        -7.9402
  91   2.0000      -0.281447        -7.6586
  92   2.0000      -0.272478        -7.4145
  93   2.0000      -0.265906        -7.2357
  94   2.0000      -0.258332        -7.0296
  95   2.0000      -0.235513        -6.4086
  96   2.0000      -0.221362        -6.0236
  97   2.0000      -0.211301        -5.7498
  98   2.0000      -0.203941        -5.5495
  99   2.0000      -0.202133        -5.5003
 100   2.0000      -0.199273        -5.4225
 101   0.0000      -0.043858        -1.1934
 102   0.0000      -0.023085        -0.6282
 103   0.0000      -0.004308        -0.1172
 104   0.0000       0.000660         0.0180
 105   0.0000       0.012639         0.3439

MULLIKEN ATOMIC CHARGES
-----------------------
   0 C :   -0.282191
   1 C :   -0.012322
   2 O :   -0.384601
   3 P :    0.596081
   4 S :   -0.312640
   5 O :   -0.344393
   6 C :   -0.024474
   7 C :   -0.286648
   8 S :   -0.098689
   9 C :   -0.382497
  10 S :   -0.057480
  11 P :    0.607676
  12 S :   -0.339906
  13 O :   -0.374480
  14 C :   -0.009120
  15 C :   -0.292044
  16 O :   -0.363053
  17 C :   -0.012716
  18 C :   -0.295027
  19 H :    0.114820
  20 H :    0.123274
  21 H :    0.115251
  22 H :    0.105362
  23 H :    0.109099
  24 H :    0.114726
  25 H :    0.110999
  26 H :    0.120687
  27 H :    0.107137
  28 H :    0.118084
  29 H :    0.193721
  30 H :    0.196840
  31 H :    0.108903
  32 H :    0.104547
  33 H :    0.108588
  34 H :    0.129845
  35 H :    0.111105
  36 H :    0.104688
  37 H :    0.110920
  38 H :    0.130570
  39 H :    0.117990
  40 H :    0.111368
Sum of atomic charges:    0.0000000

LOEWDIN ATOMIC CHARGES
----------------------
   0 C :   -0.350414
   1 C :   -0.119197
   2 O :   -0.250107
   3 P :    0.566593
   4 S :   -0.309562
   5 O :   -0.227266
   6 C :   -0.115024
   7 C :   -0.357666
   8 S :    0.065295
   9 C :   -0.489307
  10 S :    0.097338
  11 P :    0.568571
  12 S :   -0.320604
  13 O :   -0.248769
  14 C :   -0.114976
  15 C :   -0.362785
  16 O :   -0.241279
  17 C :   -0.116366
  18 C :   -0.355594
  19 H :    0.132378
  20 H :    0.129780
  21 H :    0.125641
  22 H :    0.109029
  23 H :    0.111930
  24 H :    0.120824
  25 H :    0.104789
  26 H :    0.129159
  27 H :    0.127967
  28 H :    0.125051
  29 H :    0.127440
  30 H :    0.129545
  31 H :    0.119614
  32 H :    0.108862
  33 H :    0.129261
  34 H :    0.124828
  35 H :    0.124796
  36 H :    0.115100
  37 H :    0.107357
  38 H :    0.125463
  39 H :    0.121432
  40 H :    0.130872

  Mayer bond orders larger than 0.100000
B(  0-C ,  1-C ) :   1.1590 B(  0-C , 19-H ) :   0.9416 B(  0-C , 20-H ) :   0.9507
B(  0-C , 21-H ) :   0.9509 B(  1-C ,  2-O ) :   0.9024 B(  1-C , 22-H ) :   0.9271
B(  1-C , 23-H ) :   0.9125 B(  2-O ,  3-P ) :   1.0785 B(  3-P ,  4-S ) :   1.6535
B(  3-P ,  5-O ) :   1.1517 B(  3-P ,  8-S ) :   0.9458 B(  4-S ,  8-S ) :   0.1095
B(  5-O ,  6-C ) :   0.8866 B(  6-C ,  7-C ) :   1.1594 B(  6-C , 24-H ) :   0.9323
B(  6-C , 25-H ) :   0.9055 B(  7-C , 26-H ) :   0.9467 B(  7-C , 27-H ) :   0.9411
B(  7-C , 28-H ) :   0.9428 B(  8-S ,  9-C ) :   1.0056 B(  9-C , 10-S ) :   1.0059
B(  9-C , 29-H ) :   0.8680 B(  9-C , 30-H ) :   0.8721 B( 10-S , 11-P ) :   0.9775
B( 10-S , 12-S ) :   0.1092 B( 11-P , 12-S ) :   1.5951 B( 11-P , 13-O ) :   1.1182
B( 11-P , 16-O ) :   1.1321 B( 13-O , 14-C ) :   0.9012 B( 14-C , 15-C ) :   1.1673
B( 14-C , 31-H ) :   0.9359 B( 14-C , 32-H ) :   0.9157 B( 15-C , 33-H ) :   0.9397
B( 15-C , 34-H ) :   0.9326 B( 15-C , 35-H ) :   0.9477 B( 16-O , 17-C ) :   0.8953
B( 17-C , 18-C ) :   1.1691 B( 17-C , 36-H ) :   0.9327 B( 17-C , 37-H ) :   0.9003
B( 18-C , 38-H ) :   0.9406 B( 18-C , 39-H ) :   0.9416 B( 18-C , 40-H ) :   0.9382

Dispersion correction           -0.063476751
FINAL SINGLE POINT ENERGY     -2929.524502893168

DIPOLE MOMENT
-------------

Method             : SCF
Type of density    : Electron Density
Multiplicity       :   1
Irrep              :   0
Energy             : -2929.6449917006884789 Eh
Relativity type    :
Basis              : AO
                                X                 Y                 Z
Electronic contribution:      0.630957048      17.818828910      -7.031788661
Nuclear contribution   :     -0.908428171     -19.269897654       7.624156329
                        -----------------------------------------
Total Dipole Moment    :     -0.277471123      -1.451068744       0.592367668
                        -----------------------------------------
Magnitude (a.u.)       :      1.591694122
Magnitude (Debye)      :      4.045764936

Rotational constants in cm-1:             0.013370             0.004546             0.004234
Rotational constants in MHz :           400.818185           136.297413           126.935961

                             ****ORCA TERMINATED NORMALLY****
TOTAL RUN TIME: 0 days 0 hours 0 minutes 21 seconds 234 msec
