                         Program Version 6.0.0  -   RELEASE  -
|  1> ! pbe def2-sv(p) def2/J RI DEFGRID1 loosescf d4 GCP(DFT/SV(P)) printgap
|  2> %output
|  3>     printlevel normal
|  4> end
|  5> * xyz 0 1
|  6> C 5.4746932348 -1.2172699407 -1.5171782829
|  7> C 4.0408127931 -1.3221830224 -1.9996564692
|  8> O 3.1520609661 -1.6054007823 -0.899227965
|  9> P 2.3474159415 -0.4613427433 -0.1427903686
| 10> S 3.4048391596 1.0726396121 0.4793601102
| 11> O 1.6137438935 -1.307425164 0.9721266551
| 12> C 2.1277142881 -1.4156856963 2.3245499135
| 13> C 1.44645104 -0.41927541 3.2402041741
| 14> S 0.7800872381 -0.0131675796 -1.4869835449
| 15> C 0.1861295983 1.4615103383 -0.6099365443
| 16> S -0.863440536 1.0548994544 0.7984051966
| 17> P -2.5215002543 0.3583171213 -0.354173233
| 18> S -2.8423741628 1.380555019 -1.9941967004
| 19> O -3.7300873167 0.2935290924 0.673976834
| 20> C -4.5911514737 1.4199789817 0.9257345779
| 21> C -3.8628540882 2.5645407104 1.5990853308
| 22> O -2.2593818579 -1.1659931321 -0.6709972476
| 23> C -2.529904362 -2.2825241933 0.2105038145
| 24> C -1.728240837 -2.2181150032 1.4928178411
| 25> H 6.1288173618 -1.070145887 -2.370433329
| 26> H 5.5828990624 -0.3741159279 -0.8384279408
| 27> H 5.7601114666 -2.1270095233 -0.9966854233
| 28> H 3.9107427526 -2.1621658255 -2.6844545031
| 29> H 3.7235759865 -0.3991674916 -2.4933987235
| 30> H 1.9128320353 -2.4444217586 2.6166746871
| 31> H 3.2085077454 -1.2542558579 2.3099043566
| 32> H 0.3691320509 -0.5508082509 3.2113837652
| 33> H 1.8031190427 -0.5691083822 4.2540019084
| 34> H 1.6790699365 0.5967429186 2.9286378992
| 35> H -0.388417388 2.043948312 -1.3309410102
| 36> H 1.0403691852 2.0245563892 -0.2313778116
| 37> H -5.0196119594 1.7451196436 -0.0271513045
| 38> H -5.3734177503 1.0078658746 1.5648252268
| 39> H -3.3387217142 2.2148003928 2.4847637413
| 40> H -3.1395439614 3.001410097 0.9124279825
| 41> H -4.5814092111 3.3269609676 1.8822700174
| 42> H -3.6016361808 -2.2997173012 0.4181736144
| 43> H -2.2528947522 -3.1471981075 -0.3948525514
| 44> H -2.0351290895 -1.3564111177 2.0829133206
| 45> H -1.9036930595 -3.1229492835 2.066437451
| 46> H -0.6673416772 -2.1361039134 1.268394967
| 47> *
| 48>
| 49>                          ****END OF INPUT****

CARTESIAN COORDINATES (ANGSTROEM)
---------------------------------
  C      5.474693   -1.217270   -1.517178
  C      4.040813   -1.322183   -1.999656
  O      3.152061   -1.605401   -0.899228
  P      2.347416   -0.461343   -0.142790
  S      3.404839    1.072640    0.479360
  O      1.613744   -1.307425    0.972127
  C      2.127714   -1.415686    2.324550
  C      1.446451   -0.419275    3.240204
  S      0.780087   -0.013168   -1.486984
  C      0.186130    1.461510   -0.609937
  S     -0.863441    1.054899    0.798405
  P     -2.521500    0.358317   -0.354173
  S     -2.842374    1.380555   -1.994197
  O     -3.730087    0.293529    0.673977
  C     -4.591151    1.419979    0.925735
  C     -3.862854    2.564541    1.599085
  O     -2.259382   -1.165993   -0.670997
  C     -2.529904   -2.282524    0.210504
  C     -1.728241   -2.218115    1.492818
  H      6.128817   -1.070146   -2.370433
  H      5.582899   -0.374116   -0.838428
  H      5.760111   -2.127010   -0.996685
  H      3.910743   -2.162166   -2.684455
  H      3.723576   -0.399167   -2.493399
  H      1.912832   -2.444422    2.616675
  H      3.208508   -1.254256    2.309904
  H      0.369132   -0.550808    3.211384
  H      1.803119   -0.569108    4.254002
  H      1.679070    0.596743    2.928638
  H     -0.388417    2.043948   -1.330941
  H      1.040369    2.024556   -0.231378
  H     -5.019612    1.745120   -0.027151
  H     -5.373418    1.007866    1.564825
  H     -3.338722    2.214800    2.484764
  H     -3.139544    3.001410    0.912428
  H     -4.581409    3.326961    1.882270
  H     -3.601636   -2.299717    0.418174
  H     -2.252895   -3.147198   -0.394853
  H     -2.035129   -1.356411    2.082913
  H     -1.903693   -3.122949    2.066437
  H     -0.667342   -2.136104    1.268395

 Total Charge           Charge          ....    0
 Multiplicity           Mult            ....    1
 Number of Electrons    NEL             ....  202
 Basis Dimension        Dim             ....  334

ORBITAL ENERGIES
----------------

  NO   OCC          E(Eh)            E(eV)
   0   2.0000     -88.040547     -2395.7051
   1   2.0000     -88.039983     -2395.6897
   2   2.0000     -87.990521     -2394.3438
   3   2.0000     -87.984875     -2394.1902
   4   2.0000     -76.428355     -2079.7213
   5   2.0000     -76.427567     -2079.6998
   6   2.0000     -18.800512      -511.5879
   7   2.0000     -18.794110      -511.4137
   8   2.0000     -18.793810      -511.4056
   9   2.0000     -18.788293      -511.2555
  10   2.0000      -9.957432      -270.9555
  11   2.0000      -9.956188      -270.9217
  12   2.0000      -9.955420      -270.9008
  13   2.0000      -9.954953      -270.8880
  14   2.0000      -9.949276      -270.7336
  15   2.0000      -9.886435      -269.0236
  16   2.0000      -9.884398      -268.9681
  17   2.0000      -9.882224      -268.9090
  18   2.0000      -9.882127      -268.9063
  19   2.0000      -7.685874      -209.1433
  20   2.0000      -7.684781      -209.1135
  21   2.0000      -7.635474      -207.7718
  22   2.0000      -7.630134      -207.6265
  23   2.0000      -6.426142      -174.8642
  24   2.0000      -6.424825      -174.8284
  25   2.0000      -5.713653      -155.4764
  26   2.0000      -5.712518      -155.4455
  27   2.0000      -5.710499      -155.3906
  28   2.0000      -5.709469      -155.3626
  29   2.0000      -5.702791      -155.1808
  30   2.0000      -5.701741      -155.1523
  31   2.0000      -5.664201      -154.1307
  32   2.0000      -5.659134      -153.9929
  33   2.0000      -5.656163      -153.9120
  34   2.0000      -5.655751      -153.9008
  35   2.0000      -5.650802      -153.7661
  36   2.0000      -5.650130      -153.7478
  37   2.0000      -4.648681      -126.4970
  38   2.0000      -4.648019      -126.4790
  39   2.0000      -4.647865      -126.4748
  40   2.0000      -4.646628      -126.4412
  41   2.0000      -4.646242      -126.4307
  42   2.0000      -4.645083      -126.3991
  43   2.0000      -0.990418       -26.9506
  44   2.0000      -0.988884       -26.9089
  45   2.0000      -0.947308       -25.7776
  46   2.0000      -0.945350       -25.7243
  47   2.0000      -0.763628       -20.7794
  48   2.0000      -0.722266       -19.6539
  49   2.0000      -0.710283       -19.3278
  50   2.0000      -0.692553       -18.8453
  51   2.0000      -0.686648       -18.6846
  52   2.0000      -0.676566       -18.4103
  53   2.0000      -0.651916       -17.7395
  54   2.0000      -0.636857       -17.3298
  55   2.0000      -0.600363       -16.3367
  56   2.0000      -0.592586       -16.1251
  57   2.0000      -0.580185       -15.7876
  58   2.0000      -0.573182       -15.5971
  59   2.0000      -0.556852       -15.1527
  60   2.0000      -0.505379       -13.7521
  61   2.0000      -0.497097       -13.5267
  62   2.0000      -0.478207       -13.0127
  63   2.0000      -0.471316       -12.8251
  64   2.0000      -0.459539       -12.5047
  65   2.0000      -0.449558       -12.2331
  66   2.0000      -0.442204       -12.0330
  67   2.0000      -0.433916       -11.8075
  68   2.0000      -0.426409       -11.6032
  69   2.0000      -0.424404       -11.5486
  70   2.0000      -0.404929       -11.0187
  71   2.0000      -0.400967       -10.9109
  72   2.0000      -0.399833       -10.8800
  73   2.0000      -0.387041       -10.5319
  74   2.0000      -0.376314       -10.2400
  75   2.0000      -0.370855       -10.0915
  76   2.0000      -0.369921       -10.0661
  77   2.0000      -0.360165        -9.8006
  78   2.0000      -0.354855        -9.6561
  79   2.0000      -0.352539        -9.5931
  80   2.0000      -0.349001        -9.4968
  81   2.0000      -0.345441        -9.3999
  82   2.0000      -0.341076        -9.2812
  83   2.0000      -0.339058        -9.2262
  84   2.0000      -0.333510        -9.0753
  85   2.0000      -0.323265        -8.7965
  86   2.0000      -0.307978        -8.3805
  87   2.0000      -0.300882        -8.1874
  88   2.0000      -0.297859        -8.1052
  89   2.0000      -0.295748        -8.0477
  90   2.0000      -0.290565        -7.9067
  91   2.0000      -0.280770        -7.6401
  92   2.0000      -0.273243        -7.4353
  93   2.0000      -0.265266        -7.2182
  94   2.0000      -0.255737        -6.9590
  95   2.0000      -0.233013        -6.3406
  96   2.0000      -0.220034        -5.9874
  97   2.0000      -0.211879        -5.7655
  98   2.0000      -0.204119        -5.5544
  99   2.0000      -0.202427        -5.5083
 100   2.0000      -0.197103        -5.3634
 101   0.0000      -0.045301        -1.2327
 102   0.0000      -0.025223        -0.6864
 103   0.0000      -0.005132        -0.1396
 104   0.0000      -0.003378        -0.0919
 105   0.0000       0.015433         0.4200

MULLIKEN ATOMIC CHARGES
-----------------------
   0 C :   -0.291569
   1 C :   -0.009654
   2 O :   -0.371661
   3 P :    0.603491
   4 S :   -0.337445
   5 O :   -0.362163
   6 C :   -0.000866
   7 C :   -0.297862
   8 S :   -0.055946
   9 C :   -0.384378
  10 S :   -0.091294
  11 P :    0.617014
  12 S :   -0.317798
  13 O :   -0.387173
  14 C :   -0.000627
  15 C :   -0.317773
  16 O :   -0.356724
  17 C :    0.019122
  18 C :   -0.368830
  19 H :    0.108913
  20 H :    0.128283
  21 H :    0.111636
  22 H :    0.109182
  23 H :    0.105316
  24 H :    0.106988
  25 H :    0.108880
  26 H :    0.125297
  27 H :    0.107471
  28 H :    0.122285
  29 H :    0.197160
  30 H :    0.190194
  31 H :    0.115479
  32 H :    0.104973
  33 H :    0.116588
  34 H :    0.131108
  35 H :    0.115098
  36 H :    0.105803
  37 H :    0.109953
  38 H :    0.123203
  39 H :    0.108500
  40 H :    0.159825
Sum of atomic charges:    0.0000000

LOEWDIN ATOMIC CHARGES
----------------------
   0 C :   -0.362349
   1 C :   -0.115611
   2 O :   -0.248080
   3 P :    0.571174
   4 S :   -0.321358
   5 O :   -0.237263
   6 C :   -0.111968
   7 C :   -0.363499
   8 S :    0.094466
   9 C :   -0.492215
  10 S :    0.085643
  11 P :    0.575979
  12 S :   -0.312024
  13 O :   -0.246741
  14 C :   -0.115657
  15 C :   -0.370833
  16 O :   -0.236717
  17 C :   -0.104583
  18 C :   -0.378889
  19 H :    0.129443
  20 H :    0.124740
  21 H :    0.124876
  22 H :    0.119643
  23 H :    0.109395
  24 H :    0.118188
  25 H :    0.110811
  26 H :    0.123660
  27 H :    0.128804
  28 H :    0.122869
  29 H :    0.128324
  30 H :    0.126714
  31 H :    0.114332
  32 H :    0.118563
  33 H :    0.123177
  34 H :    0.122887
  35 H :    0.132355
  36 H :    0.112839
  37 H :    0.123212
  38 H :    0.115861
  39 H :    0.128931
  40 H :    0.130900

  Mayer bond orders larger than 0.100000
B(  0-C ,  1-C ) :   1.1670 B(  0-C , 19-H ) :   0.9398 B(  0-C , 20-H ) :   0.9339
B(  0-C , 21-H ) :   0.9477 B(  1-C ,  2-O ) :   0.9005 B(  1-C , 22-H ) :   0.9354
B(  1-C , 23-H ) :   0.9150 B(  2-O ,  3-P ) :   1.1210 B(  3-P ,  4-S ) :   1.5779
B(  3-P ,  5-O ) :   1.1301 B(  3-P ,  8-S ) :   0.9820 B(  4-S ,  8-S ) :   0.1099
B(  5-O ,  6-C ) :   0.8733 B(  6-C ,  7-C ) :   1.1746 B(  6-C , 24-H ) :   0.9326
B(  6-C , 25-H ) :   0.9137 B(  7-C , 26-H ) :   0.9421 B(  7-C , 27-H ) :   0.9379
B(  7-C , 28-H ) :   0.9353 B(  8-S ,  9-C ) :   1.0035 B(  9-C , 10-S ) :   1.0094
B(  9-C , 29-H ) :   0.8678 B(  9-C , 30-H ) :   0.8661 B( 10-S , 11-P ) :   0.9411
B( 10-S , 12-S ) :   0.1118 B( 11-P , 12-S ) :   1.6292 B( 11-P , 13-O ) :   1.0771
B( 11-P , 16-O ) :   1.1386 B( 13-O , 14-C ) :   0.9013 B( 14-C , 15-C ) :   1.1671
B( 14-C , 31-H ) :   0.9178 B( 14-C , 32-H ) :   0.9342 B( 15-C , 33-H ) :   0.9445
B( 15-C , 34-H ) :   0.9332 B( 15-C , 35-H ) :   0.9365 B( 16-O , 17-C ) :   0.9001
B( 17-C , 18-C ) :   1.1692 B( 17-C , 36-H ) :   0.9291 B( 17-C , 37-H ) :   0.9334
B( 18-C , 38-H ) :   0.9358 B( 18-C , 39-H ) :   0.9342 B( 18-C , 40-H ) :   0.9183

Dispersion correction           -0.065701694
FINAL SINGLE POINT ENERGY     -2929.520811251104

DIPOLE MOMENT
-------------

Method             : SCF
Type of density    : Electron Density
Multiplicity       :   1
Irrep              :   0
Energy             : -2929.6405007809557901 Eh
Relativity type    :
Basis              : AO
                                X                 Y                 Z
Electronic contribution:     -2.952200245       5.662404762     -14.944696729
Nuclear contribution   :      2.766721133      -6.681326270      16.113638683
                        -----------------------------------------
Total Dipole Moment    :     -0.185479112      -1.018921508       1.168941953
                        -----------------------------------------
Magnitude (a.u.)       :      1.561739041
Magnitude (Debye)      :      3.969625170

Rotational constants in cm-1:             0.013670             0.004632             0.004397
Rotational constants in MHz :           409.825478           138.854097           131.807113

                             ****ORCA TERMINATED NORMALLY****
TOTAL RUN TIME: 0 days 0 hours 0 minutes 21 seconds 488 msec
