                         Program Version 6.0.0  -   RELEASE  -
|  1> ! r2scan-3c def2/J RI DEFGRID2 scfconv6 printgap
|  2> %output
|  3>     printlevel normal
|  4> end
|  5> * xyz 0 1
|  6> C 5.4671512507 -1.8278729326 -1.8119393413
|  7> C 4.3643302006 -0.7896891078 -1.7584691436
|  8> O 3.3380207656 -1.2737681548 -0.8690972367
|  9> P 2.3544838748 -0.2949381212 -0.0953311048
| 10> S 3.2360385074 1.245146406 0.7454942276
| 11> O 1.6094043438 -1.3074681545 0.862941833
| 12> C 2.0693672076 -1.5737072072 2.2128026143
| 13> C 1.2346662733 -0.8023749607 3.2144157776
| 14> S 0.8502153489 0.1351924506 -1.5131280369
| 15> C 0.1300272679 1.5377219853 -0.6103391903
| 16> S -0.890631647 1.018498079 0.7829851879
| 17> P -2.5147093115 0.2647315748 -0.3827763162
| 18> S -2.8398810563 1.174498998 -2.0845274685
| 19> O -3.7519906128 0.2575197553 0.6145332697
| 20> C -4.6265000549 1.388835245 0.7673697425
| 21> C -3.93096881 2.5731998322 1.4071636754
| 22> O -2.2339245035 -1.2695965074 -0.6093772343
| 23> C -1.6771290429 -2.2157167906 0.3345307482
| 24> C -2.4032840745 -2.2242084066 1.6621378758
| 25> H 5.9076247478 -1.957678558 -0.8273895076
| 26> H 5.0635325053 -2.7792630354 -2.1460140734
| 27> H 6.2329534804 -1.4975746163 -2.5060346269
| 28> H 3.9127440392 -0.6347672957 -2.741677551
| 29> H 4.7349849923 0.1683839196 -1.3779813905
| 30> H 1.9571813623 -2.6516522235 2.3360995366
| 31> H 3.1248215366 -1.3008406218 2.2919054594
| 32> H 0.1834909001 -1.0494775503 3.1004910215
| 33> H 1.5592271176 -1.0559643684 4.2183375912
| 34> H 1.3579471427 0.2675680986 3.0597711022
| 35> H -0.4849280267 2.0832759929 -1.3268445299
| 36> H 0.9317913914 2.1600342069 -0.2115594206
| 37> H -5.0169034041 1.6597053036 -0.2186079858
| 38> H -5.4339377032 1.008997765 1.3948622375
| 39> H -3.1820473017 2.9773947436 0.7279115936
| 40> H -4.6631623297 3.3455660353 1.6195938144
| 41> H -3.4429139259 2.2741945754 2.3312057779
| 42> H -1.7757038583 -3.1696834827 -0.1860466199
| 43> H -0.6172660223 -1.9812815233 0.4661845154
| 44> H -3.4643696457 -2.4030007662 1.5092014084
| 45> H -1.9919838291 -3.0127186309 2.2853270476
| 46> H -2.2796165582 -1.2672380768 2.1660346577
| 47> *
| 48>
| 49>                          ****END OF INPUT****

CARTESIAN COORDINATES (ANGSTROEM)
---------------------------------
  C      5.467151   -1.827873   -1.811939
  C      4.364330   -0.789689   -1.758469
  O      3.338021   -1.273768   -0.869097
  P      2.354484   -0.294938   -0.095331
  S      3.236039    1.245146    0.745494
  O      1.609404   -1.307468    0.862942
  C      2.069367   -1.573707    2.212803
  C      1.234666   -0.802375    3.214416
  S      0.850215    0.135192   -1.513128
  C      0.130027    1.537722   -0.610339
  S     -0.890632    1.018498    0.782985
  P     -2.514709    0.264732   -0.382776
  S     -2.839881    1.174499   -2.084527
  O     -3.751991    0.257520    0.614533
  C     -4.626500    1.388835    0.767370
  C     -3.930969    2.573200    1.407164
  O     -2.233925   -1.269597   -0.609377
  C     -1.677129   -2.215717    0.334531
  C     -2.403284   -2.224208    1.662138
  H      5.907625   -1.957679   -0.827390
  H      5.063533   -2.779263   -2.146014
  H      6.232953   -1.497575   -2.506035
  H      3.912744   -0.634767   -2.741678
  H      4.734985    0.168384   -1.377981
  H      1.957181   -2.651652    2.336100
  H      3.124822   -1.300841    2.291905
  H      0.183491   -1.049478    3.100491
  H      1.559227   -1.055964    4.218338
  H      1.357947    0.267568    3.059771
  H     -0.484928    2.083276   -1.326845
  H      0.931791    2.160034   -0.211559
  H     -5.016903    1.659705   -0.218608
  H     -5.433938    1.008998    1.394862
  H     -3.182047    2.977395    0.727912
  H     -4.663162    3.345566    1.619594
  H     -3.442914    2.274195    2.331206
  H     -1.775704   -3.169683   -0.186047
  H     -0.617266   -1.981282    0.466185
  H     -3.464370   -2.403001    1.509201
  H     -1.991984   -3.012719    2.285327
  H     -2.279617   -1.267238    2.166035

 Total Charge           Charge          ....    0
 Multiplicity           Mult            ....    1
 Number of Electrons    NEL             ....  202
 Basis Dimension        Dim             ....  539

ORBITAL ENERGIES
----------------

  NO   OCC          E(Eh)            E(eV)
   0   2.0000     -88.577443     -2410.3148
   1   2.0000     -88.575089     -2410.2507
   2   2.0000     -88.524216     -2408.8664
   3   2.0000     -88.517466     -2408.6827
   4   2.0000     -76.917108     -2093.0209
   5   2.0000     -76.913593     -2092.9253
   6   2.0000     -18.996233      -516.9138
   7   2.0000     -18.995309      -516.8886
   8   2.0000     -18.993119      -516.8290
   9   2.0000     -18.987608      -516.6791
  10   2.0000     -10.105396      -274.9818
  11   2.0000     -10.102946      -274.9151
  12   2.0000     -10.100196      -274.8403
  13   2.0000     -10.098907      -274.8052
  14   2.0000     -10.097394      -274.7641
  15   2.0000     -10.034630      -273.0562
  16   2.0000     -10.033568      -273.0273
  17   2.0000     -10.031430      -272.9691
  18   2.0000     -10.028572      -272.8913
  19   2.0000      -7.871430      -214.1925
  20   2.0000      -7.869557      -214.1415
  21   2.0000      -7.819082      -212.7680
  22   2.0000      -7.812321      -212.5841
  23   2.0000      -6.595764      -179.4799
  24   2.0000      -6.591897      -179.3746
  25   2.0000      -5.818284      -158.3236
  26   2.0000      -5.816333      -158.2705
  27   2.0000      -5.815335      -158.2433
  28   2.0000      -5.813408      -158.1909
  29   2.0000      -5.808590      -158.0598
  30   2.0000      -5.806754      -158.0098
  31   2.0000      -5.766646      -156.9184
  32   2.0000      -5.760011      -156.7379
  33   2.0000      -5.759434      -156.7222
  34   2.0000      -5.759076      -156.7124
  35   2.0000      -5.752555      -156.5350
  36   2.0000      -5.752304      -156.5282
  37   2.0000      -4.741217      -129.0151
  38   2.0000      -4.740671      -129.0002
  39   2.0000      -4.739522      -128.9689
  40   2.0000      -4.737592      -128.9164
  41   2.0000      -4.736909      -128.8978
  42   2.0000      -4.735404      -128.8569
  43   2.0000      -1.053990       -28.6805
  44   2.0000      -1.048749       -28.5379
  45   2.0000      -1.014564       -27.6077
  46   2.0000      -1.009314       -27.4648
  47   2.0000      -0.802807       -21.8455
  48   2.0000      -0.761795       -20.7295
  49   2.0000      -0.751906       -20.4604
  50   2.0000      -0.735858       -20.0237
  51   2.0000      -0.734556       -19.9883
  52   2.0000      -0.713287       -19.4095
  53   2.0000      -0.686273       -18.6745
  54   2.0000      -0.669319       -18.2131
  55   2.0000      -0.632413       -17.2088
  56   2.0000      -0.625940       -17.0327
  57   2.0000      -0.609046       -16.5730
  58   2.0000      -0.606490       -16.5034
  59   2.0000      -0.591277       -16.0895
  60   2.0000      -0.536651       -14.6030
  61   2.0000      -0.516258       -14.0481
  62   2.0000      -0.500786       -13.6271
  63   2.0000      -0.489589       -13.3224
  64   2.0000      -0.478824       -13.0295
  65   2.0000      -0.463973       -12.6254
  66   2.0000      -0.461703       -12.5636
  67   2.0000      -0.456111       -12.4114
  68   2.0000      -0.452876       -12.3234
  69   2.0000      -0.439191       -11.9510
  70   2.0000      -0.425178       -11.5697
  71   2.0000      -0.415340       -11.3020
  72   2.0000      -0.407017       -11.0755
  73   2.0000      -0.404074       -10.9954
  74   2.0000      -0.396350       -10.7852
  75   2.0000      -0.393600       -10.7104
  76   2.0000      -0.383891       -10.4462
  77   2.0000      -0.379711       -10.3325
  78   2.0000      -0.371568       -10.1109
  79   2.0000      -0.369576       -10.0567
  80   2.0000      -0.367728       -10.0064
  81   2.0000      -0.361395        -9.8341
  82   2.0000      -0.359143        -9.7728
  83   2.0000      -0.356686        -9.7059
  84   2.0000      -0.350614        -9.5407
  85   2.0000      -0.333026        -9.0621
  86   2.0000      -0.323257        -8.7963
  87   2.0000      -0.317056        -8.6275
  88   2.0000      -0.308955        -8.4071
  89   2.0000      -0.308441        -8.3931
  90   2.0000      -0.306282        -8.3344
  91   2.0000      -0.297511        -8.0957
  92   2.0000      -0.284520        -7.7422
  93   2.0000      -0.278281        -7.5724
  94   2.0000      -0.275478        -7.4961
  95   2.0000      -0.248843        -6.7714
  96   2.0000      -0.231629        -6.3030
  97   2.0000      -0.227394        -6.1877
  98   2.0000      -0.218211        -5.9378
  99   2.0000      -0.215219        -5.8564
 100   2.0000      -0.214361        -5.8331
 101   0.0000      -0.047136        -1.2826
 102   0.0000      -0.027482        -0.7478
 103   0.0000      -0.003324        -0.0905
 104   0.0000       0.000201         0.0055
 105   0.0000       0.012644         0.3441

MULLIKEN ATOMIC CHARGES
-----------------------
   0 C :   -0.444373
   1 C :   -0.143371
   2 O :   -0.290067
   3 P :    0.669837
   4 S :   -0.486812
   5 O :   -0.266195
   6 C :   -0.126859
   7 C :   -0.457857
   8 S :   -0.116832
   9 C :   -0.249721
  10 S :   -0.155587
  11 P :    0.656843
  12 S :   -0.460944
  13 O :   -0.265924
  14 C :   -0.169662
  15 C :   -0.441106
  16 O :   -0.257494
  17 C :   -0.160600
  18 C :   -0.454574
  19 H :    0.155686
  20 H :    0.154434
  21 H :    0.147624
  22 H :    0.151995
  23 H :    0.169497
  24 H :    0.151082
  25 H :    0.161490
  26 H :    0.153010
  27 H :    0.146638
  28 H :    0.179908
  29 H :    0.222348
  30 H :    0.214966
  31 H :    0.176045
  32 H :    0.148197
  33 H :    0.177088
  34 H :    0.147626
  35 H :    0.152146
  36 H :    0.152050
  37 H :    0.189170
  38 H :    0.161963
  39 H :    0.150999
  40 H :    0.157339
Sum of atomic charges:    0.0000000

LOEWDIN ATOMIC CHARGES
----------------------
   0 C :   -0.385954
   1 C :    0.021852
   2 O :   -0.661891
   3 P :    0.372293
   4 S :   -0.140118
   5 O :   -0.686909
   6 C :    0.023826
   7 C :   -0.401562
   8 S :    0.179388
   9 C :   -0.425058
  10 S :    0.144084
  11 P :    0.386832
  12 S :   -0.108358
  13 O :   -0.671733
  14 C :    0.021289
  15 C :   -0.408104
  16 O :   -0.650547
  17 C :    0.021798
  18 C :   -0.404671
  19 H :    0.160127
  20 H :    0.160047
  21 H :    0.160463
  22 H :    0.172479
  23 H :    0.181189
  24 H :    0.177641
  25 H :    0.179499
  26 H :    0.158611
  27 H :    0.158775
  28 H :    0.168067
  29 H :    0.193699
  30 H :    0.193156
  31 H :    0.181234
  32 H :    0.179176
  33 H :    0.165730
  34 H :    0.159246
  35 H :    0.159131
  36 H :    0.182922
  37 H :    0.196377
  38 H :    0.164967
  39 H :    0.159369
  40 H :    0.161638

  Mayer bond orders larger than 0.100000
B(  0-C ,  1-C ) :   0.9590 B(  0-C , 19-H ) :   0.9724 B(  0-C , 20-H ) :   0.9715
B(  0-C , 21-H ) :   0.9644 B(  1-C ,  2-O ) :   0.7730 B(  1-C , 22-H ) :   0.9445
B(  1-C , 23-H ) :   0.9518 B(  2-O ,  3-P ) :   1.0977 B(  3-P ,  4-S ) :   1.7454
B(  3-P ,  5-O ) :   1.1517 B(  3-P ,  8-S ) :   1.0883 B(  5-O ,  6-C ) :   0.7522
B(  6-C ,  7-C ) :   0.9480 B(  6-C , 24-H ) :   0.9615 B(  6-C , 25-H ) :   0.9619
B(  7-C , 26-H ) :   0.9652 B(  7-C , 27-H ) :   0.9638 B(  7-C , 28-H ) :   0.9623
B(  8-S ,  9-C ) :   0.9135 B(  9-C , 10-S ) :   0.9111 B(  9-C , 29-H ) :   0.9027
B(  9-C , 30-H ) :   0.9007 B( 10-S , 11-P ) :   0.9896 B( 11-P , 12-S ) :   1.8041
B( 11-P , 13-O ) :   1.0420 B( 11-P , 16-O ) :   1.1867 B( 13-O , 14-C ) :   0.8095
B( 14-C , 15-C ) :   0.9135 B( 14-C , 31-H ) :   0.9677 B( 14-C , 32-H ) :   0.9617
B( 15-C , 33-H ) :   0.9641 B( 15-C , 34-H ) :   0.9572 B( 15-C , 35-H ) :   0.9686
B( 16-O , 17-C ) :   0.8109 B( 17-C , 18-C ) :   0.9001 B( 17-C , 36-H ) :   0.9611
B( 17-C , 37-H ) :   0.9504 B( 18-C , 38-H ) :   0.9651 B( 18-C , 39-H ) :   0.9609
B( 18-C , 40-H ) :   0.9654

Dispersion correction           -0.021605953
FINAL SINGLE POINT ENERGY     -2932.463168470371

DIPOLE MOMENT
-------------

Method             : SCF
Type of density    : Electron Density
Multiplicity       :   1
Irrep              :   0
Energy             : -2932.4881309411571237 Eh
Relativity type    :
Basis              : AO
                                X                 Y                 Z
Electronic contribution:     -2.278140248       7.425452862     -14.222804060
Nuclear contribution   :      2.569364994      -8.400607625      15.464770687
                        -----------------------------------------
Total Dipole Moment    :      0.291224746      -0.975154763       1.241966627
                        -----------------------------------------
Magnitude (a.u.)       :      1.605683583
Magnitude (Debye)      :      4.081323319

Rotational constants in cm-1:             0.013459             0.004632             0.004366
Rotational constants in MHz :           403.489250           138.855634           130.898139

                             ****ORCA TERMINATED NORMALLY****
TOTAL RUN TIME: 0 days 0 hours 1 minutes 24 seconds 261 msec
