                         Program Version 6.0.0  -   RELEASE  -
|  1> ! r2scan-3c def2/J RI DEFGRID2 scfconv6 printgap
|  2> %output
|  3>     printlevel normal
|  4> end
|  5> %cpcm
|  6>     smd true
|  7>     smdsolvent "water"
|  8> end
|  9> * xyz 0 1
| 10> C 5.4671512507 -1.8278729326 -1.8119393413
| 11> C 4.3643302006 -0.7896891078 -1.7584691436
| 12> O 3.3380207656 -1.2737681548 -0.8690972367
| 13> P 2.3544838748 -0.2949381212 -0.0953311048
| 14> S 3.2360385074 1.245146406 0.7454942276
| 15> O 1.6094043438 -1.3074681545 0.862941833
| 16> C 2.0693672076 -1.5737072072 2.2128026143
| 17> C 1.2346662733 -0.8023749607 3.2144157776
| 18> S 0.8502153489 0.1351924506 -1.5131280369
| 19> C 0.1300272679 1.5377219853 -0.6103391903
| 20> S -0.890631647 1.018498079 0.7829851879
| 21> P -2.5147093115 0.2647315748 -0.3827763162
| 22> S -2.8398810563 1.174498998 -2.0845274685
| 23> O -3.7519906128 0.2575197553 0.6145332697
| 24> C -4.6265000549 1.388835245 0.7673697425
| 25> C -3.93096881 2.5731998322 1.4071636754
| 26> O -2.2339245035 -1.2695965074 -0.6093772343
| 27> C -1.6771290429 -2.2157167906 0.3345307482
| 28> C -2.4032840745 -2.2242084066 1.6621378758
| 29> H 5.9076247478 -1.957678558 -0.8273895076
| 30> H 5.0635325053 -2.7792630354 -2.1460140734
| 31> H 6.2329534804 -1.4975746163 -2.5060346269
| 32> H 3.9127440392 -0.6347672957 -2.741677551
| 33> H 4.7349849923 0.1683839196 -1.3779813905
| 34> H 1.9571813623 -2.6516522235 2.3360995366
| 35> H 3.1248215366 -1.3008406218 2.2919054594
| 36> H 0.1834909001 -1.0494775503 3.1004910215
| 37> H 1.5592271176 -1.0559643684 4.2183375912
| 38> H 1.3579471427 0.2675680986 3.0597711022
| 39> H -0.4849280267 2.0832759929 -1.3268445299
| 40> H 0.9317913914 2.1600342069 -0.2115594206
| 41> H -5.0169034041 1.6597053036 -0.2186079858
| 42> H -5.4339377032 1.008997765 1.3948622375
| 43> H -3.1820473017 2.9773947436 0.7279115936
| 44> H -4.6631623297 3.3455660353 1.6195938144
| 45> H -3.4429139259 2.2741945754 2.3312057779
| 46> H -1.7757038583 -3.1696834827 -0.1860466199
| 47> H -0.6172660223 -1.9812815233 0.4661845154
| 48> H -3.4643696457 -2.4030007662 1.5092014084
| 49> H -1.9919838291 -3.0127186309 2.2853270476
| 50> H -2.2796165582 -1.2672380768 2.1660346577
| 51> *
| 52>
| 53>                          ****END OF INPUT****

CARTESIAN COORDINATES (ANGSTROEM)
---------------------------------
  C      5.467151   -1.827873   -1.811939
  C      4.364330   -0.789689   -1.758469
  O      3.338021   -1.273768   -0.869097
  P      2.354484   -0.294938   -0.095331
  S      3.236039    1.245146    0.745494
  O      1.609404   -1.307468    0.862942
  C      2.069367   -1.573707    2.212803
  C      1.234666   -0.802375    3.214416
  S      0.850215    0.135192   -1.513128
  C      0.130027    1.537722   -0.610339
  S     -0.890632    1.018498    0.782985
  P     -2.514709    0.264732   -0.382776
  S     -2.839881    1.174499   -2.084527
  O     -3.751991    0.257520    0.614533
  C     -4.626500    1.388835    0.767370
  C     -3.930969    2.573200    1.407164
  O     -2.233925   -1.269597   -0.609377
  C     -1.677129   -2.215717    0.334531
  C     -2.403284   -2.224208    1.662138
  H      5.907625   -1.957679   -0.827390
  H      5.063533   -2.779263   -2.146014
  H      6.232953   -1.497575   -2.506035
  H      3.912744   -0.634767   -2.741678
  H      4.734985    0.168384   -1.377981
  H      1.957181   -2.651652    2.336100
  H      3.124822   -1.300841    2.291905
  H      0.183491   -1.049478    3.100491
  H      1.559227   -1.055964    4.218338
  H      1.357947    0.267568    3.059771
  H     -0.484928    2.083276   -1.326845
  H      0.931791    2.160034   -0.211559
  H     -5.016903    1.659705   -0.218608
  H     -5.433938    1.008998    1.394862
  H     -3.182047    2.977395    0.727912
  H     -4.663162    3.345566    1.619594
  H     -3.442914    2.274195    2.331206
  H     -1.775704   -3.169683   -0.186047
  H     -0.617266   -1.981282    0.466185
  H     -3.464370   -2.403001    1.509201
  H     -1.991984   -3.012719    2.285327
  H     -2.279617   -1.267238    2.166035

 Total Charge           Charge          ....    0
 Multiplicity           Mult            ....    1
 Number of Electrons    NEL             ....  202
 Basis Dimension        Dim             ....  539

ORBITAL ENERGIES
----------------

  NO   OCC          E(Eh)            E(eV)
   0   2.0000     -88.581940     -2410.4371
   1   2.0000     -88.578159     -2410.3343
   2   2.0000     -88.529054     -2408.9980
   3   2.0000     -88.528761     -2408.9900
   4   2.0000     -76.920742     -2093.1198
   5   2.0000     -76.920014     -2093.1000
   6   2.0000     -18.995990      -516.9072
   7   2.0000     -18.995663      -516.8983
   8   2.0000     -18.993997      -516.8529
   9   2.0000     -18.993835      -516.8485
  10   2.0000     -10.103968      -274.9430
  11   2.0000     -10.091115      -274.5932
  12   2.0000     -10.090049      -274.5642
  13   2.0000     -10.089987      -274.5625
  14   2.0000     -10.089812      -274.5578
  15   2.0000     -10.020166      -272.6626
  16   2.0000     -10.019541      -272.6456
  17   2.0000     -10.018190      -272.6088
  18   2.0000     -10.016959      -272.5753
  19   2.0000      -7.876066      -214.3187
  20   2.0000      -7.872534      -214.2225
  21   2.0000      -7.824189      -212.9070
  22   2.0000      -7.823981      -212.9013
  23   2.0000      -6.599120      -179.5712
  24   2.0000      -6.598667      -179.5589
  25   2.0000      -5.822863      -158.4481
  26   2.0000      -5.819944      -158.3687
  27   2.0000      -5.819364      -158.3530
  28   2.0000      -5.816415      -158.2727
  29   2.0000      -5.813307      -158.1881
  30   2.0000      -5.809657      -158.0888
  31   2.0000      -5.771709      -157.0562
  32   2.0000      -5.771547      -157.0518
  33   2.0000      -5.764553      -156.8615
  34   2.0000      -5.764236      -156.8528
  35   2.0000      -5.764165      -156.8509
  36   2.0000      -5.763997      -156.8463
  37   2.0000      -4.744783      -129.1121
  38   2.0000      -4.744067      -129.0926
  39   2.0000      -4.744037      -129.0918
  40   2.0000      -4.743579      -129.0794
  41   2.0000      -4.742753      -129.0569
  42   2.0000      -4.742539      -129.0511
  43   2.0000      -1.052977       -28.6530
  44   2.0000      -1.052606       -28.6429
  45   2.0000      -1.013047       -27.5664
  46   2.0000      -1.012616       -27.5547
  47   2.0000      -0.805365       -21.9151
  48   2.0000      -0.757225       -20.6052
  49   2.0000      -0.746081       -20.3019
  50   2.0000      -0.726137       -19.7592
  51   2.0000      -0.723575       -19.6895
  52   2.0000      -0.711760       -19.3680
  53   2.0000      -0.688873       -18.7452
  54   2.0000      -0.674874       -18.3642
  55   2.0000      -0.631268       -17.1777
  56   2.0000      -0.620460       -16.8836
  57   2.0000      -0.603351       -16.4180
  58   2.0000      -0.596617       -16.2348
  59   2.0000      -0.588840       -16.0231
  60   2.0000      -0.530809       -14.4441
  61   2.0000      -0.513515       -13.9735
  62   2.0000      -0.494079       -13.4446
  63   2.0000      -0.487130       -13.2555
  64   2.0000      -0.478633       -13.0243
  65   2.0000      -0.459167       -12.4946
  66   2.0000      -0.457192       -12.4408
  67   2.0000      -0.449838       -12.2407
  68   2.0000      -0.445691       -12.1279
  69   2.0000      -0.436131       -11.8677
  70   2.0000      -0.422733       -11.5031
  71   2.0000      -0.410507       -11.1705
  72   2.0000      -0.401021       -10.9123
  73   2.0000      -0.397686       -10.8216
  74   2.0000      -0.394491       -10.7347
  75   2.0000      -0.390815       -10.6346
  76   2.0000      -0.382330       -10.4037
  77   2.0000      -0.375511       -10.2182
  78   2.0000      -0.360308        -9.8045
  79   2.0000      -0.360046        -9.7973
  80   2.0000      -0.357418        -9.7258
  81   2.0000      -0.353079        -9.6078
  82   2.0000      -0.352115        -9.5815
  83   2.0000      -0.348165        -9.4740
  84   2.0000      -0.344200        -9.3662
  85   2.0000      -0.328758        -8.9460
  86   2.0000      -0.316648        -8.6164
  87   2.0000      -0.312119        -8.4932
  88   2.0000      -0.307020        -8.3545
  89   2.0000      -0.304682        -8.2908
  90   2.0000      -0.302077        -8.2199
  91   2.0000      -0.292414        -7.9570
  92   2.0000      -0.284527        -7.7424
  93   2.0000      -0.277842        -7.5605
  94   2.0000      -0.277057        -7.5391
  95   2.0000      -0.252229        -6.8635
  96   2.0000      -0.237537        -6.4637
  97   2.0000      -0.234937        -6.3930
  98   2.0000      -0.226234        -6.1561
  99   2.0000      -0.225710        -6.1419
 100   2.0000      -0.221400        -6.0246
 101   0.0000      -0.052162        -1.4194
 102   0.0000      -0.033419        -0.9094
 103   0.0000      -0.006591        -0.1794
 104   0.0000      -0.004184        -0.1138
 105   0.0000       0.012755         0.3471

MULLIKEN ATOMIC CHARGES
-----------------------
   0 C :   -0.484867
   1 C :   -0.139421
   2 O :   -0.314713
   3 P :    0.701808
   4 S :   -0.528571
   5 O :   -0.284274
   6 C :   -0.120784
   7 C :   -0.495882
   8 S :   -0.145324
   9 C :   -0.255449
  10 S :   -0.142272
  11 P :    0.668702
  12 S :   -0.517491
  13 O :   -0.285741
  14 C :   -0.162033
  15 C :   -0.479627
  16 O :   -0.295287
  17 C :   -0.153789
  18 C :   -0.483096
  19 H :    0.166402
  20 H :    0.165825
  21 H :    0.169540
  22 H :    0.172134
  23 H :    0.170799
  24 H :    0.177513
  25 H :    0.172172
  26 H :    0.169444
  27 H :    0.170154
  28 H :    0.170099
  29 H :    0.236337
  30 H :    0.233087
  31 H :    0.178839
  32 H :    0.175946
  33 H :    0.172406
  34 H :    0.172003
  35 H :    0.168631
  36 H :    0.176342
  37 H :    0.187341
  38 H :    0.170599
  39 H :    0.177556
  40 H :    0.164943
Sum of atomic charges:   -0.0000000

LOEWDIN ATOMIC CHARGES
----------------------
   0 C :   -0.389973
   1 C :    0.025535
   2 O :   -0.674154
   3 P :    0.377631
   4 S :   -0.166210
   5 O :   -0.691423
   6 C :    0.030963
   7 C :   -0.404695
   8 S :    0.160474
   9 C :   -0.420415
  10 S :    0.156261
  11 P :    0.388645
  12 S :   -0.151666
  13 O :   -0.678780
  14 C :    0.026818
  15 C :   -0.410719
  16 O :   -0.674855
  17 C :    0.027154
  18 C :   -0.403598
  19 H :    0.162473
  20 H :    0.163147
  21 H :    0.168915
  22 H :    0.180293
  23 H :    0.181875
  24 H :    0.189569
  25 H :    0.182643
  26 H :    0.163322
  27 H :    0.167204
  28 H :    0.162113
  29 H :    0.197701
  30 H :    0.198357
  31 H :    0.181756
  32 H :    0.191109
  33 H :    0.161462
  34 H :    0.168116
  35 H :    0.163584
  36 H :    0.192694
  37 H :    0.196742
  38 H :    0.165855
  39 H :    0.170714
  40 H :    0.163363

  Mayer bond orders larger than 0.100000
B(  0-C ,  1-C ) :   0.9546 B(  0-C , 19-H ) :   0.9697 B(  0-C , 20-H ) :   0.9687
B(  0-C , 21-H ) :   0.9588 B(  1-C ,  2-O ) :   0.7653 B(  1-C , 22-H ) :   0.9362
B(  1-C , 23-H ) :   0.9490 B(  2-O ,  3-P ) :   1.1036 B(  3-P ,  4-S ) :   1.7137
B(  3-P ,  5-O ) :   1.1662 B(  3-P ,  8-S ) :   1.0939 B(  5-O ,  6-C ) :   0.7398
B(  6-C ,  7-C ) :   0.9350 B(  6-C , 24-H ) :   0.9498 B(  6-C , 25-H ) :   0.9598
B(  7-C , 26-H ) :   0.9633 B(  7-C , 27-H ) :   0.9594 B(  7-C , 28-H ) :   0.9655
B(  8-S ,  9-C ) :   0.9006 B(  9-C , 10-S ) :   0.9027 B(  9-C , 29-H ) :   0.8988
B(  9-C , 30-H ) :   0.8982 B( 10-S , 11-P ) :   1.0081 B( 11-P , 12-S ) :   1.7825
B( 11-P , 13-O ) :   1.0524 B( 11-P , 16-O ) :   1.1874 B( 13-O , 14-C ) :   0.7979
B( 14-C , 15-C ) :   0.9034 B( 14-C , 31-H ) :   0.9660 B( 14-C , 32-H ) :   0.9507
B( 15-C , 33-H ) :   0.9652 B( 15-C , 34-H ) :   0.9520 B( 15-C , 35-H ) :   0.9657
B( 16-O , 17-C ) :   0.8016 B( 17-C , 18-C ) :   0.8984 B( 17-C , 36-H ) :   0.9503
B( 17-C , 37-H ) :   0.9438 B( 18-C , 38-H ) :   0.9668 B( 18-C , 39-H ) :   0.9522
B( 18-C , 40-H ) :   0.9592

Dispersion correction           -0.021605953
FINAL SINGLE POINT ENERGY     -2932.472032258255

DIPOLE MOMENT
-------------

Method             : SCF
Type of density    : Electron Density
Multiplicity       :   1
Irrep              :   0
Energy             : -2932.4969947290410346 Eh
Relativity type    :
Basis              : AO
                                X                 Y                 Z
Electronic contribution:     -2.180654229       7.183529023     -13.573103944
Nuclear contribution   :      2.569364994      -8.400607625      15.464770687
                        -----------------------------------------
Total Dipole Moment    :      0.388710765      -1.217078602       1.891666743
                        -----------------------------------------
Magnitude (a.u.)       :      2.282713177
Magnitude (Debye)      :      5.802195789

Rotational constants in cm-1:             0.013459             0.004632             0.004366
Rotational constants in MHz :           403.489250           138.855634           130.898139

                             ****ORCA TERMINATED NORMALLY****
TOTAL RUN TIME: 0 days 0 hours 1 minutes 55 seconds 717 msec
