                         Program Version 6.0.0  -   RELEASE  -
|  1> ! pbe def2-sv(p) def2/J RI DEFGRID1 loosescf d4 GCP(DFT/SV(P)) printgap
|  2> %output
|  3>     printlevel normal
|  4> end
|  5> * xyz 0 1
|  6> C 4.8367836695 0.0841547723 -1.4031525873
|  7> C 4.024184804 1.3588383487 -1.322431298
|  8> O 3.2903027375 1.4734525108 -0.0816486306
|  9> P 2.1824533981 0.4892468563 0.4738609665
| 10> S 1.2899432678 1.3509184462 1.982448646
| 11> O 2.9064810481 -0.8872436166 0.8368528141
| 12> C 2.9462726662 -1.4590877185 2.1592453745
| 13> C 1.9737843995 -2.6140984235 2.2910168777
| 14> S 1.1135690095 -0.013448102 -1.2961565321
| 15> C 0.2378059056 -1.4844989495 -0.7003984811
| 16> S -0.9858849172 -1.1351099942 0.5885569975
| 17> P -2.3391874217 -0.0651808929 -0.6588010909
| 18> S -2.4658939243 -0.6910544047 -2.50525191
| 19> O -1.8992392805 1.4484265913 -0.581174982
| 20> C -1.9563239821 2.2359659762 0.6349411036
| 21> C -1.2716253708 3.5558236036 0.3537787172
| 22> O -3.693315168 -0.054929867 0.1748448756
| 23> C -4.676853582 -1.1025005105 0.0704066817
| 24> C -4.1620383432 -2.4332560438 0.5783745352
| 25> H 4.1790499951 -0.781734392 -1.4256927763
| 26> H 5.4311541182 0.1011106849 -2.3114394219
| 27> H 5.497445798 0.0042886492 -0.5438324267
| 28> H 3.3131918194 1.4242109518 -2.1499370737
| 29> H 4.662563123 2.2440378851 -1.3159814155
| 30> H 3.9773771683 -1.7931312121 2.2860075727
| 31> H 2.7192554156 -0.6777515944 2.8912587543
| 32> H 2.1759797485 -3.370524417 1.5373612214
| 33> H 2.0897251336 -3.0573933901 3.2747892593
| 34> H 0.9482870715 -2.261907312 2.1862828473
| 35> H 0.9491155785 -2.1941611882 -0.287084592
| 36> H -0.2715829508 -1.8921110226 -1.5747370032
| 37> H -3.005992631 2.3717755889 0.9005768
| 38> H -1.4461938924 1.6906370233 1.4350466783
| 39> H -1.7436054205 4.0510158039 -0.4899210423
| 40> H -1.3418152954 4.1844713077 1.2353687962
| 41> H -0.2215621462 3.3898813424 0.124307013
| 42> H -5.5081769181 -0.7342456916 0.6732507301
| 43> H -4.9818375491 -1.1821669357 -0.9773654057
| 44> H -3.7486657135 -2.3237163731 1.5780266622
| 45> H -4.9802686387 -3.145779241 0.6022874568
| 46> H -3.3859655564 -2.8105086866 -0.0857408389
| 47> *
| 48>
| 49>                          ****END OF INPUT****

CARTESIAN COORDINATES (ANGSTROEM)
---------------------------------
  C      4.836784    0.084155   -1.403153
  C      4.024185    1.358838   -1.322431
  O      3.290303    1.473453   -0.081649
  P      2.182453    0.489247    0.473861
  S      1.289943    1.350918    1.982449
  O      2.906481   -0.887244    0.836853
  C      2.946273   -1.459088    2.159245
  C      1.973784   -2.614098    2.291017
  S      1.113569   -0.013448   -1.296157
  C      0.237806   -1.484499   -0.700398
  S     -0.985885   -1.135110    0.588557
  P     -2.339187   -0.065181   -0.658801
  S     -2.465894   -0.691054   -2.505252
  O     -1.899239    1.448427   -0.581175
  C     -1.956324    2.235966    0.634941
  C     -1.271625    3.555824    0.353779
  O     -3.693315   -0.054930    0.174845
  C     -4.676854   -1.102501    0.070407
  C     -4.162038   -2.433256    0.578375
  H      4.179050   -0.781734   -1.425693
  H      5.431154    0.101111   -2.311439
  H      5.497446    0.004289   -0.543832
  H      3.313192    1.424211   -2.149937
  H      4.662563    2.244038   -1.315981
  H      3.977377   -1.793131    2.286008
  H      2.719255   -0.677752    2.891259
  H      2.175980   -3.370524    1.537361
  H      2.089725   -3.057393    3.274789
  H      0.948287   -2.261907    2.186283
  H      0.949116   -2.194161   -0.287085
  H     -0.271583   -1.892111   -1.574737
  H     -3.005993    2.371776    0.900577
  H     -1.446194    1.690637    1.435047
  H     -1.743605    4.051016   -0.489921
  H     -1.341815    4.184471    1.235369
  H     -0.221562    3.389881    0.124307
  H     -5.508177   -0.734246    0.673251
  H     -4.981838   -1.182167   -0.977365
  H     -3.748666   -2.323716    1.578027
  H     -4.980269   -3.145779    0.602287
  H     -3.385966   -2.810509   -0.085741

 Total Charge           Charge          ....    0
 Multiplicity           Mult            ....    1
 Number of Electrons    NEL             ....  202
 Basis Dimension        Dim             ....  334

ORBITAL ENERGIES
----------------

  NO   OCC          E(Eh)            E(eV)
   0   2.0000     -88.044163     -2395.8035
   1   2.0000     -88.041890     -2395.7416
   2   2.0000     -87.985238     -2394.2000
   3   2.0000     -87.983707     -2394.1584
   4   2.0000     -76.428206     -2079.7172
   5   2.0000     -76.423750     -2079.5960
   6   2.0000     -18.797230      -511.4986
   7   2.0000     -18.793514      -511.3975
   8   2.0000     -18.792385      -511.3668
   9   2.0000     -18.782344      -511.0936
  10   2.0000      -9.958996      -270.9981
  11   2.0000      -9.958431      -270.9827
  12   2.0000      -9.955533      -270.9038
  13   2.0000      -9.954018      -270.8626
  14   2.0000      -9.939740      -270.4741
  15   2.0000      -9.892295      -269.1830
  16   2.0000      -9.888969      -269.0925
  17   2.0000      -9.884899      -268.9818
  18   2.0000      -9.871577      -268.6193
  19   2.0000      -7.689054      -209.2298
  20   2.0000      -7.686454      -209.1590
  21   2.0000      -7.630521      -207.6370
  22   2.0000      -7.628947      -207.5942
  23   2.0000      -6.425498      -174.8467
  24   2.0000      -6.421269      -174.7316
  25   2.0000      -5.717003      -155.5676
  26   2.0000      -5.714202      -155.4913
  27   2.0000      -5.713534      -155.4732
  28   2.0000      -5.711080      -155.4064
  29   2.0000      -5.706007      -155.2683
  30   2.0000      -5.703498      -155.2001
  31   2.0000      -5.659471      -154.0020
  32   2.0000      -5.657945      -153.9605
  33   2.0000      -5.651060      -153.7732
  34   2.0000      -5.650699      -153.7633
  35   2.0000      -5.649406      -153.7282
  36   2.0000      -5.649078      -153.7192
  37   2.0000      -4.648490      -126.4918
  38   2.0000      -4.647219      -126.4573
  39   2.0000      -4.645687      -126.4156
  40   2.0000      -4.644159      -126.3740
  41   2.0000      -4.642847      -126.3383
  42   2.0000      -4.641650      -126.3057
  43   2.0000      -0.985833       -26.8259
  44   2.0000      -0.984265       -26.7832
  45   2.0000      -0.948331       -25.8054
  46   2.0000      -0.939004       -25.5516
  47   2.0000      -0.764749       -20.8099
  48   2.0000      -0.722661       -19.6646
  49   2.0000      -0.709231       -19.2992
  50   2.0000      -0.696444       -18.9512
  51   2.0000      -0.685745       -18.6601
  52   2.0000      -0.672557       -18.3012
  53   2.0000      -0.650680       -17.7059
  54   2.0000      -0.637794       -17.3553
  55   2.0000      -0.597615       -16.2619
  56   2.0000      -0.592089       -16.1115
  57   2.0000      -0.579939       -15.7809
  58   2.0000      -0.566000       -15.4016
  59   2.0000      -0.559153       -15.2153
  60   2.0000      -0.503173       -13.6920
  61   2.0000      -0.497212       -13.5298
  62   2.0000      -0.481298       -13.0968
  63   2.0000      -0.470805       -12.8113
  64   2.0000      -0.461479       -12.5575
  65   2.0000      -0.448198       -12.1961
  66   2.0000      -0.439450       -11.9580
  67   2.0000      -0.437114       -11.8945
  68   2.0000      -0.428476       -11.6594
  69   2.0000      -0.416535       -11.3345
  70   2.0000      -0.406322       -11.0566
  71   2.0000      -0.400731       -10.9044
  72   2.0000      -0.389943       -10.6109
  73   2.0000      -0.385594       -10.4925
  74   2.0000      -0.380128       -10.3438
  75   2.0000      -0.377277       -10.2662
  76   2.0000      -0.365246        -9.9389
  77   2.0000      -0.360156        -9.8003
  78   2.0000      -0.354647        -9.6504
  79   2.0000      -0.352923        -9.6035
  80   2.0000      -0.345491        -9.4013
  81   2.0000      -0.345151        -9.3920
  82   2.0000      -0.340911        -9.2767
  83   2.0000      -0.336798        -9.1648
  84   2.0000      -0.329351        -8.9621
  85   2.0000      -0.319692        -8.6993
  86   2.0000      -0.308069        -8.3830
  87   2.0000      -0.304609        -8.2888
  88   2.0000      -0.295248        -8.0341
  89   2.0000      -0.293623        -7.9899
  90   2.0000      -0.288031        -7.8377
  91   2.0000      -0.275138        -7.4869
  92   2.0000      -0.267161        -7.2698
  93   2.0000      -0.264138        -7.1876
  94   2.0000      -0.256812        -6.9882
  95   2.0000      -0.240708        -6.5500
  96   2.0000      -0.216897        -5.9021
  97   2.0000      -0.206915        -5.6304
  98   2.0000      -0.205982        -5.6051
  99   2.0000      -0.199414        -5.4263
 100   2.0000      -0.191818        -5.2196
 101   0.0000      -0.047794        -1.3005
 102   0.0000      -0.026549        -0.7224
 103   0.0000      -0.009993        -0.2719
 104   0.0000       0.000374         0.0102
 105   0.0000       0.014311         0.3894

MULLIKEN ATOMIC CHARGES
-----------------------
   0 C :   -0.304243
   1 C :   -0.019360
   2 O :   -0.365334
   3 P :    0.617320
   4 S :   -0.305791
   5 O :   -0.389325
   6 C :   -0.009346
   7 C :   -0.321443
   8 S :   -0.084997
   9 C :   -0.375427
  10 S :   -0.100670
  11 P :    0.628712
  12 S :   -0.320618
  13 O :   -0.355001
  14 C :   -0.025376
  15 C :   -0.271816
  16 O :   -0.386198
  17 C :    0.000564
  18 C :   -0.318054
  19 H :    0.123378
  20 H :    0.113875
  21 H :    0.116252
  22 H :    0.123235
  23 H :    0.113092
  24 H :    0.103824
  25 H :    0.117722
  26 H :    0.122188
  27 H :    0.116728
  28 H :    0.134855
  29 H :    0.190415
  30 H :    0.195317
  31 H :    0.100443
  32 H :    0.121927
  33 H :    0.111532
  34 H :    0.104677
  35 H :    0.119853
  36 H :    0.105639
  37 H :    0.113471
  38 H :    0.118486
  39 H :    0.113605
  40 H :    0.125888
Sum of atomic charges:   -0.0000000

LOEWDIN ATOMIC CHARGES
----------------------
   0 C :   -0.366286
   1 C :   -0.115236
   2 O :   -0.241864
   3 P :    0.565856
   4 S :   -0.295849
   5 O :   -0.253426
   6 C :   -0.120621
   7 C :   -0.363717
   8 S :    0.090003
   9 C :   -0.482925
  10 S :    0.082547
  11 P :    0.574687
  12 S :   -0.313818
  13 O :   -0.233881
  14 C :   -0.118982
  15 C :   -0.351356
  16 O :   -0.247006
  17 C :   -0.115214
  18 C :   -0.371586
  19 H :    0.121378
  20 H :    0.131488
  21 H :    0.126697
  22 H :    0.111242
  23 H :    0.123579
  24 H :    0.117377
  25 H :    0.109706
  26 H :    0.123682
  27 H :    0.134654
  28 H :    0.118781
  29 H :    0.130079
  30 H :    0.130183
  31 H :    0.109290
  32 H :    0.104430
  33 H :    0.124546
  34 H :    0.129077
  35 H :    0.124334
  36 H :    0.119093
  37 H :    0.113562
  38 H :    0.123541
  39 H :    0.131391
  40 H :    0.120565

  Mayer bond orders larger than 0.100000
B(  0-C ,  1-C ) :   1.1665 B(  0-C , 19-H ) :   0.9350 B(  0-C , 20-H ) :   0.9367
B(  0-C , 21-H ) :   0.9459 B(  1-C ,  2-O ) :   0.9045 B(  1-C , 22-H ) :   0.9225
B(  1-C , 23-H ) :   0.9337 B(  2-O ,  3-P ) :   1.1385 B(  3-P ,  4-S ) :   1.6367
B(  3-P ,  5-O ) :   1.0616 B(  3-P ,  8-S ) :   0.9608 B(  4-S ,  8-S ) :   0.1026
B(  5-O ,  6-C ) :   0.9069 B(  6-C ,  7-C ) :   1.1710 B(  6-C , 24-H ) :   0.9313
B(  6-C , 25-H ) :   0.8999 B(  7-C , 26-H ) :   0.9379 B(  7-C , 27-H ) :   0.9357
B(  7-C , 28-H ) :   0.9301 B(  8-S ,  9-C ) :   1.0016 B(  9-C , 10-S ) :   1.0162
B(  9-C , 29-H ) :   0.8890 B(  9-C , 30-H ) :   0.8730 B( 10-S , 11-P ) :   0.9400
B( 10-S , 12-S ) :   0.1057 B( 11-P , 12-S ) :   1.6252 B( 11-P , 13-O ) :   1.1527
B( 11-P , 16-O ) :   1.0874 B( 13-O , 14-C ) :   0.8846 B( 14-C , 15-C ) :   1.1703
B( 14-C , 31-H ) :   0.9283 B( 14-C , 32-H ) :   0.9046 B( 15-C , 33-H ) :   0.9494
B( 15-C , 34-H ) :   0.9408 B( 15-C , 35-H ) :   0.9403 B( 16-O , 17-C ) :   0.9073
B( 17-C , 18-C ) :   1.1665 B( 17-C , 36-H ) :   0.9343 B( 17-C , 37-H ) :   0.9196
B( 18-C , 38-H ) :   0.9434 B( 18-C , 39-H ) :   0.9366 B( 18-C , 40-H ) :   0.9344

Dispersion correction           -0.066120762
FINAL SINGLE POINT ENERGY     -2929.519279699456

DIPOLE MOMENT
-------------

Method             : SCF
Type of density    : Electron Density
Multiplicity       :   1
Irrep              :   0
Energy             : -2929.6384274339488911 Eh
Relativity type    :
Basis              : AO
                                X                 Y                 Z
Electronic contribution:     -4.529670300       5.763290992      -6.697289870
Nuclear contribution   :      5.158662199      -6.680953646       7.301264172
                        -----------------------------------------
Total Dipole Moment    :      0.628991899      -0.917662654       0.603974302
                        -----------------------------------------
Magnitude (a.u.)       :      1.265906992
Magnitude (Debye)      :      3.217679860

Rotational constants in cm-1:             0.012069             0.005076             0.004836
Rotational constants in MHz :           361.821250           152.166343           144.966685

                             ****ORCA TERMINATED NORMALLY****
TOTAL RUN TIME: 0 days 0 hours 0 minutes 21 seconds 92 msec
