                         Program Version 6.0.1  -  RELEASE   -
|  1> ! pbe def2-sv(p) def2/J RI DEFGRID1 loosescf d4 GCP(DFT/SV(P)) printgap
|  2> %output
|  3>     printlevel normal
|  4> end
|  5> * xyz 0 1
|  6> C 2.2045096235 -3.7241492258 0.7127601443
|  7> C 2.7775222568 -2.3206888177 0.6737852623
|  8> O 2.3306144827 -1.678436867 -0.5356015904
|  9> C 2.0728012139 -0.3927720213 -0.5275963125
| 10> O 2.1778449038 0.33961832 0.4361115996
| 11> C 1.6461259273 0.1103511081 -1.8942579724
| 12> C 0.3435459237 0.9104555644 -1.801888572
| 13> H 0.232319177 1.5361853456 -2.6902036437
| 14> C 0.3147981718 1.7946089842 -0.568937671
| 15> O -0.4706069686 1.60462973 0.345543449
| 16> O 1.1470940072 2.7845976669 -0.6609475922
| 17> C 1.3196120151 3.6902965282 0.4531839204
| 18> C 2.7557148276 3.6083919919 0.9386872261
| 19> S -1.1373167117 -0.1581527124 -1.7919604484
| 20> P -1.7068433985 -0.4831593652 0.2257175104
| 21> S -0.4925788361 -1.0879879585 1.6506214025
| 22> O -2.872086936 0.5343671488 0.5989614124
| 23> C -2.869429939 1.4039805186 1.7308776623
| 24> O -2.7392719477 -1.6698641988 -0.1342114558
| 25> C -2.2920429835 -2.9839853973 -0.4666441258
| 26> H 1.1233885828 -3.6774824888 0.8139342026
| 27> H 2.4565507975 -4.2546440644 -0.2002407391
| 28> H 2.6137976718 -4.2532355231 1.56649139
| 29> H 3.8704606409 -2.335269101 0.6445862296
| 30> H 2.4415880772 -1.7271070308 1.5294671179
| 31> H 1.5247144603 -0.7285505073 -2.5773300635
| 32> H 2.4361339475 0.7723374659 -2.2551332634
| 33> H 1.0834474101 4.6827588204 0.0641663806
| 34> H 0.6167411604 3.4147415825 1.2427560281
| 35> H 3.4373164825 3.8926060562 0.1429593872
| 36> H 2.8869959096 4.2764292586 1.7832172015
| 37> H 2.9777502659 2.5899181313 1.2488626931
| 38> H -2.7207742141 2.4269171397 1.3888365327
| 39> H -2.0728334989 1.1280726273 2.424467948
| 40> H -3.8408342315 1.2925645975 2.2086759887
| 41> H -1.8510331355 -2.9945978978 -1.4638335901
| 42> H -3.1789104464 -3.6117665498 -0.4349449667
| 43> H -1.5601216024 -3.3246490754 0.2691508334
| 44> *
| 45>
| 46>                          ****END OF INPUT****

CARTESIAN COORDINATES (ANGSTROEM)
---------------------------------
  C      2.204510   -3.724149    0.712760
  C      2.777522   -2.320689    0.673785
  O      2.330614   -1.678437   -0.535602
  C      2.072801   -0.392772   -0.527596
  O      2.177845    0.339618    0.436112
  C      1.646126    0.110351   -1.894258
  C      0.343546    0.910456   -1.801889
  H      0.232319    1.536185   -2.690204
  C      0.314798    1.794609   -0.568938
  O     -0.470607    1.604630    0.345543
  O      1.147094    2.784598   -0.660948
  C      1.319612    3.690297    0.453184
  C      2.755715    3.608392    0.938687
  S     -1.137317   -0.158153   -1.791960
  P     -1.706843   -0.483159    0.225718
  S     -0.492579   -1.087988    1.650621
  O     -2.872087    0.534367    0.598961
  C     -2.869430    1.403981    1.730878
  O     -2.739272   -1.669864   -0.134211
  C     -2.292043   -2.983985   -0.466644
  H      1.123389   -3.677482    0.813934
  H      2.456551   -4.254644   -0.200241
  H      2.613798   -4.253236    1.566491
  H      3.870461   -2.335269    0.644586
  H      2.441588   -1.727107    1.529467
  H      1.524714   -0.728551   -2.577330
  H      2.436134    0.772337   -2.255133
  H      1.083447    4.682759    0.064166
  H      0.616741    3.414742    1.242756
  H      3.437316    3.892606    0.142959
  H      2.886996    4.276429    1.783217
  H      2.977750    2.589918    1.248863
  H     -2.720774    2.426917    1.388837
  H     -2.072833    1.128073    2.424468
  H     -3.840834    1.292565    2.208676
  H     -1.851033   -2.994598   -1.463834
  H     -3.178910   -3.611767   -0.434945
  H     -1.560122   -3.324649    0.269151

 Total Charge           Charge          ....    0
 Multiplicity           Mult            ....    1
 Number of Electrons    NEL             ....  174
 Basis Dimension        Dim             ....  316

ORBITAL ENERGIES
----------------

  NO   OCC          E(Eh)            E(eV)
   0   2.0000     -88.032836     -2395.4952
   1   2.0000     -87.963927     -2393.6201
   2   2.0000     -76.415313     -2079.3664
   3   2.0000     -18.819724      -512.1107
   4   2.0000     -18.806448      -511.7495
   5   2.0000     -18.770997      -510.7848
   6   2.0000     -18.765944      -510.6473
   7   2.0000     -18.760402      -510.4965
   8   2.0000     -18.740974      -509.9678
   9   2.0000     -10.032574      -273.0002
  10   2.0000     -10.015045      -272.5232
  11   2.0000      -9.955616      -270.9061
  12   2.0000      -9.955195      -270.8946
  13   2.0000      -9.941905      -270.5330
  14   2.0000      -9.927136      -270.1311
  15   2.0000      -9.926269      -270.1075
  16   2.0000      -9.918630      -269.8996
  17   2.0000      -9.886347      -269.0212
  18   2.0000      -9.880383      -268.8589
  19   2.0000      -7.677971      -208.9282
  20   2.0000      -7.609058      -207.0530
  21   2.0000      -6.410171      -174.4296
  22   2.0000      -5.706240      -155.2747
  23   2.0000      -5.702108      -155.1622
  24   2.0000      -5.694880      -154.9656
  25   2.0000      -5.638126      -153.4212
  26   2.0000      -5.629957      -153.1989
  27   2.0000      -5.628693      -153.1645
  28   2.0000      -4.632737      -126.0632
  29   2.0000      -4.632340      -126.0524
  30   2.0000      -4.630820      -126.0110
  31   2.0000      -1.031405       -28.0660
  32   2.0000      -1.012741       -27.5581
  33   2.0000      -0.964296       -26.2398
  34   2.0000      -0.937549       -25.5120
  35   2.0000      -0.919678       -25.0257
  36   2.0000      -0.918416       -24.9914
  37   2.0000      -0.767888       -20.8953
  38   2.0000      -0.714698       -19.4479
  39   2.0000      -0.708205       -19.2712
  40   2.0000      -0.684775       -18.6337
  41   2.0000      -0.653042       -17.7702
  42   2.0000      -0.623888       -16.9769
  43   2.0000      -0.613841       -16.7035
  44   2.0000      -0.605083       -16.4651
  45   2.0000      -0.589515       -16.0415
  46   2.0000      -0.562741       -15.3130
  47   2.0000      -0.514386       -13.9972
  48   2.0000      -0.506036       -13.7699
  49   2.0000      -0.501339       -13.6421
  50   2.0000      -0.489724       -13.3261
  51   2.0000      -0.465578       -12.6690
  52   2.0000      -0.457510       -12.4495
  53   2.0000      -0.448279       -12.1983
  54   2.0000      -0.441785       -12.0216
  55   2.0000      -0.428378       -11.6568
  56   2.0000      -0.423066       -11.5122
  57   2.0000      -0.412787       -11.2325
  58   2.0000      -0.406946       -11.0736
  59   2.0000      -0.406391       -11.0585
  60   2.0000      -0.398168       -10.8347
  61   2.0000      -0.389850       -10.6084
  62   2.0000      -0.384091       -10.4517
  63   2.0000      -0.379664       -10.3312
  64   2.0000      -0.375983       -10.2310
  65   2.0000      -0.363358        -9.8875
  66   2.0000      -0.359288        -9.7767
  67   2.0000      -0.353313        -9.6141
  68   2.0000      -0.347661        -9.4603
  69   2.0000      -0.341061        -9.2807
  70   2.0000      -0.337499        -9.1838
  71   2.0000      -0.333109        -9.0644
  72   2.0000      -0.316199        -8.6042
  73   2.0000      -0.308686        -8.3998
  74   2.0000      -0.296232        -8.0609
  75   2.0000      -0.294364        -8.0100
  76   2.0000      -0.285787        -7.7767
  77   2.0000      -0.279576        -7.6076
  78   2.0000      -0.271529        -7.3887
  79   2.0000      -0.258606        -7.0370
  80   2.0000      -0.257777        -7.0145
  81   2.0000      -0.241673        -6.5762
  82   2.0000      -0.238211        -6.4820
  83   2.0000      -0.228619        -6.2210
  84   2.0000      -0.220655        -6.0043
  85   2.0000      -0.185671        -5.0524
  86   2.0000      -0.174608        -4.7513
  87   0.0000      -0.043525        -1.1844
  88   0.0000      -0.031614        -0.8603
  89   0.0000      -0.027330        -0.7437
  90   0.0000       0.004559         0.1241
  91   0.0000       0.034388         0.9357

MULLIKEN ATOMIC CHARGES
-----------------------
   0 C :   -0.299121
   1 C :   -0.028107
   2 O :   -0.218227
   3 C :    0.107911
   4 O :   -0.198293
   5 C :   -0.032143
   6 C :   -0.300659
   7 H :    0.147585
   8 C :    0.232339
   9 O :   -0.204598
  10 O :   -0.219436
  11 C :   -0.024001
  12 C :   -0.302461
  13 S :   -0.105108
  14 P :    0.634132
  15 S :   -0.348055
  16 O :   -0.373214
  17 C :   -0.085064
  18 O :   -0.382254
  19 C :   -0.110682
  20 H :    0.135844
  21 H :    0.107508
  22 H :    0.108077
  23 H :    0.099298
  24 H :    0.132204
  25 H :    0.116599
  26 H :    0.123538
  27 H :    0.107803
  28 H :    0.125252
  29 H :    0.108706
  30 H :    0.111337
  31 H :    0.146261
  32 H :    0.105768
  33 H :    0.119473
  34 H :    0.116228
  35 H :    0.105732
  36 H :    0.117664
  37 H :    0.122164
Sum of atomic charges:   -0.0000000

LOEWDIN ATOMIC CHARGES
----------------------
   0 C :   -0.354363
   1 C :   -0.110447
   2 O :   -0.042947
   3 C :    0.030355
   4 O :   -0.155410
   5 C :   -0.245878
   6 C :   -0.260330
   7 H :    0.148248
   8 C :    0.031880
   9 O :   -0.148864
  10 O :   -0.033914
  11 C :   -0.102761
  12 C :   -0.356068
  13 S :    0.099457
  14 P :    0.580991
  15 S :   -0.331515
  16 O :   -0.244118
  17 C :   -0.209752
  18 O :   -0.265401
  19 C :   -0.223605
  20 H :    0.126533
  21 H :    0.122791
  22 H :    0.129866
  23 H :    0.113904
  24 H :    0.123013
  25 H :    0.136274
  26 H :    0.147937
  27 H :    0.118739
  28 H :    0.125890
  29 H :    0.123187
  30 H :    0.130068
  31 H :    0.137699
  32 H :    0.108746
  33 H :    0.109643
  34 H :    0.115626
  35 H :    0.102020
  36 H :    0.118946
  37 H :    0.103560

  Mayer bond orders larger than 0.100000
B(  0-C ,  1-C ) :   1.1687 B(  0-C , 20-H ) :   0.9372 B(  0-C , 21-H ) :   0.9476
B(  0-C , 22-H ) :   0.9421 B(  1-C ,  2-O ) :   0.8958 B(  1-C , 23-H ) :   0.9345
B(  1-C , 24-H ) :   0.9068 B(  2-O ,  3-C ) :   1.2692 B(  2-O ,  4-O ) :   0.1031
B(  3-C ,  4-O ) :   1.9480 B(  3-C ,  5-C ) :   1.0002 B(  4-O ,  8-C ) :   0.1094
B(  5-C ,  6-C ) :   1.0224 B(  5-C , 25-H ) :   0.9044 B(  5-C , 26-H ) :   0.8775
B(  6-C ,  7-H ) :   0.8782 B(  6-C ,  8-C ) :   0.9045 B(  6-C , 13-S ) :   1.0311
B(  8-C ,  9-O ) :   1.8865 B(  8-C , 10-O ) :   1.2783 B(  9-O , 14-P ) :   0.1556
B( 10-O , 11-C ) :   0.8888 B( 11-C , 12-C ) :   1.1773 B( 11-C , 27-H ) :   0.9367
B( 11-C , 28-H ) :   0.9092 B( 12-C , 29-H ) :   0.9499 B( 12-C , 30-H ) :   0.9422
B( 12-C , 31-H ) :   0.9331 B( 13-S , 14-P ) :   0.9392 B( 13-S , 15-S ) :   0.1146
B( 14-P , 15-S ) :   1.5692 B( 14-P , 16-O ) :   1.1201 B( 14-P , 18-O ) :   1.0500
B( 16-O , 17-C ) :   0.9322 B( 17-C , 32-H ) :   0.9568 B( 17-C , 33-H ) :   0.9315
B( 17-C , 34-H ) :   0.9547 B( 18-O , 19-C ) :   0.9507 B( 19-C , 35-H ) :   0.9452
B( 19-C , 36-H ) :   0.9580 B( 19-C , 37-H ) :   0.9271

Dispersion correction           -0.054203153
FINAL SINGLE POINT ENERGY     -1979.009558383608

DIPOLE MOMENT
-------------

Method             : SCF
Type of density    : Electron Density
Multiplicity       :   1
Irrep              :   0
Energy             : -1979.1393400122615276 Eh
Relativity type    :
Basis              : AO
                                X                 Y                 Z
Electronic contribution:    -12.151234094       1.048101233      -5.816568794
Nuclear contribution   :     13.271223543      -0.343308390       5.156248096
                        -----------------------------------------
Total Dipole Moment    :      1.119989449       0.704792842      -0.660320698
                        -----------------------------------------
Magnitude (a.u.)       :      1.478895784
Magnitude (Debye)      :      3.759054347

Rotational constants in cm-1:             0.011313             0.009571             0.006940
Rotational constants in MHz :           339.149523           286.939132           208.056446

                             ****ORCA TERMINATED NORMALLY****
TOTAL RUN TIME: 0 days 0 hours 0 minutes 33 seconds 668 msec
