                         Program Version 6.0.0  -   RELEASE  -
|  1> ! pbe def2-sv(p) def2/J RI DEFGRID1 loosescf d4 GCP(DFT/SV(P)) printgap
|  2> %output
|  3>     printlevel normal
|  4> end
|  5> * xyz 0 1
|  6> C 3.4539234892 -1.5765108233 -2.5753303029
|  7> C 2.1486991515 -1.0714758208 -1.995792083
|  8> O 2.3828181303 0.0152956515 -1.0680332184
|  9> P 2.46243674 -0.1722186682 0.4970929116
| 10> S 2.8934400746 1.501946461 1.4082470659
| 11> O 3.5194619217 -1.3488370201 0.6543986225
| 12> C 4.1943055535 -1.6245766423 1.8960644329
| 13> C 3.2458521103 -2.1019510992 2.976321477
| 14> S 0.6082226734 -1.078042205 1.038505596
| 15> C -0.3084067456 0.465518897 1.2320734634
| 16> S -0.6259138048 1.3098271433 -0.3526101322
| 17> P -2.6072125597 0.574651974 -0.6520623208
| 18> S -3.4494109522 1.1316792196 -2.3287815647
| 19> O -3.3901255051 0.8970116211 0.68813628
| 20> C -4.1933719654 2.0842216723 0.8122424195
| 21> C -3.3421523171 3.3355871407 0.8996171873
| 22> O -2.4846096862 -0.9860668015 -0.4081591548
| 23> C -1.9202106419 -1.8297386378 -1.4337943943
| 24> C -1.775010411 -3.2219140313 -0.8557263194
| 25> H 3.996087477 -0.7569372509 -3.0389671372
| 26> H 4.0715039671 -2.0083129487 -1.7925954955
| 27> H 3.2396910941 -2.3332534607 -3.3235465443
| 28> H 1.6133002472 -1.8725636764 -1.4773458707
| 29> H 1.5126568657 -0.6362183467 -2.7701278873
| 30> H 4.9210473266 -2.393635764 1.6305505117
| 31> H 4.7137264442 -0.715526629 2.213781335
| 32> H 3.8210251102 -2.4247109222 3.8382199609
| 33> H 2.5858898114 -1.2906126892 3.2790474998
| 34> H 2.642951141 -2.9306017937 2.6135340221
| 35> H 0.2866033194 1.1519253436 1.8352083081
| 36> H -1.2545777102 0.2230200568 1.7101298805
| 37> H -4.8690569767 2.1399453309 -0.0471289514
| 38> H -4.7668612612 1.9202315232 1.7255781503
| 39> H -3.9832130136 4.1960042238 1.0625707897
| 40> H -2.6302263347 3.2589254768 1.7177914346
| 41> H -2.794127711 3.4768453738 -0.0320326642
| 42> H -2.5915349083 -1.8140341969 -2.2977342215
| 43> H -0.9512766115 -1.4192374347 -1.7379546442
| 44> H -2.7445033895 -3.5886571356 -0.5327564763
| 45> H -1.3743321835 -3.883631462 -1.6163173972
| 46> H -1.1039892245 -3.1994740632 -0.0009512495
| 47> *
| 48>
| 49>                          ****END OF INPUT****

CARTESIAN COORDINATES (ANGSTROEM)
---------------------------------
  C      3.453923   -1.576511   -2.575330
  C      2.148699   -1.071476   -1.995792
  O      2.382818    0.015296   -1.068033
  P      2.462437   -0.172219    0.497093
  S      2.893440    1.501946    1.408247
  O      3.519462   -1.348837    0.654399
  C      4.194306   -1.624577    1.896064
  C      3.245852   -2.101951    2.976321
  S      0.608223   -1.078042    1.038506
  C     -0.308407    0.465519    1.232073
  S     -0.625914    1.309827   -0.352610
  P     -2.607213    0.574652   -0.652062
  S     -3.449411    1.131679   -2.328782
  O     -3.390126    0.897012    0.688136
  C     -4.193372    2.084222    0.812242
  C     -3.342152    3.335587    0.899617
  O     -2.484610   -0.986067   -0.408159
  C     -1.920211   -1.829739   -1.433794
  C     -1.775010   -3.221914   -0.855726
  H      3.996087   -0.756937   -3.038967
  H      4.071504   -2.008313   -1.792595
  H      3.239691   -2.333253   -3.323547
  H      1.613300   -1.872564   -1.477346
  H      1.512657   -0.636218   -2.770128
  H      4.921047   -2.393636    1.630551
  H      4.713726   -0.715527    2.213781
  H      3.821025   -2.424711    3.838220
  H      2.585890   -1.290613    3.279047
  H      2.642951   -2.930602    2.613534
  H      0.286603    1.151925    1.835208
  H     -1.254578    0.223020    1.710130
  H     -4.869057    2.139945   -0.047129
  H     -4.766861    1.920232    1.725578
  H     -3.983213    4.196004    1.062571
  H     -2.630226    3.258925    1.717791
  H     -2.794128    3.476845   -0.032033
  H     -2.591535   -1.814034   -2.297734
  H     -0.951277   -1.419237   -1.737955
  H     -2.744503   -3.588657   -0.532756
  H     -1.374332   -3.883631   -1.616317
  H     -1.103989   -3.199474   -0.000951

 Total Charge           Charge          ....    0
 Multiplicity           Mult            ....    1
 Number of Electrons    NEL             ....  202
 Basis Dimension        Dim             ....  334

ORBITAL ENERGIES
----------------

  NO   OCC          E(Eh)            E(eV)
   0   2.0000     -88.048926     -2395.9331
   1   2.0000     -88.042311     -2395.7531
   2   2.0000     -87.992649     -2394.4017
   3   2.0000     -87.987572     -2394.2635
   4   2.0000     -76.432516     -2079.8345
   5   2.0000     -76.426148     -2079.6612
   6   2.0000     -18.803126      -511.6591
   7   2.0000     -18.796610      -511.4818
   8   2.0000     -18.794286      -511.4185
   9   2.0000     -18.792053      -511.3577
  10   2.0000      -9.960763      -271.0462
  11   2.0000      -9.960329      -271.0343
  12   2.0000      -9.956752      -270.9370
  13   2.0000      -9.953827      -270.8574
  14   2.0000      -9.953686      -270.8536
  15   2.0000      -9.890523      -269.1348
  16   2.0000      -9.889892      -269.1176
  17   2.0000      -9.887842      -269.0619
  18   2.0000      -9.883852      -268.9533
  19   2.0000      -7.693511      -209.3511
  20   2.0000      -7.686925      -209.1719
  21   2.0000      -7.637908      -207.8380
  22   2.0000      -7.632780      -207.6985
  23   2.0000      -6.430115      -174.9723
  24   2.0000      -6.423816      -174.8009
  25   2.0000      -5.721156      -155.6806
  26   2.0000      -5.718095      -155.5973
  27   2.0000      -5.715012      -155.5134
  28   2.0000      -5.711279      -155.4118
  29   2.0000      -5.710694      -155.3959
  30   2.0000      -5.703972      -155.2130
  31   2.0000      -5.666895      -154.2041
  32   2.0000      -5.661754      -154.0642
  33   2.0000      -5.658387      -153.9725
  34   2.0000      -5.658107      -153.9649
  35   2.0000      -5.653341      -153.8352
  36   2.0000      -5.652975      -153.8253
  37   2.0000      -4.653040      -126.6156
  38   2.0000      -4.651749      -126.5805
  39   2.0000      -4.650367      -126.5429
  40   2.0000      -4.646166      -126.4286
  41   2.0000      -4.646052      -126.4255
  42   2.0000      -4.643992      -126.3694
  43   2.0000      -0.995233       -27.0817
  44   2.0000      -0.991571       -26.9820
  45   2.0000      -0.952204       -25.9108
  46   2.0000      -0.948061       -25.7981
  47   2.0000      -0.765429       -20.8284
  48   2.0000      -0.724820       -19.7234
  49   2.0000      -0.714929       -19.4542
  50   2.0000      -0.696622       -18.9561
  51   2.0000      -0.685694       -18.6587
  52   2.0000      -0.679353       -18.4861
  53   2.0000      -0.656010       -17.8509
  54   2.0000      -0.640867       -17.4389
  55   2.0000      -0.601981       -16.3807
  56   2.0000      -0.596886       -16.2421
  57   2.0000      -0.580465       -15.7953
  58   2.0000      -0.565994       -15.4015
  59   2.0000      -0.562645       -15.3104
  60   2.0000      -0.507833       -13.8188
  61   2.0000      -0.505308       -13.7501
  62   2.0000      -0.481774       -13.1097
  63   2.0000      -0.472147       -12.8478
  64   2.0000      -0.465381       -12.6637
  65   2.0000      -0.454099       -12.3567
  66   2.0000      -0.439715       -11.9653
  67   2.0000      -0.436966       -11.8905
  68   2.0000      -0.433291       -11.7904
  69   2.0000      -0.431446       -11.7402
  70   2.0000      -0.413246       -11.2450
  71   2.0000      -0.399430       -10.8691
  72   2.0000      -0.396748       -10.7961
  73   2.0000      -0.386135       -10.5073
  74   2.0000      -0.382165       -10.3992
  75   2.0000      -0.374573       -10.1927
  76   2.0000      -0.368833       -10.0365
  77   2.0000      -0.366987        -9.9862
  78   2.0000      -0.357482        -9.7276
  79   2.0000      -0.357416        -9.7258
  80   2.0000      -0.353675        -9.6240
  81   2.0000      -0.349869        -9.5204
  82   2.0000      -0.345283        -9.3956
  83   2.0000      -0.341251        -9.2859
  84   2.0000      -0.334314        -9.0971
  85   2.0000      -0.321499        -8.7484
  86   2.0000      -0.318927        -8.6784
  87   2.0000      -0.306698        -8.3457
  88   2.0000      -0.303081        -8.2472
  89   2.0000      -0.298980        -8.1357
  90   2.0000      -0.292576        -7.9614
  91   2.0000      -0.277820        -7.5599
  92   2.0000      -0.271823        -7.3967
  93   2.0000      -0.268468        -7.3054
  94   2.0000      -0.257118        -6.9965
  95   2.0000      -0.238880        -6.5003
  96   2.0000      -0.222127        -6.0444
  97   2.0000      -0.213225        -5.8022
  98   2.0000      -0.208734        -5.6799
  99   2.0000      -0.205680        -5.5968
 100   2.0000      -0.203579        -5.5397
 101   0.0000      -0.044061        -1.1990
 102   0.0000      -0.029812        -0.8112
 103   0.0000      -0.016454        -0.4477
 104   0.0000       0.001622         0.0441
 105   0.0000       0.008053         0.2191

MULLIKEN ATOMIC CHARGES
-----------------------
   0 C :   -0.276139
   1 C :   -0.037678
   2 O :   -0.347510
   3 P :    0.599095
   4 S :   -0.304948
   5 O :   -0.382256
   6 C :   -0.002038
   7 C :   -0.318181
   8 S :   -0.097056
   9 C :   -0.366734
  10 S :   -0.059885
  11 P :    0.562378
  12 S :   -0.319451
  13 O :   -0.365280
  14 C :   -0.004237
  15 C :   -0.313220
  16 O :   -0.368466
  17 C :   -0.023414
  18 C :   -0.282592
  19 H :    0.122150
  20 H :    0.119770
  21 H :    0.109421
  22 H :    0.106926
  23 H :    0.124844
  24 H :    0.106918
  25 H :    0.116076
  26 H :    0.116652
  27 H :    0.129399
  28 H :    0.117335
  29 H :    0.195413
  30 H :    0.194778
  31 H :    0.115174
  32 H :    0.107131
  33 H :    0.113793
  34 H :    0.115014
  35 H :    0.130731
  36 H :    0.110093
  37 H :    0.108467
  38 H :    0.119106
  39 H :    0.107077
  40 H :    0.121346
Sum of atomic charges:    0.0000000

LOEWDIN ATOMIC CHARGES
----------------------
   0 C :   -0.357991
   1 C :   -0.117909
   2 O :   -0.232293
   3 P :    0.569862
   4 S :   -0.301637
   5 O :   -0.247004
   6 C :   -0.115671
   7 C :   -0.371138
   8 S :    0.087099
   9 C :   -0.486322
  10 S :    0.084743
  11 P :    0.564223
  12 S :   -0.321894
  13 O :   -0.238368
  14 C :   -0.118427
  15 C :   -0.367011
  16 O :   -0.243011
  17 C :   -0.123845
  18 C :   -0.354064
  19 H :    0.130438
  20 H :    0.125817
  21 H :    0.129712
  22 H :    0.101871
  23 H :    0.123138
  24 H :    0.119398
  25 H :    0.114820
  26 H :    0.132904
  27 H :    0.122143
  28 H :    0.123211
  29 H :    0.128656
  30 H :    0.135167
  31 H :    0.112219
  32 H :    0.119242
  33 H :    0.131428
  34 H :    0.124289
  35 H :    0.123516
  36 H :    0.113099
  37 H :    0.103050
  38 H :    0.128999
  39 H :    0.128811
  40 H :    0.118730

  Mayer bond orders larger than 0.100000
B(  0-C ,  1-C ) :   1.1577 B(  0-C , 19-H ) :   0.9458 B(  0-C , 20-H ) :   0.9415
B(  0-C , 21-H ) :   0.9400 B(  1-C ,  2-O ) :   0.8947 B(  1-C , 22-H ) :   0.9073
B(  1-C , 23-H ) :   0.9298 B(  2-O ,  3-P ) :   1.1427 B(  3-P ,  4-S ) :   1.6408
B(  3-P ,  5-O ) :   1.0847 B(  3-P ,  8-S ) :   0.9449 B(  4-S ,  8-S ) :   0.1084
B(  5-O ,  6-C ) :   0.9027 B(  6-C ,  7-C ) :   1.1670 B(  6-C , 24-H ) :   0.9339
B(  6-C , 25-H ) :   0.9192 B(  7-C , 26-H ) :   0.9366 B(  7-C , 27-H ) :   0.9347
B(  7-C , 28-H ) :   0.9434 B(  8-S ,  9-C ) :   1.0017 B(  9-C , 10-S ) :   0.9766
B(  9-C , 29-H ) :   0.8698 B(  9-C , 30-H ) :   0.8858 B( 10-S , 11-P ) :   0.9823
B( 11-P , 12-S ) :   1.6544 B( 11-P , 13-O ) :   1.0947 B( 11-P , 16-O ) :   1.0992
B( 13-O , 14-C ) :   0.9052 B( 14-C , 15-C ) :   1.1630 B( 14-C , 31-H ) :   0.9147
B( 14-C , 32-H ) :   0.9343 B( 15-C , 33-H ) :   0.9385 B( 15-C , 34-H ) :   0.9468
B( 15-C , 35-H ) :   0.9356 B( 16-O , 17-C ) :   0.9006 B( 17-C , 18-C ) :   1.1611
B( 17-C , 36-H ) :   0.9209 B( 17-C , 37-H ) :   0.9074 B( 18-C , 38-H ) :   0.9483
B( 18-C , 39-H ) :   0.9419 B( 18-C , 40-H ) :   0.9428

Dispersion correction           -0.064102415
FINAL SINGLE POINT ENERGY     -2929.522848368330

DIPOLE MOMENT
-------------

Method             : SCF
Type of density    : Electron Density
Multiplicity       :   1
Irrep              :   0
Energy             : -2929.6441100768815886 Eh
Relativity type    :
Basis              : AO
                                X                 Y                 Z
Electronic contribution:     -3.803988091      12.927499657      -2.312399360
Nuclear contribution   :      4.218772471     -14.442829603       2.919285134
                        -----------------------------------------
Total Dipole Moment    :      0.414784380      -1.515329946       0.606885774
                        -----------------------------------------
Magnitude (a.u.)       :      1.684215328
Magnitude (Debye)      :      4.280935153

Rotational constants in cm-1:             0.012325             0.004637             0.004228
Rotational constants in MHz :           369.491730           139.026820           126.757584

                             ****ORCA TERMINATED NORMALLY****
TOTAL RUN TIME: 0 days 0 hours 0 minutes 20 seconds 882 msec
