                         Program Version 6.0.0  -   RELEASE  -
|  1> ! pbe def2-sv(p) def2/J RI DEFGRID1 loosescf d4 GCP(DFT/SV(P)) printgap
|  2> %output
|  3>     printlevel normal
|  4> end
|  5> * xyz 0 1
|  6> C 1.6553002549 -1.3069503016 -2.6430826577
|  7> C 2.3529277449 0.0161019317 -2.4112236731
|  8> O 1.974101926 0.6298669124 -1.1540517319
|  9> P 2.1966992376 -0.0028555026 0.2724272087
| 10> S 2.3832515828 1.3107800674 1.7140239566
| 11> O 3.5080110721 -0.8699514103 0.0210794582
| 12> C 4.2979179104 -1.4169524558 1.0930919078
| 13> C 3.889358098 -2.8409360832 1.4162414171
| 14> S 0.6763531377 -1.4570130971 0.6028290367
| 15> C -0.3169508231 -0.6452974517 1.8910392495
| 16> S -2.0618875902 -0.521498606 1.4462301319
| 17> P -1.8534388312 0.6899916863 -0.2906599512
| 18> S -0.5984517057 2.1835986493 -0.0828137768
| 19> O -3.3566043237 1.0943252376 -0.5996179187
| 20> C -4.0726266872 2.008819764 0.2560967161
| 21> C -5.3048631317 2.4748475029 -0.4920897007
| 22> O -1.4924743858 -0.2121192432 -1.5290130909
| 23> C -2.3789939289 -1.175568169 -2.1644768649
| 24> C -2.3814335126 -2.5070776657 -1.4412225522
| 25> H 1.973922847 -2.0364830952 -1.9003412707
| 26> H 0.5793666666 -1.1751879503 -2.5681443217
| 27> H 1.9070943768 -1.6723902049 -3.6336667721
| 28> H 2.0542936763 0.7646071138 -3.1472125411
| 29> H 3.438253945 -0.1020704895 -2.4171320906
| 30> H 5.323217561 -1.3762379554 0.7204287664
| 31> H 4.2035210587 -0.763382407 1.9667453
| 32> H 4.5673235055 -3.2384160228 2.1646240718
| 33> H 2.8744863709 -2.872114178 1.8039875915
| 34> H 3.9422980865 -3.4563107013 0.5225281545
| 35> H 0.0985569072 0.3510334057 2.0682959733
| 36> H -0.2803619761 -1.2508906276 2.7929973227
| 37> H -4.3376595853 1.4782019114 1.1742853528
| 38> H -3.4096138552 2.8444495399 0.5032590145
| 39> H -5.8621785364 3.1619470299 0.1359103164
| 40> H -5.0157980671 2.9814859606 -1.4086268139
| 41> H -5.9328981144 1.6244508753 -0.7403979897
| 42> H -3.3792538407 -0.7448852547 -2.2155714453
| 43> H -1.9654968829 -1.2690772408 -3.1703208851
| 44> H -2.8838826284 -2.4252606487 -0.4810017963
| 45> H -2.9055955417 -3.2344022201 -2.0531923603
| 46> H -1.3627102189 -2.8484855133 -1.2733592874
| 47> *
| 48>
| 49>                          ****END OF INPUT****

CARTESIAN COORDINATES (ANGSTROEM)
---------------------------------
  C      1.655300   -1.306950   -2.643083
  C      2.352928    0.016102   -2.411224
  O      1.974102    0.629867   -1.154052
  P      2.196699   -0.002856    0.272427
  S      2.383252    1.310780    1.714024
  O      3.508011   -0.869951    0.021079
  C      4.297918   -1.416952    1.093092
  C      3.889358   -2.840936    1.416241
  S      0.676353   -1.457013    0.602829
  C     -0.316951   -0.645297    1.891039
  S     -2.061888   -0.521499    1.446230
  P     -1.853439    0.689992   -0.290660
  S     -0.598452    2.183599   -0.082814
  O     -3.356604    1.094325   -0.599618
  C     -4.072627    2.008820    0.256097
  C     -5.304863    2.474848   -0.492090
  O     -1.492474   -0.212119   -1.529013
  C     -2.378994   -1.175568   -2.164477
  C     -2.381434   -2.507078   -1.441223
  H      1.973923   -2.036483   -1.900341
  H      0.579367   -1.175188   -2.568144
  H      1.907094   -1.672390   -3.633667
  H      2.054294    0.764607   -3.147213
  H      3.438254   -0.102070   -2.417132
  H      5.323218   -1.376238    0.720429
  H      4.203521   -0.763382    1.966745
  H      4.567324   -3.238416    2.164624
  H      2.874486   -2.872114    1.803988
  H      3.942298   -3.456311    0.522528
  H      0.098557    0.351033    2.068296
  H     -0.280362   -1.250891    2.792997
  H     -4.337660    1.478202    1.174285
  H     -3.409614    2.844450    0.503259
  H     -5.862179    3.161947    0.135910
  H     -5.015798    2.981486   -1.408627
  H     -5.932898    1.624451   -0.740398
  H     -3.379254   -0.744885   -2.215571
  H     -1.965497   -1.269077   -3.170321
  H     -2.883883   -2.425261   -0.481002
  H     -2.905596   -3.234402   -2.053192
  H     -1.362710   -2.848486   -1.273359

 Total Charge           Charge          ....    0
 Multiplicity           Mult            ....    1
 Number of Electrons    NEL             ....  202
 Basis Dimension        Dim             ....  334

ORBITAL ENERGIES
----------------

  NO   OCC          E(Eh)            E(eV)
   0   2.0000     -88.040187     -2395.6953
   1   2.0000     -88.038851     -2395.6589
   2   2.0000     -87.976145     -2393.9526
   3   2.0000     -87.974094     -2393.8968
   4   2.0000     -76.421608     -2079.5377
   5   2.0000     -76.420706     -2079.5131
   6   2.0000     -18.793741      -511.4037
   7   2.0000     -18.790843      -511.3248
   8   2.0000     -18.789740      -511.2948
   9   2.0000     -18.781387      -511.0675
  10   2.0000      -9.957616      -270.9605
  11   2.0000      -9.953855      -270.8582
  12   2.0000      -9.950350      -270.7628
  13   2.0000      -9.949838      -270.7489
  14   2.0000      -9.948936      -270.7243
  15   2.0000      -9.889779      -269.1146
  16   2.0000      -9.885713      -269.0039
  17   2.0000      -9.884648      -268.9750
  18   2.0000      -9.882773      -268.9239
  19   2.0000      -7.685319      -209.1282
  20   2.0000      -7.683096      -209.0677
  21   2.0000      -7.621362      -207.3878
  22   2.0000      -7.619026      -207.3242
  23   2.0000      -6.418976      -174.6692
  24   2.0000      -6.417883      -174.6395
  25   2.0000      -5.713121      -155.4619
  26   2.0000      -5.710930      -155.4023
  27   2.0000      -5.709719      -155.3693
  28   2.0000      -5.707586      -155.3113
  29   2.0000      -5.702483      -155.1725
  30   2.0000      -5.700195      -155.1102
  31   2.0000      -5.650447      -153.7565
  32   2.0000      -5.648101      -153.6926
  33   2.0000      -5.641770      -153.5204
  34   2.0000      -5.641504      -153.5131
  35   2.0000      -5.639759      -153.4656
  36   2.0000      -5.638945      -153.4435
  37   2.0000      -4.642018      -126.3157
  38   2.0000      -4.640895      -126.2852
  39   2.0000      -4.640764      -126.2816
  40   2.0000      -4.639381      -126.2440
  41   2.0000      -4.638936      -126.2319
  42   2.0000      -4.638251      -126.2132
  43   2.0000      -0.988321       -26.8936
  44   2.0000      -0.982549       -26.7365
  45   2.0000      -0.944329       -25.6965
  46   2.0000      -0.936678       -25.4883
  47   2.0000      -0.759091       -20.6559
  48   2.0000      -0.718603       -19.5542
  49   2.0000      -0.709311       -19.3013
  50   2.0000      -0.693032       -18.8584
  51   2.0000      -0.687657       -18.7121
  52   2.0000      -0.674712       -18.3598
  53   2.0000      -0.644465       -17.5368
  54   2.0000      -0.626718       -17.0539
  55   2.0000      -0.593937       -16.1618
  56   2.0000      -0.585945       -15.9444
  57   2.0000      -0.574496       -15.6328
  58   2.0000      -0.573143       -15.5960
  59   2.0000      -0.559310       -15.2196
  60   2.0000      -0.506958       -13.7950
  61   2.0000      -0.493548       -13.4301
  62   2.0000      -0.477102       -12.9826
  63   2.0000      -0.468344       -12.7443
  64   2.0000      -0.448376       -12.2009
  65   2.0000      -0.446669       -12.1545
  66   2.0000      -0.442546       -12.0423
  67   2.0000      -0.437619       -11.9082
  68   2.0000      -0.430970       -11.7273
  69   2.0000      -0.422045       -11.4844
  70   2.0000      -0.406370       -11.0579
  71   2.0000      -0.394603       -10.7377
  72   2.0000      -0.391243       -10.6463
  73   2.0000      -0.382928       -10.4200
  74   2.0000      -0.378176       -10.2907
  75   2.0000      -0.368505       -10.0275
  76   2.0000      -0.364885        -9.9290
  77   2.0000      -0.355462        -9.6726
  78   2.0000      -0.352202        -9.5839
  79   2.0000      -0.351080        -9.5534
  80   2.0000      -0.349208        -9.5024
  81   2.0000      -0.345788        -9.4094
  82   2.0000      -0.338145        -9.2014
  83   2.0000      -0.335628        -9.1329
  84   2.0000      -0.331617        -9.0238
  85   2.0000      -0.320572        -8.7232
  86   2.0000      -0.310449        -8.4477
  87   2.0000      -0.303970        -8.2714
  88   2.0000      -0.295702        -8.0465
  89   2.0000      -0.289559        -7.8793
  90   2.0000      -0.287985        -7.8365
  91   2.0000      -0.273776        -7.4498
  92   2.0000      -0.267843        -7.2884
  93   2.0000      -0.258750        -7.0410
  94   2.0000      -0.252669        -6.8755
  95   2.0000      -0.230978        -6.2852
  96   2.0000      -0.218682        -5.9506
  97   2.0000      -0.207668        -5.6509
  98   2.0000      -0.193706        -5.2710
  99   2.0000      -0.185209        -5.0398
 100   2.0000      -0.178333        -4.8527
 101   0.0000      -0.041214        -1.1215
 102   0.0000      -0.031959        -0.8697
 103   0.0000      -0.002131        -0.0580
 104   0.0000       0.012770         0.3475
 105   0.0000       0.017807         0.4846

MULLIKEN ATOMIC CHARGES
-----------------------
   0 C :   -0.367634
   1 C :    0.017441
   2 O :   -0.349818
   3 P :    0.627808
   4 S :   -0.294583
   5 O :   -0.388079
   6 C :   -0.003132
   7 C :   -0.302091
   8 S :   -0.131262
   9 C :   -0.340726
  10 S :   -0.124194
  11 P :    0.600964
  12 S :   -0.281497
  13 O :   -0.389737
  14 C :   -0.010854
  15 C :   -0.281711
  16 O :   -0.356745
  17 C :   -0.011542
  18 C :   -0.310821
  19 H :    0.122298
  20 H :    0.159252
  21 H :    0.110274
  22 H :    0.111335
  23 H :    0.107009
  24 H :    0.103818
  25 H :    0.104604
  26 H :    0.109430
  27 H :    0.122220
  28 H :    0.111382
  29 H :    0.211803
  30 H :    0.175794
  31 H :    0.105259
  32 H :    0.108216
  33 H :    0.114074
  34 H :    0.122320
  35 H :    0.113007
  36 H :    0.115731
  37 H :    0.109508
  38 H :    0.125306
  39 H :    0.108499
  40 H :    0.127071
Sum of atomic charges:    0.0000000

LOEWDIN ATOMIC CHARGES
----------------------
   0 C :   -0.376895
   1 C :   -0.104320
   2 O :   -0.228071
   3 P :    0.575001
   4 S :   -0.293965
   5 O :   -0.249792
   6 C :   -0.119757
   7 C :   -0.365903
   8 S :    0.071432
   9 C :   -0.481532
  10 S :    0.062424
  11 P :    0.555376
  12 S :   -0.289379
  13 O :   -0.251988
  14 C :   -0.120026
  15 C :   -0.350635
  16 O :   -0.233104
  17 C :   -0.110204
  18 C :   -0.369898
  19 H :    0.115767
  20 H :    0.130815
  21 H :    0.130101
  22 H :    0.124266
  23 H :    0.113039
  24 H :    0.117819
  25 H :    0.106853
  26 H :    0.129516
  27 H :    0.118076
  28 H :    0.123272
  29 H :    0.126113
  30 H :    0.134466
  31 H :    0.108830
  32 H :    0.111465
  33 H :    0.132016
  34 H :    0.129752
  35 H :    0.124847
  36 H :    0.113991
  37 H :    0.118042
  38 H :    0.118064
  39 H :    0.128872
  40 H :    0.125253

  Mayer bond orders larger than 0.100000
B(  0-C ,  1-C ) :   1.1702 B(  0-C , 19-H ) :   0.9347 B(  0-C , 20-H ) :   0.9216
B(  0-C , 21-H ) :   0.9343 B(  1-C ,  2-O ) :   0.9038 B(  1-C , 22-H ) :   0.9315
B(  1-C , 23-H ) :   0.9284 B(  2-O ,  3-P ) :   1.1396 B(  3-P ,  4-S ) :   1.6390
B(  3-P ,  5-O ) :   1.0640 B(  3-P ,  8-S ) :   0.9346 B(  4-S ,  8-S ) :   0.1176
B(  4-S , 29-H ) :   0.1002 B(  5-O ,  6-C ) :   0.9093 B(  6-C ,  7-C ) :   1.1663
B(  6-C , 24-H ) :   0.9354 B(  6-C , 25-H ) :   0.9023 B(  7-C , 26-H ) :   0.9398
B(  7-C , 27-H ) :   0.9348 B(  7-C , 28-H ) :   0.9484 B(  8-S ,  9-C ) :   1.0010
B(  9-C , 10-S ) :   1.0021 B(  9-C , 29-H ) :   0.8411 B(  9-C , 30-H ) :   0.9108
B( 10-S , 11-P ) :   0.9333 B( 10-S , 12-S ) :   0.1097 B( 11-P , 12-S ) :   1.6885
B( 11-P , 13-O ) :   1.0734 B( 11-P , 16-O ) :   1.1249 B( 13-O , 14-C ) :   0.9021
B( 14-C , 15-C ) :   1.1595 B( 14-C , 31-H ) :   0.9285 B( 14-C , 32-H ) :   0.9090
B( 15-C , 33-H ) :   0.9418 B( 15-C , 34-H ) :   0.9508 B( 15-C , 35-H ) :   0.9513
B( 16-O , 17-C ) :   0.8853 B( 17-C , 18-C ) :   1.1735 B( 17-C , 36-H ) :   0.9224
B( 17-C , 37-H ) :   0.9306 B( 18-C , 38-H ) :   0.9332 B( 18-C , 39-H ) :   0.9365
B( 18-C , 40-H ) :   0.9431

Dispersion correction           -0.067184768
FINAL SINGLE POINT ENERGY     -2929.511310256367

DIPOLE MOMENT
-------------

Method             : SCF
Type of density    : Electron Density
Multiplicity       :   1
Irrep              :   0
Energy             : -2929.6302403944373509 Eh
Relativity type    :
Basis              : AO
                                X                 Y                 Z
Electronic contribution:      5.503462697      13.341381913       9.783171829
Nuclear contribution   :     -6.287963345     -14.964286295     -10.604703737
                        -----------------------------------------
Total Dipole Moment    :     -0.784500648      -1.622904382      -0.821531907
                        -----------------------------------------
Magnitude (a.u.)       :      1.980952946
Magnitude (Debye)      :      5.035182236

Rotational constants in cm-1:             0.013225             0.005184             0.004902
Rotational constants in MHz :           396.460803           155.412857           146.955127

                             ****ORCA TERMINATED NORMALLY****
TOTAL RUN TIME: 0 days 0 hours 0 minutes 21 seconds 815 msec
