                         Program Version 6.0.0  -   RELEASE  -
|  1> ! pbe def2-sv(p) def2/J RI DEFGRID1 loosescf d4 GCP(DFT/SV(P)) printgap
|  2> %output
|  3>     printlevel normal
|  4> end
|  5> * xyz 0 1
|  6> C -0.7610376503 -2.05437e-05 7.6138e-06
|  7> C 0.7610519352 7.1934e-06 1.94321e-05
|  8> H -1.1430739951 0.3935702126 0.939145953
|  9> H -1.1428864597 0.6169153053 -0.810239925
| 10> H -1.1437483767 -1.0099118431 -0.1289774065
| 11> H 1.1432459177 1.0101479597 0.1288916522
| 12> H 1.1430604904 -0.3935318869 -0.9392034807
| 13> H 1.1432322023 -0.6170306637 0.8100609243
| 14> *
| 15>
| 16>                          ****END OF INPUT****

CARTESIAN COORDINATES (ANGSTROEM)
---------------------------------
  C     -0.761038   -0.000021    0.000008
  C      0.761052    0.000007    0.000019
  H     -1.143074    0.393570    0.939146
  H     -1.142886    0.616915   -0.810240
  H     -1.143748   -1.009912   -0.128977
  H      1.143246    1.010148    0.128892
  H      1.143060   -0.393532   -0.939203
  H      1.143232   -0.617031    0.810061

 Total Charge           Charge          ....    0
 Multiplicity           Mult            ....    1
 Number of Electrons    NEL             ....   18
 Basis Dimension        Dim             ....   40

ORBITAL ENERGIES
----------------

  NO   OCC          E(Eh)            E(eV)
   0   2.0000      -9.871574      -268.6192
   1   2.0000      -9.871517      -268.6176
   2   2.0000      -0.674555       -18.3556
   3   2.0000      -0.543833       -14.7984
   4   2.0000      -0.387268       -10.5381
   5   2.0000      -0.387222       -10.5369
   6   2.0000      -0.320799        -8.7294
   7   2.0000      -0.298000        -8.1090
   8   2.0000      -0.297938        -8.1073
   9   0.0000       0.046992         1.2787
  10   0.0000       0.095857         2.6084
  11   0.0000       0.106012         2.8847
  12   0.0000       0.106070         2.8863
  13   0.0000       0.137097         3.7306

MULLIKEN ATOMIC CHARGES
-----------------------
   0 C :   -0.312437
   1 C :   -0.312447
   2 H :    0.104158
   3 H :    0.104094
   4 H :    0.104172
   5 H :    0.104191
   6 H :    0.104154
   7 H :    0.104115
Sum of atomic charges:    0.0000000

LOEWDIN ATOMIC CHARGES
----------------------
   0 C :   -0.351403
   1 C :   -0.351384
   2 H :    0.117136
   3 H :    0.117121
   4 H :    0.117134
   5 H :    0.117149
   6 H :    0.117132
   7 H :    0.117114

  Mayer bond orders larger than 0.100000
B(  0-C ,  1-C ) :   1.1766 B(  0-C ,  2-H ) :   0.9623 B(  0-C ,  3-H ) :   0.9623
B(  0-C ,  4-H ) :   0.9622 B(  1-C ,  5-H ) :   0.9622 B(  1-C ,  6-H ) :   0.9623
B(  1-C ,  7-H ) :   0.9623

Dispersion correction           -0.002696250
FINAL SINGLE POINT ENERGY       -79.598410653580

DIPOLE MOMENT
-------------

Method             : SCF
Type of density    : Electron Density
Multiplicity       :   1
Irrep              :   0
Energy             :   -79.6254120059039110 Eh
Relativity type    :
Basis              : AO
                                X                 Y                 Z
Electronic contribution:      0.000133240      -0.000142956       0.000255901
Nuclear contribution   :     -0.000159696       0.000149248      -0.000302356
                        -----------------------------------------
Total Dipole Moment    :     -0.000026456       0.000006292      -0.000046455
                        -----------------------------------------
Magnitude (a.u.)       :      0.000053829
Magnitude (Debye)      :      0.000136822

Rotational constants in cm-1:             2.688104             0.675590             0.675553
Rotational constants in MHz :         80587.332952         20253.681141         20252.565971

                             ****ORCA TERMINATED NORMALLY****
TOTAL RUN TIME: 0 days 0 hours 0 minutes 3 seconds 460 msec
