                         Program Version 6.0.0  -   RELEASE  -
|  1> ! pbe def2-sv(p) def2/J RI DEFGRID1 loosescf d4 GCP(DFT/SV(P)) printgap
|  2> %output
|  3>     printlevel normal
|  4> end
|  5> * xyz 0 1
|  6> C 3.3470340736 -1.8815757205 -2.5876870498
|  7> C 3.9298440153 -0.5144889813 -2.2862837247
|  8> O 3.742834227 -0.1428640861 -0.9123893848
|  9> P 2.3676338076 0.3782898241 -0.3202697058
| 10> S 1.2459890623 1.3279186218 -1.6293335059
| 11> O 3.0458645551 1.206597103 0.8369464114
| 12> C 2.415523745 1.9703736808 1.8796612736
| 13> C 2.2644973948 1.1476071848 3.1436593969
| 14> S 1.4745139304 -1.3073590555 0.6133523221
| 15> C 0.1777855872 -1.6911787523 -0.6167230647
| 16> S -1.4582955633 -1.9318811937 0.1080093542
| 17> P -2.0489331708 0.1099869112 0.2885712487
| 18> S -0.9575365118 1.2936668653 1.3975462311
| 19> O -3.5839027688 -0.023178002 0.6735727464
| 20> C -4.1022709412 -0.868318987 1.7188380775
| 21> C -3.4045787837 -0.6590042375 3.0458321598
| 22> O -2.099646303 0.6821245233 -1.1772269235
| 23> C -2.8829620444 0.1083853867 -2.2524010741
| 24> C -4.1957458325 0.848095684 -2.4081229821
| 25> H 2.2600190141 -1.8354607149 -2.5614681441
| 26> H 3.6617242118 -2.1947680978 -3.5780315281
| 27> H 3.6922459682 -2.6052732926 -1.8538212102
| 28> H 3.474823173 0.2510395632 -2.9237034834
| 29> H 5.0133000842 -0.50436057 -2.4133259357
| 30> H 3.0921932745 2.8130124978 2.0362244381
| 31> H 1.4463681253 2.3425084429 1.5360630505
| 32> H 1.5293068256 0.3597779681 2.9984533527
| 33> H 3.2179639085 0.7024634762 3.4135207579
| 34> H 1.9231865841 1.7950793336 3.9445367551
| 35> H 0.4242606409 -2.6372249012 -1.091586478
| 36> H 0.1402655312 -0.867151302 -1.3357502566
| 37> H -5.1562822191 -0.5905580067 1.7746572173
| 38> H -4.0066147023 -1.9072963274 1.3916993418
| 39> H -2.3581771288 -0.9524336223 2.9702321231
| 40> H -3.4461684885 0.388169913 3.3368052305
| 41> H -3.8869678053 -1.2641513443 3.8065630372
| 42> H -2.2536928866 0.2248181423 -3.1373175542
| 43> H -3.0478858454 -0.9531897175 -2.0473590848
| 44> H -4.7983942344 0.7398956644 -1.5102433563
| 45> H -4.0078231854 1.9050044435 -2.5770619917
| 46> H -4.7352659873 0.4390758464 -3.2565826722
| 47> *
| 48>
| 49>                          ****END OF INPUT****

CARTESIAN COORDINATES (ANGSTROEM)
---------------------------------
  C      3.347034   -1.881576   -2.587687
  C      3.929844   -0.514489   -2.286284
  O      3.742834   -0.142864   -0.912389
  P      2.367634    0.378290   -0.320270
  S      1.245989    1.327919   -1.629334
  O      3.045865    1.206597    0.836946
  C      2.415524    1.970374    1.879661
  C      2.264497    1.147607    3.143659
  S      1.474514   -1.307359    0.613352
  C      0.177786   -1.691179   -0.616723
  S     -1.458296   -1.931881    0.108009
  P     -2.048933    0.109987    0.288571
  S     -0.957537    1.293667    1.397546
  O     -3.583903   -0.023178    0.673573
  C     -4.102271   -0.868319    1.718838
  C     -3.404579   -0.659004    3.045832
  O     -2.099646    0.682125   -1.177227
  C     -2.882962    0.108385   -2.252401
  C     -4.195746    0.848096   -2.408123
  H      2.260019   -1.835461   -2.561468
  H      3.661724   -2.194768   -3.578032
  H      3.692246   -2.605273   -1.853821
  H      3.474823    0.251040   -2.923703
  H      5.013300   -0.504361   -2.413326
  H      3.092193    2.813012    2.036224
  H      1.446368    2.342508    1.536063
  H      1.529307    0.359778    2.998453
  H      3.217964    0.702463    3.413521
  H      1.923187    1.795079    3.944537
  H      0.424261   -2.637225   -1.091586
  H      0.140266   -0.867151   -1.335750
  H     -5.156282   -0.590558    1.774657
  H     -4.006615   -1.907296    1.391699
  H     -2.358177   -0.952434    2.970232
  H     -3.446168    0.388170    3.336805
  H     -3.886968   -1.264151    3.806563
  H     -2.253693    0.224818   -3.137318
  H     -3.047886   -0.953190   -2.047359
  H     -4.798394    0.739896   -1.510243
  H     -4.007823    1.905004   -2.577062
  H     -4.735266    0.439076   -3.256583

 Total Charge           Charge          ....    0
 Multiplicity           Mult            ....    1
 Number of Electrons    NEL             ....  202
 Basis Dimension        Dim             ....  334

ORBITAL ENERGIES
----------------

  NO   OCC          E(Eh)            E(eV)
   0   2.0000     -88.047682     -2395.8992
   1   2.0000     -88.037417     -2395.6199
   2   2.0000     -87.981097     -2394.0874
   3   2.0000     -87.977845     -2393.9989
   4   2.0000     -76.425892     -2079.6543
   5   2.0000     -76.420364     -2079.5038
   6   2.0000     -18.796287      -511.4730
   7   2.0000     -18.790759      -511.3226
   8   2.0000     -18.783642      -511.1289
   9   2.0000     -18.776527      -510.9353
  10   2.0000      -9.962545      -271.0946
  11   2.0000      -9.957892      -270.9680
  12   2.0000      -9.954484      -270.8753
  13   2.0000      -9.946488      -270.6577
  14   2.0000      -9.943194      -270.5681
  15   2.0000      -9.885556      -268.9996
  16   2.0000      -9.885114      -268.9876
  17   2.0000      -9.884974      -268.9838
  18   2.0000      -9.873172      -268.6627
  19   2.0000      -7.692608      -209.3265
  20   2.0000      -7.682467      -209.0506
  21   2.0000      -7.625928      -207.5121
  22   2.0000      -7.622999      -207.4323
  23   2.0000      -6.423130      -174.7823
  24   2.0000      -6.417554      -174.6305
  25   2.0000      -5.720246      -155.6558
  26   2.0000      -5.716990      -155.5672
  27   2.0000      -5.710353      -155.3866
  28   2.0000      -5.709974      -155.3763
  29   2.0000      -5.707056      -155.2969
  30   2.0000      -5.699353      -155.0873
  31   2.0000      -5.654720      -153.8728
  32   2.0000      -5.652100      -153.8015
  33   2.0000      -5.646847      -153.6585
  34   2.0000      -5.645943      -153.6339
  35   2.0000      -5.643386      -153.5643
  36   2.0000      -5.643153      -153.5580
  37   2.0000      -4.646093      -126.4266
  38   2.0000      -4.645300      -126.4050
  39   2.0000      -4.642894      -126.3396
  40   2.0000      -4.639785      -126.2550
  41   2.0000      -4.639513      -126.2476
  42   2.0000      -4.638138      -126.2101
  43   2.0000      -0.989743       -26.9323
  44   2.0000      -0.980223       -26.6732
  45   2.0000      -0.946961       -25.7681
  46   2.0000      -0.934512       -25.4294
  47   2.0000      -0.761376       -20.7181
  48   2.0000      -0.719720       -19.5846
  49   2.0000      -0.710713       -19.3395
  50   2.0000      -0.692937       -18.8558
  51   2.0000      -0.679017       -18.4770
  52   2.0000      -0.675893       -18.3920
  53   2.0000      -0.649879       -17.6841
  54   2.0000      -0.631227       -17.1766
  55   2.0000      -0.597166       -16.2497
  56   2.0000      -0.588651       -16.0180
  57   2.0000      -0.575768       -15.6675
  58   2.0000      -0.567022       -15.4295
  59   2.0000      -0.560764       -15.2592
  60   2.0000      -0.504735       -13.7345
  61   2.0000      -0.490837       -13.3564
  62   2.0000      -0.475721       -12.9450
  63   2.0000      -0.463939       -12.6244
  64   2.0000      -0.457452       -12.4479
  65   2.0000      -0.448289       -12.1986
  66   2.0000      -0.437905       -11.9160
  67   2.0000      -0.435576       -11.8526
  68   2.0000      -0.427692       -11.6381
  69   2.0000      -0.414705       -11.2847
  70   2.0000      -0.412666       -11.2292
  71   2.0000      -0.399481       -10.8704
  72   2.0000      -0.388760       -10.5787
  73   2.0000      -0.387363       -10.5407
  74   2.0000      -0.385011       -10.4767
  75   2.0000      -0.371415       -10.1067
  76   2.0000      -0.358183        -9.7466
  77   2.0000      -0.356532        -9.7017
  78   2.0000      -0.351411        -9.5624
  79   2.0000      -0.349084        -9.4991
  80   2.0000      -0.344787        -9.3821
  81   2.0000      -0.343962        -9.3597
  82   2.0000      -0.341017        -9.2795
  83   2.0000      -0.335404        -9.1268
  84   2.0000      -0.328111        -8.9284
  85   2.0000      -0.321417        -8.7462
  86   2.0000      -0.307835        -8.3766
  87   2.0000      -0.298966        -8.1353
  88   2.0000      -0.289039        -7.8651
  89   2.0000      -0.288062        -7.8386
  90   2.0000      -0.280725        -7.6389
  91   2.0000      -0.277700        -7.5566
  92   2.0000      -0.264793        -7.2054
  93   2.0000      -0.263112        -7.1596
  94   2.0000      -0.253894        -6.9088
  95   2.0000      -0.240531        -6.5452
  96   2.0000      -0.220059        -5.9881
  97   2.0000      -0.203007        -5.5241
  98   2.0000      -0.200649        -5.4599
  99   2.0000      -0.188912        -5.1406
 100   2.0000      -0.182901        -4.9770
 101   0.0000      -0.039364        -1.0711
 102   0.0000      -0.030186        -0.8214
 103   0.0000      -0.020968        -0.5706
 104   0.0000       0.001524         0.0415
 105   0.0000       0.018035         0.4908

MULLIKEN ATOMIC CHARGES
-----------------------
   0 C :   -0.321170
   1 C :    0.002341
   2 O :   -0.361523
   3 P :    0.611189
   4 S :   -0.318697
   5 O :   -0.358126
   6 C :   -0.009301
   7 C :   -0.310517
   8 S :   -0.089499
   9 C :   -0.374673
  10 S :   -0.113302
  11 P :    0.601157
  12 S :   -0.307689
  13 O :   -0.379412
  14 C :   -0.015583
  15 C :   -0.311598
  16 O :   -0.343323
  17 C :   -0.015127
  18 C :   -0.286235
  19 H :    0.117976
  20 H :    0.110380
  21 H :    0.120175
  22 H :    0.109088
  23 H :    0.104303
  24 H :    0.102985
  25 H :    0.131160
  26 H :    0.138080
  27 H :    0.111053
  28 H :    0.108429
  29 H :    0.189275
  30 H :    0.202503
  31 H :    0.111497
  32 H :    0.115218
  33 H :    0.129943
  34 H :    0.129533
  35 H :    0.111988
  36 H :    0.111746
  37 H :    0.094436
  38 H :    0.119777
  39 H :    0.123543
  40 H :    0.108001
Sum of atomic charges:    0.0000000

LOEWDIN ATOMIC CHARGES
----------------------
   0 C :   -0.366206
   1 C :   -0.118862
   2 O :   -0.241715
   3 P :    0.567814
   4 S :   -0.305848
   5 O :   -0.227387
   6 C :   -0.113110
   7 C :   -0.366474
   8 S :    0.072344
   9 C :   -0.486066
  10 S :    0.065108
  11 P :    0.568523
  12 S :   -0.295584
  13 O :   -0.245475
  14 C :   -0.115003
  15 C :   -0.370854
  16 O :   -0.225190
  17 C :   -0.117291
  18 C :   -0.358435
  19 H :    0.118403
  20 H :    0.129776
  21 H :    0.126798
  22 H :    0.107335
  23 H :    0.118731
  24 H :    0.118590
  25 H :    0.108607
  26 H :    0.120924
  27 H :    0.123703
  28 H :    0.130293
  29 H :    0.134325
  30 H :    0.120245
  31 H :    0.122252
  32 H :    0.108343
  33 H :    0.122574
  34 H :    0.131482
  35 H :    0.130464
  36 H :    0.121292
  37 H :    0.100665
  38 H :    0.125718
  39 H :    0.130501
  40 H :    0.128692

  Mayer bond orders larger than 0.100000
B(  0-C ,  1-C ) :   1.1597 B(  0-C , 19-H ) :   0.9350 B(  0-C , 20-H ) :   0.9390
B(  0-C , 21-H ) :   0.9456 B(  1-C ,  2-O ) :   0.9292 B(  1-C , 22-H ) :   0.9100
B(  1-C , 23-H ) :   0.9341 B(  2-O ,  3-P ) :   1.1001 B(  3-P ,  4-S ) :   1.6023
B(  3-P ,  5-O ) :   1.1550 B(  3-P ,  8-S ) :   0.9451 B(  4-S ,  8-S ) :   0.1224
B(  4-S , 30-H ) :   0.1202 B(  5-O ,  6-C ) :   0.8997 B(  6-C ,  7-C ) :   1.1717
B(  6-C , 24-H ) :   0.9337 B(  6-C , 25-H ) :   0.9051 B(  7-C , 26-H ) :   0.9314
B(  7-C , 27-H ) :   0.9468 B(  7-C , 28-H ) :   0.9399 B(  8-S ,  9-C ) :   1.0010
B(  9-C , 10-S ) :   0.9986 B(  9-C , 29-H ) :   0.9014 B(  9-C , 30-H ) :   0.8381
B( 10-S , 11-P ) :   0.9410 B( 10-S , 12-S ) :   0.1119 B( 11-P , 12-S ) :   1.6714
B( 11-P , 13-O ) :   1.0774 B( 11-P , 16-O ) :   1.1362 B( 13-O , 14-C ) :   0.9123
B( 14-C , 15-C ) :   1.1681 B( 14-C , 31-H ) :   0.9330 B( 14-C , 32-H ) :   0.9261
B( 15-C , 33-H ) :   0.9312 B( 15-C , 34-H ) :   0.9414 B( 15-C , 35-H ) :   0.9337
B( 16-O , 17-C ) :   0.8940 B( 17-C , 18-C ) :   1.1683 B( 17-C , 36-H ) :   0.9324
B( 17-C , 37-H ) :   0.9101 B( 18-C , 38-H ) :   0.9430 B( 18-C , 39-H ) :   0.9472
B( 18-C , 40-H ) :   0.9401

Dispersion correction           -0.066566447
FINAL SINGLE POINT ENERGY     -2929.511153247971

DIPOLE MOMENT
-------------

Method             : SCF
Type of density    : Electron Density
Multiplicity       :   1
Irrep              :   0
Energy             : -2929.6291831851613097 Eh
Relativity type    :
Basis              : AO
                                X                 Y                 Z
Electronic contribution:      6.739040951       3.260752188       0.663317135
Nuclear contribution   :     -7.615231422      -4.474891955      -1.005302270
                        -----------------------------------------
Total Dipole Moment    :     -0.876190472      -1.214139768      -0.341985135
                        -----------------------------------------
Magnitude (a.u.)       :      1.535838192
Magnitude (Debye)      :      3.903790443

Rotational constants in cm-1:             0.011527             0.005482             0.004794
Rotational constants in MHz :           345.585071           164.351076           143.722231

                             ****ORCA TERMINATED NORMALLY****
TOTAL RUN TIME: 0 days 0 hours 0 minutes 21 seconds 180 msec
