                         Program Version 6.0.1  -  RELEASE   -
|  1> ! pbe def2-sv(p) def2/J RI DEFGRID1 loosescf d4 GCP(DFT/SV(P)) printgap
|  2> %output
|  3>     printlevel normal
|  4> end
|  5> * xyz 0 1
|  6> C 5.814528935 -1.4998035341 -0.4029558187
|  7> C 4.8426078035 -1.0377742346 -1.4723383611
|  8> O 3.5385199434 -1.5689965177 -1.1629494675
|  9> C 2.4735928399 -0.8757277414 -1.5005738471
| 10> O 2.4961774975 0.190841178 -2.0749545157
| 11> C 1.1984011436 -1.5924459863 -1.0914262197
| 12> C 0.2006725759 -0.574061215 -0.5603793206
| 13> H 0.1196041912 0.2627611714 -1.2687030738
| 14> C 0.6004624319 0.0286311447 0.7707054574
| 15> O -0.2226795633 0.3467650883 1.605794196
| 16> O 1.8934724419 0.1659714676 0.8958339878
| 17> C 2.3967685972 0.8473632821 2.0667023792
| 18> C 2.4007076264 2.350533924 1.8475194472
| 19> S -1.4606129423 -1.2932289623 -0.3608675763
| 20> P -2.4917686145 0.4689548781 0.2404454433
| 21> S -1.74549061 2.188839838 -0.3255435106
| 22> O -3.9309827159 0.1851582623 -0.4222485689
| 23> C -4.1211786165 0.2202283295 -1.8385302419
| 24> O -2.9095822358 0.3840257415 1.7598122055
| 25> C -3.572056713 -0.7701318934 2.3132112681
| 26> H 6.8082964705 -1.1351696169 -0.6406143183
| 27> H 5.5168316862 -1.1160355789 0.5684618646
| 28> H 5.8305134416 -2.5845991055 -0.3613140161
| 29> H 5.1277196672 -1.4172660068 -2.4575927928
| 30> H 4.7700163554 0.0527417394 -1.5203279603
| 31> H 1.4304148807 -2.3554503783 -0.3502980914
| 32> H 0.7761881415 -2.0726190816 -1.9763337183
| 33> H 1.7696160135 0.578900791 2.9209740835
| 34> H 3.4065276986 0.4571379242 2.1926713266
| 35> H 2.8306755707 2.8407142051 2.7145073906
| 36> H 2.9830056978 2.6001023455 0.9644164493
| 37> H 1.3834808357 2.7116723371 1.7045837108
| 38> H -3.6669941187 1.120807017 -2.2556399923
| 39> H -5.1973740392 0.2335394473 -1.9902903585
| 40> H -3.6787831303 -0.6659022992 -2.2937061866
| 41> H -3.6353468865 -0.5724045413 3.3800485802
| 42> H -2.9814618404 -1.666285467 2.1219370985
| 43> H -4.5630894403 -0.8730136103 1.8748588343
| 44> *
| 45>
| 46>                          ****END OF INPUT****

CARTESIAN COORDINATES (ANGSTROEM)
---------------------------------
  C      5.814529   -1.499804   -0.402956
  C      4.842608   -1.037774   -1.472338
  O      3.538520   -1.568997   -1.162949
  C      2.473593   -0.875728   -1.500574
  O      2.496177    0.190841   -2.074955
  C      1.198401   -1.592446   -1.091426
  C      0.200673   -0.574061   -0.560379
  H      0.119604    0.262761   -1.268703
  C      0.600462    0.028631    0.770705
  O     -0.222680    0.346765    1.605794
  O      1.893472    0.165971    0.895834
  C      2.396769    0.847363    2.066702
  C      2.400708    2.350534    1.847519
  S     -1.460613   -1.293229   -0.360868
  P     -2.491769    0.468955    0.240445
  S     -1.745491    2.188840   -0.325544
  O     -3.930983    0.185158   -0.422249
  C     -4.121179    0.220228   -1.838530
  O     -2.909582    0.384026    1.759812
  C     -3.572057   -0.770132    2.313211
  H      6.808296   -1.135170   -0.640614
  H      5.516832   -1.116036    0.568462
  H      5.830513   -2.584599   -0.361314
  H      5.127720   -1.417266   -2.457593
  H      4.770016    0.052742   -1.520328
  H      1.430415   -2.355450   -0.350298
  H      0.776188   -2.072619   -1.976334
  H      1.769616    0.578901    2.920974
  H      3.406528    0.457138    2.192671
  H      2.830676    2.840714    2.714507
  H      2.983006    2.600102    0.964416
  H      1.383481    2.711672    1.704584
  H     -3.666994    1.120807   -2.255640
  H     -5.197374    0.233539   -1.990290
  H     -3.678783   -0.665902   -2.293706
  H     -3.635347   -0.572405    3.380049
  H     -2.981462   -1.666285    2.121937
  H     -4.563089   -0.873014    1.874859

 Total Charge           Charge          ....    0
 Multiplicity           Mult            ....    1
 Number of Electrons    NEL             ....  174
 Basis Dimension        Dim             ....  316

ORBITAL ENERGIES
----------------

  NO   OCC          E(Eh)            E(eV)
   0   2.0000     -88.036195     -2395.5867
   1   2.0000     -87.971172     -2393.8173
   2   2.0000     -76.417012     -2079.4126
   3   2.0000     -18.819266      -512.0983
   4   2.0000     -18.806878      -511.7612
   5   2.0000     -18.780618      -511.0466
   6   2.0000     -18.778735      -510.9953
   7   2.0000     -18.745924      -510.1025
   8   2.0000     -18.741190      -509.9737
   9   2.0000     -10.019891      -272.6551
  10   2.0000     -10.015061      -272.5237
  11   2.0000      -9.956119      -270.9198
  12   2.0000      -9.953088      -270.8373
  13   2.0000      -9.944485      -270.6032
  14   2.0000      -9.941808      -270.5303
  15   2.0000      -9.934170      -270.3225
  16   2.0000      -9.917154      -269.8595
  17   2.0000      -9.896031      -269.2847
  18   2.0000      -9.886665      -269.0298
  19   2.0000      -7.681018      -209.0111
  20   2.0000      -7.616379      -207.2522
  21   2.0000      -6.413227      -174.5128
  22   2.0000      -5.708724      -155.3423
  23   2.0000      -5.705664      -155.2590
  24   2.0000      -5.698092      -155.0530
  25   2.0000      -5.645634      -153.6255
  26   2.0000      -5.637014      -153.3909
  27   2.0000      -5.636149      -153.3674
  28   2.0000      -4.635996      -126.1519
  29   2.0000      -4.635285      -126.1325
  30   2.0000      -4.633512      -126.0843
  31   2.0000      -1.027089       -27.9485
  32   2.0000      -1.014411       -27.6035
  33   2.0000      -0.975305       -26.5394
  34   2.0000      -0.930563       -25.3219
  35   2.0000      -0.926707       -25.2170
  36   2.0000      -0.918851       -25.0032
  37   2.0000      -0.765748       -20.8370
  38   2.0000      -0.718136       -19.5415
  39   2.0000      -0.710250       -19.3269
  40   2.0000      -0.689276       -18.7561
  41   2.0000      -0.659285       -17.9400
  42   2.0000      -0.626732       -17.0542
  43   2.0000      -0.622296       -16.9335
  44   2.0000      -0.610891       -16.6232
  45   2.0000      -0.594870       -16.1872
  46   2.0000      -0.564682       -15.3658
  47   2.0000      -0.515820       -14.0362
  48   2.0000      -0.509197       -13.8560
  49   2.0000      -0.502497       -13.6736
  50   2.0000      -0.474849       -12.9213
  51   2.0000      -0.471596       -12.8328
  52   2.0000      -0.464149       -12.6301
  53   2.0000      -0.452787       -12.3209
  54   2.0000      -0.434557       -11.8249
  55   2.0000      -0.430061       -11.7026
  56   2.0000      -0.423728       -11.5302
  57   2.0000      -0.419735       -11.4216
  58   2.0000      -0.416733       -11.3399
  59   2.0000      -0.407691       -11.0938
  60   2.0000      -0.405331       -11.0296
  61   2.0000      -0.398091       -10.8326
  62   2.0000      -0.390513       -10.6264
  63   2.0000      -0.382970       -10.4212
  64   2.0000      -0.376191       -10.2367
  65   2.0000      -0.366053        -9.9608
  66   2.0000      -0.363696        -9.8967
  67   2.0000      -0.354996        -9.6599
  68   2.0000      -0.352130        -9.5820
  69   2.0000      -0.341565        -9.2945
  70   2.0000      -0.336638        -9.1604
  71   2.0000      -0.331019        -9.0075
  72   2.0000      -0.323342        -8.7986
  73   2.0000      -0.314293        -8.5523
  74   2.0000      -0.302529        -8.2322
  75   2.0000      -0.301272        -8.1980
  76   2.0000      -0.291196        -7.9238
  77   2.0000      -0.287270        -7.8170
  78   2.0000      -0.273563        -7.4440
  79   2.0000      -0.263149        -7.1606
  80   2.0000      -0.261346        -7.1116
  81   2.0000      -0.250425        -6.8144
  82   2.0000      -0.235171        -6.3993
  83   2.0000      -0.227495        -6.1904
  84   2.0000      -0.218784        -5.9534
  85   2.0000      -0.192459        -5.2371
  86   2.0000      -0.184932        -5.0323
  87   0.0000      -0.043015        -1.1705
  88   0.0000      -0.028503        -0.7756
  89   0.0000      -0.019439        -0.5290
  90   0.0000       0.013464         0.3664
  91   0.0000       0.019026         0.5177

MULLIKEN ATOMIC CHARGES
-----------------------
   0 C :   -0.286526
   1 C :   -0.028207
   2 O :   -0.232211
   3 C :    0.114999
   4 O :   -0.200769
   5 C :   -0.062777
   6 C :   -0.340923
   7 H :    0.176401
   8 C :    0.228986
   9 O :   -0.182375
  10 O :   -0.221487
  11 C :   -0.016857
  12 C :   -0.308729
  13 S :   -0.107945
  14 P :    0.625851
  15 S :   -0.323986
  16 O :   -0.396921
  17 C :   -0.098164
  18 O :   -0.353175
  19 C :   -0.102114
  20 H :    0.114325
  21 H :    0.115942
  22 H :    0.116922
  23 H :    0.107478
  24 H :    0.117340
  25 H :    0.107424
  26 H :    0.127266
  27 H :    0.114207
  28 H :    0.106385
  29 H :    0.113730
  30 H :    0.121775
  31 H :    0.142872
  32 H :    0.115696
  33 H :    0.120086
  34 H :    0.108506
  35 H :    0.129762
  36 H :    0.114974
  37 H :    0.122236
Sum of atomic charges:   -0.0000000

LOEWDIN ATOMIC CHARGES
----------------------
   0 C :   -0.350633
   1 C :   -0.108385
   2 O :   -0.058388
   3 C :    0.027905
   4 O :   -0.165621
   5 C :   -0.247764
   6 C :   -0.275284
   7 H :    0.151475
   8 C :    0.023104
   9 O :   -0.154346
  10 O :   -0.035289
  11 C :   -0.106540
  12 C :   -0.355681
  13 S :    0.087655
  14 P :    0.587853
  15 S :   -0.320558
  16 O :   -0.268103
  17 C :   -0.219971
  18 O :   -0.231276
  19 C :   -0.208112
  20 H :    0.131619
  21 H :    0.124482
  22 H :    0.127367
  23 H :    0.118355
  24 H :    0.121031
  25 H :    0.134821
  26 H :    0.149308
  27 H :    0.123422
  28 H :    0.116515
  29 H :    0.131436
  30 H :    0.128932
  31 H :    0.137734
  32 H :    0.109656
  33 H :    0.119722
  34 H :    0.104736
  35 H :    0.125582
  36 H :    0.108549
  37 H :    0.114693

  Mayer bond orders larger than 0.100000
B(  0-C ,  1-C ) :   1.1603 B(  0-C , 20-H ) :   0.9436 B(  0-C , 21-H ) :   0.9507
B(  0-C , 22-H ) :   0.9479 B(  1-C ,  2-O ) :   0.9053 B(  1-C , 23-H ) :   0.9359
B(  1-C , 24-H ) :   0.9155 B(  2-O ,  3-C ) :   1.2374 B(  3-C ,  4-O ) :   2.0546
B(  3-C ,  5-C ) :   1.0007 B(  5-C ,  6-C ) :   1.0503 B(  5-C , 25-H ) :   0.9072
B(  5-C , 26-H ) :   0.8799 B(  6-C ,  7-H ) :   0.8274 B(  6-C ,  8-C ) :   0.8978
B(  6-C , 13-S ) :   1.0329 B(  8-C ,  9-O ) :   2.0027 B(  8-C , 10-O ) :   1.2645
B( 10-O , 11-C ) :   0.8998 B( 11-C , 12-C ) :   1.1790 B( 11-C , 27-H ) :   0.9131
B( 11-C , 28-H ) :   0.9334 B( 12-C , 29-H ) :   0.9423 B( 12-C , 30-H ) :   0.9473
B( 12-C , 31-H ) :   0.9385 B( 13-S , 14-P ) :   0.9329 B( 13-S , 15-S ) :   0.1126
B( 14-P , 15-S ) :   1.6228 B( 14-P , 16-O ) :   1.0474 B( 14-P , 18-O ) :   1.1320
B( 16-O , 17-C ) :   0.9400 B( 17-C , 32-H ) :   0.9331 B( 17-C , 33-H ) :   0.9589
B( 17-C , 34-H ) :   0.9463 B( 18-O , 19-C ) :   0.9232 B( 19-C , 35-H ) :   0.9600
B( 19-C , 36-H ) :   0.9395 B( 19-C , 37-H ) :   0.9471

Dispersion correction           -0.050297362
FINAL SINGLE POINT ENERGY     -1979.015612064100

DIPOLE MOMENT
-------------

Method             : SCF
Type of density    : Electron Density
Multiplicity       :   1
Irrep              :   0
Energy             : -1979.1472146550136131 Eh
Relativity type    :
Basis              : AO
                                X                 Y                 Z
Electronic contribution:    -19.044471039       2.309083869      -2.544602790
Nuclear contribution   :     20.185284900      -3.827091071       2.935831766
                        -----------------------------------------
Total Dipole Moment    :      1.140813862      -1.518007202       0.391228976
                        -----------------------------------------
Magnitude (a.u.)       :      1.938778544
Magnitude (Debye)      :      4.927983426

Rotational constants in cm-1:             0.017580             0.005469             0.005001
Rotational constants in MHz :           527.031454           163.952783           149.911867

                             ****ORCA TERMINATED NORMALLY****
TOTAL RUN TIME: 0 days 0 hours 0 minutes 37 seconds 350 msec
