                         Program Version 6.0.0  -   RELEASE  -
|  1> ! pbe def2-sv(p) def2/J RI DEFGRID1 loosescf d4 GCP(DFT/SV(P)) printgap
|  2> %output
|  3>     printlevel normal
|  4> end
|  5> * xyz 0 1
|  6> C 4.25233504 -1.0694878067 -1.6460257786
|  7> C 4.4799329109 0.2924657805 -1.0222675319
|  8> O 3.6611265668 0.5078207049 0.1381827319
|  9> P 2.0715502453 0.5894961685 0.0598029066
| 10> S 1.3841847725 1.5128058881 -1.5272787889
| 11> O 1.7313352773 1.3301030511 1.4125739107
| 12> C 2.5452209949 1.272120692 2.6133385102
| 13> C 2.6881536932 -0.1329647206 3.1600233097
| 14> S 1.4106061372 -1.4219538124 0.32282272
| 15> C 0.238166024 -1.6193423609 -1.0500941342
| 16> S -1.4352839734 -1.998786406 -0.4776841206
| 17> P -2.139574898 0.0050064435 -0.3365169539
| 18> S -2.0825734048 1.0620026173 -1.9822124825
| 19> O -1.270968899 0.6883314635 0.7962001347
| 20> C -1.3268355915 0.2588369242 2.181613325
| 21> C -2.2534510083 1.1515539874 2.9795008566
| 22> O -3.5474279283 -0.1734911926 0.3741967308
| 23> C -4.5543835216 -1.1194762253 -0.0363713843
| 24> C -4.9597749205 -0.9554452427 -1.4855144192
| 25> H 4.3440086824 -1.8523839716 -0.8975218695
| 26> H 3.2568472593 -1.1112551658 -2.0867088225
| 27> H 4.9861642645 -1.2308673723 -2.429113599
| 28> H 4.2671172949 1.0847997919 -1.7466152003
| 29> H 5.4976845963 0.3969064633 -0.6435716237
| 30> H 3.5227381488 1.6978955188 2.3803702139
| 31> H 2.0124958371 1.9259241272 3.3058894528
| 32> H 3.2783559771 -0.0959438111 4.0705109774
| 33> H 1.717445595 -0.5679140286 3.3833232554
| 34> H 3.1943219917 -0.7682231614 2.4354252393
| 35> H 0.5592963544 -2.4680100015 -1.647899095
| 36> H 0.2210477451 -0.696828622 -1.6409533414
| 37> H -1.6453692857 -0.7867196694 2.2182347731
| 38> H -0.2981785322 0.3449506486 2.5336190815
| 39> H -3.2705750995 1.0701400853 2.6055614168
| 40> H -2.2261028854 0.8498699718 4.0219496509
| 41> H -1.933142706 2.1866240487 2.8936259473
| 42> H -4.1688323756 -2.1267665857 0.1444354818
| 43> H -5.3883054015 -0.9128982517 0.6367501281
| 44> H -4.1159782417 -1.1732585318 -2.1386492795
| 45> H -5.7709203585 -1.6396089369 -1.712573336
| 46> H -5.2826747054 0.0652367788 -1.6766356925
| 47> *
| 48>
| 49>                          ****END OF INPUT****

CARTESIAN COORDINATES (ANGSTROEM)
---------------------------------
  C      4.252335   -1.069488   -1.646026
  C      4.479933    0.292466   -1.022268
  O      3.661127    0.507821    0.138183
  P      2.071550    0.589496    0.059803
  S      1.384185    1.512806   -1.527279
  O      1.731335    1.330103    1.412574
  C      2.545221    1.272121    2.613339
  C      2.688154   -0.132965    3.160023
  S      1.410606   -1.421954    0.322823
  C      0.238166   -1.619342   -1.050094
  S     -1.435284   -1.998786   -0.477684
  P     -2.139575    0.005006   -0.336517
  S     -2.082573    1.062003   -1.982212
  O     -1.270969    0.688331    0.796200
  C     -1.326836    0.258837    2.181613
  C     -2.253451    1.151554    2.979501
  O     -3.547428   -0.173491    0.374197
  C     -4.554384   -1.119476   -0.036371
  C     -4.959775   -0.955445   -1.485514
  H      4.344009   -1.852384   -0.897522
  H      3.256847   -1.111255   -2.086709
  H      4.986164   -1.230867   -2.429114
  H      4.267117    1.084800   -1.746615
  H      5.497685    0.396906   -0.643572
  H      3.522738    1.697896    2.380370
  H      2.012496    1.925924    3.305889
  H      3.278356   -0.095944    4.070511
  H      1.717446   -0.567914    3.383323
  H      3.194322   -0.768223    2.435425
  H      0.559296   -2.468010   -1.647899
  H      0.221048   -0.696829   -1.640953
  H     -1.645369   -0.786720    2.218235
  H     -0.298179    0.344951    2.533619
  H     -3.270575    1.070140    2.605561
  H     -2.226103    0.849870    4.021950
  H     -1.933143    2.186624    2.893626
  H     -4.168832   -2.126767    0.144435
  H     -5.388305   -0.912898    0.636750
  H     -4.115978   -1.173259   -2.138649
  H     -5.770920   -1.639609   -1.712573
  H     -5.282675    0.065237   -1.676636

 Total Charge           Charge          ....    0
 Multiplicity           Mult            ....    1
 Number of Electrons    NEL             ....  202
 Basis Dimension        Dim             ....  334

ORBITAL ENERGIES
----------------

  NO   OCC          E(Eh)            E(eV)
   0   2.0000     -88.041149     -2395.7215
   1   2.0000     -88.039815     -2395.6852
   2   2.0000     -87.980883     -2394.0815
   3   2.0000     -87.970172     -2393.7901
   4   2.0000     -76.424450     -2079.6150
   5   2.0000     -76.418874     -2079.4633
   6   2.0000     -18.793167      -511.3881
   7   2.0000     -18.792706      -511.3755
   8   2.0000     -18.791750      -511.3495
   9   2.0000     -18.783833      -511.1341
  10   2.0000      -9.961095      -271.0552
  11   2.0000      -9.958936      -270.9964
  12   2.0000      -9.953701      -270.8540
  13   2.0000      -9.953469      -270.8477
  14   2.0000      -9.946579      -270.6602
  15   2.0000      -9.895428      -269.2683
  16   2.0000      -9.885439      -268.9965
  17   2.0000      -9.880868      -268.8721
  18   2.0000      -9.880733      -268.8684
  19   2.0000      -7.685788      -209.1409
  20   2.0000      -7.685032      -209.1204
  21   2.0000      -7.625814      -207.5090
  22   2.0000      -7.615447      -207.2269
  23   2.0000      -6.421785      -174.7456
  24   2.0000      -6.416236      -174.5947
  25   2.0000      -5.713691      -155.4774
  26   2.0000      -5.712736      -155.4515
  27   2.0000      -5.710227      -155.3832
  28   2.0000      -5.709445      -155.3619
  29   2.0000      -5.702880      -155.1833
  30   2.0000      -5.702267      -155.1666
  31   2.0000      -5.654877      -153.8770
  32   2.0000      -5.646226      -153.6416
  33   2.0000      -5.646035      -153.6364
  34   2.0000      -5.644672      -153.5993
  35   2.0000      -5.635856      -153.3594
  36   2.0000      -5.635499      -153.3497
  37   2.0000      -4.644776      -126.3908
  38   2.0000      -4.643203      -126.3480
  39   2.0000      -4.642168      -126.3198
  40   2.0000      -4.639270      -126.2410
  41   2.0000      -4.638324      -126.2152
  42   2.0000      -4.635951      -126.1506
  43   2.0000      -0.988988       -26.9117
  44   2.0000      -0.984455       -26.7884
  45   2.0000      -0.944217       -25.6935
  46   2.0000      -0.939660       -25.5695
  47   2.0000      -0.759436       -20.6653
  48   2.0000      -0.719185       -19.5700
  49   2.0000      -0.709380       -19.3032
  50   2.0000      -0.693559       -18.8727
  51   2.0000      -0.688570       -18.7369
  52   2.0000      -0.677058       -18.4237
  53   2.0000      -0.647747       -17.6261
  54   2.0000      -0.629644       -17.1335
  55   2.0000      -0.598158       -16.2767
  56   2.0000      -0.583574       -15.8799
  57   2.0000      -0.582655       -15.8548
  58   2.0000      -0.568439       -15.4680
  59   2.0000      -0.562850       -15.3159
  60   2.0000      -0.500221       -13.6117
  61   2.0000      -0.495325       -13.4785
  62   2.0000      -0.471509       -12.8304
  63   2.0000      -0.470563       -12.8047
  64   2.0000      -0.457713       -12.4550
  65   2.0000      -0.451624       -12.2893
  66   2.0000      -0.445732       -12.1290
  67   2.0000      -0.433287       -11.7903
  68   2.0000      -0.427191       -11.6244
  69   2.0000      -0.425378       -11.5751
  70   2.0000      -0.407954       -11.1010
  71   2.0000      -0.403260       -10.9733
  72   2.0000      -0.395053       -10.7499
  73   2.0000      -0.387780       -10.5520
  74   2.0000      -0.381927       -10.3928
  75   2.0000      -0.369471       -10.0538
  76   2.0000      -0.362314        -9.8591
  77   2.0000      -0.356310        -9.6957
  78   2.0000      -0.351976        -9.5778
  79   2.0000      -0.351642        -9.5687
  80   2.0000      -0.345096        -9.3906
  81   2.0000      -0.343650        -9.3512
  82   2.0000      -0.342391        -9.3169
  83   2.0000      -0.337950        -9.1961
  84   2.0000      -0.335447        -9.1280
  85   2.0000      -0.315840        -8.5944
  86   2.0000      -0.311783        -8.4841
  87   2.0000      -0.299230        -8.1425
  88   2.0000      -0.295615        -8.0441
  89   2.0000      -0.294192        -8.0054
  90   2.0000      -0.284896        -7.7524
  91   2.0000      -0.275355        -7.4928
  92   2.0000      -0.272718        -7.4210
  93   2.0000      -0.259848        -7.0708
  94   2.0000      -0.253743        -6.9047
  95   2.0000      -0.233959        -6.3663
  96   2.0000      -0.217104        -5.9077
  97   2.0000      -0.209985        -5.7140
  98   2.0000      -0.200046        -5.4435
  99   2.0000      -0.182981        -4.9792
 100   2.0000      -0.176014        -4.7896
 101   0.0000      -0.037490        -1.0202
 102   0.0000      -0.030449        -0.8286
 103   0.0000      -0.021281        -0.5791
 104   0.0000       0.009392         0.2556
 105   0.0000       0.013994         0.3808

MULLIKEN ATOMIC CHARGES
-----------------------
   0 C :   -0.317064
   1 C :    0.003749
   2 O :   -0.388966
   3 P :    0.608300
   4 S :   -0.266393
   5 O :   -0.367811
   6 C :    0.011133
   7 C :   -0.340996
   8 S :   -0.124259
   9 C :   -0.342267
  10 S :   -0.116982
  11 P :    0.584863
  12 S :   -0.282005
  13 O :   -0.350722
  14 C :   -0.031200
  15 C :   -0.286816
  16 O :   -0.381045
  17 C :   -0.018436
  18 C :   -0.306073
  19 H :    0.117304
  20 H :    0.123045
  21 H :    0.113645
  22 H :    0.113375
  23 H :    0.101973
  24 H :    0.113844
  25 H :    0.110654
  26 H :    0.117536
  27 H :    0.132010
  28 H :    0.131928
  29 H :    0.183257
  30 H :    0.204905
  31 H :    0.093307
  32 H :    0.121381
  33 H :    0.120203
  34 H :    0.102393
  35 H :    0.121116
  36 H :    0.115574
  37 H :    0.109268
  38 H :    0.128817
  39 H :    0.109594
  40 H :    0.127860
Sum of atomic charges:    0.0000000

LOEWDIN ATOMIC CHARGES
----------------------
   0 C :   -0.370515
   1 C :   -0.117510
   2 O :   -0.251628
   3 P :    0.569227
   4 S :   -0.268823
   5 O :   -0.235100
   6 C :   -0.109918
   7 C :   -0.371350
   8 S :    0.064305
   9 C :   -0.480027
  10 S :    0.053921
  11 P :    0.566857
  12 S :   -0.297539
  13 O :   -0.231544
  14 C :   -0.123635
  15 C :   -0.358446
  16 O :   -0.245037
  17 C :   -0.115165
  18 C :   -0.369577
  19 H :    0.122907
  20 H :    0.120189
  21 H :    0.131048
  22 H :    0.112562
  23 H :    0.117221
  24 H :    0.116889
  25 H :    0.121912
  26 H :    0.134167
  27 H :    0.125271
  28 H :    0.120120
  29 H :    0.136405
  30 H :    0.126195
  31 H :    0.101371
  32 H :    0.112477
  33 H :    0.125287
  34 H :    0.126001
  35 H :    0.129417
  36 H :    0.107294
  37 H :    0.120961
  38 H :    0.123074
  39 H :    0.129240
  40 H :    0.131495

  Mayer bond orders larger than 0.100000
B(  0-C ,  1-C ) :   1.1661 B(  0-C , 19-H ) :   0.9428 B(  0-C , 20-H ) :   0.9364
B(  0-C , 21-H ) :   0.9371 B(  1-C ,  2-O ) :   0.9113 B(  1-C , 22-H ) :   0.9159
B(  1-C , 23-H ) :   0.9343 B(  2-O ,  3-P ) :   1.0534 B(  3-P ,  4-S ) :   1.6634
B(  3-P ,  5-O ) :   1.1158 B(  3-P ,  8-S ) :   0.9375 B(  4-S ,  8-S ) :   0.1204
B(  5-O ,  6-C ) :   0.8938 B(  6-C ,  7-C ) :   1.1683 B(  6-C , 24-H ) :   0.9264
B(  6-C , 25-H ) :   0.9329 B(  7-C , 26-H ) :   0.9348 B(  7-C , 27-H ) :   0.9427
B(  7-C , 28-H ) :   0.9288 B(  8-S ,  9-C ) :   0.9993 B(  9-C , 10-S ) :   1.0061
B(  9-C , 29-H ) :   0.9104 B(  9-C , 30-H ) :   0.8324 B( 10-S , 11-P ) :   0.9377
B( 10-S , 12-S ) :   0.1090 B( 11-P , 12-S ) :   1.6899 B( 11-P , 13-O ) :   1.1233
B( 11-P , 16-O ) :   1.0667 B( 13-O , 14-C ) :   0.8976 B( 14-C , 15-C ) :   1.1632
B( 14-C , 31-H ) :   0.9137 B( 14-C , 32-H ) :   0.9091 B( 15-C , 33-H ) :   0.9431
B( 15-C , 34-H ) :   0.9405 B( 15-C , 35-H ) :   0.9459 B( 16-O , 17-C ) :   0.9152
B( 17-C , 18-C ) :   1.1668 B( 17-C , 36-H ) :   0.9246 B( 17-C , 37-H ) :   0.9334
B( 18-C , 38-H ) :   0.9309 B( 18-C , 39-H ) :   0.9342 B( 18-C , 40-H ) :   0.9428

Dispersion correction           -0.067812028
FINAL SINGLE POINT ENERGY     -2929.508088094989

DIPOLE MOMENT
-------------

Method             : SCF
Type of density    : Electron Density
Multiplicity       :   1
Irrep              :   0
Energy             : -2929.6282948321972981 Eh
Relativity type    :
Basis              : AO
                                X                 Y                 Z
Electronic contribution:     -2.012825098       4.659346705     -11.898381103
Nuclear contribution   :      2.677169489      -5.921071029      13.536893656
                        -----------------------------------------
Total Dipole Moment    :      0.664344391      -1.261724324       1.638512552
                        -----------------------------------------
Magnitude (a.u.)       :      2.172101545
Magnitude (Debye)      :      5.521043364

Rotational constants in cm-1:             0.012955             0.005370             0.004807
Rotational constants in MHz :           388.380447           160.985922           144.113311

                             ****ORCA TERMINATED NORMALLY****
TOTAL RUN TIME: 0 days 0 hours 0 minutes 21 seconds 724 msec
