                         Program Version 6.0.0  -   RELEASE  -
|  1> ! r2scan-3c def2/J RI DEFGRID2 scfconv6 printgap
|  2> %output
|  3>     printlevel normal
|  4> end
|  5> * xyz 0 1
|  6> C 5.4383858583 0.3443422388 -0.985721535
|  7> C 4.5130976001 -0.5942920937 -0.2364310631
|  8> O 3.4262632046 0.1418141178 0.3618723617
|  9> P 1.9697943683 0.1716379678 -0.2846515656
| 10> S 1.9410835479 0.502952798 -2.221455235
| 11> O 1.2690358749 1.2230206386 0.6621238591
| 12> C 1.4085630737 2.6436320546 0.4389478025
| 13> C 0.5358846569 3.3523269328 1.4518095902
| 14> S 1.1531733002 -1.6483102911 0.3617347384
| 15> C -0.0631343309 -1.961774212 -0.9647974225
| 16> S -1.7491894286 -2.0947394528 -0.3423369211
| 17> P -2.0379087595 -0.042997752 0.1517867211
| 18> S -1.4414237854 1.2562574075 -1.18538993
| 19> O -1.3141679846 0.2244611237 1.5234979641
| 20> C -1.5452824948 -0.5674023193 2.718152207
| 21> C -0.3821576194 -0.3321846225 3.6585176509
| 22> O -3.5637061628 -0.0075396415 0.5949291482
| 23> C -4.6639579149 -0.5695294178 -0.1452783589
| 24> C -4.7371056598 -0.0565827692 -1.5678794567
| 25> H 4.9057455678 0.8116299839 -1.8114574037
| 26> H 5.8055688157 1.1194822582 -0.3190796106
| 27> H 6.2774668576 -0.2197268796 -1.379647217
| 28> H 5.021659441 -1.076144659 0.6003434304
| 29> H 4.1072652221 -1.3562599147 -0.9076370458
| 30> H 2.4625224095 2.9092414156 0.5539195154
| 31> H 1.0902443616 2.86223093 -0.586368319
| 32> H -0.4970867486 3.0365023949 1.3261296686
| 33> H 0.8610707958 3.1075242683 2.4586022185
| 34> H 0.6054019476 4.4237180474 1.2948437327
| 35> H 0.1703920091 -2.9227163369 -1.4158557207
| 36> H 0.0051958345 -1.1532877072 -1.6988793493
| 37> H -2.4915636756 -0.241623974 3.1536020193
| 38> H -1.6188926261 -1.6208972281 2.4316899267
| 39> H 0.5491643109 -0.6284784169 3.1817372529
| 40> H -0.3200412541 0.7201794593 3.9199634843
| 41> H -0.5275062579 -0.9210082744 4.5583253492
| 42> H -4.5617355375 -1.6579588545 -0.1308813961
| 43> H -5.5397787681 -0.2696055569 0.4327912558
| 44> H -3.8576778324 -0.3723885577 -2.1276489399
| 45> H -5.624414071 -0.4539328911 -2.0498958659
| 46> H -4.7762003494 1.0302198458 -1.5787289342
| 47> *
| 48>
| 49>                          ****END OF INPUT****

CARTESIAN COORDINATES (ANGSTROEM)
---------------------------------
  C      5.438386    0.344342   -0.985722
  C      4.513098   -0.594292   -0.236431
  O      3.426263    0.141814    0.361872
  P      1.969794    0.171638   -0.284652
  S      1.941084    0.502953   -2.221455
  O      1.269036    1.223021    0.662124
  C      1.408563    2.643632    0.438948
  C      0.535885    3.352327    1.451810
  S      1.153173   -1.648310    0.361735
  C     -0.063134   -1.961774   -0.964797
  S     -1.749189   -2.094739   -0.342337
  P     -2.037909   -0.042998    0.151787
  S     -1.441424    1.256257   -1.185390
  O     -1.314168    0.224461    1.523498
  C     -1.545282   -0.567402    2.718152
  C     -0.382158   -0.332185    3.658518
  O     -3.563706   -0.007540    0.594929
  C     -4.663958   -0.569529   -0.145278
  C     -4.737106   -0.056583   -1.567879
  H      4.905746    0.811630   -1.811457
  H      5.805569    1.119482   -0.319080
  H      6.277467   -0.219727   -1.379647
  H      5.021659   -1.076145    0.600343
  H      4.107265   -1.356260   -0.907637
  H      2.462522    2.909241    0.553920
  H      1.090244    2.862231   -0.586368
  H     -0.497087    3.036502    1.326130
  H      0.861071    3.107524    2.458602
  H      0.605402    4.423718    1.294844
  H      0.170392   -2.922716   -1.415856
  H      0.005196   -1.153288   -1.698879
  H     -2.491564   -0.241624    3.153602
  H     -1.618893   -1.620897    2.431690
  H      0.549164   -0.628478    3.181737
  H     -0.320041    0.720179    3.919963
  H     -0.527506   -0.921008    4.558325
  H     -4.561736   -1.657959   -0.130881
  H     -5.539779   -0.269606    0.432791
  H     -3.857678   -0.372389   -2.127649
  H     -5.624414   -0.453933   -2.049896
  H     -4.776200    1.030220   -1.578729

 Total Charge           Charge          ....    0
 Multiplicity           Mult            ....    1
 Number of Electrons    NEL             ....  202
 Basis Dimension        Dim             ....  539

ORBITAL ENERGIES
----------------

  NO   OCC          E(Eh)            E(eV)
   0   2.0000     -88.578710     -2410.3492
   1   2.0000     -88.575523     -2410.2625
   2   2.0000     -88.512170     -2408.5386
   3   2.0000     -88.511716     -2408.5263
   4   2.0000     -76.911274     -2092.8622
   5   2.0000     -76.907645     -2092.7634
   6   2.0000     -18.992609      -516.8152
   7   2.0000     -18.986620      -516.6522
   8   2.0000     -18.984901      -516.6054
   9   2.0000     -18.979005      -516.4450
  10   2.0000     -10.107406      -275.0365
  11   2.0000     -10.105193      -274.9763
  12   2.0000     -10.097425      -274.7649
  13   2.0000     -10.094679      -274.6902
  14   2.0000     -10.086302      -274.4622
  15   2.0000     -10.028143      -272.8796
  16   2.0000     -10.026937      -272.8468
  17   2.0000     -10.022564      -272.7278
  18   2.0000     -10.018342      -272.6130
  19   2.0000      -7.873270      -214.2426
  20   2.0000      -7.870145      -214.1575
  21   2.0000      -7.806943      -212.4377
  22   2.0000      -7.806503      -212.4257
  23   2.0000      -6.589542      -179.3106
  24   2.0000      -6.586093      -179.2167
  25   2.0000      -5.820068      -158.3721
  26   2.0000      -5.816953      -158.2873
  27   2.0000      -5.816823      -158.2838
  28   2.0000      -5.813919      -158.2048
  29   2.0000      -5.810713      -158.1175
  30   2.0000      -5.807339      -158.0257
  31   2.0000      -5.754612      -156.5909
  32   2.0000      -5.754390      -156.5849
  33   2.0000      -5.747368      -156.3938
  34   2.0000      -5.746784      -156.3779
  35   2.0000      -5.746727      -156.3764
  36   2.0000      -5.746343      -156.3659
  37   2.0000      -4.735328      -128.8548
  38   2.0000      -4.734913      -128.8435
  39   2.0000      -4.732631      -128.7814
  40   2.0000      -4.731523      -128.7513
  41   2.0000      -4.730948      -128.7356
  42   2.0000      -4.729965      -128.7089
  43   2.0000      -1.049706       -28.5639
  44   2.0000      -1.041823       -28.3494
  45   2.0000      -1.007677       -27.4203
  46   2.0000      -1.000604       -27.2278
  47   2.0000      -0.801319       -21.8050
  48   2.0000      -0.757519       -20.6131
  49   2.0000      -0.747557       -20.3421
  50   2.0000      -0.733203       -19.9515
  51   2.0000      -0.723750       -19.6942
  52   2.0000      -0.709478       -19.3059
  53   2.0000      -0.682333       -18.5672
  54   2.0000      -0.662029       -18.0147
  55   2.0000      -0.621028       -16.8990
  56   2.0000      -0.616330       -16.7712
  57   2.0000      -0.601678       -16.3725
  58   2.0000      -0.600140       -16.3306
  59   2.0000      -0.588585       -16.0162
  60   2.0000      -0.530674       -14.4404
  61   2.0000      -0.523544       -14.2464
  62   2.0000      -0.493645       -13.4328
  63   2.0000      -0.491758       -13.3814
  64   2.0000      -0.472010       -12.8440
  65   2.0000      -0.458459       -12.4753
  66   2.0000      -0.452243       -12.3061
  67   2.0000      -0.450064       -12.2469
  68   2.0000      -0.442196       -12.0328
  69   2.0000      -0.433555       -11.7976
  70   2.0000      -0.432812       -11.7774
  71   2.0000      -0.412511       -11.2250
  72   2.0000      -0.410240       -11.1632
  73   2.0000      -0.399638       -10.8747
  74   2.0000      -0.392022       -10.6675
  75   2.0000      -0.380551       -10.3553
  76   2.0000      -0.371811       -10.1175
  77   2.0000      -0.367069        -9.9885
  78   2.0000      -0.362554        -9.8656
  79   2.0000      -0.360007        -9.7963
  80   2.0000      -0.359060        -9.7705
  81   2.0000      -0.354758        -9.6535
  82   2.0000      -0.351453        -9.5635
  83   2.0000      -0.344009        -9.3610
  84   2.0000      -0.339246        -9.2314
  85   2.0000      -0.332544        -9.0490
  86   2.0000      -0.322466        -8.7748
  87   2.0000      -0.313423        -8.5287
  88   2.0000      -0.311272        -8.4701
  89   2.0000      -0.305778        -8.3206
  90   2.0000      -0.296131        -8.0581
  91   2.0000      -0.288038        -7.8379
  92   2.0000      -0.279208        -7.5976
  93   2.0000      -0.274610        -7.4725
  94   2.0000      -0.270635        -7.3643
  95   2.0000      -0.251230        -6.8363
  96   2.0000      -0.235022        -6.3953
  97   2.0000      -0.223770        -6.0891
  98   2.0000      -0.213347        -5.8055
  99   2.0000      -0.204395        -5.5619
 100   2.0000      -0.194310        -5.2875
 101   0.0000      -0.043135        -1.1738
 102   0.0000      -0.030609        -0.8329
 103   0.0000      -0.011925        -0.3245
 104   0.0000       0.013711         0.3731
 105   0.0000       0.019803         0.5389

MULLIKEN ATOMIC CHARGES
-----------------------
   0 C :   -0.461111
   1 C :   -0.117154
   2 O :   -0.306979
   3 P :    0.632923
   4 S :   -0.460602
   5 O :   -0.238256
   6 C :   -0.129106
   7 C :   -0.468614
   8 S :   -0.138693
   9 C :   -0.215888
  10 S :   -0.179601
  11 P :    0.649351
  12 S :   -0.394145
  13 O :   -0.246183
  14 C :   -0.117799
  15 C :   -0.455466
  16 O :   -0.309378
  17 C :   -0.161202
  18 C :   -0.427710
  19 H :    0.181048
  20 H :    0.149712
  21 H :    0.143700
  22 H :    0.147835
  23 H :    0.153002
  24 H :    0.145749
  25 H :    0.176234
  26 H :    0.183357
  27 H :    0.143623
  28 H :    0.142474
  29 H :    0.196786
  30 H :    0.219707
  31 H :    0.154513
  32 H :    0.159897
  33 H :    0.170268
  34 H :    0.152242
  35 H :    0.142955
  36 H :    0.149969
  37 H :    0.149790
  38 H :    0.171685
  39 H :    0.146344
  40 H :    0.164724
Sum of atomic charges:   -0.0000000

LOEWDIN ATOMIC CHARGES
----------------------
   0 C :   -0.400413
   1 C :    0.017932
   2 O :   -0.666943
   3 P :    0.364924
   4 S :   -0.126926
   5 O :   -0.667025
   6 C :    0.018453
   7 C :   -0.390703
   8 S :    0.170472
   9 C :   -0.413145
  10 S :    0.117002
  11 P :    0.376584
  12 S :   -0.063636
  13 O :   -0.659334
  14 C :    0.019703
  15 C :   -0.389074
  16 O :   -0.662749
  17 C :    0.023329
  18 C :   -0.405844
  19 H :    0.168423
  20 H :    0.157018
  21 H :    0.157733
  22 H :    0.175902
  23 H :    0.176788
  24 H :    0.169863
  25 H :    0.183677
  26 H :    0.170802
  27 H :    0.155975
  28 H :    0.158019
  29 H :    0.180639
  30 H :    0.204047
  31 H :    0.174245
  32 H :    0.176195
  33 H :    0.166428
  34 H :    0.160332
  35 H :    0.157836
  36 H :    0.170498
  37 H :    0.181430
  38 H :    0.167668
  39 H :    0.157862
  40 H :    0.166013

  Mayer bond orders larger than 0.100000
B(  0-C ,  1-C ) :   0.9555 B(  0-C , 19-H ) :   0.9604 B(  0-C , 20-H ) :   0.9753
B(  0-C , 21-H ) :   0.9657 B(  1-C ,  2-O ) :   0.7726 B(  1-C , 22-H ) :   0.9633
B(  1-C , 23-H ) :   0.9626 B(  2-O ,  3-P ) :   1.0492 B(  3-P ,  4-S ) :   1.7602
B(  3-P ,  5-O ) :   1.2032 B(  3-P ,  8-S ) :   1.1323 B(  5-O ,  6-C ) :   0.7631
B(  6-C ,  7-C ) :   0.9366 B(  6-C , 24-H ) :   0.9438 B(  6-C , 25-H ) :   0.9525
B(  7-C , 26-H ) :   0.9693 B(  7-C , 27-H ) :   0.9715 B(  7-C , 28-H ) :   0.9658
B(  8-S ,  9-C ) :   0.8897 B(  9-C , 10-S ) :   0.9178 B(  9-C , 29-H ) :   0.9137
B(  9-C , 30-H ) :   0.9032 B( 10-S , 11-P ) :   0.9868 B( 11-P , 12-S ) :   1.8828
B( 11-P , 13-O ) :   1.1295 B( 11-P , 16-O ) :   1.0359 B( 13-O , 14-C ) :   0.7529
B( 14-C , 15-C ) :   0.9559 B( 14-C , 31-H ) :   0.9419 B( 14-C , 32-H ) :   0.9535
B( 15-C , 33-H ) :   0.9675 B( 15-C , 34-H ) :   0.9693 B( 15-C , 35-H ) :   0.9649
B( 16-O , 17-C ) :   0.8076 B( 17-C , 18-C ) :   0.9439 B( 17-C , 36-H ) :   0.9635
B( 17-C , 37-H ) :   0.9573 B( 18-C , 38-H ) :   0.9539 B( 18-C , 39-H ) :   0.9631
B( 18-C , 40-H ) :   0.9644

Dispersion correction           -0.022364965
FINAL SINGLE POINT ENERGY     -2932.458902248547

DIPOLE MOMENT
-------------

Method             : SCF
Type of density    : Electron Density
Multiplicity       :   1
Irrep              :   0
Energy             : -2932.4830331458088040 Eh
Relativity type    :
Basis              : AO
                                X                 Y                 Z
Electronic contribution:     -2.321290113      -7.433763890      -8.339695208
Nuclear contribution   :      1.981196215       6.651980355       9.556718636
                        -----------------------------------------
Total Dipole Moment    :     -0.340093899      -0.781783535       1.217023428
                        -----------------------------------------
Magnitude (a.u.)       :      1.485932495
Magnitude (Debye)      :      3.776940244

Rotational constants in cm-1:             0.012662             0.005343             0.005231
Rotational constants in MHz :           379.594280           160.170950           156.830488

                             ****ORCA TERMINATED NORMALLY****
TOTAL RUN TIME: 0 days 0 hours 1 minutes 26 seconds 612 msec
