                         Program Version 6.0.0  -   RELEASE  -
|  1> ! r2scan-3c def2/J RI DEFGRID2 scfconv6 printgap
|  2> %output
|  3>     printlevel normal
|  4> end
|  5> %cpcm
|  6>     smd true
|  7>     smdsolvent "water"
|  8> end
|  9> * xyz 0 1
| 10> C 5.4383858583 0.3443422388 -0.985721535
| 11> C 4.5130976001 -0.5942920937 -0.2364310631
| 12> O 3.4262632046 0.1418141178 0.3618723617
| 13> P 1.9697943683 0.1716379678 -0.2846515656
| 14> S 1.9410835479 0.502952798 -2.221455235
| 15> O 1.2690358749 1.2230206386 0.6621238591
| 16> C 1.4085630737 2.6436320546 0.4389478025
| 17> C 0.5358846569 3.3523269328 1.4518095902
| 18> S 1.1531733002 -1.6483102911 0.3617347384
| 19> C -0.0631343309 -1.961774212 -0.9647974225
| 20> S -1.7491894286 -2.0947394528 -0.3423369211
| 21> P -2.0379087595 -0.042997752 0.1517867211
| 22> S -1.4414237854 1.2562574075 -1.18538993
| 23> O -1.3141679846 0.2244611237 1.5234979641
| 24> C -1.5452824948 -0.5674023193 2.718152207
| 25> C -0.3821576194 -0.3321846225 3.6585176509
| 26> O -3.5637061628 -0.0075396415 0.5949291482
| 27> C -4.6639579149 -0.5695294178 -0.1452783589
| 28> C -4.7371056598 -0.0565827692 -1.5678794567
| 29> H 4.9057455678 0.8116299839 -1.8114574037
| 30> H 5.8055688157 1.1194822582 -0.3190796106
| 31> H 6.2774668576 -0.2197268796 -1.379647217
| 32> H 5.021659441 -1.076144659 0.6003434304
| 33> H 4.1072652221 -1.3562599147 -0.9076370458
| 34> H 2.4625224095 2.9092414156 0.5539195154
| 35> H 1.0902443616 2.86223093 -0.586368319
| 36> H -0.4970867486 3.0365023949 1.3261296686
| 37> H 0.8610707958 3.1075242683 2.4586022185
| 38> H 0.6054019476 4.4237180474 1.2948437327
| 39> H 0.1703920091 -2.9227163369 -1.4158557207
| 40> H 0.0051958345 -1.1532877072 -1.6988793493
| 41> H -2.4915636756 -0.241623974 3.1536020193
| 42> H -1.6188926261 -1.6208972281 2.4316899267
| 43> H 0.5491643109 -0.6284784169 3.1817372529
| 44> H -0.3200412541 0.7201794593 3.9199634843
| 45> H -0.5275062579 -0.9210082744 4.5583253492
| 46> H -4.5617355375 -1.6579588545 -0.1308813961
| 47> H -5.5397787681 -0.2696055569 0.4327912558
| 48> H -3.8576778324 -0.3723885577 -2.1276489399
| 49> H -5.624414071 -0.4539328911 -2.0498958659
| 50> H -4.7762003494 1.0302198458 -1.5787289342
| 51> *
| 52>
| 53>                          ****END OF INPUT****

CARTESIAN COORDINATES (ANGSTROEM)
---------------------------------
  C      5.438386    0.344342   -0.985722
  C      4.513098   -0.594292   -0.236431
  O      3.426263    0.141814    0.361872
  P      1.969794    0.171638   -0.284652
  S      1.941084    0.502953   -2.221455
  O      1.269036    1.223021    0.662124
  C      1.408563    2.643632    0.438948
  C      0.535885    3.352327    1.451810
  S      1.153173   -1.648310    0.361735
  C     -0.063134   -1.961774   -0.964797
  S     -1.749189   -2.094739   -0.342337
  P     -2.037909   -0.042998    0.151787
  S     -1.441424    1.256257   -1.185390
  O     -1.314168    0.224461    1.523498
  C     -1.545282   -0.567402    2.718152
  C     -0.382158   -0.332185    3.658518
  O     -3.563706   -0.007540    0.594929
  C     -4.663958   -0.569529   -0.145278
  C     -4.737106   -0.056583   -1.567879
  H      4.905746    0.811630   -1.811457
  H      5.805569    1.119482   -0.319080
  H      6.277467   -0.219727   -1.379647
  H      5.021659   -1.076145    0.600343
  H      4.107265   -1.356260   -0.907637
  H      2.462522    2.909241    0.553920
  H      1.090244    2.862231   -0.586368
  H     -0.497087    3.036502    1.326130
  H      0.861071    3.107524    2.458602
  H      0.605402    4.423718    1.294844
  H      0.170392   -2.922716   -1.415856
  H      0.005196   -1.153288   -1.698879
  H     -2.491564   -0.241624    3.153602
  H     -1.618893   -1.620897    2.431690
  H      0.549164   -0.628478    3.181737
  H     -0.320041    0.720179    3.919963
  H     -0.527506   -0.921008    4.558325
  H     -4.561736   -1.657959   -0.130881
  H     -5.539779   -0.269606    0.432791
  H     -3.857678   -0.372389   -2.127649
  H     -5.624414   -0.453933   -2.049896
  H     -4.776200    1.030220   -1.578729

 Total Charge           Charge          ....    0
 Multiplicity           Mult            ....    1
 Number of Electrons    NEL             ....  202
 Basis Dimension        Dim             ....  539

ORBITAL ENERGIES
----------------

  NO   OCC          E(Eh)            E(eV)
   0   2.0000     -88.580771     -2410.4053
   1   2.0000     -88.580079     -2410.3865
   2   2.0000     -88.523562     -2408.8486
   3   2.0000     -88.521519     -2408.7930
   4   2.0000     -76.917330     -2093.0270
   5   2.0000     -76.916868     -2093.0144
   6   2.0000     -18.994024      -516.8537
   7   2.0000     -18.991466      -516.7841
   8   2.0000     -18.991223      -516.7775
   9   2.0000     -18.988852      -516.7129
  10   2.0000     -10.106132      -275.0018
  11   2.0000     -10.093332      -274.6535
  12   2.0000     -10.089836      -274.5584
  13   2.0000     -10.089045      -274.5369
  14   2.0000     -10.087304      -274.4895
  15   2.0000     -10.018972      -272.6301
  16   2.0000     -10.018378      -272.6139
  17   2.0000     -10.017266      -272.5837
  18   2.0000     -10.016404      -272.5602
  19   2.0000      -7.875219      -214.2956
  20   2.0000      -7.874632      -214.2796
  21   2.0000      -7.818662      -212.7566
  22   2.0000      -7.816669      -212.7024
  23   2.0000      -6.595644      -179.4766
  24   2.0000      -6.595348      -179.4685
  25   2.0000      -5.822052      -158.4261
  26   2.0000      -5.821455      -158.4098
  27   2.0000      -5.818799      -158.3376
  28   2.0000      -5.818410      -158.3270
  29   2.0000      -5.812617      -158.1693
  30   2.0000      -5.811823      -158.1478
  31   2.0000      -5.766256      -156.9078
  32   2.0000      -5.764441      -156.8584
  33   2.0000      -5.759093      -156.7129
  34   2.0000      -5.758509      -156.6970
  35   2.0000      -5.756956      -156.6547
  36   2.0000      -5.756492      -156.6421
  37   2.0000      -4.741388      -129.0197
  38   2.0000      -4.740964      -129.0082
  39   2.0000      -4.740751      -129.0024
  40   2.0000      -4.740191      -128.9872
  41   2.0000      -4.739288      -128.9626
  42   2.0000      -4.738862      -128.9510
  43   2.0000      -1.052532       -28.6408
  44   2.0000      -1.049514       -28.5587
  45   2.0000      -1.010176       -27.4883
  46   2.0000      -1.007792       -27.4234
  47   2.0000      -0.802990       -21.8505
  48   2.0000      -0.756975       -20.5983
  49   2.0000      -0.746194       -20.3050
  50   2.0000      -0.725353       -19.7379
  51   2.0000      -0.721548       -19.6343
  52   2.0000      -0.711028       -19.3481
  53   2.0000      -0.687752       -18.7147
  54   2.0000      -0.669831       -18.2270
  55   2.0000      -0.622808       -16.9475
  56   2.0000      -0.614282       -16.7155
  57   2.0000      -0.599443       -16.3117
  58   2.0000      -0.596738       -16.2381
  59   2.0000      -0.589548       -16.0424
  60   2.0000      -0.529322       -14.4036
  61   2.0000      -0.523739       -14.2517
  62   2.0000      -0.495395       -13.4804
  63   2.0000      -0.489316       -13.3150
  64   2.0000      -0.471009       -12.8168
  65   2.0000      -0.460241       -12.5238
  66   2.0000      -0.452545       -12.3144
  67   2.0000      -0.443935       -12.0801
  68   2.0000      -0.440946       -11.9988
  69   2.0000      -0.433814       -11.8047
  70   2.0000      -0.431209       -11.7338
  71   2.0000      -0.414903       -11.2901
  72   2.0000      -0.409348       -11.1389
  73   2.0000      -0.397008       -10.8031
  74   2.0000      -0.392335       -10.6760
  75   2.0000      -0.382701       -10.4138
  76   2.0000      -0.371164       -10.0999
  77   2.0000      -0.363392        -9.8884
  78   2.0000      -0.359067        -9.7707
  79   2.0000      -0.356069        -9.6891
  80   2.0000      -0.354853        -9.6560
  81   2.0000      -0.352235        -9.5848
  82   2.0000      -0.346230        -9.4214
  83   2.0000      -0.344419        -9.3721
  84   2.0000      -0.340316        -9.2605
  85   2.0000      -0.330527        -8.9941
  86   2.0000      -0.323849        -8.8124
  87   2.0000      -0.315776        -8.5927
  88   2.0000      -0.307393        -8.3646
  89   2.0000      -0.304882        -8.2963
  90   2.0000      -0.300961        -8.1896
  91   2.0000      -0.286912        -7.8073
  92   2.0000      -0.283003        -7.7009
  93   2.0000      -0.278786        -7.5862
  94   2.0000      -0.273629        -7.4458
  95   2.0000      -0.254132        -6.9153
  96   2.0000      -0.241624        -6.5749
  97   2.0000      -0.234284        -6.3752
  98   2.0000      -0.224249        -6.1021
  99   2.0000      -0.214013        -5.8236
 100   2.0000      -0.205685        -5.5970
 101   0.0000      -0.046986        -1.2786
 102   0.0000      -0.036627        -0.9967
 103   0.0000      -0.015450        -0.4204
 104   0.0000       0.007244         0.1971
 105   0.0000       0.015814         0.4303

MULLIKEN ATOMIC CHARGES
-----------------------
   0 C :   -0.498552
   1 C :   -0.115092
   2 O :   -0.333738
   3 P :    0.663844
   4 S :   -0.516084
   5 O :   -0.266926
   6 C :   -0.125956
   7 C :   -0.511785
   8 S :   -0.135773
   9 C :   -0.215852
  10 S :   -0.173020
  11 P :    0.668520
  12 S :   -0.453921
  13 O :   -0.278177
  14 C :   -0.104057
  15 C :   -0.506602
  16 O :   -0.335218
  17 C :   -0.159462
  18 C :   -0.466882
  19 H :    0.170919
  20 H :    0.165853
  21 H :    0.169292
  22 H :    0.174650
  23 H :    0.163807
  24 H :    0.170895
  25 H :    0.174665
  26 H :    0.173189
  27 H :    0.166083
  28 H :    0.169461
  29 H :    0.238809
  30 H :    0.212460
  31 H :    0.174830
  32 H :    0.173627
  33 H :    0.169944
  34 H :    0.168882
  35 H :    0.170526
  36 H :    0.171658
  37 H :    0.177346
  38 H :    0.165220
  39 H :    0.173121
  40 H :    0.169497
Sum of atomic charges:   -0.0000000

LOEWDIN ATOMIC CHARGES
----------------------
   0 C :   -0.404613
   1 C :    0.023049
   2 O :   -0.679787
   3 P :    0.369293
   4 S :   -0.162376
   5 O :   -0.685950
   6 C :    0.020171
   7 C :   -0.394934
   8 S :    0.175936
   9 C :   -0.407679
  10 S :    0.130821
  11 P :    0.379344
  12 S :   -0.105465
  13 O :   -0.680328
  14 C :    0.026655
  15 C :   -0.393822
  16 O :   -0.672853
  17 C :    0.030531
  18 C :   -0.409994
  19 H :    0.162277
  20 H :    0.161860
  21 H :    0.167303
  22 H :    0.187396
  23 H :    0.180178
  24 H :    0.179539
  25 H :    0.182748
  26 H :    0.164576
  27 H :    0.162617
  28 H :    0.168142
  29 H :    0.197368
  30 H :    0.200878
  31 H :    0.183509
  32 H :    0.181828
  33 H :    0.163094
  34 H :    0.163474
  35 H :    0.168963
  36 H :    0.178915
  37 H :    0.193139
  38 H :    0.162038
  39 H :    0.167987
  40 H :    0.164171

  Mayer bond orders larger than 0.100000
B(  0-C ,  1-C ) :   0.9452 B(  0-C , 19-H ) :   0.9650 B(  0-C , 20-H ) :   0.9716
B(  0-C , 21-H ) :   0.9604 B(  1-C ,  2-O ) :   0.7579 B(  1-C , 22-H ) :   0.9527
B(  1-C , 23-H ) :   0.9572 B(  2-O ,  3-P ) :   1.0549 B(  3-P ,  4-S ) :   1.7103
B(  3-P ,  5-O ) :   1.2022 B(  3-P ,  8-S ) :   1.1571 B(  5-O ,  6-C ) :   0.7555
B(  6-C ,  7-C ) :   0.9265 B(  6-C , 24-H ) :   0.9354 B(  6-C , 25-H ) :   0.9498
B(  7-C , 26-H ) :   0.9724 B(  7-C , 27-H ) :   0.9676 B(  7-C , 28-H ) :   0.9598
B(  8-S ,  9-C ) :   0.8821 B(  9-C , 10-S ) :   0.9109 B(  9-C , 29-H ) :   0.8973
B(  9-C , 30-H ) :   0.9076 B( 10-S , 11-P ) :   1.0088 B( 11-P , 12-S ) :   1.8431
B( 11-P , 13-O ) :   1.1344 B( 11-P , 16-O ) :   1.0499 B( 13-O , 14-C ) :   0.7486
B( 14-C , 15-C ) :   0.9377 B( 14-C , 31-H ) :   0.9326 B( 14-C , 32-H ) :   0.9475
B( 15-C , 33-H ) :   0.9694 B( 15-C , 34-H ) :   0.9670 B( 15-C , 35-H ) :   0.9580
B( 16-O , 17-C ) :   0.7977 B( 17-C , 18-C ) :   0.9218 B( 17-C , 36-H ) :   0.9591
B( 17-C , 37-H ) :   0.9480 B( 18-C , 38-H ) :   0.9578 B( 18-C , 39-H ) :   0.9571
B( 18-C , 40-H ) :   0.9658

Dispersion correction           -0.022364965
FINAL SINGLE POINT ENERGY     -2932.468468002058

DIPOLE MOMENT
-------------

Method             : SCF
Type of density    : Electron Density
Multiplicity       :   1
Irrep              :   0
Energy             : -2932.4925988993204555 Eh
Relativity type    :
Basis              : AO
                                X                 Y                 Z
Electronic contribution:     -2.431619496      -8.083849367      -7.879397813
Nuclear contribution   :      1.981196215       6.651980355       9.556718636
                        -----------------------------------------
Total Dipole Moment    :     -0.450423281      -1.431869012       1.677320823
                        -----------------------------------------
Magnitude (a.u.)       :      2.250896520
Magnitude (Debye)      :      5.721324273

Rotational constants in cm-1:             0.012662             0.005343             0.005231
Rotational constants in MHz :           379.594280           160.170950           156.830488

                             ****ORCA TERMINATED NORMALLY****
TOTAL RUN TIME: 0 days 0 hours 1 minutes 58 seconds 971 msec
