                         Program Version 6.0.1  -  RELEASE   -
|  1> ! pbe def2-sv(p) def2/J RI DEFGRID1 loosescf d4 GCP(DFT/SV(P)) printgap
|  2> %output
|  3>     printlevel normal
|  4> end
|  5> * xyz 0 1
|  6> C 4.3263677698 -3.4773994895 -1.5424425428
|  7> C 2.9493061983 -3.0002608844 -1.9762689569
|  8> O 2.6614084343 -1.6950334363 -1.4406685355
|  9> C 2.1491853317 -1.6138253133 -0.2295277435
| 10> O 1.907046984 -2.5598636553 0.4847596276
| 11> C 1.8764887447 -0.1712443433 0.1618433469
| 12> C 0.9952531058 0.5015194974 -0.8936469374
| 13> H 1.5552168527 0.6388914773 -1.8208570434
| 14> C 0.4746882998 1.8301148094 -0.3849099726
| 15> O -0.7138462972 2.0266391826 -0.2049029774
| 16> O 1.4225965892 2.6881319042 -0.1613863757
| 17> C 1.075131999 3.9579696405 0.4403798528
| 18> C 1.0088786106 3.8266863634 1.9528204464
| 19> S -0.45118728 -0.5213866105 -1.3468496212
| 20> P -1.7359513397 -0.1604405612 0.2916737458
| 21> S -1.1684671978 0.2953740475 2.123997015
| 22> O -3.0707079246 0.5673650961 -0.2002819379
| 23> C -3.4575431178 1.9099332321 0.0931186231
| 24> O -2.2600788846 -1.6789463566 0.2124207311
| 25> C -3.250053733 -2.1760352996 1.1151665207
| 26> H 4.5397735594 -4.4311283478 -2.0135220983
| 27> H 5.0827182761 -2.7548721872 -1.835738644
| 28> H 4.3543956302 -3.6038460252 -0.4625227848
| 29> H 2.1734409506 -3.6930744053 -1.6384896798
| 30> H 2.8941827227 -2.867241561 -3.0566035394
| 31> H 2.8211651785 0.369504932 0.2342163322
| 32> H 1.3855607985 -0.1766558878 1.1375106607
| 33> H 1.8757381503 4.6286693219 0.1303394069
| 34> H 0.1157351358 4.2871253628 0.0344352394
| 35> H 1.9683418567 3.505109873 2.3473394876
| 36> H 0.7479185186 4.7864916888 2.3856078408
| 37> H 0.2539411519 3.0956491069 2.2383505361
| 38> H -3.1061734006 2.5698414796 -0.6969565114
| 39> H -3.0354626379 2.221458949 1.0494503378
| 40> H -4.5443878383 1.9020175689 0.1384122176
| 41> H -3.2281547979 -3.2577956033 1.0098863564
| 42> H -4.2305407995 -1.7825542264 0.8483621842
| 43> H -3.0012593765 -1.8902407522 2.1397388272
| 44> *
| 45>
| 46>                          ****END OF INPUT****

CARTESIAN COORDINATES (ANGSTROEM)
---------------------------------
  C      4.326368   -3.477399   -1.542443
  C      2.949306   -3.000261   -1.976269
  O      2.661408   -1.695033   -1.440669
  C      2.149185   -1.613825   -0.229528
  O      1.907047   -2.559864    0.484760
  C      1.876489   -0.171244    0.161843
  C      0.995253    0.501519   -0.893647
  H      1.555217    0.638891   -1.820857
  C      0.474688    1.830115   -0.384910
  O     -0.713846    2.026639   -0.204903
  O      1.422597    2.688132   -0.161386
  C      1.075132    3.957970    0.440380
  C      1.008879    3.826686    1.952820
  S     -0.451187   -0.521387   -1.346850
  P     -1.735951   -0.160441    0.291674
  S     -1.168467    0.295374    2.123997
  O     -3.070708    0.567365   -0.200282
  C     -3.457543    1.909933    0.093119
  O     -2.260079   -1.678946    0.212421
  C     -3.250054   -2.176035    1.115167
  H      4.539774   -4.431128   -2.013522
  H      5.082718   -2.754872   -1.835739
  H      4.354396   -3.603846   -0.462523
  H      2.173441   -3.693074   -1.638490
  H      2.894183   -2.867242   -3.056604
  H      2.821165    0.369505    0.234216
  H      1.385561   -0.176656    1.137511
  H      1.875738    4.628669    0.130339
  H      0.115735    4.287125    0.034435
  H      1.968342    3.505110    2.347339
  H      0.747919    4.786492    2.385608
  H      0.253941    3.095649    2.238351
  H     -3.106173    2.569841   -0.696957
  H     -3.035463    2.221459    1.049450
  H     -4.544388    1.902018    0.138412
  H     -3.228155   -3.257796    1.009886
  H     -4.230541   -1.782554    0.848362
  H     -3.001259   -1.890241    2.139739

 Total Charge           Charge          ....    0
 Multiplicity           Mult            ....    1
 Number of Electrons    NEL             ....  174
 Basis Dimension        Dim             ....  316

ORBITAL ENERGIES
----------------

  NO   OCC          E(Eh)            E(eV)
   0   2.0000     -88.033662     -2395.5177
   1   2.0000     -87.971831     -2393.8352
   2   2.0000     -76.417711     -2079.4316
   3   2.0000     -18.830362      -512.4002
   4   2.0000     -18.800851      -511.5972
   5   2.0000     -18.780064      -511.0315
   6   2.0000     -18.767922      -510.7011
   7   2.0000     -18.766403      -510.6598
   8   2.0000     -18.732976      -509.7502
   9   2.0000     -10.034882      -273.0630
  10   2.0000     -10.005993      -272.2769
  11   2.0000      -9.963559      -271.1222
  12   2.0000      -9.953085      -270.8372
  13   2.0000      -9.946458      -270.6569
  14   2.0000      -9.932048      -270.2648
  15   2.0000      -9.926817      -270.1224
  16   2.0000      -9.905922      -269.5538
  17   2.0000      -9.891842      -269.1707
  18   2.0000      -9.885961      -269.0107
  19   2.0000      -7.678644      -208.9465
  20   2.0000      -7.616814      -207.2641
  21   2.0000      -6.413387      -174.5171
  22   2.0000      -5.706940      -155.2937
  23   2.0000      -5.703368      -155.1965
  24   2.0000      -5.694934      -154.9670
  25   2.0000      -5.645894      -153.6326
  26   2.0000      -5.637698      -153.4096
  27   2.0000      -5.636493      -153.3768
  28   2.0000      -4.636016      -126.1524
  29   2.0000      -4.635414      -126.1360
  30   2.0000      -4.634016      -126.0980
  31   2.0000      -1.040497       -28.3134
  32   2.0000      -1.008222       -27.4351
  33   2.0000      -0.968032       -26.3415
  34   2.0000      -0.945142       -25.7186
  35   2.0000      -0.922552       -25.1039
  36   2.0000      -0.910322       -24.7711
  37   2.0000      -0.768329       -20.9073
  38   2.0000      -0.718881       -19.5617
  39   2.0000      -0.707148       -19.2425
  40   2.0000      -0.685621       -18.6567
  41   2.0000      -0.648673       -17.6513
  42   2.0000      -0.629054       -17.1174
  43   2.0000      -0.619529       -16.8583
  44   2.0000      -0.614774       -16.7289
  45   2.0000      -0.594086       -16.1659
  46   2.0000      -0.568725       -15.4758
  47   2.0000      -0.513611       -13.9761
  48   2.0000      -0.506910       -13.7937
  49   2.0000      -0.497173       -13.5288
  50   2.0000      -0.485410       -13.2087
  51   2.0000      -0.466000       -12.6805
  52   2.0000      -0.461441       -12.5565
  53   2.0000      -0.451393       -12.2830
  54   2.0000      -0.440992       -12.0000
  55   2.0000      -0.431221       -11.7341
  56   2.0000      -0.422803       -11.5051
  57   2.0000      -0.416882       -11.3439
  58   2.0000      -0.408594       -11.1184
  59   2.0000      -0.404242       -11.0000
  60   2.0000      -0.398085       -10.8325
  61   2.0000      -0.394498       -10.7348
  62   2.0000      -0.386844       -10.5266
  63   2.0000      -0.384668       -10.4673
  64   2.0000      -0.373927       -10.1751
  65   2.0000      -0.369991       -10.0680
  66   2.0000      -0.360581        -9.8119
  67   2.0000      -0.356748        -9.7076
  68   2.0000      -0.348458        -9.4820
  69   2.0000      -0.340972        -9.2783
  70   2.0000      -0.336734        -9.1630
  71   2.0000      -0.328015        -8.9257
  72   2.0000      -0.324839        -8.8393
  73   2.0000      -0.311773        -8.4838
  74   2.0000      -0.303977        -8.2716
  75   2.0000      -0.293776        -7.9940
  76   2.0000      -0.291742        -7.9387
  77   2.0000      -0.286845        -7.8055
  78   2.0000      -0.274736        -7.4759
  79   2.0000      -0.260599        -7.0913
  80   2.0000      -0.257352        -7.0029
  81   2.0000      -0.256388        -6.9767
  82   2.0000      -0.246246        -6.7007
  83   2.0000      -0.215567        -5.8659
  84   2.0000      -0.211458        -5.7541
  85   2.0000      -0.191653        -5.2151
  86   2.0000      -0.184696        -5.0258
  87   0.0000      -0.050518        -1.3747
  88   0.0000      -0.039838        -1.0841
  89   0.0000      -0.013570        -0.3693
  90   0.0000       0.007823         0.2129
  91   0.0000       0.034173         0.9299

MULLIKEN ATOMIC CHARGES
-----------------------
   0 C :   -0.305666
   1 C :   -0.008110
   2 O :   -0.242806
   3 C :    0.126638
   4 O :   -0.180355
   5 C :   -0.077271
   6 C :   -0.332205
   7 H :    0.150792
   8 C :    0.236902
   9 O :   -0.199122
  10 O :   -0.213835
  11 C :   -0.012706
  12 C :   -0.318355
  13 S :   -0.058234
  14 P :    0.649624
  15 S :   -0.347353
  16 O :   -0.389769
  17 C :   -0.084141
  18 O :   -0.389372
  19 C :   -0.095516
  20 H :    0.113233
  21 H :    0.110615
  22 H :    0.129224
  23 H :    0.113944
  24 H :    0.100801
  25 H :    0.116332
  26 H :    0.122738
  27 H :    0.110111
  28 H :    0.113147
  29 H :    0.117526
  30 H :    0.115659
  31 H :    0.147724
  32 H :    0.112846
  33 H :    0.112046
  34 H :    0.114553
  35 H :    0.121526
  36 H :    0.105097
  37 H :    0.113737
Sum of atomic charges:   -0.0000000

LOEWDIN ATOMIC CHARGES
----------------------
   0 C :   -0.356620
   1 C :   -0.109820
   2 O :   -0.066298
   3 C :    0.021815
   4 O :   -0.150993
   5 C :   -0.255172
   6 C :   -0.263298
   7 H :    0.149759
   8 C :    0.030978
   9 O :   -0.154947
  10 O :   -0.030768
  11 C :   -0.104615
  12 C :   -0.359774
  13 S :    0.130034
  14 P :    0.592600
  15 S :   -0.336095
  16 O :   -0.252104
  17 C :   -0.211808
  18 O :   -0.267486
  19 C :   -0.215727
  20 H :    0.130862
  21 H :    0.123241
  22 H :    0.131511
  23 H :    0.123318
  24 H :    0.116904
  25 H :    0.141878
  26 H :    0.136061
  27 H :    0.121535
  28 H :    0.122045
  29 H :    0.127253
  30 H :    0.132949
  31 H :    0.133007
  32 H :    0.111445
  33 H :    0.107175
  34 H :    0.115033
  35 H :    0.120524
  36 H :    0.107793
  37 H :    0.107803

  Mayer bond orders larger than 0.100000
B(  0-C ,  1-C ) :   1.1740 B(  0-C , 20-H ) :   0.9444 B(  0-C , 21-H ) :   0.9487
B(  0-C , 22-H ) :   0.9457 B(  1-C ,  2-O ) :   0.9149 B(  1-C , 23-H ) :   0.9143
B(  1-C , 24-H ) :   0.9376 B(  2-O ,  3-C ) :   1.1993 B(  3-C ,  4-O ) :   2.0815
B(  3-C ,  5-C ) :   1.0210 B(  5-C ,  6-C ) :   1.0338 B(  5-C , 25-H ) :   0.8753
B(  5-C , 26-H ) :   0.8776 B(  6-C ,  7-H ) :   0.8590 B(  6-C ,  8-C ) :   0.9218
B(  6-C , 13-S ) :   1.0464 B(  8-C ,  9-O ) :   1.9024 B(  8-C , 10-O ) :   1.2954
B(  9-O , 14-P ) :   0.1324 B( 10-O , 11-C ) :   0.8914 B( 11-C , 12-C ) :   1.1772
B( 11-C , 27-H ) :   0.9361 B( 11-C , 28-H ) :   0.9159 B( 12-C , 29-H ) :   0.9477
B( 12-C , 30-H ) :   0.9408 B( 12-C , 31-H ) :   0.9286 B( 13-S , 14-P ) :   0.9280
B( 13-S , 15-S ) :   0.1094 B( 14-P , 15-S ) :   1.5452 B( 14-P , 16-O ) :   1.0951
B( 14-P , 18-O ) :   1.0799 B( 16-O , 17-C ) :   0.9325 B( 17-C , 32-H ) :   0.9534
B( 17-C , 33-H ) :   0.9347 B( 17-C , 34-H ) :   0.9546 B( 18-O , 19-C ) :   0.9413
B( 19-C , 35-H ) :   0.9607 B( 19-C , 36-H ) :   0.9510 B( 19-C , 37-H ) :   0.9330

Dispersion correction           -0.052128977
FINAL SINGLE POINT ENERGY     -1979.012267339066

DIPOLE MOMENT
-------------

Method             : SCF
Type of density    : Electron Density
Multiplicity       :   1
Irrep              :   0
Energy             : -1979.1425861425564108 Eh
Relativity type    :
Basis              : AO
                                X                 Y                 Z
Electronic contribution:     -9.055749444      -2.162979992      -2.600391640
Nuclear contribution   :      9.686230979       3.468268464       1.732343256
                        -----------------------------------------
Total Dipole Moment    :      0.630481536       1.305288472      -0.868048384
                        -----------------------------------------
Magnitude (a.u.)       :      1.689613257
Magnitude (Debye)      :      4.294655598

Rotational constants in cm-1:             0.012031             0.007598             0.005593
Rotational constants in MHz :           360.665702           227.781448           167.661391

                             ****ORCA TERMINATED NORMALLY****
TOTAL RUN TIME: 0 days 0 hours 0 minutes 37 seconds 441 msec
