                         Program Version 6.0.0  -   RELEASE  -
|  1> ! pbe def2-sv(p) def2/J RI DEFGRID1 loosescf d4 GCP(DFT/SV(P)) printgap
|  2> %output
|  3>     printlevel normal
|  4> end
|  5> * xyz 0 1
|  6> C 5.8073601678 -0.5737950356 -0.5518719575
|  7> C 4.3368207102 -0.8761928906 -0.7572520521
|  8> O 3.5791030878 0.238603655 -0.2511446649
|  9> P 2.0525666525 0.4495198084 -0.6517177714
| 10> S 1.7478273925 0.4046534516 -2.5842908951
| 11> O 1.7559230463 1.8488382527 -0.0038158237
| 12> C 1.5017962644 2.1365188846 1.3919777118
| 13> C 2.5529621616 1.563593232 2.3166487129
| 14> S 1.0816622249 -1.078106694 0.4707833015
| 15> C -0.0546040387 -1.7635283229 -0.7777024364
| 16> S -1.7398051012 -1.9316081696 -0.1538477585
| 17> P -2.0874905112 0.1126933918 0.3180882982
| 18> S -1.3314827421 1.4399606497 -0.9166956221
| 19> O -1.546614824 0.3349859485 1.7827398004
| 20> C -1.5820022455 -0.619433225 2.876410941
| 21> C -2.972881387 -1.1437419887 3.1550151733
| 22> O -3.6604790773 0.2110698017 0.5086965125
| 23> C -4.5633868556 0.4822514308 -0.5757734186
| 24> C -4.5993215048 -0.6418938891 -1.5911570829
| 25> H 6.0793131727 0.330363008 -1.0892919016
| 26> H 6.0140549293 -0.4316253806 0.5046997937
| 27> H 6.3967244123 -1.4041651865 -0.9263462673
| 28> H 4.0331292348 -1.7716748627 -0.2076040799
| 29> H 4.0978988982 -1.0072780778 -1.8183508678
| 30> H 1.4884141794 3.227449882 1.4172872253
| 31> H 0.5043979299 1.7582283076 1.6358963664
| 32> H 3.5403702549 1.90265828 2.0142819169
| 33> H 2.3502250012 1.8978107679 3.329468334
| 34> H 2.5289328458 0.4751069526 2.2905862358
| 35> H 0.2735979094 -2.7674064624 -1.0352463776
| 36> H -0.0327687089 -1.1057844262 -1.651655209
| 37> H -0.8921950094 -1.4333177949 2.6349345389
| 38> H -1.1921787263 -0.0437239582 3.7169451049
| 39> H -3.6609892213 -0.3187283307 3.3189739903
| 40> H -3.3289081901 -1.7375115709 2.3157077493
| 41> H -2.9417216548 -1.7687674963 4.0420809118
| 42> H -5.5282046997 0.6109587381 -0.0831875847
| 43> H -4.2607612833 1.4203200474 -1.0520088149
| 44> H -4.7809640864 -1.593521371 -1.0982776682
| 45> H -5.3900581412 -0.450439298 -2.309479259
| 46> H -3.6500086915 -0.6948438463 -2.1225009386
| 47> *
| 48>
| 49>                          ****END OF INPUT****

CARTESIAN COORDINATES (ANGSTROEM)
---------------------------------
  C      5.807360   -0.573795   -0.551872
  C      4.336821   -0.876193   -0.757252
  O      3.579103    0.238604   -0.251145
  P      2.052567    0.449520   -0.651718
  S      1.747827    0.404653   -2.584291
  O      1.755923    1.848838   -0.003816
  C      1.501796    2.136519    1.391978
  C      2.552962    1.563593    2.316649
  S      1.081662   -1.078107    0.470783
  C     -0.054604   -1.763528   -0.777702
  S     -1.739805   -1.931608   -0.153848
  P     -2.087491    0.112693    0.318088
  S     -1.331483    1.439961   -0.916696
  O     -1.546615    0.334986    1.782740
  C     -1.582002   -0.619433    2.876411
  C     -2.972881   -1.143742    3.155015
  O     -3.660479    0.211070    0.508697
  C     -4.563387    0.482251   -0.575773
  C     -4.599322   -0.641894   -1.591157
  H      6.079313    0.330363   -1.089292
  H      6.014055   -0.431625    0.504700
  H      6.396724   -1.404165   -0.926346
  H      4.033129   -1.771675   -0.207604
  H      4.097899   -1.007278   -1.818351
  H      1.488414    3.227450    1.417287
  H      0.504398    1.758228    1.635896
  H      3.540370    1.902658    2.014282
  H      2.350225    1.897811    3.329468
  H      2.528933    0.475107    2.290586
  H      0.273598   -2.767406   -1.035246
  H     -0.032769   -1.105784   -1.651655
  H     -0.892195   -1.433318    2.634935
  H     -1.192179   -0.043724    3.716945
  H     -3.660989   -0.318728    3.318974
  H     -3.328908   -1.737512    2.315708
  H     -2.941722   -1.768767    4.042081
  H     -5.528205    0.610959   -0.083188
  H     -4.260761    1.420320   -1.052009
  H     -4.780964   -1.593521   -1.098278
  H     -5.390058   -0.450439   -2.309479
  H     -3.650009   -0.694844   -2.122501

 Total Charge           Charge          ....    0
 Multiplicity           Mult            ....    1
 Number of Electrons    NEL             ....  202
 Basis Dimension        Dim             ....  334

ORBITAL ENERGIES
----------------

  NO   OCC          E(Eh)            E(eV)
   0   2.0000     -88.047921     -2395.9057
   1   2.0000     -88.043115     -2395.7750
   2   2.0000     -87.980331     -2394.0665
   3   2.0000     -87.975871     -2393.9451
   4   2.0000     -76.426575     -2079.6728
   5   2.0000     -76.420143     -2079.4978
   6   2.0000     -18.793384      -511.3940
   7   2.0000     -18.793127      -511.3870
   8   2.0000     -18.783851      -511.1346
   9   2.0000     -18.783782      -511.1327
  10   2.0000      -9.959124      -271.0016
  11   2.0000      -9.954689      -270.8808
  12   2.0000      -9.953132      -270.8385
  13   2.0000      -9.946822      -270.6668
  14   2.0000      -9.946017      -270.6449
  15   2.0000      -9.890911      -269.1454
  16   2.0000      -9.885433      -268.9963
  17   2.0000      -9.884381      -268.9677
  18   2.0000      -9.884259      -268.9644
  19   2.0000      -7.692686      -209.3286
  20   2.0000      -7.687223      -209.1800
  21   2.0000      -7.624985      -207.4864
  22   2.0000      -7.621128      -207.3814
  23   2.0000      -6.423591      -174.7948
  24   2.0000      -6.417253      -174.6223
  25   2.0000      -5.720551      -155.6641
  26   2.0000      -5.717036      -155.5684
  27   2.0000      -5.715061      -155.5147
  28   2.0000      -5.711680      -155.4227
  29   2.0000      -5.709877      -155.3736
  30   2.0000      -5.704427      -155.2254
  31   2.0000      -5.654106      -153.8560
  32   2.0000      -5.650176      -153.7491
  33   2.0000      -5.645412      -153.6195
  34   2.0000      -5.645199      -153.6137
  35   2.0000      -5.641764      -153.5202
  36   2.0000      -5.641075      -153.5015
  37   2.0000      -4.646355      -126.4337
  38   2.0000      -4.645528      -126.4112
  39   2.0000      -4.643764      -126.3632
  40   2.0000      -4.639906      -126.2583
  41   2.0000      -4.639158      -126.2379
  42   2.0000      -4.637565      -126.1946
  43   2.0000      -0.988218       -26.8908
  44   2.0000      -0.979752       -26.6604
  45   2.0000      -0.947081       -25.7714
  46   2.0000      -0.937101       -25.4998
  47   2.0000      -0.763173       -20.7670
  48   2.0000      -0.719182       -19.5699
  49   2.0000      -0.710809       -19.3421
  50   2.0000      -0.692183       -18.8353
  51   2.0000      -0.687307       -18.7026
  52   2.0000      -0.677431       -18.4338
  53   2.0000      -0.648096       -17.6356
  54   2.0000      -0.630695       -17.1621
  55   2.0000      -0.597984       -16.2720
  56   2.0000      -0.590397       -16.0655
  57   2.0000      -0.579210       -15.7611
  58   2.0000      -0.565569       -15.3899
  59   2.0000      -0.561172       -15.2703
  60   2.0000      -0.501060       -13.6345
  61   2.0000      -0.492567       -13.4034
  62   2.0000      -0.473317       -12.8796
  63   2.0000      -0.468563       -12.7502
  64   2.0000      -0.451720       -12.2919
  65   2.0000      -0.448694       -12.2096
  66   2.0000      -0.443086       -12.0570
  67   2.0000      -0.435774       -11.8580
  68   2.0000      -0.429908       -11.6984
  69   2.0000      -0.420125       -11.4322
  70   2.0000      -0.412054       -11.2126
  71   2.0000      -0.403071       -10.9681
  72   2.0000      -0.398877       -10.8540
  73   2.0000      -0.381865       -10.3911
  74   2.0000      -0.377001       -10.2587
  75   2.0000      -0.365582        -9.9480
  76   2.0000      -0.363572        -9.8933
  77   2.0000      -0.359805        -9.7908
  78   2.0000      -0.355913        -9.6849
  79   2.0000      -0.353970        -9.6320
  80   2.0000      -0.348583        -9.4854
  81   2.0000      -0.347740        -9.4625
  82   2.0000      -0.344231        -9.3670
  83   2.0000      -0.336903        -9.1676
  84   2.0000      -0.333425        -9.0729
  85   2.0000      -0.316532        -8.6133
  86   2.0000      -0.306380        -8.3370
  87   2.0000      -0.295633        -8.0446
  88   2.0000      -0.293154        -7.9771
  89   2.0000      -0.292157        -7.9500
  90   2.0000      -0.283335        -7.7099
  91   2.0000      -0.277281        -7.5452
  92   2.0000      -0.267418        -7.2768
  93   2.0000      -0.262271        -7.1368
  94   2.0000      -0.254114        -6.9148
  95   2.0000      -0.237986        -6.4759
  96   2.0000      -0.220641        -6.0039
  97   2.0000      -0.208207        -5.6656
  98   2.0000      -0.196852        -5.3566
  99   2.0000      -0.192990        -5.2515
 100   2.0000      -0.182057        -4.9540
 101   0.0000      -0.045455        -1.2369
 102   0.0000      -0.033285        -0.9057
 103   0.0000      -0.008081        -0.2199
 104   0.0000       0.006863         0.1868
 105   0.0000       0.020496         0.5577

MULLIKEN ATOMIC CHARGES
-----------------------
   0 C :   -0.279332
   1 C :   -0.006793
   2 O :   -0.376823
   3 P :    0.612423
   4 S :   -0.298932
   5 O :   -0.349636
   6 C :   -0.016167
   7 C :   -0.318088
   8 S :   -0.150515
   9 C :   -0.323952
  10 S :   -0.118590
  11 P :    0.585648
  12 S :   -0.285910
  13 O :   -0.355673
  14 C :   -0.001971
  15 C :   -0.304058
  16 O :   -0.371892
  17 C :    0.000152
  18 C :   -0.320455
  19 H :    0.121403
  20 H :    0.112524
  21 H :    0.109484
  22 H :    0.092959
  23 H :    0.101517
  24 H :    0.108554
  25 H :    0.135901
  26 H :    0.123977
  27 H :    0.111606
  28 H :    0.119499
  29 H :    0.177718
  30 H :    0.208985
  31 H :    0.110696
  32 H :    0.106347
  33 H :    0.123266
  34 H :    0.120198
  35 H :    0.114030
  36 H :    0.104077
  37 H :    0.114929
  38 H :    0.114629
  39 H :    0.114995
  40 H :    0.133267
Sum of atomic charges:   -0.0000000

LOEWDIN ATOMIC CHARGES
----------------------
   0 C :   -0.350373
   1 C :   -0.125158
   2 O :   -0.249083
   3 P :    0.573048
   4 S :   -0.298700
   5 O :   -0.222849
   6 C :   -0.115675
   7 C :   -0.368101
   8 S :    0.057056
   9 C :   -0.478547
  10 S :    0.075701
  11 P :    0.563470
  12 S :   -0.291122
  13 O :   -0.234043
  14 C :   -0.115722
  15 C :   -0.366193
  16 O :   -0.242733
  17 C :   -0.117542
  18 C :   -0.371153
  19 H :    0.129375
  20 H :    0.124585
  21 H :    0.129563
  22 H :    0.103856
  23 H :    0.106154
  24 H :    0.123543
  25 H :    0.114093
  26 H :    0.128634
  27 H :    0.130432
  28 H :    0.113718
  29 H :    0.135472
  30 H :    0.125886
  31 H :    0.103144
  32 H :    0.120515
  33 H :    0.129434
  34 H :    0.117702
  35 H :    0.131862
  36 H :    0.118316
  37 H :    0.113801
  38 H :    0.121983
  39 H :    0.132049
  40 H :    0.123603

  Mayer bond orders larger than 0.100000
B(  0-C ,  1-C ) :   1.1598 B(  0-C , 19-H ) :   0.9510 B(  0-C , 20-H ) :   0.9517
B(  0-C , 21-H ) :   0.9424 B(  1-C ,  2-O ) :   0.9112 B(  1-C , 22-H ) :   0.9249
B(  1-C , 23-H ) :   0.9063 B(  2-O ,  3-P ) :   1.0785 B(  3-P ,  4-S ) :   1.6349
B(  3-P ,  5-O ) :   1.1606 B(  3-P ,  8-S ) :   0.9259 B(  4-S ,  8-S ) :   0.1141
B(  4-S , 30-H ) :   0.1045 B(  5-O ,  6-C ) :   0.8927 B(  6-C ,  7-C ) :   1.1645
B(  6-C , 24-H ) :   0.9339 B(  6-C , 25-H ) :   0.9086 B(  7-C , 26-H ) :   0.9410
B(  7-C , 27-H ) :   0.9359 B(  7-C , 28-H ) :   0.9381 B(  8-S ,  9-C ) :   0.9961
B(  9-C , 10-S ) :   0.9984 B(  9-C , 29-H ) :   0.9104 B(  9-C , 30-H ) :   0.8432
B( 10-S , 11-P ) :   0.9333 B( 10-S , 12-S ) :   0.1070 B( 11-P , 12-S ) :   1.6484
B( 11-P , 13-O ) :   1.1165 B( 11-P , 16-O ) :   1.0942 B( 13-O , 14-C ) :   0.8952
B( 14-C , 15-C ) :   1.1730 B( 14-C , 31-H ) :   0.9128 B( 14-C , 32-H ) :   0.9335
B( 15-C , 33-H ) :   0.9426 B( 15-C , 34-H ) :   0.9376 B( 15-C , 35-H ) :   0.9359
B( 16-O , 17-C ) :   0.9049 B( 17-C , 18-C ) :   1.1658 B( 17-C , 36-H ) :   0.9341
B( 17-C , 37-H ) :   0.9156 B( 18-C , 38-H ) :   0.9446 B( 18-C , 39-H ) :   0.9374
B( 18-C , 40-H ) :   0.9344

Dispersion correction           -0.067734598
FINAL SINGLE POINT ENERGY     -2929.515619521294

DIPOLE MOMENT
-------------

Method             : SCF
Type of density    : Electron Density
Multiplicity       :   1
Irrep              :   0
Energy             : -2929.6341205902517686 Eh
Relativity type    :
Basis              : AO
                                X                 Y                 Z
Electronic contribution:     -1.945234471       3.973966504     -11.703191560
Nuclear contribution   :      1.586487535      -5.032181010      13.392449878
                        -----------------------------------------
Total Dipole Moment    :     -0.358746936      -1.058214507       1.689258318
                        -----------------------------------------
Magnitude (a.u.)       :      2.025366873
Magnitude (Debye)      :      5.148073467

Rotational constants in cm-1:             0.013593             0.005100             0.004737
Rotational constants in MHz :           407.495095           152.900337           141.998019

                             ****ORCA TERMINATED NORMALLY****
TOTAL RUN TIME: 0 days 0 hours 0 minutes 21 seconds 571 msec
