                         Program Version 6.0.0  -   RELEASE  -
|  1> ! pbe def2-sv(p) def2/J RI DEFGRID1 loosescf d4 GCP(DFT/SV(P)) printgap
|  2> %output
|  3>     printlevel normal
|  4> end
|  5> * xyz 0 1
|  6> C 3.6529352516 2.3610904367 -1.4308358393
|  7> C 4.3079037456 1.7611645187 -0.2033180224
|  8> O 3.8951564197 0.4010829077 0.009090496
|  9> P 2.4013133222 0.022533679 0.4092372998
| 10> S 1.6268940979 1.2628032273 1.7201846488
| 11> O 2.5709596866 -1.4791861051 0.8757144901
| 12> C 2.6025952731 -1.8895719541 2.2615596335
| 13> C 1.5106404124 -2.9113454774 2.507606524
| 14> S 1.4657997643 -0.2874457728 -1.4655909496
| 15> C 0.1693860484 -1.4624773638 -0.9640929984
| 16> S -0.8782736857 -0.8957254496 0.3937883768
| 17> P -2.5811087705 -0.1596311464 -0.672311368
| 18> S -2.5405225387 -0.4560838656 -2.6060142987
| 19> O -2.811103346 1.3442352487 -0.199295498
| 20> C -2.3255595772 2.4861219818 -0.9223039548
| 21> C -0.8147159549 2.5774887543 -0.911246075
| 22> O -3.8019671652 -0.8976178381 0.0045042866
| 23> C -4.4109168341 -0.5349359436 1.2669266474
| 24> C -3.4488055874 -0.6527250364 2.4296420131
| 25> H 4.0490073404 3.3564552293 -1.6038444283
| 26> H 3.8398583721 1.7390103352 -2.3025491829
| 27> H 2.5759625509 2.4292860831 -1.276440037
| 28> H 4.0558600493 2.3420048619 0.6900885611
| 29> H 5.3911468309 1.6951961128 -0.311639102
| 30> H 3.5949053031 -2.3113276289 2.4310306038
| 31> H 2.4643834184 -1.0085819239 2.8970776984
| 32> H 1.5559647711 -3.2368330772 3.541694273
| 33> H 0.5359081526 -2.4669659345 2.315181991
| 34> H 1.6448650976 -3.7699722964 1.8554895588
| 35> H 0.6412395273 -2.3869343429 -0.642796034
| 36> H -0.4488681378 -1.6153850395 -1.8517607177
| 37> H -2.6970164062 2.4292050543 -1.9502516472
| 38> H -2.7817800213 3.3321659648 -0.4060274096
| 39> H -0.4335140269 2.5157034874 0.1066326273
| 40> H -0.3895614417 1.766203799 -1.5020460317
| 41> H -0.5074644286 3.5220689724 -1.348687573
| 42> H -4.796833605 0.4826659841 1.1814683933
| 43> H -5.2376272068 -1.2414075056 1.3550739267
| 44> H -2.6288540319 0.0556036222 2.3162690095
| 45> H -3.9771328728 -0.4323594619 3.3520253502
| 46> H -3.0376764565 -1.6574924415 2.4831571785
| 47> *
| 48>
| 49>                          ****END OF INPUT****

CARTESIAN COORDINATES (ANGSTROEM)
---------------------------------
  C      3.652935    2.361090   -1.430836
  C      4.307904    1.761165   -0.203318
  O      3.895156    0.401083    0.009090
  P      2.401313    0.022534    0.409237
  S      1.626894    1.262803    1.720185
  O      2.570960   -1.479186    0.875714
  C      2.602595   -1.889572    2.261560
  C      1.510640   -2.911345    2.507607
  S      1.465800   -0.287446   -1.465591
  C      0.169386   -1.462477   -0.964093
  S     -0.878274   -0.895725    0.393788
  P     -2.581109   -0.159631   -0.672311
  S     -2.540523   -0.456084   -2.606014
  O     -2.811103    1.344235   -0.199295
  C     -2.325560    2.486122   -0.922304
  C     -0.814716    2.577489   -0.911246
  O     -3.801967   -0.897618    0.004504
  C     -4.410917   -0.534936    1.266927
  C     -3.448806   -0.652725    2.429642
  H      4.049007    3.356455   -1.603844
  H      3.839858    1.739010   -2.302549
  H      2.575963    2.429286   -1.276440
  H      4.055860    2.342005    0.690089
  H      5.391147    1.695196   -0.311639
  H      3.594905   -2.311328    2.431031
  H      2.464383   -1.008582    2.897078
  H      1.555965   -3.236833    3.541694
  H      0.535908   -2.466966    2.315182
  H      1.644865   -3.769972    1.855490
  H      0.641240   -2.386934   -0.642796
  H     -0.448868   -1.615385   -1.851761
  H     -2.697016    2.429205   -1.950252
  H     -2.781780    3.332166   -0.406027
  H     -0.433514    2.515703    0.106633
  H     -0.389561    1.766204   -1.502046
  H     -0.507464    3.522069   -1.348688
  H     -4.796834    0.482666    1.181468
  H     -5.237627   -1.241408    1.355074
  H     -2.628854    0.055604    2.316269
  H     -3.977133   -0.432359    3.352025
  H     -3.037676   -1.657492    2.483157

 Total Charge           Charge          ....    0
 Multiplicity           Mult            ....    1
 Number of Electrons    NEL             ....  202
 Basis Dimension        Dim             ....  334

ORBITAL ENERGIES
----------------

  NO   OCC          E(Eh)            E(eV)
   0   2.0000     -88.041514     -2395.7314
   1   2.0000     -88.041438     -2395.7293
   2   2.0000     -87.987995     -2394.2751
   3   2.0000     -87.987911     -2394.2728
   4   2.0000     -76.427869     -2079.7080
   5   2.0000     -76.427227     -2079.6906
   6   2.0000     -18.795760      -511.4586
   7   2.0000     -18.793226      -511.3897
   8   2.0000     -18.789921      -511.2997
   9   2.0000     -18.789750      -511.2951
  10   2.0000      -9.957566      -270.9591
  11   2.0000      -9.954437      -270.8740
  12   2.0000      -9.953064      -270.8366
  13   2.0000      -9.952028      -270.8084
  14   2.0000      -9.948484      -270.7120
  15   2.0000      -9.890516      -269.1346
  16   2.0000      -9.888521      -269.0803
  17   2.0000      -9.886506      -269.0255
  18   2.0000      -9.870020      -268.5769
  19   2.0000      -7.686249      -209.1535
  20   2.0000      -7.685781      -209.1407
  21   2.0000      -7.633095      -207.7071
  22   2.0000      -7.632722      -207.6969
  23   2.0000      -6.425402      -174.8441
  24   2.0000      -6.424642      -174.8234
  25   2.0000      -5.714284      -155.4936
  26   2.0000      -5.713748      -155.4790
  27   2.0000      -5.710763      -155.3978
  28   2.0000      -5.710284      -155.3847
  29   2.0000      -5.703076      -155.1886
  30   2.0000      -5.702799      -155.1810
  31   2.0000      -5.662018      -154.0713
  32   2.0000      -5.661449      -154.0559
  33   2.0000      -5.653621      -153.8429
  34   2.0000      -5.653452      -153.8383
  35   2.0000      -5.653316      -153.8346
  36   2.0000      -5.652978      -153.8253
  37   2.0000      -4.648079      -126.4806
  38   2.0000      -4.647540      -126.4660
  39   2.0000      -4.647191      -126.4565
  40   2.0000      -4.645980      -126.4235
  41   2.0000      -4.645736      -126.4169
  42   2.0000      -4.645244      -126.4035
  43   2.0000      -0.987836       -26.8804
  44   2.0000      -0.987440       -26.8696
  45   2.0000      -0.947649       -25.7868
  46   2.0000      -0.942966       -25.6594
  47   2.0000      -0.760867       -20.7042
  48   2.0000      -0.722621       -19.6635
  49   2.0000      -0.711253       -19.3542
  50   2.0000      -0.688487       -18.7347
  51   2.0000      -0.687327       -18.7031
  52   2.0000      -0.674026       -18.3412
  53   2.0000      -0.653654       -17.7868
  54   2.0000      -0.638634       -17.3781
  55   2.0000      -0.601173       -16.3587
  56   2.0000      -0.593012       -16.1367
  57   2.0000      -0.577904       -15.7256
  58   2.0000      -0.574293       -15.6273
  59   2.0000      -0.556691       -15.1483
  60   2.0000      -0.502866       -13.6837
  61   2.0000      -0.494418       -13.4538
  62   2.0000      -0.473331       -12.8800
  63   2.0000      -0.468364       -12.7448
  64   2.0000      -0.460389       -12.5278
  65   2.0000      -0.448696       -12.2096
  66   2.0000      -0.442613       -12.0441
  67   2.0000      -0.435658       -11.8548
  68   2.0000      -0.426648       -11.6097
  69   2.0000      -0.421927       -11.4812
  70   2.0000      -0.413789       -11.2598
  71   2.0000      -0.398981       -10.8568
  72   2.0000      -0.392330       -10.6758
  73   2.0000      -0.390938       -10.6380
  74   2.0000      -0.380673       -10.3586
  75   2.0000      -0.371416       -10.1067
  76   2.0000      -0.368699       -10.0328
  77   2.0000      -0.358572        -9.7572
  78   2.0000      -0.357442        -9.7265
  79   2.0000      -0.354661        -9.6508
  80   2.0000      -0.348145        -9.4735
  81   2.0000      -0.343872        -9.3572
  82   2.0000      -0.339390        -9.2353
  83   2.0000      -0.337041        -9.1714
  84   2.0000      -0.333217        -9.0673
  85   2.0000      -0.321141        -8.7387
  86   2.0000      -0.304249        -8.2790
  87   2.0000      -0.298583        -8.1249
  88   2.0000      -0.297187        -8.0869
  89   2.0000      -0.292390        -7.9563
  90   2.0000      -0.287295        -7.8177
  91   2.0000      -0.277007        -7.5377
  92   2.0000      -0.270936        -7.3726
  93   2.0000      -0.262569        -7.1449
  94   2.0000      -0.259844        -7.0707
  95   2.0000      -0.232879        -6.3370
  96   2.0000      -0.221088        -6.0161
  97   2.0000      -0.210265        -5.7216
  98   2.0000      -0.205664        -5.5964
  99   2.0000      -0.201056        -5.4710
 100   2.0000      -0.194343        -5.2884
 101   0.0000      -0.049017        -1.3338
 102   0.0000      -0.027516        -0.7487
 103   0.0000      -0.015959        -0.4343
 104   0.0000      -0.006139        -0.1671
 105   0.0000       0.006580         0.1791

MULLIKEN ATOMIC CHARGES
-----------------------
   0 C :   -0.338357
   1 C :    0.000048
   2 O :   -0.366142
   3 P :    0.606728
   4 S :   -0.319086
   5 O :   -0.373733
   6 C :   -0.007573
   7 C :   -0.308370
   8 S :   -0.093484
   9 C :   -0.336134
  10 S :   -0.110833
  11 P :    0.626234
  12 S :   -0.311222
  13 O :   -0.386819
  14 C :    0.013334
  15 C :   -0.358464
  16 O :   -0.364456
  17 C :    0.008152
  18 C :   -0.339230
  19 H :    0.115943
  20 H :    0.124136
  21 H :    0.141057
  22 H :    0.109816
  23 H :    0.106409
  24 H :    0.108088
  25 H :    0.111157
  26 H :    0.112839
  27 H :    0.132769
  28 H :    0.118021
  29 H :    0.190436
  30 H :    0.192042
  31 H :    0.108917
  32 H :    0.099677
  33 H :    0.137870
  34 H :    0.137335
  35 H :    0.106014
  36 H :    0.110503
  37 H :    0.111024
  38 H :    0.139479
  39 H :    0.117689
  40 H :    0.128186
Sum of atomic charges:   -0.0000000

LOEWDIN ATOMIC CHARGES
----------------------
   0 C :   -0.371711
   1 C :   -0.120666
   2 O :   -0.245292
   3 P :    0.567613
   4 S :   -0.309153
   5 O :   -0.242552
   6 C :   -0.116800
   7 C :   -0.359718
   8 S :    0.098130
   9 C :   -0.481761
  10 S :    0.088815
  11 P :    0.575383
  12 S :   -0.301885
  13 O :   -0.247000
  14 C :   -0.115207
  15 C :   -0.382390
  16 O :   -0.241509
  17 C :   -0.108566
  18 C :   -0.372346
  19 H :    0.132742
  20 H :    0.126529
  21 H :    0.123423
  22 H :    0.109095
  23 H :    0.119427
  24 H :    0.117976
  25 H :    0.107702
  26 H :    0.131906
  27 H :    0.120967
  28 H :    0.125301
  29 H :    0.133005
  30 H :    0.128721
  31 H :    0.110632
  32 H :    0.116708
  33 H :    0.122204
  34 H :    0.111082
  35 H :    0.128249
  36 H :    0.114941
  37 H :    0.122966
  38 H :    0.121934
  39 H :    0.133737
  40 H :    0.127367

  Mayer bond orders larger than 0.100000
B(  0-C ,  1-C ) :   1.1612 B(  0-C , 19-H ) :   0.9380 B(  0-C , 20-H ) :   0.9431
B(  0-C , 21-H ) :   0.9315 B(  1-C ,  2-O ) :   0.9126 B(  1-C , 22-H ) :   0.9137
B(  1-C , 23-H ) :   0.9327 B(  2-O ,  3-P ) :   1.1140 B(  3-P ,  4-S ) :   1.6085
B(  3-P ,  5-O ) :   1.1183 B(  3-P ,  8-S ) :   0.9697 B(  4-S ,  8-S ) :   0.1070
B(  5-O ,  6-C ) :   0.8942 B(  6-C ,  7-C ) :   1.1668 B(  6-C , 24-H ) :   0.9325
B(  6-C , 25-H ) :   0.9009 B(  7-C , 26-H ) :   0.9393 B(  7-C , 27-H ) :   0.9353
B(  7-C , 28-H ) :   0.9476 B(  8-S ,  9-C ) :   0.9911 B(  9-C , 10-S ) :   1.0272
B(  9-C , 29-H ) :   0.8983 B(  9-C , 30-H ) :   0.8567 B( 10-S , 11-P ) :   0.9406
B( 10-S , 12-S ) :   0.1118 B( 11-P , 12-S ) :   1.6282 B( 11-P , 13-O ) :   1.0783
B( 11-P , 16-O ) :   1.1368 B( 12-S , 30-H ) :   0.1109 B( 13-O , 14-C ) :   0.9024
B( 14-C , 15-C ) :   1.1624 B( 14-C , 31-H ) :   0.9193 B( 14-C , 32-H ) :   0.9325
B( 15-C , 33-H ) :   0.9291 B( 15-C , 34-H ) :   0.9218 B( 15-C , 35-H ) :   0.9357
B( 16-O , 17-C ) :   0.9029 B( 17-C , 18-C ) :   1.1697 B( 17-C , 36-H ) :   0.9267
B( 17-C , 37-H ) :   0.9334 B( 18-C , 38-H ) :   0.9317 B( 18-C , 39-H ) :   0.9353
B( 18-C , 40-H ) :   0.9417

Dispersion correction           -0.065788380
FINAL SINGLE POINT ENERGY     -2929.517535983392

DIPOLE MOMENT
-------------

Method             : SCF
Type of density    : Electron Density
Multiplicity       :   1
Irrep              :   0
Energy             : -2929.6371231249677294 Eh
Relativity type    :
Basis              : AO
                                X                 Y                 Z
Electronic contribution:     -3.006546229      -5.157865559      -9.855407189
Nuclear contribution   :      3.369678685       5.319928392      10.930631628
                        -----------------------------------------
Total Dipole Moment    :      0.363132456       0.162062833       1.075224439
                        -----------------------------------------
Magnitude (a.u.)       :      1.146401821
Magnitude (Debye)      :      2.913921857

Rotational constants in cm-1:             0.011451             0.005333             0.004636
Rotational constants in MHz :           343.283116           159.875316           138.988636

                             ****ORCA TERMINATED NORMALLY****
TOTAL RUN TIME: 0 days 0 hours 0 minutes 21 seconds 265 msec
