                         Program Version 6.0.1  -  RELEASE   -
|  1> ! r2scan-3c def2/J RI DEFGRID2 scfconv6 printgap
|  2> %output
|  3>     printlevel normal
|  4> end
|  5> * xyz 0 1
|  6> C 2.3720645245 -3.4972255531 -0.2608520175
|  7> C 2.9664262129 -2.1485731508 0.1111316395
|  8> O 2.1680001592 -1.0729247939 -0.4177845153
|  9> C 2.3519350155 -0.7182433766 -1.6813687016
| 10> O 3.2019986904 -1.1896188093 -2.4010061357
| 11> C 1.3922809784 0.36621498 -2.1242008051
| 12> C 0.2867010647 0.6461737873 -1.1175009776
| 13> H -0.3233945067 1.493035336 -1.4511205534
| 14> C 0.8172001743 0.9800274368 0.2624234937
| 15> O 0.312389001 0.5480059253 1.2798529563
| 16> O 1.8265270302 1.8058658398 0.2254831748
| 17> C 2.3769961927 2.2415226277 1.4872774779
| 18> C 3.4911772934 3.2259219293 1.1959715409
| 19> S -0.8330305417 -0.7857707873 -0.9360988629
| 20> P -2.1634291004 0.0487580135 0.4910405315
| 21> S -2.3447169581 1.9982065358 0.5098084744
| 22> O -3.5291882298 -0.6822822872 0.0481770925
| 23> C -4.1832742304 -0.3589528531 -1.181090327
| 24> O -2.0126457645 -0.6148782956 1.9167935323
| 25> C -1.6217851015 -1.9875479997 2.0967923452
| 26> H 1.3325274001 -3.5484414982 0.0529947831
| 27> H 2.4210599864 -3.6408575985 -1.3374603973
| 28> H 2.9353670052 -4.284793024 0.2283900339
| 29> H 3.9832862133 -2.0505671569 -0.2794522709
| 30> H 2.9556667533 -1.9912700475 1.190419856
| 31> H 0.9668148016 0.0642013234 -3.0824267044
| 32> H 1.9723129013 1.2777740506 -2.2858650009
| 33> H 1.5700473058 2.6944424387 2.0718090305
| 34> H 2.7389033891 1.3593204486 2.0237513018
| 35> H 3.1012610346 4.0776426421 0.6469878166
| 36> H 3.9167974278 3.5694800755 2.1327913977
| 37> H 4.2664378431 2.7493004928 0.6036927387
| 38> H -5.1643119465 -0.8231970714 -1.1228313535
| 39> H -3.6157257024 -0.7605541474 -2.020632094
| 40> H -4.2797522078 0.7238269863 -1.2791252477
| 41> H -0.5629799639 -2.0909502262 1.8588268188
| 42> H -2.2220320088 -2.6400957491 1.4643271536
| 43> H -1.7978297243 -2.1971188852 3.1486225338
| 44> *
| 45>
| 46>                          ****END OF INPUT****

CARTESIAN COORDINATES (ANGSTROEM)
---------------------------------
  C      2.372065   -3.497226   -0.260852
  C      2.966426   -2.148573    0.111132
  O      2.168000   -1.072925   -0.417785
  C      2.351935   -0.718243   -1.681369
  O      3.201999   -1.189619   -2.401006
  C      1.392281    0.366215   -2.124201
  C      0.286701    0.646174   -1.117501
  H     -0.323395    1.493035   -1.451121
  C      0.817200    0.980027    0.262423
  O      0.312389    0.548006    1.279853
  O      1.826527    1.805866    0.225483
  C      2.376996    2.241523    1.487277
  C      3.491177    3.225922    1.195972
  S     -0.833031   -0.785771   -0.936099
  P     -2.163429    0.048758    0.491041
  S     -2.344717    1.998207    0.509808
  O     -3.529188   -0.682282    0.048177
  C     -4.183274   -0.358953   -1.181090
  O     -2.012646   -0.614878    1.916794
  C     -1.621785   -1.987548    2.096792
  H      1.332527   -3.548441    0.052995
  H      2.421060   -3.640858   -1.337460
  H      2.935367   -4.284793    0.228390
  H      3.983286   -2.050567   -0.279452
  H      2.955667   -1.991270    1.190420
  H      0.966815    0.064201   -3.082427
  H      1.972313    1.277774   -2.285865
  H      1.570047    2.694442    2.071809
  H      2.738903    1.359320    2.023751
  H      3.101261    4.077643    0.646988
  H      3.916797    3.569480    2.132791
  H      4.266438    2.749300    0.603693
  H     -5.164312   -0.823197   -1.122831
  H     -3.615726   -0.760554   -2.020632
  H     -4.279752    0.723827   -1.279125
  H     -0.562980   -2.090950    1.858827
  H     -2.222032   -2.640096    1.464327
  H     -1.797830   -2.197119    3.148623

 Total Charge           Charge          ....    0
 Multiplicity           Mult            ....    1
 Number of Electrons    NEL             ....  174
 Basis Dimension        Dim             ....  510

ORBITAL ENERGIES
----------------

  NO   OCC          E(Eh)            E(eV)
   0   2.0000     -88.572806     -2410.1886
   1   2.0000     -88.507272     -2408.4053
   2   2.0000     -76.906869     -2092.7423
   3   2.0000     -19.015167      -517.4290
   4   2.0000     -19.011616      -517.3324
   5   2.0000     -18.982045      -516.5277
   6   2.0000     -18.977453      -516.4027
   7   2.0000     -18.941264      -515.4180
   8   2.0000     -18.939421      -515.3678
   9   2.0000     -10.169103      -276.7154
  10   2.0000     -10.168516      -276.6994
  11   2.0000     -10.102809      -274.9114
  12   2.0000     -10.102492      -274.9028
  13   2.0000     -10.098715      -274.8000
  14   2.0000     -10.090955      -274.5889
  15   2.0000     -10.080894      -274.3151
  16   2.0000     -10.071541      -274.0606
  17   2.0000     -10.039682      -273.1936
  18   2.0000     -10.035658      -273.0841
  19   2.0000      -7.867152      -214.0761
  20   2.0000      -7.802241      -212.3098
  21   2.0000      -6.584517      -179.1738
  22   2.0000      -5.813999      -158.2070
  23   2.0000      -5.811154      -158.1295
  24   2.0000      -5.804154      -157.9391
  25   2.0000      -5.750158      -156.4698
  26   2.0000      -5.742650      -156.2655
  27   2.0000      -5.741801      -156.2423
  28   2.0000      -4.730070      -128.7117
  29   2.0000      -4.729861      -128.7061
  30   2.0000      -4.727978      -128.6548
  31   2.0000      -1.094859       -29.7926
  32   2.0000      -1.086166       -29.5561
  33   2.0000      -1.038851       -28.2686
  34   2.0000      -0.996722       -27.1222
  35   2.0000      -0.992136       -26.9974
  36   2.0000      -0.990524       -26.9535
  37   2.0000      -0.818112       -22.2620
  38   2.0000      -0.759062       -20.6551
  39   2.0000      -0.753992       -20.5172
  40   2.0000      -0.728763       -19.8306
  41   2.0000      -0.699150       -19.0248
  42   2.0000      -0.665079       -18.0977
  43   2.0000      -0.659111       -17.9353
  44   2.0000      -0.646924       -17.6037
  45   2.0000      -0.636375       -17.3167
  46   2.0000      -0.601972       -16.3805
  47   2.0000      -0.549198       -14.9444
  48   2.0000      -0.535903       -14.5827
  49   2.0000      -0.529131       -14.3984
  50   2.0000      -0.508670       -13.8416
  51   2.0000      -0.486706       -13.2439
  52   2.0000      -0.483691       -13.1619
  53   2.0000      -0.479949       -13.0601
  54   2.0000      -0.461151       -12.5485
  55   2.0000      -0.453522       -12.3409
  56   2.0000      -0.449600       -12.2342
  57   2.0000      -0.441569       -12.0157
  58   2.0000      -0.437363       -11.9013
  59   2.0000      -0.425255       -11.5718
  60   2.0000      -0.420467       -11.4415
  61   2.0000      -0.414542       -11.2803
  62   2.0000      -0.410771       -11.1776
  63   2.0000      -0.407809       -11.0971
  64   2.0000      -0.396862       -10.7992
  65   2.0000      -0.386175       -10.5084
  66   2.0000      -0.382766       -10.4156
  67   2.0000      -0.376883       -10.2555
  68   2.0000      -0.373658       -10.1678
  69   2.0000      -0.361851        -9.8465
  70   2.0000      -0.351296        -9.5592
  71   2.0000      -0.346060        -9.4168
  72   2.0000      -0.337653        -9.1880
  73   2.0000      -0.332384        -9.0446
  74   2.0000      -0.329325        -8.9614
  75   2.0000      -0.317904        -8.6506
  76   2.0000      -0.308647        -8.3987
  77   2.0000      -0.304151        -8.2764
  78   2.0000      -0.290167        -7.8958
  79   2.0000      -0.285427        -7.7669
  80   2.0000      -0.278659        -7.5827
  81   2.0000      -0.267282        -7.2731
  82   2.0000      -0.251779        -6.8512
  83   2.0000      -0.248871        -6.7721
  84   2.0000      -0.233266        -6.3475
  85   2.0000      -0.209072        -5.6891
  86   2.0000      -0.201963        -5.4957
  87   0.0000      -0.044299        -1.2054
  88   0.0000      -0.025919        -0.7053
  89   0.0000      -0.025511        -0.6942
  90   0.0000       0.006748         0.1836
  91   0.0000       0.027165         0.7392

MULLIKEN ATOMIC CHARGES
-----------------------
   0 C :   -0.460576
   1 C :   -0.161236
   2 O :   -0.097653
   3 C :    0.286280
   4 O :   -0.392479
   5 C :   -0.381197
   6 C :    0.030885
   7 H :    0.246583
   8 C :    0.234434
   9 O :   -0.398260
  10 O :   -0.116672
  11 C :   -0.152613
  12 C :   -0.448451
  13 S :   -0.216177
  14 P :    0.797538
  15 S :   -0.463152
  16 O :   -0.358360
  17 C :   -0.300003
  18 O :   -0.296664
  19 C :   -0.302073
  20 H :    0.156237
  21 H :    0.176004
  22 H :    0.149849
  23 H :    0.168603
  24 H :    0.155944
  25 H :    0.195207
  26 H :    0.196769
  27 H :    0.172563
  28 H :    0.154533
  29 H :    0.157246
  30 H :    0.151731
  31 H :    0.153863
  32 H :    0.149251
  33 H :    0.153165
  34 H :    0.174629
  35 H :    0.169276
  36 H :    0.160289
  37 H :    0.154681
Sum of atomic charges:    0.0000000

LOEWDIN ATOMIC CHARGES
----------------------
   0 C :   -0.387698
   1 C :    0.035768
   2 O :   -0.610349
   3 C :    0.362762
   4 O :   -0.415641
   5 C :   -0.202211
   6 C :   -0.201492
   7 H :    0.208080
   8 C :    0.343700
   9 O :   -0.442686
  10 O :   -0.571259
  11 C :    0.041887
  12 C :   -0.384090
  13 S :    0.218302
  14 P :    0.406907
  15 S :   -0.095695
  16 O :   -0.691324
  17 C :   -0.067588
  18 O :   -0.639081
  19 C :   -0.053611
  20 H :    0.159878
  21 H :    0.167230
  22 H :    0.160175
  23 H :    0.189162
  24 H :    0.180870
  25 H :    0.193207
  26 H :    0.204220
  27 H :    0.187566
  28 H :    0.179673
  29 H :    0.161672
  30 H :    0.161941
  31 H :    0.159797
  32 H :    0.175282
  33 H :    0.165982
  34 H :    0.175821
  35 H :    0.173644
  36 H :    0.168925
  37 H :    0.180274

  Mayer bond orders larger than 0.100000
B(  0-C ,  1-C ) :   0.9264 B(  0-C , 20-H ) :   0.9724 B(  0-C , 21-H ) :   0.9706
B(  0-C , 22-H ) :   0.9641 B(  1-C ,  2-O ) :   0.7961 B(  1-C , 23-H ) :   0.9620
B(  1-C , 24-H ) :   0.9625 B(  2-O ,  3-C ) :   1.0892 B(  2-O ,  8-C ) :   0.1341
B(  3-C ,  4-O ) :   1.9083 B(  3-C ,  5-C ) :   0.9469 B(  5-C ,  6-C ) :   0.9342
B(  5-C , 10-O ) :   0.1023 B(  5-C , 25-H ) :   0.9555 B(  5-C , 26-H ) :   0.9219
B(  6-C ,  7-H ) :   0.8960 B(  6-C ,  8-C ) :   0.8826 B(  6-C , 13-S ) :   0.8627
B(  8-C ,  9-O ) :   1.7517 B(  8-C , 10-O ) :   1.2055 B( 10-O , 11-C ) :   0.7737
B( 11-C , 12-C ) :   0.9438 B( 11-C , 27-H ) :   0.9497 B( 11-C , 28-H ) :   0.9511
B( 12-C , 29-H ) :   0.9724 B( 12-C , 30-H ) :   0.9667 B( 12-C , 31-H ) :   0.9724
B( 13-S , 14-P ) :   0.9678 B( 14-P , 15-S ) :   1.7784 B( 14-P , 16-O ) :   1.0113
B( 14-P , 18-O ) :   1.2017 B( 16-O , 17-C ) :   0.8389 B( 17-C , 32-H ) :   0.9691
B( 17-C , 33-H ) :   0.9574 B( 17-C , 34-H ) :   0.9589 B( 18-O , 19-C ) :   0.7973
B( 19-C , 35-H ) :   0.9587 B( 19-C , 36-H ) :   0.9650 B( 19-C , 37-H ) :   0.9649

Dispersion correction           -0.017656820
FINAL SINGLE POINT ENERGY     -1981.447748178773

DIPOLE MOMENT
-------------

Method             : SCF
Type of density    : Electron Density
Multiplicity       :   1
Irrep              :   0
Energy             : -1981.4677815985478446 Eh
Relativity type    :
Basis              : AO
                                X                 Y                 Z
Electronic contribution:    -14.358740065       5.044211773      -1.822349605
Nuclear contribution   :     15.370993848      -5.743208474       1.988431457
                        -----------------------------------------
Total Dipole Moment    :      1.012253783      -0.698996701       0.166081852
                        -----------------------------------------
Magnitude (a.u.)       :      1.241304673
Magnitude (Debye)      :      3.155145735

Rotational constants in cm-1:             0.012838             0.007526             0.006191
Rotational constants in MHz :           384.864391           225.627422           185.591738

                             ****ORCA TERMINATED NORMALLY****
TOTAL RUN TIME: 0 days 0 hours 1 minutes 18 seconds 433 msec
