                         Program Version 6.0.1  -  RELEASE   -
|  1> ! r2scan-3c def2/J RI DEFGRID2 scfconv6 printgap
|  2> %output
|  3>     printlevel normal
|  4> end
|  5> %cpcm
|  6>     smd true
|  7>     smdsolvent "water"
|  8> end
|  9> * xyz 0 1
| 10> C 2.3720645245 -3.4972255531 -0.2608520175
| 11> C 2.9664262129 -2.1485731508 0.1111316395
| 12> O 2.1680001592 -1.0729247939 -0.4177845153
| 13> C 2.3519350155 -0.7182433766 -1.6813687016
| 14> O 3.2019986904 -1.1896188093 -2.4010061357
| 15> C 1.3922809784 0.36621498 -2.1242008051
| 16> C 0.2867010647 0.6461737873 -1.1175009776
| 17> H -0.3233945067 1.493035336 -1.4511205534
| 18> C 0.8172001743 0.9800274368 0.2624234937
| 19> O 0.312389001 0.5480059253 1.2798529563
| 20> O 1.8265270302 1.8058658398 0.2254831748
| 21> C 2.3769961927 2.2415226277 1.4872774779
| 22> C 3.4911772934 3.2259219293 1.1959715409
| 23> S -0.8330305417 -0.7857707873 -0.9360988629
| 24> P -2.1634291004 0.0487580135 0.4910405315
| 25> S -2.3447169581 1.9982065358 0.5098084744
| 26> O -3.5291882298 -0.6822822872 0.0481770925
| 27> C -4.1832742304 -0.3589528531 -1.181090327
| 28> O -2.0126457645 -0.6148782956 1.9167935323
| 29> C -1.6217851015 -1.9875479997 2.0967923452
| 30> H 1.3325274001 -3.5484414982 0.0529947831
| 31> H 2.4210599864 -3.6408575985 -1.3374603973
| 32> H 2.9353670052 -4.284793024 0.2283900339
| 33> H 3.9832862133 -2.0505671569 -0.2794522709
| 34> H 2.9556667533 -1.9912700475 1.190419856
| 35> H 0.9668148016 0.0642013234 -3.0824267044
| 36> H 1.9723129013 1.2777740506 -2.2858650009
| 37> H 1.5700473058 2.6944424387 2.0718090305
| 38> H 2.7389033891 1.3593204486 2.0237513018
| 39> H 3.1012610346 4.0776426421 0.6469878166
| 40> H 3.9167974278 3.5694800755 2.1327913977
| 41> H 4.2664378431 2.7493004928 0.6036927387
| 42> H -5.1643119465 -0.8231970714 -1.1228313535
| 43> H -3.6157257024 -0.7605541474 -2.020632094
| 44> H -4.2797522078 0.7238269863 -1.2791252477
| 45> H -0.5629799639 -2.0909502262 1.8588268188
| 46> H -2.2220320088 -2.6400957491 1.4643271536
| 47> H -1.7978297243 -2.1971188852 3.1486225338
| 48> *
| 49>
| 50>                          ****END OF INPUT****

CARTESIAN COORDINATES (ANGSTROEM)
---------------------------------
  C      2.372065   -3.497226   -0.260852
  C      2.966426   -2.148573    0.111132
  O      2.168000   -1.072925   -0.417785
  C      2.351935   -0.718243   -1.681369
  O      3.201999   -1.189619   -2.401006
  C      1.392281    0.366215   -2.124201
  C      0.286701    0.646174   -1.117501
  H     -0.323395    1.493035   -1.451121
  C      0.817200    0.980027    0.262423
  O      0.312389    0.548006    1.279853
  O      1.826527    1.805866    0.225483
  C      2.376996    2.241523    1.487277
  C      3.491177    3.225922    1.195972
  S     -0.833031   -0.785771   -0.936099
  P     -2.163429    0.048758    0.491041
  S     -2.344717    1.998207    0.509808
  O     -3.529188   -0.682282    0.048177
  C     -4.183274   -0.358953   -1.181090
  O     -2.012646   -0.614878    1.916794
  C     -1.621785   -1.987548    2.096792
  H      1.332527   -3.548441    0.052995
  H      2.421060   -3.640858   -1.337460
  H      2.935367   -4.284793    0.228390
  H      3.983286   -2.050567   -0.279452
  H      2.955667   -1.991270    1.190420
  H      0.966815    0.064201   -3.082427
  H      1.972313    1.277774   -2.285865
  H      1.570047    2.694442    2.071809
  H      2.738903    1.359320    2.023751
  H      3.101261    4.077643    0.646988
  H      3.916797    3.569480    2.132791
  H      4.266438    2.749300    0.603693
  H     -5.164312   -0.823197   -1.122831
  H     -3.615726   -0.760554   -2.020632
  H     -4.279752    0.723827   -1.279125
  H     -0.562980   -2.090950    1.858827
  H     -2.222032   -2.640096    1.464327
  H     -1.797830   -2.197119    3.148623

 Total Charge           Charge          ....    0
 Multiplicity           Mult            ....    1
 Number of Electrons    NEL             ....  174
 Basis Dimension        Dim             ....  510

ORBITAL ENERGIES
----------------

  NO   OCC          E(Eh)            E(eV)
   0   2.0000     -88.576864     -2410.2990
   1   2.0000     -88.523222     -2408.8393
   2   2.0000     -76.918448     -2093.0574
   3   2.0000     -19.014016      -517.3977
   4   2.0000     -19.010337      -517.2976
   5   2.0000     -18.993369      -516.8359
   6   2.0000     -18.986655      -516.6532
   7   2.0000     -18.949279      -515.6361
   8   2.0000     -18.949020      -515.6290
   9   2.0000     -10.174452      -276.8609
  10   2.0000     -10.173099      -276.8241
  11   2.0000     -10.096958      -274.7522
  12   2.0000     -10.089330      -274.5446
  13   2.0000     -10.087545      -274.4961
  14   2.0000     -10.084188      -274.4047
  15   2.0000     -10.077578      -274.2248
  16   2.0000     -10.062152      -273.8051
  17   2.0000     -10.020492      -272.6715
  18   2.0000     -10.019739      -272.6510
  19   2.0000      -7.871119      -214.1840
  20   2.0000      -7.818555      -212.7537
  21   2.0000      -6.596233      -179.4926
  22   2.0000      -5.818000      -158.3158
  23   2.0000      -5.815150      -158.2383
  24   2.0000      -5.808072      -158.0457
  25   2.0000      -5.766329      -156.9098
  26   2.0000      -5.758980      -156.7098
  27   2.0000      -5.758169      -156.6877
  28   2.0000      -4.741790      -129.0307
  29   2.0000      -4.741463      -129.0218
  30   2.0000      -4.739819      -128.9770
  31   2.0000      -1.095739       -29.8166
  32   2.0000      -1.086445       -29.5637
  33   2.0000      -1.049177       -28.5496
  34   2.0000      -1.005761       -27.3681
  35   2.0000      -0.999406       -27.1952
  36   2.0000      -0.997080       -27.1319
  37   2.0000      -0.815221       -22.1833
  38   2.0000      -0.748918       -20.3791
  39   2.0000      -0.747041       -20.3280
  40   2.0000      -0.727628       -19.7998
  41   2.0000      -0.697390       -18.9769
  42   2.0000      -0.664487       -18.0816
  43   2.0000      -0.658885       -17.9292
  44   2.0000      -0.650967       -17.7137
  45   2.0000      -0.625596       -17.0233
  46   2.0000      -0.594995       -16.1906
  47   2.0000      -0.542805       -14.7705
  48   2.0000      -0.532069       -14.4783
  49   2.0000      -0.526415       -14.3245
  50   2.0000      -0.506438       -13.7809
  51   2.0000      -0.488216       -13.2850
  52   2.0000      -0.486525       -13.2390
  53   2.0000      -0.479355       -13.0439
  54   2.0000      -0.458614       -12.4795
  55   2.0000      -0.456082       -12.4106
  56   2.0000      -0.448720       -12.2103
  57   2.0000      -0.443528       -12.0690
  58   2.0000      -0.440785       -11.9944
  59   2.0000      -0.425426       -11.5764
  60   2.0000      -0.420331       -11.4378
  61   2.0000      -0.410247       -11.1634
  62   2.0000      -0.406187       -11.0529
  63   2.0000      -0.399160       -10.8617
  64   2.0000      -0.396511       -10.7896
  65   2.0000      -0.380527       -10.3547
  66   2.0000      -0.371520       -10.1096
  67   2.0000      -0.369295       -10.0490
  68   2.0000      -0.362362        -9.8604
  69   2.0000      -0.357032        -9.7153
  70   2.0000      -0.346264        -9.4223
  71   2.0000      -0.341443        -9.2911
  72   2.0000      -0.330686        -8.9984
  73   2.0000      -0.329896        -8.9769
  74   2.0000      -0.324544        -8.8313
  75   2.0000      -0.314284        -8.5521
  76   2.0000      -0.312448        -8.5021
  77   2.0000      -0.306378        -8.3370
  78   2.0000      -0.291220        -7.9245
  79   2.0000      -0.288500        -7.8505
  80   2.0000      -0.281081        -7.6486
  81   2.0000      -0.274649        -7.4736
  82   2.0000      -0.261248        -7.1089
  83   2.0000      -0.257830        -7.0159
  84   2.0000      -0.239575        -6.5192
  85   2.0000      -0.224448        -6.1075
  86   2.0000      -0.218956        -5.9581
  87   0.0000      -0.049420        -1.3448
  88   0.0000      -0.030656        -0.8342
  89   0.0000      -0.027903        -0.7593
  90   0.0000       0.003575         0.0973
  91   0.0000       0.019024         0.5177

MULLIKEN ATOMIC CHARGES
-----------------------
   0 C :   -0.487067
   1 C :   -0.167581
   2 O :   -0.112458
   3 C :    0.333281
   4 O :   -0.468862
   5 C :   -0.424130
   6 C :    0.051083
   7 H :    0.271380
   8 C :    0.239723
   9 O :   -0.452379
  10 O :   -0.120623
  11 C :   -0.150554
  12 C :   -0.495058
  13 S :   -0.204468
  14 P :    0.798461
  15 S :   -0.515978
  16 O :   -0.391842
  17 C :   -0.307859
  18 O :   -0.349753
  19 C :   -0.306788
  20 H :    0.167166
  21 H :    0.172760
  22 H :    0.173608
  23 H :    0.175728
  24 H :    0.182429
  25 H :    0.226745
  26 H :    0.232731
  27 H :    0.178204
  28 H :    0.177642
  29 H :    0.167248
  30 H :    0.172425
  31 H :    0.167262
  32 H :    0.176327
  33 H :    0.171898
  34 H :    0.175025
  35 H :    0.181069
  36 H :    0.181786
  37 H :    0.181417
Sum of atomic charges:    0.0000000

LOEWDIN ATOMIC CHARGES
----------------------
   0 C :   -0.390709
   1 C :    0.041716
   2 O :   -0.608034
   3 C :    0.372837
   4 O :   -0.469627
   5 C :   -0.194680
   6 C :   -0.191385
   7 H :    0.217353
   8 C :    0.347302
   9 O :   -0.487107
  10 O :   -0.567172
  11 C :    0.045205
  12 C :   -0.386824
  13 S :    0.231943
  14 P :    0.402994
  15 S :   -0.138900
  16 O :   -0.707890
  17 C :   -0.062938
  18 O :   -0.672949
  19 C :   -0.046318
  20 H :    0.163032
  21 H :    0.164012
  22 H :    0.169076
  23 H :    0.191922
  24 H :    0.192066
  25 H :    0.205431
  26 H :    0.217917
  27 H :    0.188841
  28 H :    0.187859
  29 H :    0.163917
  30 H :    0.169968
  31 H :    0.163816
  32 H :    0.186650
  33 H :    0.174130
  34 H :    0.176129
  35 H :    0.179817
  36 H :    0.179062
  37 H :    0.191540

  Mayer bond orders larger than 0.100000
B(  0-C ,  1-C ) :   0.9177 B(  0-C , 20-H ) :   0.9696 B(  0-C , 21-H ) :   0.9698
B(  0-C , 22-H ) :   0.9587 B(  1-C ,  2-O ) :   0.7829 B(  1-C , 23-H ) :   0.9574
B(  1-C , 24-H ) :   0.9537 B(  2-O ,  3-C ) :   1.1209 B(  2-O ,  8-C ) :   0.1337
B(  3-C ,  4-O ) :   1.8452 B(  3-C ,  5-C ) :   0.9339 B(  5-C ,  6-C ) :   0.9348
B(  5-C , 25-H ) :   0.9474 B(  5-C , 26-H ) :   0.9150 B(  6-C ,  7-H ) :   0.8804
B(  6-C ,  8-C ) :   0.8780 B(  6-C , 13-S ) :   0.8525 B(  8-C ,  9-O ) :   1.7106
B(  8-C , 10-O ) :   1.2198 B(  9-O , 14-P ) :   0.1013 B( 10-O , 11-C ) :   0.7615
B( 11-C , 12-C ) :   0.9424 B( 11-C , 27-H ) :   0.9433 B( 11-C , 28-H ) :   0.9425
B( 12-C , 29-H ) :   0.9707 B( 12-C , 30-H ) :   0.9609 B( 12-C , 31-H ) :   0.9698
B( 13-S , 14-P ) :   0.9994 B( 14-P , 15-S ) :   1.7728 B( 14-P , 16-O ) :   1.0096
B( 14-P , 18-O ) :   1.1914 B( 16-O , 17-C ) :   0.8315 B( 17-C , 32-H ) :   0.9589
B( 17-C , 33-H ) :   0.9508 B( 17-C , 34-H ) :   0.9554 B( 18-O , 19-C ) :   0.7907
B( 19-C , 35-H ) :   0.9486 B( 19-C , 36-H ) :   0.9543 B( 19-C , 37-H ) :   0.9541

Dispersion correction           -0.017656820
FINAL SINGLE POINT ENERGY     -1981.464593299187

DIPOLE MOMENT
-------------

Method             : SCF
Type of density    : Electron Density
Multiplicity       :   1
Irrep              :   0
Energy             : -1981.4846267189623177 Eh
Relativity type    :
Basis              : AO
                                X                 Y                 Z
Electronic contribution:    -14.051516532       4.774794802      -2.102842800
Nuclear contribution   :     15.370993848      -5.743208474       1.988431457
                        -----------------------------------------
Total Dipole Moment    :      1.319477316      -0.968413672      -0.114411343
                        -----------------------------------------
Magnitude (a.u.)       :      1.640711853
Magnitude (Debye)      :      4.170358106

Rotational constants in cm-1:             0.012838             0.007526             0.006191
Rotational constants in MHz :           384.864391           225.627422           185.591738

                             ****ORCA TERMINATED NORMALLY****
TOTAL RUN TIME: 0 days 0 hours 1 minutes 46 seconds 493 msec
