                         Program Version 6.0.0  -   RELEASE  -
|  1> ! r2scan-3c def2/J RI DEFGRID2 scfconv6 printgap
|  2> %output
|  3>     printlevel normal
|  4> end
|  5> * xyz 0 1
|  6> C -2.9245786391 -0.3668354226 -5.16175e-05
|  7> C -2.6847811704 1.0159940968 -1.31651e-05
|  8> C -1.4049366956 1.496601786 3.69714e-05
|  9> C -0.3032792597 0.615330494 4.00008e-05
| 10> C 1.025710388 1.0840074978 4.77191e-05
| 11> C 2.077862869 0.2036758372 3.499e-06
| 12> C 1.835091655 -1.1870192271 2.94843e-05
| 13> C 0.5576247043 -1.6625684388 2.96734e-05
| 14> C -0.5466958787 -0.7830809297 8.1415e-06
| 15> C -1.8776092206 -1.2465748702 -1.37342e-05
| 16> O 3.3783510959 0.6006471391 -4.97068e-05
| 17> H -3.941871656 -0.7286787437 -0.0002039724
| 18> H -3.521927585 1.6981844281 -2.97744e-05
| 19> H -1.2190015558 2.5609493222 0.0001331589
| 20> H 1.1998996398 2.1509836031 2.78184e-05
| 21> H 2.6876615526 -1.8478814814 6.78257e-05
| 22> H 0.3745955444 -2.7268384287 5.21758e-05
| 23> H -2.0546453714 -2.3124674629 -0.0001283485
| 24> H 3.4414626175 1.5676610993 -0.0005237863
| 25> *
| 26>
| 27>                          ****END OF INPUT****

CARTESIAN COORDINATES (ANGSTROEM)
---------------------------------
  C     -2.924579   -0.366835   -0.000052
  C     -2.684781    1.015994   -0.000013
  C     -1.404937    1.496602    0.000037
  C     -0.303279    0.615330    0.000040
  C      1.025710    1.084007    0.000048
  C      2.077863    0.203676    0.000003
  C      1.835092   -1.187019    0.000029
  C      0.557625   -1.662568    0.000030
  C     -0.546696   -0.783081    0.000008
  C     -1.877609   -1.246575   -0.000014
  O      3.378351    0.600647   -0.000050
  H     -3.941872   -0.728679   -0.000204
  H     -3.521928    1.698184   -0.000030
  H     -1.219002    2.560949    0.000133
  H      1.199900    2.150984    0.000028
  H      2.687662   -1.847881    0.000068
  H      0.374596   -2.726838    0.000052
  H     -2.054645   -2.312467   -0.000128
  H      3.441463    1.567661   -0.000524

 Total Charge           Charge          ....    0
 Multiplicity           Mult            ....    1
 Number of Electrons    NEL             ....   76
 Basis Dimension        Dim             ....  254

ORBITAL ENERGIES
----------------

  NO   OCC          E(Eh)            E(eV)
   0   2.0000     -18.990432      -516.7559
   1   2.0000     -10.101876      -274.8860
   2   2.0000     -10.048364      -273.4299
   3   2.0000     -10.042682      -273.2753
   4   2.0000     -10.041937      -273.2550
   5   2.0000     -10.037862      -273.1441
   6   2.0000     -10.035873      -273.0900
   7   2.0000     -10.035433      -273.0780
   8   2.0000     -10.035079      -273.0684
   9   2.0000     -10.034542      -273.0538
  10   2.0000     -10.032349      -272.9941
  11   2.0000      -1.034193       -28.1418
  12   2.0000      -0.846457       -23.0333
  13   2.0000      -0.791510       -21.5381
  14   2.0000      -0.745797       -20.2942
  15   2.0000      -0.712374       -19.3847
  16   2.0000      -0.689445       -18.7608
  17   2.0000      -0.613965       -16.7068
  18   2.0000      -0.583841       -15.8871
  19   2.0000      -0.572148       -15.5689
  20   2.0000      -0.522644       -14.2219
  21   2.0000      -0.489658       -13.3243
  22   2.0000      -0.480949       -13.0873
  23   2.0000      -0.429252       -11.6805
  24   2.0000      -0.420994       -11.4558
  25   2.0000      -0.416762       -11.3407
  26   2.0000      -0.391109       -10.6426
  27   2.0000      -0.391028       -10.6404
  28   2.0000      -0.383370       -10.4320
  29   2.0000      -0.356858        -9.7106
  30   2.0000      -0.352492        -9.5918
  31   2.0000      -0.343084        -9.3358
  32   2.0000      -0.313053        -8.5186
  33   2.0000      -0.302524        -8.2321
  34   2.0000      -0.290509        -7.9052
  35   2.0000      -0.266443        -7.2503
  36   2.0000      -0.221219        -6.0197
  37   2.0000      -0.195734        -5.3262
  38   0.0000      -0.065008        -1.7690
  39   0.0000      -0.029574        -0.8047
  40   0.0000      -0.004132        -0.1124
  41   0.0000       0.052062         1.4167
  42   0.0000       0.072990         1.9862

MULLIKEN ATOMIC CHARGES
-----------------------
   0 C :   -0.163708
   1 C :   -0.140591
   2 C :   -0.260077
   3 C :    0.205333
   4 C :   -0.439878
   5 C :    0.445484
   6 C :   -0.305738
   7 C :   -0.197367
   8 C :    0.154891
   9 C :   -0.216324
  10 O :   -0.408156
  11 H :    0.145138
  12 H :    0.145056
  13 H :    0.140481
  14 H :    0.135415
  15 H :    0.157744
  16 H :    0.145563
  17 H :    0.142755
  18 H :    0.313980
Sum of atomic charges:    0.0000000

LOEWDIN ATOMIC CHARGES
----------------------
   0 C :   -0.175416
   1 C :   -0.161349
   2 C :   -0.154825
   3 C :   -0.046927
   4 C :   -0.163304
   5 C :    0.184615
   6 C :   -0.131883
   7 C :   -0.129631
   8 C :   -0.071234
   9 C :   -0.141871
  10 O :   -0.493527
  11 H :    0.167169
  12 H :    0.167454
  13 H :    0.168971
  14 H :    0.171898
  15 H :    0.181680
  16 H :    0.172619
  17 H :    0.170141
  18 H :    0.285421

  Mayer bond orders larger than 0.100000
B(  0-C ,  1-C ) :   1.2796 B(  0-C ,  9-C ) :   1.5098 B(  0-C , 11-H ) :   0.9497
B(  1-C ,  2-C ) :   1.5129 B(  1-C , 12-H ) :   0.9477 B(  2-C ,  3-C ) :   1.1852
B(  2-C , 13-H ) :   0.9567 B(  3-C ,  4-C ) :   1.2129 B(  3-C ,  8-C ) :   1.4903
B(  4-C ,  5-C ) :   1.4143 B(  4-C , 14-H ) :   0.9134 B(  5-C ,  6-C ) :   1.2912
B(  5-C , 10-O ) :   0.9278 B(  6-C ,  7-C ) :   1.4935 B(  6-C , 15-H ) :   0.9479
B(  7-C ,  8-C ) :   1.1999 B(  7-C , 16-H ) :   0.9512 B(  8-C ,  9-C ) :   1.2123
B(  9-C , 17-H ) :   0.9512 B( 10-O , 18-H ) :   0.8817

Dispersion correction           -0.007423758
FINAL SINGLE POINT ENERGY      -461.005237493757

DIPOLE MOMENT
-------------

Method             : SCF
Type of density    : Electron Density
Multiplicity       :   1
Irrep              :   0
Energy             :  -461.0026323220512268 Eh
Relativity type    :
Basis              : AO
                                X                 Y                 Z
Electronic contribution:      2.790662834       0.052664521       0.000246805
Nuclear contribution   :     -2.796215016       0.348431412      -0.000568238
                        -----------------------------------------
Total Dipole Moment    :     -0.005552182       0.401095933      -0.000321433
                        -----------------------------------------
Magnitude (a.u.)       :      0.401134488
Magnitude (Debye)      :      1.019602839

Rotational constants in cm-1:             0.096042             0.027815             0.021568
Rotational constants in MHz :          2879.264471           833.872770           646.606922

                             ****ORCA TERMINATED NORMALLY****
TOTAL RUN TIME: 0 days 0 hours 0 minutes 33 seconds 144 msec
