                         Program Version 6.0.0  -   RELEASE  -
|  1> ! r2scan-3c def2/J RI DEFGRID2 scfconv6 printgap
|  2> %output
|  3>     printlevel normal
|  4> end
|  5> %cpcm
|  6>     smd true
|  7>     smdsolvent "water"
|  8> end
|  9> * xyz 0 1
| 10> C -2.9245786391 -0.3668354226 -5.16175e-05
| 11> C -2.6847811704 1.0159940968 -1.31651e-05
| 12> C -1.4049366956 1.496601786 3.69714e-05
| 13> C -0.3032792597 0.615330494 4.00008e-05
| 14> C 1.025710388 1.0840074978 4.77191e-05
| 15> C 2.077862869 0.2036758372 3.499e-06
| 16> C 1.835091655 -1.1870192271 2.94843e-05
| 17> C 0.5576247043 -1.6625684388 2.96734e-05
| 18> C -0.5466958787 -0.7830809297 8.1415e-06
| 19> C -1.8776092206 -1.2465748702 -1.37342e-05
| 20> O 3.3783510959 0.6006471391 -4.97068e-05
| 21> H -3.941871656 -0.7286787437 -0.0002039724
| 22> H -3.521927585 1.6981844281 -2.97744e-05
| 23> H -1.2190015558 2.5609493222 0.0001331589
| 24> H 1.1998996398 2.1509836031 2.78184e-05
| 25> H 2.6876615526 -1.8478814814 6.78257e-05
| 26> H 0.3745955444 -2.7268384287 5.21758e-05
| 27> H -2.0546453714 -2.3124674629 -0.0001283485
| 28> H 3.4414626175 1.5676610993 -0.0005237863
| 29> *
| 30>
| 31>                          ****END OF INPUT****

CARTESIAN COORDINATES (ANGSTROEM)
---------------------------------
  C     -2.924579   -0.366835   -0.000052
  C     -2.684781    1.015994   -0.000013
  C     -1.404937    1.496602    0.000037
  C     -0.303279    0.615330    0.000040
  C      1.025710    1.084007    0.000048
  C      2.077863    0.203676    0.000003
  C      1.835092   -1.187019    0.000029
  C      0.557625   -1.662568    0.000030
  C     -0.546696   -0.783081    0.000008
  C     -1.877609   -1.246575   -0.000014
  O      3.378351    0.600647   -0.000050
  H     -3.941872   -0.728679   -0.000204
  H     -3.521928    1.698184   -0.000030
  H     -1.219002    2.560949    0.000133
  H      1.199900    2.150984    0.000028
  H      2.687662   -1.847881    0.000068
  H      0.374596   -2.726838    0.000052
  H     -2.054645   -2.312467   -0.000128
  H      3.441463    1.567661   -0.000524

 Total Charge           Charge          ....    0
 Multiplicity           Mult            ....    1
 Number of Electrons    NEL             ....   76
 Basis Dimension        Dim             ....  254

ORBITAL ENERGIES
----------------

  NO   OCC          E(Eh)            E(eV)
   0   2.0000     -18.985253      -516.6150
   1   2.0000     -10.100192      -274.8402
   2   2.0000     -10.048348      -273.4295
   3   2.0000     -10.043174      -273.2886
   4   2.0000     -10.039745      -273.1953
   5   2.0000     -10.036319      -273.1021
   6   2.0000     -10.034515      -273.0530
   7   2.0000     -10.033657      -273.0297
   8   2.0000     -10.032704      -273.0037
   9   2.0000     -10.030852      -272.9534
  10   2.0000     -10.030483      -272.9433
  11   2.0000      -1.028938       -27.9988
  12   2.0000      -0.847098       -23.0507
  13   2.0000      -0.791297       -21.5323
  14   2.0000      -0.744570       -20.2608
  15   2.0000      -0.711793       -19.3689
  16   2.0000      -0.687660       -18.7122
  17   2.0000      -0.610522       -16.6131
  18   2.0000      -0.581685       -15.8284
  19   2.0000      -0.569025       -15.4840
  20   2.0000      -0.517245       -14.0749
  21   2.0000      -0.486011       -13.2250
  22   2.0000      -0.477651       -12.9975
  23   2.0000      -0.425915       -11.5897
  24   2.0000      -0.418403       -11.3853
  25   2.0000      -0.411163       -11.1883
  26   2.0000      -0.392349       -10.6764
  27   2.0000      -0.386544       -10.5184
  28   2.0000      -0.380169       -10.3449
  29   2.0000      -0.354922        -9.6579
  30   2.0000      -0.354757        -9.6534
  31   2.0000      -0.339077        -9.2268
  32   2.0000      -0.310556        -8.4507
  33   2.0000      -0.298062        -8.1107
  34   2.0000      -0.292684        -7.9643
  35   2.0000      -0.268554        -7.3077
  36   2.0000      -0.223735        -6.0881
  37   2.0000      -0.196802        -5.3553
  38   0.0000      -0.066167        -1.8005
  39   0.0000      -0.031755        -0.8641
  40   0.0000      -0.005107        -0.1390
  41   0.0000       0.072401         1.9701
  42   0.0000       0.078420         2.1339

MULLIKEN ATOMIC CHARGES
-----------------------
   0 C :   -0.200896
   1 C :   -0.172720
   2 C :   -0.276032
   3 C :    0.168441
   4 C :   -0.418434
   5 C :    0.391347
   6 C :   -0.328926
   7 C :   -0.227487
   8 C :    0.114030
   9 C :   -0.233413
  10 O :   -0.450242
  11 H :    0.177266
  12 H :    0.177957
  13 H :    0.177048
  14 H :    0.183564
  15 H :    0.186443
  16 H :    0.181813
  17 H :    0.177841
  18 H :    0.372401
Sum of atomic charges:    0.0000000

LOEWDIN ATOMIC CHARGES
----------------------
   0 C :   -0.187153
   1 C :   -0.172028
   2 C :   -0.162403
   3 C :   -0.063545
   4 C :   -0.158155
   5 C :    0.174029
   6 C :   -0.142963
   7 C :   -0.136950
   8 C :   -0.087056
   9 C :   -0.150633
  10 O :   -0.507618
  11 H :    0.177716
  12 H :    0.178419
  13 H :    0.181983
  14 H :    0.190986
  15 H :    0.190382
  16 H :    0.185419
  17 H :    0.182390
  18 H :    0.307179

  Mayer bond orders larger than 0.100000
B(  0-C ,  1-C ) :   1.2399 B(  0-C ,  9-C ) :   1.4708 B(  0-C , 11-H ) :   0.9622
B(  1-C ,  2-C ) :   1.4743 B(  1-C , 12-H ) :   0.9597 B(  2-C ,  3-C ) :   1.1851
B(  2-C , 13-H ) :   0.9656 B(  3-C ,  4-C ) :   1.1917 B(  3-C ,  8-C ) :   1.3823
B(  4-C ,  5-C ) :   1.4201 B(  4-C , 14-H ) :   0.9418 B(  5-C ,  6-C ) :   1.2341
B(  5-C , 10-O ) :   0.9404 B(  6-C ,  7-C ) :   1.4818 B(  6-C , 15-H ) :   0.9565
B(  7-C ,  8-C ) :   1.1994 B(  7-C , 16-H ) :   0.9588 B(  8-C ,  9-C ) :   1.2081
B(  9-C , 17-H ) :   0.9607 B( 10-O , 18-H ) :   0.8499

Dispersion correction           -0.007423758
FINAL SINGLE POINT ENERGY      -461.015906994952

DIPOLE MOMENT
-------------

Method             : SCF
Type of density    : Electron Density
Multiplicity       :   1
Irrep              :   0
Energy             :  -461.0133018232456266 Eh
Relativity type    :
Basis              : AO
                                X                 Y                 Z
Electronic contribution:      2.798401829       0.270846867       0.000117632
Nuclear contribution   :     -2.796215016       0.348431412      -0.000568238
                        -----------------------------------------
Total Dipole Moment    :      0.002186813       0.619278279      -0.000450606
                        -----------------------------------------
Magnitude (a.u.)       :      0.619282304
Magnitude (Debye)      :      1.574090522

Rotational constants in cm-1:             0.096042             0.027815             0.021568
Rotational constants in MHz :          2879.264471           833.872770           646.606922

                             ****ORCA TERMINATED NORMALLY****
TOTAL RUN TIME: 0 days 0 hours 0 minutes 38 seconds 29 msec
