                         Program Version 6.0.0  -   RELEASE  -
|  1> ! pbe def2-sv(p) def2/J RI DEFGRID1 loosescf d4 GCP(DFT/SV(P)) printgap
|  2> %output
|  3>     printlevel normal
|  4> end
|  5> * xyz 0 1
|  6> C 4.3042035567 0.4294636375 -2.03174292
|  7> C 4.5646986392 0.6127295709 -0.5508484881
|  8> O 3.6152188106 -0.0881054254 0.2727430139
|  9> P 2.061054349 0.2556305514 0.2774351069
| 10> S 1.6286837324 2.157695082 0.1776838014
| 11> O 1.5904269743 -0.3925518835 1.635127668
| 12> C 1.9315817437 -1.7489035477 2.0161050174
| 13> C 3.0873727114 -1.7499839534 2.9936368647
| 14> S 1.2703168865 -0.9911907989 -1.270731386
| 15> C 0.1611764171 0.193680815 -2.086815065
| 16> S -1.5838904757 -0.2985107672 -2.0947006891
| 17> P -2.0742189266 -0.3086689191 -0.0484802185
| 18> S -1.4306303587 -1.7185907305 1.1392503108
| 19> O -3.6586754182 -0.3363010095 -0.0591373505
| 20> C -4.4740845069 0.596625804 -0.8103539485
| 21> C -5.0566685947 -0.0793526693 -2.0349640472
| 22> O -1.6086139762 1.1781266874 0.3281483469
| 23> C -1.4336117055 1.5875755884 1.6952771144
| 24> C -2.7542710522 1.6760911132 2.4300706714
| 25> H 5.1236521862 0.8665731343 -2.5932587084
| 26> H 4.2218510228 -0.6266328772 -2.276133488
| 27> H 3.3792561763 0.9317512608 -2.3115473894
| 28> H 4.5304708824 1.6732639422 -0.2838318888
| 29> H 5.5249665795 0.1868123744 -0.2565771459
| 30> H 1.0187634548 -2.1474528739 2.4644779155
| 31> H 2.1660369104 -2.3224101167 1.1153089635
| 32> H 2.8433572743 -1.1362451395 3.8563454299
| 33> H 3.271088436 -2.769104167 3.3186652561
| 34> H 3.9825680137 -1.3551404395 2.5206027646
| 35> H 0.4363140805 0.2394198591 -3.1379945262
| 36> H 0.2692660769 1.1689082605 -1.6041475308
| 37> H -5.2600877978 0.897900844 -0.1153814999
| 38> H -3.868502931 1.4646553684 -1.0832097228
| 39> H -4.2645670395 -0.3746326173 -2.7197419628
| 40> H -5.61206836 -0.9650341416 -1.7393746658
| 41> H -5.7242566762 0.6127697316 -2.538253889
| 42> H -0.7605084935 0.8766691079 2.1873149354
| 43> H -0.9391531958 2.5578297583 1.6181757221
| 44> H -2.5773502786 2.0387211797 3.4377418583
| 45> H -3.4276348199 2.3566647348 1.9152519153
| 46> H -3.2131177481 0.6889391078 2.4841685027
| 47> *
| 48>
| 49>                          ****END OF INPUT****

CARTESIAN COORDINATES (ANGSTROEM)
---------------------------------
  C      4.304204    0.429464   -2.031743
  C      4.564699    0.612730   -0.550848
  O      3.615219   -0.088105    0.272743
  P      2.061054    0.255631    0.277435
  S      1.628684    2.157695    0.177684
  O      1.590427   -0.392552    1.635128
  C      1.931582   -1.748904    2.016105
  C      3.087373   -1.749984    2.993637
  S      1.270317   -0.991191   -1.270731
  C      0.161176    0.193681   -2.086815
  S     -1.583890   -0.298511   -2.094701
  P     -2.074219   -0.308669   -0.048480
  S     -1.430630   -1.718591    1.139250
  O     -3.658675   -0.336301   -0.059137
  C     -4.474085    0.596626   -0.810354
  C     -5.056669   -0.079353   -2.034964
  O     -1.608614    1.178127    0.328148
  C     -1.433612    1.587576    1.695277
  C     -2.754271    1.676091    2.430071
  H      5.123652    0.866573   -2.593259
  H      4.221851   -0.626633   -2.276133
  H      3.379256    0.931751   -2.311547
  H      4.530471    1.673264   -0.283832
  H      5.524967    0.186812   -0.256577
  H      1.018763   -2.147453    2.464478
  H      2.166037   -2.322410    1.115309
  H      2.843357   -1.136245    3.856345
  H      3.271088   -2.769104    3.318665
  H      3.982568   -1.355140    2.520603
  H      0.436314    0.239420   -3.137995
  H      0.269266    1.168908   -1.604148
  H     -5.260088    0.897901   -0.115381
  H     -3.868503    1.464655   -1.083210
  H     -4.264567   -0.374633   -2.719742
  H     -5.612068   -0.965034   -1.739375
  H     -5.724257    0.612770   -2.538254
  H     -0.760508    0.876669    2.187315
  H     -0.939153    2.557830    1.618176
  H     -2.577350    2.038721    3.437742
  H     -3.427635    2.356665    1.915252
  H     -3.213118    0.688939    2.484169

 Total Charge           Charge          ....    0
 Multiplicity           Mult            ....    1
 Number of Electrons    NEL             ....  202
 Basis Dimension        Dim             ....  334

ORBITAL ENERGIES
----------------

  NO   OCC          E(Eh)            E(eV)
   0   2.0000     -88.041398     -2395.7282
   1   2.0000     -88.041343     -2395.7267
   2   2.0000     -87.991666     -2394.3750
   3   2.0000     -87.975489     -2393.9348
   4   2.0000     -76.427633     -2079.7016
   5   2.0000     -76.419310     -2079.4751
   6   2.0000     -18.794549      -511.4257
   7   2.0000     -18.790026      -511.3026
   8   2.0000     -18.788265      -511.2547
   9   2.0000     -18.783332      -511.1204
  10   2.0000      -9.956472      -270.9294
  11   2.0000      -9.955472      -270.9022
  12   2.0000      -9.955382      -270.8997
  13   2.0000      -9.949789      -270.7475
  14   2.0000      -9.935930      -270.3704
  15   2.0000      -9.887422      -269.0504
  16   2.0000      -9.887171      -269.0436
  17   2.0000      -9.882603      -268.9193
  18   2.0000      -9.877070      -268.7687
  19   2.0000      -7.686898      -209.1711
  20   2.0000      -7.686081      -209.1489
  21   2.0000      -7.636644      -207.8037
  22   2.0000      -7.620786      -207.3721
  23   2.0000      -6.425251      -174.8400
  24   2.0000      -6.417168      -174.6200
  25   2.0000      -5.714916      -155.5108
  26   2.0000      -5.713992      -155.4856
  27   2.0000      -5.711137      -155.4079
  28   2.0000      -5.710737      -155.3970
  29   2.0000      -5.703890      -155.2108
  30   2.0000      -5.702925      -155.1845
  31   2.0000      -5.665552      -154.1675
  32   2.0000      -5.657184      -153.9398
  33   2.0000      -5.656813      -153.9297
  34   2.0000      -5.649821      -153.7394
  35   2.0000      -5.641348      -153.5089
  36   2.0000      -5.640798      -153.4939
  37   2.0000      -4.647982      -126.4780
  38   2.0000      -4.646767      -126.4450
  39   2.0000      -4.645812      -126.4190
  40   2.0000      -4.640213      -126.2666
  41   2.0000      -4.638759      -126.2270
  42   2.0000      -4.637371      -126.1893
  43   2.0000      -0.988542       -26.8996
  44   2.0000      -0.979304       -26.6482
  45   2.0000      -0.944118       -25.6907
  46   2.0000      -0.938596       -25.5405
  47   2.0000      -0.760193       -20.6859
  48   2.0000      -0.719711       -19.5843
  49   2.0000      -0.708517       -19.2797
  50   2.0000      -0.691038       -18.8041
  51   2.0000      -0.686496       -18.6805
  52   2.0000      -0.671744       -18.2791
  53   2.0000      -0.649677       -17.6786
  54   2.0000      -0.637683       -17.3522
  55   2.0000      -0.598627       -16.2895
  56   2.0000      -0.580944       -15.8083
  57   2.0000      -0.574359       -15.6291
  58   2.0000      -0.572245       -15.5716
  59   2.0000      -0.560914       -15.2633
  60   2.0000      -0.502825       -13.6826
  61   2.0000      -0.493843       -13.4381
  62   2.0000      -0.474216       -12.9041
  63   2.0000      -0.469814       -12.7843
  64   2.0000      -0.450787       -12.2665
  65   2.0000      -0.448278       -12.1983
  66   2.0000      -0.442475       -12.0403
  67   2.0000      -0.432990       -11.7823
  68   2.0000      -0.425535       -11.5794
  69   2.0000      -0.417316       -11.3557
  70   2.0000      -0.407496       -11.0885
  71   2.0000      -0.395734       -10.7685
  72   2.0000      -0.392439       -10.6788
  73   2.0000      -0.385669       -10.4946
  74   2.0000      -0.376551       -10.2465
  75   2.0000      -0.368553       -10.0288
  76   2.0000      -0.364082        -9.9072
  77   2.0000      -0.355521        -9.6742
  78   2.0000      -0.355134        -9.6637
  79   2.0000      -0.353850        -9.6288
  80   2.0000      -0.348067        -9.4714
  81   2.0000      -0.345002        -9.3880
  82   2.0000      -0.342497        -9.3198
  83   2.0000      -0.335843        -9.1387
  84   2.0000      -0.329240        -8.9591
  85   2.0000      -0.314453        -8.5567
  86   2.0000      -0.308781        -8.4024
  87   2.0000      -0.302073        -8.2198
  88   2.0000      -0.299265        -8.1434
  89   2.0000      -0.293439        -7.9849
  90   2.0000      -0.273156        -7.4329
  91   2.0000      -0.270142        -7.3509
  92   2.0000      -0.266708        -7.2575
  93   2.0000      -0.261549        -7.1171
  94   2.0000      -0.258855        -7.0438
  95   2.0000      -0.238371        -6.4864
  96   2.0000      -0.220770        -6.0075
  97   2.0000      -0.209190        -5.6924
  98   2.0000      -0.205397        -5.5891
  99   2.0000      -0.191683        -5.2160
 100   2.0000      -0.188998        -5.1429
 101   0.0000      -0.041842        -1.1386
 102   0.0000      -0.033092        -0.9005
 103   0.0000      -0.010881        -0.2961
 104   0.0000       0.003227         0.0878
 105   0.0000       0.013795         0.3754

MULLIKEN ATOMIC CHARGES
-----------------------
   0 C :   -0.315614
   1 C :    0.002961
   2 O :   -0.382861
   3 P :    0.603821
   4 S :   -0.307361
   5 O :   -0.346536
   6 C :   -0.017614
   7 C :   -0.281029
   8 S :   -0.091233
   9 C :   -0.344860
  10 S :   -0.111010
  11 P :    0.621184
  12 S :   -0.316465
  13 O :   -0.367856
  14 C :   -0.030175
  15 C :   -0.290299
  16 O :   -0.385828
  17 C :   -0.023222
  18 C :   -0.309185
  19 H :    0.113580
  20 H :    0.121331
  21 H :    0.120316
  22 H :    0.112504
  23 H :    0.105464
  24 H :    0.124372
  25 H :    0.103218
  26 H :    0.118033
  27 H :    0.109454
  28 H :    0.116676
  29 H :    0.181003
  30 H :    0.205930
  31 H :    0.110823
  32 H :    0.110439
  33 H :    0.129177
  34 H :    0.122588
  35 H :    0.110702
  36 H :    0.121651
  37 H :    0.110714
  38 H :    0.111401
  39 H :    0.106921
  40 H :    0.126885
Sum of atomic charges:   -0.0000000

LOEWDIN ATOMIC CHARGES
----------------------
   0 C :   -0.371258
   1 C :   -0.115219
   2 O :   -0.248728
   3 P :    0.575298
   4 S :   -0.286005
   5 O :   -0.227338
   6 C :   -0.115001
   7 C :   -0.358070
   8 S :    0.078302
   9 C :   -0.481049
  10 S :    0.083255
  11 P :    0.561220
  12 S :   -0.306044
  13 O :   -0.241566
  14 C :   -0.121178
  15 C :   -0.359508
  16 O :   -0.251359
  17 C :   -0.130488
  18 C :   -0.367512
  19 H :    0.130980
  20 H :    0.124502
  21 H :    0.119023
  22 H :    0.112766
  23 H :    0.118884
  24 H :    0.117692
  25 H :    0.106107
  26 H :    0.128269
  27 H :    0.129707
  28 H :    0.124188
  29 H :    0.136317
  30 H :    0.123871
  31 H :    0.120287
  32 H :    0.109243
  33 H :    0.120123
  34 H :    0.130336
  35 H :    0.130614
  36 H :    0.110605
  37 H :    0.114625
  38 H :    0.130725
  39 H :    0.119761
  40 H :    0.123625

  Mayer bond orders larger than 0.100000
B(  0-C ,  1-C ) :   1.1664 B(  0-C , 19-H ) :   0.9363 B(  0-C , 20-H ) :   0.9410
B(  0-C , 21-H ) :   0.9379 B(  1-C ,  2-O ) :   0.9106 B(  1-C , 22-H ) :   0.9204
B(  1-C , 23-H ) :   0.9342 B(  2-O ,  3-P ) :   1.0736 B(  3-P ,  4-S ) :   1.6125
B(  3-P ,  5-O ) :   1.1468 B(  3-P ,  8-S ) :   0.9570 B(  4-S ,  8-S ) :   0.1174
B(  4-S , 30-H ) :   0.1112 B(  5-O ,  6-C ) :   0.8836 B(  6-C ,  7-C ) :   1.1631
B(  6-C , 24-H ) :   0.9216 B(  6-C , 25-H ) :   0.9194 B(  7-C , 26-H ) :   0.9471
B(  7-C , 27-H ) :   0.9402 B(  7-C , 28-H ) :   0.9428 B(  8-S ,  9-C ) :   1.0079
B(  9-C , 10-S ) :   0.9943 B(  9-C , 29-H ) :   0.9111 B(  9-C , 30-H ) :   0.8474
B( 10-S , 11-P ) :   0.9652 B( 10-S , 12-S ) :   0.1061 B( 11-P , 12-S ) :   1.6623
B( 11-P , 13-O ) :   1.1121 B( 11-P , 16-O ) :   1.0781 B( 13-O , 14-C ) :   0.8959
B( 14-C , 15-C ) :   1.1670 B( 14-C , 31-H ) :   0.9313 B( 14-C , 32-H ) :   0.9142
B( 15-C , 33-H ) :   0.9381 B( 15-C , 34-H ) :   0.9455 B( 15-C , 35-H ) :   0.9394
B( 16-O , 17-C ) :   0.8977 B( 17-C , 18-C ) :   1.1551 B( 17-C , 36-H ) :   0.9118
B( 17-C , 37-H ) :   0.9265 B( 18-C , 38-H ) :   0.9405 B( 18-C , 39-H ) :   0.9452
B( 18-C , 40-H ) :   0.9339

Dispersion correction           -0.067398249
FINAL SINGLE POINT ENERGY     -2929.516691786451

DIPOLE MOMENT
-------------

Method             : SCF
Type of density    : Electron Density
Multiplicity       :   1
Irrep              :   0
Energy             : -2929.6364364761716388 Eh
Relativity type    :
Basis              : AO
                                X                 Y                 Z
Electronic contribution:     -0.634879273      -4.191122216      -4.353781510
Nuclear contribution   :      1.065268588       4.640841340       3.882265218
                        -----------------------------------------
Total Dipole Moment    :      0.430389315       0.449719124      -0.471516292
                        -----------------------------------------
Magnitude (a.u.)       :      0.780903237
Magnitude (Debye)      :      1.984898286

Rotational constants in cm-1:             0.012801             0.005316             0.004834
Rotational constants in MHz :           383.779171           159.383884           144.922836

                             ****ORCA TERMINATED NORMALLY****
TOTAL RUN TIME: 0 days 0 hours 0 minutes 21 seconds 518 msec
