                         Program Version 6.0.1  -  RELEASE   -
|  1> ! r2scan-3c def2/J RI DEFGRID2 scfconv6 printgap
|  2> %output
|  3>     printlevel normal
|  4> end
|  5> * xyz 0 1
|  6> C 3.0829239803 -4.7022038246 -0.8951370653
|  7> C 3.5269175883 -3.5347374777 -1.7621120091
|  8> O 3.4569069757 -2.2959153994 -1.0287938981
|  9> C 2.3161273378 -1.6346854342 -1.0199244663
| 10> O 1.3162992589 -1.9753601537 -1.6127055462
| 11> C 2.4214728714 -0.3799231478 -0.1763927317
| 12> C 1.0762984482 0.3191233823 -0.085027138
| 13> H 0.6135318099 0.3464908857 -1.0837000785
| 14> C 1.1793092406 1.7606653981 0.3756407458
| 15> O 2.1342235475 2.4621306977 0.1366712302
| 16> O 0.0992505714 2.1395286725 1.026710296
| 17> C -0.0128718106 3.5138147393 1.4503149878
| 18> C -0.8040672325 4.3194063292 0.4347772768
| 19> S -0.0716829512 -0.6204379546 0.973955827
| 20> P -1.8787500934 0.214856568 0.2275310711
| 21> S -1.8089715163 1.1228301036 -1.505140239
| 22> O -2.865520403 -1.0499690721 0.2644907899
| 23> C -2.7021433818 -2.1282298385 -0.6607131514
| 24> O -2.5206762838 1.10828818 1.3586252569
| 25> C -2.720893104 0.6203088888 2.7000114413
| 26> H 3.6822787688 -4.7448244234 0.0099429205
| 27> H 2.0364314907 -4.5879174939 -0.622246926
| 28> H 3.2039460937 -5.6268795369 -1.4496040296
| 29> H 2.8970773193 -3.4500352454 -2.6522582036
| 30> H 4.5756703755 -3.6247938516 -2.0451948339
| 31> H 3.1454859167 0.2985256983 -0.6344130523
| 32> H 2.7947468905 -0.651762095 0.8118528577
| 33> H -0.5304085364 3.467187774 2.4088472054
| 34> H 0.9964684837 3.9153903174 1.5743303815
| 35> H -0.942422483 5.3297027358 0.8045368484
| 36> H -0.2740999041 4.3553065318 -0.5146350545
| 37> H -1.7751689048 3.8582395442 0.2691533792
| 38> H -2.7721580476 -1.7577641556 -1.6844921808
| 39> H -3.51091187 -2.8223096628 -0.448482841
| 40> H -1.73350848 -2.6081735279 -0.5155384153
| 41> H -3.0798785922 1.4775627136 3.2634582703
| 42> H -1.7777753568 0.2544478827 3.1062189498
| 43> H -3.4605171175 -0.1778521269 2.6973591491
| 44> *
| 45>
| 46>                          ****END OF INPUT****

CARTESIAN COORDINATES (ANGSTROEM)
---------------------------------
  C      3.082924   -4.702204   -0.895137
  C      3.526918   -3.534737   -1.762112
  O      3.456907   -2.295915   -1.028794
  C      2.316127   -1.634685   -1.019924
  O      1.316299   -1.975360   -1.612706
  C      2.421473   -0.379923   -0.176393
  C      1.076298    0.319123   -0.085027
  H      0.613532    0.346491   -1.083700
  C      1.179309    1.760665    0.375641
  O      2.134224    2.462131    0.136671
  O      0.099251    2.139529    1.026710
  C     -0.012872    3.513815    1.450315
  C     -0.804067    4.319406    0.434777
  S     -0.071683   -0.620438    0.973956
  P     -1.878750    0.214857    0.227531
  S     -1.808972    1.122830   -1.505140
  O     -2.865520   -1.049969    0.264491
  C     -2.702143   -2.128230   -0.660713
  O     -2.520676    1.108288    1.358625
  C     -2.720893    0.620309    2.700011
  H      3.682279   -4.744824    0.009943
  H      2.036431   -4.587917   -0.622247
  H      3.203946   -5.626880   -1.449604
  H      2.897077   -3.450035   -2.652258
  H      4.575670   -3.624794   -2.045195
  H      3.145486    0.298526   -0.634413
  H      2.794747   -0.651762    0.811853
  H     -0.530409    3.467188    2.408847
  H      0.996468    3.915390    1.574330
  H     -0.942422    5.329703    0.804537
  H     -0.274100    4.355307   -0.514635
  H     -1.775169    3.858240    0.269153
  H     -2.772158   -1.757764   -1.684492
  H     -3.510912   -2.822310   -0.448483
  H     -1.733508   -2.608174   -0.515538
  H     -3.079879    1.477563    3.263458
  H     -1.777775    0.254448    3.106219
  H     -3.460517   -0.177852    2.697359

 Total Charge           Charge          ....    0
 Multiplicity           Mult            ....    1
 Number of Electrons    NEL             ....  174
 Basis Dimension        Dim             ....  510

ORBITAL ENERGIES
----------------

  NO   OCC          E(Eh)            E(eV)
   0   2.0000     -88.571781     -2410.1607
   1   2.0000     -88.516741     -2408.6630
   2   2.0000     -76.911726     -2092.8745
   3   2.0000     -19.005690      -517.1711
   4   2.0000     -19.002246      -517.0774
   5   2.0000     -18.994295      -516.8610
   6   2.0000     -18.988044      -516.6910
   7   2.0000     -18.938409      -515.3403
   8   2.0000     -18.937853      -515.3252
   9   2.0000     -10.163696      -276.5682
  10   2.0000     -10.162597      -276.5383
  11   2.0000     -10.099144      -274.8117
  12   2.0000     -10.098123      -274.7839
  13   2.0000     -10.092064      -274.6190
  14   2.0000     -10.089253      -274.5425
  15   2.0000     -10.085021      -274.4274
  16   2.0000     -10.061842      -273.7966
  17   2.0000     -10.034576      -273.0547
  18   2.0000     -10.021587      -272.7012
  19   2.0000      -7.866207      -214.0504
  20   2.0000      -7.811451      -212.5604
  21   2.0000      -6.590082      -179.3252
  22   2.0000      -5.813009      -158.1800
  23   2.0000      -5.810286      -158.1059
  24   2.0000      -5.803155      -157.9119
  25   2.0000      -5.759359      -156.7201
  26   2.0000      -5.751697      -156.5116
  27   2.0000      -5.751240      -156.4992
  28   2.0000      -4.735776      -128.8670
  29   2.0000      -4.735111      -128.8489
  30   2.0000      -4.733583      -128.8073
  31   2.0000      -1.082623       -29.4597
  32   2.0000      -1.081305       -29.4238
  33   2.0000      -1.049564       -28.5601
  34   2.0000      -1.007230       -27.4081
  35   2.0000      -0.988061       -26.8865
  36   2.0000      -0.987298       -26.8658
  37   2.0000      -0.809236       -22.0204
  38   2.0000      -0.758618       -20.6431
  39   2.0000      -0.740021       -20.1370
  40   2.0000      -0.732613       -19.9354
  41   2.0000      -0.697775       -18.9874
  42   2.0000      -0.673195       -18.3186
  43   2.0000      -0.657801       -17.8997
  44   2.0000      -0.649456       -17.6726
  45   2.0000      -0.632880       -17.2215
  46   2.0000      -0.594035       -16.1645
  47   2.0000      -0.539519       -14.6811
  48   2.0000      -0.532168       -14.4810
  49   2.0000      -0.523177       -14.2364
  50   2.0000      -0.500241       -13.6123
  51   2.0000      -0.492436       -13.3999
  52   2.0000      -0.484805       -13.1922
  53   2.0000      -0.467310       -12.7162
  54   2.0000      -0.457553       -12.4506
  55   2.0000      -0.450876       -12.2689
  56   2.0000      -0.449537       -12.2325
  57   2.0000      -0.442184       -12.0324
  58   2.0000      -0.437727       -11.9112
  59   2.0000      -0.428722       -11.6661
  60   2.0000      -0.420867       -11.4524
  61   2.0000      -0.418274       -11.3818
  62   2.0000      -0.416059       -11.3215
  63   2.0000      -0.397932       -10.8283
  64   2.0000      -0.397455       -10.8153
  65   2.0000      -0.379176       -10.3179
  66   2.0000      -0.375774       -10.2253
  67   2.0000      -0.369455       -10.0534
  68   2.0000      -0.359495        -9.7823
  69   2.0000      -0.352760        -9.5991
  70   2.0000      -0.348417        -9.4809
  71   2.0000      -0.346394        -9.4259
  72   2.0000      -0.338616        -9.2142
  73   2.0000      -0.328568        -8.9408
  74   2.0000      -0.323187        -8.7944
  75   2.0000      -0.314657        -8.5623
  76   2.0000      -0.311866        -8.4863
  77   2.0000      -0.305465        -8.3121
  78   2.0000      -0.286490        -7.7958
  79   2.0000      -0.282358        -7.6833
  80   2.0000      -0.278257        -7.5717
  81   2.0000      -0.273047        -7.4300
  82   2.0000      -0.262659        -7.1473
  83   2.0000      -0.246058        -6.6956
  84   2.0000      -0.223377        -6.0784
  85   2.0000      -0.216950        -5.9035
  86   2.0000      -0.210722        -5.7340
  87   0.0000      -0.043529        -1.1845
  88   0.0000      -0.026477        -0.7205
  89   0.0000      -0.017241        -0.4692
  90   0.0000       0.009313         0.2534
  91   0.0000       0.019033         0.5179

MULLIKEN ATOMIC CHARGES
-----------------------
   0 C :   -0.466517
   1 C :   -0.139276
   2 O :   -0.170190
   3 C :    0.398042
   4 O :   -0.421947
   5 C :   -0.443768
   6 C :    0.006915
   7 H :    0.250198
   8 C :    0.320957
   9 O :   -0.415634
  10 O :   -0.122591
  11 C :   -0.148028
  12 C :   -0.460845
  13 S :   -0.245202
  14 P :    0.782232
  15 S :   -0.451235
  16 O :   -0.345692
  17 C :   -0.287282
  18 O :   -0.318762
  19 C :   -0.297172
  20 H :    0.153820
  21 H :    0.170149
  22 H :    0.148989
  23 H :    0.170220
  24 H :    0.151379
  25 H :    0.213867
  26 H :    0.185854
  27 H :    0.143520
  28 H :    0.173014
  29 H :    0.144193
  30 H :    0.163510
  31 H :    0.176548
  32 H :    0.172960
  33 H :    0.147572
  34 H :    0.166327
  35 H :    0.155482
  36 H :    0.168180
  37 H :    0.170213
Sum of atomic charges:    0.0000000

LOEWDIN ATOMIC CHARGES
----------------------
   0 C :   -0.388651
   1 C :    0.030491
   2 O :   -0.583052
   3 C :    0.358627
   4 O :   -0.441883
   5 C :   -0.202778
   6 C :   -0.197602
   7 H :    0.227336
   8 C :    0.356418
   9 O :   -0.426795
  10 O :   -0.625246
  11 C :    0.035506
  12 C :   -0.389184
  13 S :    0.216481
  14 P :    0.399976
  15 S :   -0.085308
  16 O :   -0.685539
  17 C :   -0.058516
  18 O :   -0.652445
  19 C :   -0.052741
  20 H :    0.157946
  21 H :    0.164445
  22 H :    0.160204
  23 H :    0.189010
  24 H :    0.179320
  25 H :    0.210282
  26 H :    0.191333
  27 H :    0.177969
  28 H :    0.192407
  29 H :    0.156716
  30 H :    0.164561
  31 H :    0.167954
  32 H :    0.176837
  33 H :    0.174858
  34 H :    0.174004
  35 H :    0.179102
  36 H :    0.173327
  37 H :    0.174629

  Mayer bond orders larger than 0.100000
B(  0-C ,  1-C ) :   0.9392 B(  0-C , 20-H ) :   0.9734 B(  0-C , 21-H ) :   0.9718
B(  0-C , 22-H ) :   0.9641 B(  1-C ,  2-O ) :   0.8021 B(  1-C , 23-H ) :   0.9675
B(  1-C , 24-H ) :   0.9616 B(  2-O ,  3-C ) :   1.1131 B(  3-C ,  4-O ) :   1.8385
B(  3-C ,  5-C ) :   0.9667 B(  5-C ,  6-C ) :   0.9536 B(  5-C , 25-H ) :   0.9165
B(  5-C , 26-H ) :   0.9640 B(  6-C ,  7-H ) :   0.9052 B(  6-C ,  8-C ) :   0.8761
B(  6-C , 13-S ) :   0.7942 B(  8-C ,  9-O ) :   1.8882 B(  8-C , 10-O ) :   1.1867
B( 10-O , 11-C ) :   0.7646 B( 11-C , 12-C ) :   0.9374 B( 11-C , 27-H ) :   0.9636
B( 11-C , 28-H ) :   0.9611 B( 12-C , 29-H ) :   0.9674 B( 12-C , 30-H ) :   0.9681
B( 12-C , 31-H ) :   0.9656 B( 13-S , 14-P ) :   1.0096 B( 14-P , 15-S ) :   1.7884
B( 14-P , 16-O ) :   1.0428 B( 14-P , 18-O ) :   1.1471 B( 16-O , 17-C ) :   0.8343
B( 17-C , 32-H ) :   0.9586 B( 17-C , 33-H ) :   0.9673 B( 17-C , 34-H ) :   0.9517
B( 18-O , 19-C ) :   0.7958 B( 19-C , 35-H ) :   0.9662 B( 19-C , 36-H ) :   0.9563
B( 19-C , 37-H ) :   0.9604

Dispersion correction           -0.017327459
FINAL SINGLE POINT ENERGY     -1981.455068523456

DIPOLE MOMENT
-------------

Method             : SCF
Type of density    : Electron Density
Multiplicity       :   1
Irrep              :   0
Energy             : -1981.4752514201081794 Eh
Relativity type    :
Basis              : AO
                                X                 Y                 Z
Electronic contribution:     -5.407909078       5.440480910      -1.631407027
Nuclear contribution   :      5.593100824      -6.532910623       2.905624791
                        -----------------------------------------
Total Dipole Moment    :      0.185191746      -1.092429713       1.274217763
                        -----------------------------------------
Magnitude (a.u.)       :      1.688588040
Magnitude (Debye)      :      4.292049703

Rotational constants in cm-1:             0.013601             0.006672             0.005305
Rotational constants in MHz :           407.742499           200.032352           159.038458

                             ****ORCA TERMINATED NORMALLY****
TOTAL RUN TIME: 0 days 0 hours 1 minutes 24 seconds 67 msec
