                         Program Version 6.0.1  -  RELEASE   -
|  1> ! r2scan-3c def2/J RI DEFGRID2 scfconv6 printgap
|  2> %output
|  3>     printlevel normal
|  4> end
|  5> %cpcm
|  6>     smd true
|  7>     smdsolvent "water"
|  8> end
|  9> * xyz 0 1
| 10> C 3.0829239803 -4.7022038246 -0.8951370653
| 11> C 3.5269175883 -3.5347374777 -1.7621120091
| 12> O 3.4569069757 -2.2959153994 -1.0287938981
| 13> C 2.3161273378 -1.6346854342 -1.0199244663
| 14> O 1.3162992589 -1.9753601537 -1.6127055462
| 15> C 2.4214728714 -0.3799231478 -0.1763927317
| 16> C 1.0762984482 0.3191233823 -0.085027138
| 17> H 0.6135318099 0.3464908857 -1.0837000785
| 18> C 1.1793092406 1.7606653981 0.3756407458
| 19> O 2.1342235475 2.4621306977 0.1366712302
| 20> O 0.0992505714 2.1395286725 1.026710296
| 21> C -0.0128718106 3.5138147393 1.4503149878
| 22> C -0.8040672325 4.3194063292 0.4347772768
| 23> S -0.0716829512 -0.6204379546 0.973955827
| 24> P -1.8787500934 0.214856568 0.2275310711
| 25> S -1.8089715163 1.1228301036 -1.505140239
| 26> O -2.865520403 -1.0499690721 0.2644907899
| 27> C -2.7021433818 -2.1282298385 -0.6607131514
| 28> O -2.5206762838 1.10828818 1.3586252569
| 29> C -2.720893104 0.6203088888 2.7000114413
| 30> H 3.6822787688 -4.7448244234 0.0099429205
| 31> H 2.0364314907 -4.5879174939 -0.622246926
| 32> H 3.2039460937 -5.6268795369 -1.4496040296
| 33> H 2.8970773193 -3.4500352454 -2.6522582036
| 34> H 4.5756703755 -3.6247938516 -2.0451948339
| 35> H 3.1454859167 0.2985256983 -0.6344130523
| 36> H 2.7947468905 -0.651762095 0.8118528577
| 37> H -0.5304085364 3.467187774 2.4088472054
| 38> H 0.9964684837 3.9153903174 1.5743303815
| 39> H -0.942422483 5.3297027358 0.8045368484
| 40> H -0.2740999041 4.3553065318 -0.5146350545
| 41> H -1.7751689048 3.8582395442 0.2691533792
| 42> H -2.7721580476 -1.7577641556 -1.6844921808
| 43> H -3.51091187 -2.8223096628 -0.448482841
| 44> H -1.73350848 -2.6081735279 -0.5155384153
| 45> H -3.0798785922 1.4775627136 3.2634582703
| 46> H -1.7777753568 0.2544478827 3.1062189498
| 47> H -3.4605171175 -0.1778521269 2.6973591491
| 48> *
| 49>
| 50>                          ****END OF INPUT****

CARTESIAN COORDINATES (ANGSTROEM)
---------------------------------
  C      3.082924   -4.702204   -0.895137
  C      3.526918   -3.534737   -1.762112
  O      3.456907   -2.295915   -1.028794
  C      2.316127   -1.634685   -1.019924
  O      1.316299   -1.975360   -1.612706
  C      2.421473   -0.379923   -0.176393
  C      1.076298    0.319123   -0.085027
  H      0.613532    0.346491   -1.083700
  C      1.179309    1.760665    0.375641
  O      2.134224    2.462131    0.136671
  O      0.099251    2.139529    1.026710
  C     -0.012872    3.513815    1.450315
  C     -0.804067    4.319406    0.434777
  S     -0.071683   -0.620438    0.973956
  P     -1.878750    0.214857    0.227531
  S     -1.808972    1.122830   -1.505140
  O     -2.865520   -1.049969    0.264491
  C     -2.702143   -2.128230   -0.660713
  O     -2.520676    1.108288    1.358625
  C     -2.720893    0.620309    2.700011
  H      3.682279   -4.744824    0.009943
  H      2.036431   -4.587917   -0.622247
  H      3.203946   -5.626880   -1.449604
  H      2.897077   -3.450035   -2.652258
  H      4.575670   -3.624794   -2.045195
  H      3.145486    0.298526   -0.634413
  H      2.794747   -0.651762    0.811853
  H     -0.530409    3.467188    2.408847
  H      0.996468    3.915390    1.574330
  H     -0.942422    5.329703    0.804537
  H     -0.274100    4.355307   -0.514635
  H     -1.775169    3.858240    0.269153
  H     -2.772158   -1.757764   -1.684492
  H     -3.510912   -2.822310   -0.448483
  H     -1.733508   -2.608174   -0.515538
  H     -3.079879    1.477563    3.263458
  H     -1.777775    0.254448    3.106219
  H     -3.460517   -0.177852    2.697359

 Total Charge           Charge          ....    0
 Multiplicity           Mult            ....    1
 Number of Electrons    NEL             ....  174
 Basis Dimension        Dim             ....  510

ORBITAL ENERGIES
----------------

  NO   OCC          E(Eh)            E(eV)
   0   2.0000     -88.577868     -2410.3263
   1   2.0000     -88.529815     -2409.0187
   2   2.0000     -76.920214     -2093.1054
   3   2.0000     -19.009588      -517.2772
   4   2.0000     -19.007135      -517.2104
   5   2.0000     -18.997933      -516.9600
   6   2.0000     -18.993976      -516.8524
   7   2.0000     -18.952827      -515.7327
   8   2.0000     -18.949082      -515.6307
   9   2.0000     -10.174972      -276.8751
  10   2.0000     -10.171032      -276.7678
  11   2.0000     -10.094119      -274.6749
  12   2.0000     -10.086970      -274.4804
  13   2.0000     -10.085913      -274.4516
  14   2.0000     -10.085220      -274.4328
  15   2.0000     -10.080946      -274.3165
  16   2.0000     -10.058498      -273.7057
  17   2.0000     -10.019250      -272.6376
  18   2.0000     -10.018529      -272.6180
  19   2.0000      -7.872212      -214.2138
  20   2.0000      -7.824877      -212.9257
  21   2.0000      -6.598644      -179.5582
  22   2.0000      -5.819041      -158.3442
  23   2.0000      -5.816306      -158.2697
  24   2.0000      -5.809127      -158.0744
  25   2.0000      -5.772644      -157.0816
  26   2.0000      -5.765201      -156.8791
  27   2.0000      -5.764656      -156.8643
  28   2.0000      -4.744286      -129.0986
  29   2.0000      -4.743634      -129.0808
  30   2.0000      -4.742274      -129.0438
  31   2.0000      -1.090069       -29.6623
  32   2.0000      -1.085494       -29.5378
  33   2.0000      -1.053909       -28.6783
  34   2.0000      -1.011392       -27.5214
  35   2.0000      -1.001005       -27.2387
  36   2.0000      -0.996043       -27.1037
  37   2.0000      -0.812716       -22.1151
  38   2.0000      -0.753526       -20.5045
  39   2.0000      -0.739609       -20.1258
  40   2.0000      -0.730949       -19.8901
  41   2.0000      -0.695361       -18.9217
  42   2.0000      -0.670130       -18.2352
  43   2.0000      -0.660465       -17.9722
  44   2.0000      -0.653591       -17.7851
  45   2.0000      -0.628009       -17.0890
  46   2.0000      -0.592059       -16.1107
  47   2.0000      -0.540532       -14.7086
  48   2.0000      -0.528432       -14.3794
  49   2.0000      -0.522615       -14.2211
  50   2.0000      -0.503374       -13.6975
  51   2.0000      -0.492014       -13.3884
  52   2.0000      -0.486124       -13.2281
  53   2.0000      -0.468663       -12.7530
  54   2.0000      -0.462024       -12.5723
  55   2.0000      -0.458018       -12.4633
  56   2.0000      -0.451163       -12.2768
  57   2.0000      -0.448056       -12.1922
  58   2.0000      -0.437669       -11.9096
  59   2.0000      -0.427687       -11.6380
  60   2.0000      -0.422315       -11.4918
  61   2.0000      -0.414858       -11.2888
  62   2.0000      -0.411283       -11.1916
  63   2.0000      -0.397400       -10.8138
  64   2.0000      -0.394196       -10.7266
  65   2.0000      -0.376421       -10.2429
  66   2.0000      -0.373524       -10.1641
  67   2.0000      -0.369354       -10.0506
  68   2.0000      -0.357172        -9.7191
  69   2.0000      -0.354887        -9.6570
  70   2.0000      -0.348624        -9.4865
  71   2.0000      -0.344636        -9.3780
  72   2.0000      -0.336487        -9.1563
  73   2.0000      -0.328345        -8.9347
  74   2.0000      -0.323480        -8.8023
  75   2.0000      -0.314980        -8.5710
  76   2.0000      -0.307421        -8.3653
  77   2.0000      -0.306407        -8.3378
  78   2.0000      -0.287819        -7.8319
  79   2.0000      -0.286768        -7.8033
  80   2.0000      -0.283239        -7.7073
  81   2.0000      -0.278489        -7.5781
  82   2.0000      -0.274654        -7.4737
  83   2.0000      -0.258225        -7.0267
  84   2.0000      -0.235018        -6.3952
  85   2.0000      -0.230960        -6.2847
  86   2.0000      -0.222333        -6.0500
  87   0.0000      -0.050725        -1.3803
  88   0.0000      -0.034608        -0.9417
  89   0.0000      -0.023993        -0.6529
  90   0.0000       0.004136         0.1126
  91   0.0000       0.012825         0.3490

MULLIKEN ATOMIC CHARGES
-----------------------
   0 C :   -0.494056
   1 C :   -0.143321
   2 O :   -0.184264
   3 C :    0.424820
   4 O :   -0.488821
   5 C :   -0.444999
   6 C :    0.007517
   7 H :    0.250684
   8 C :    0.340429
   9 O :   -0.476468
  10 O :   -0.132371
  11 C :   -0.150832
  12 C :   -0.494678
  13 S :   -0.232553
  14 P :    0.800089
  15 S :   -0.506351
  16 O :   -0.366312
  17 C :   -0.308642
  18 O :   -0.356612
  19 C :   -0.299768
  20 H :    0.167111
  21 H :    0.169458
  22 H :    0.171508
  23 H :    0.174602
  24 H :    0.176343
  25 H :    0.225768
  26 H :    0.223642
  27 H :    0.179173
  28 H :    0.179377
  29 H :    0.171780
  30 H :    0.168463
  31 H :    0.169371
  32 H :    0.178701
  33 H :    0.179665
  34 H :    0.172950
  35 H :    0.184249
  36 H :    0.178956
  37 H :    0.185392
Sum of atomic charges:    0.0000000

LOEWDIN ATOMIC CHARGES
----------------------
   0 C :   -0.391388
   1 C :    0.035806
   2 O :   -0.583285
   3 C :    0.370470
   4 O :   -0.491345
   5 C :   -0.198267
   6 C :   -0.195199
   7 H :    0.226281
   8 C :    0.364899
   9 O :   -0.470560
  10 O :   -0.623663
  11 C :    0.042015
  12 C :   -0.392887
  13 S :    0.228328
  14 P :    0.399632
  15 S :   -0.127629
  16 O :   -0.694914
  17 C :   -0.056766
  18 O :   -0.670628
  19 C :   -0.042834
  20 H :    0.162501
  21 H :    0.162744
  22 H :    0.168540
  23 H :    0.190518
  24 H :    0.190220
  25 H :    0.216773
  26 H :    0.205799
  27 H :    0.191829
  28 H :    0.195309
  29 H :    0.167282
  30 H :    0.162541
  31 H :    0.163504
  32 H :    0.177061
  33 H :    0.188646
  34 H :    0.175798
  35 H :    0.191757
  36 H :    0.179386
  37 H :    0.181725

  Mayer bond orders larger than 0.100000
B(  0-C ,  1-C ) :   0.9371 B(  0-C , 20-H ) :   0.9698 B(  0-C , 21-H ) :   0.9692
B(  0-C , 22-H ) :   0.9590 B(  1-C ,  2-O ) :   0.7846 B(  1-C , 23-H ) :   0.9634
B(  1-C , 24-H ) :   0.9520 B(  2-O ,  3-C ) :   1.1325 B(  3-C ,  4-O ) :   1.7939
B(  3-C ,  5-C ) :   0.9703 B(  5-C ,  6-C ) :   0.9545 B(  5-C , 25-H ) :   0.9089
B(  5-C , 26-H ) :   0.9509 B(  6-C ,  7-H ) :   0.9019 B(  6-C ,  8-C ) :   0.8884
B(  6-C , 13-S ) :   0.8000 B(  8-C ,  9-O ) :   1.8412 B(  8-C , 10-O ) :   1.2078
B( 10-O , 11-C ) :   0.7524 B( 11-C , 12-C ) :   0.9205 B( 11-C , 27-H ) :   0.9541
B( 11-C , 28-H ) :   0.9561 B( 12-C , 29-H ) :   0.9609 B( 12-C , 30-H ) :   0.9701
B( 12-C , 31-H ) :   0.9679 B( 13-S , 14-P ) :   1.0239 B( 14-P , 15-S ) :   1.7609
B( 14-P , 16-O ) :   1.0439 B( 14-P , 18-O ) :   1.1501 B( 16-O , 17-C ) :   0.8238
B( 17-C , 32-H ) :   0.9556 B( 17-C , 33-H ) :   0.9566 B( 17-C , 34-H ) :   0.9485
B( 18-O , 19-C ) :   0.7882 B( 19-C , 35-H ) :   0.9547 B( 19-C , 36-H ) :   0.9476
B( 19-C , 37-H ) :   0.9520

Dispersion correction           -0.017327459
FINAL SINGLE POINT ENERGY     -1981.468063215920

DIPOLE MOMENT
-------------

Method             : SCF
Type of density    : Electron Density
Multiplicity       :   1
Irrep              :   0
Energy             : -1981.4882461125728241 Eh
Relativity type    :
Basis              : AO
                                X                 Y                 Z
Electronic contribution:     -5.188693716       5.105323341      -0.914453234
Nuclear contribution   :      5.593100824      -6.532910623       2.905624791
                        -----------------------------------------
Total Dipole Moment    :      0.404407108      -1.427587282       1.991171557
                        -----------------------------------------
Magnitude (a.u.)       :      2.483206541
Magnitude (Debye)      :      6.311809420

Rotational constants in cm-1:             0.013601             0.006672             0.005305
Rotational constants in MHz :           407.742499           200.032352           159.038458

                             ****ORCA TERMINATED NORMALLY****
TOTAL RUN TIME: 0 days 0 hours 1 minutes 48 seconds 555 msec
