                         Program Version 6.0.0  -   RELEASE  -
|  1> ! pbe def2-sv(p) def2/J RI DEFGRID1 loosescf d4 GCP(DFT/SV(P)) printgap
|  2> %output
|  3>     printlevel normal
|  4> end
|  5> * xyz 0 1
|  6> C 2.414868534 1.4598698599 2.7134337774
|  7> C 1.6781594482 0.138723296 2.704391023
|  8> O 2.2818470415 -0.8413806476 1.8236919452
|  9> P 2.687011749 -0.6665210849 0.3134101017
| 10> S 2.9872009828 -2.4173948663 -0.5117481636
| 11> O 3.957483708 0.2836317835 0.3707395866
| 12> C 4.9199967886 0.3488877364 -0.6951092134
| 13> C 4.3353251511 0.937851571 -1.9627579162
| 14> S 1.1647844065 0.5269777646 -0.5990483244
| 15> C -0.0296296062 -0.8112846807 -0.8345008403
| 16> S -1.2969503763 -0.8510021296 0.4478879392
| 17> P -2.6874659597 0.4273031403 -0.5646344892
| 18> S -2.8433802336 0.0339908611 -2.4799264962
| 19> O -2.2473219327 1.9297062181 -0.405822197
| 20> C -2.3843508408 2.7631836859 0.7721090506
| 21> C -1.4187207231 2.3670529233 1.8689977499
| 22> O -3.9812499593 0.3595864832 0.3497455832
| 23> C -4.5937843677 -0.8503567878 0.8334510313
| 24> C -4.9674064205 -1.8029477425 -0.2824308567
| 25> H 1.9548836096 2.1160723347 3.4459508469
| 26> H 3.4592184685 1.3069954288 2.9721101492
| 27> H 2.3644597289 1.9284722705 1.7323150773
| 28> H 0.6370832901 0.2657892437 2.3978339211
| 29> H 1.7137784208 -0.3507021262 3.6786673976
| 30> H 5.7150636762 0.9758874726 -0.2892610232
| 31> H 5.2998615986 -0.6605532475 -0.8816667548
| 32> H 5.126919473 1.078153994 -2.6918330091
| 33> H 3.591461143 0.2603390881 -2.380230341
| 34> H 3.8619717468 1.8942379109 -1.7552541469
| 35> H 0.5043765681 -1.763526768 -0.8153318124
| 36> H -0.5217575618 -0.6630130437 -1.7986874546
| 37> H -2.168154834 3.7626028061 0.3916248245
| 38> H -3.419072672 2.7094739357 1.1140837419
| 39> H -0.4056237436 2.337060688 1.4753063206
| 40> H -1.469645386 3.1012834186 2.6667605647
| 41> H -1.6794883382 1.3900895546 2.2705760205
| 42> H -3.902476185 -1.327553644 1.5333801804
| 43> H -5.4773352625 -0.4944456573 1.3663151114
| 44> H -5.5001071753 -2.6531692736 0.1311695412
| 45> H -5.5983823743 -1.3031308224 -1.01366323
| 46> H -4.0718674879 -2.1590477945 -0.7900104856
| 47> *
| 48>
| 49>                          ****END OF INPUT****

CARTESIAN COORDINATES (ANGSTROEM)
---------------------------------
  C      2.414869    1.459870    2.713434
  C      1.678159    0.138723    2.704391
  O      2.281847   -0.841381    1.823692
  P      2.687012   -0.666521    0.313410
  S      2.987201   -2.417395   -0.511748
  O      3.957484    0.283632    0.370740
  C      4.919997    0.348888   -0.695109
  C      4.335325    0.937852   -1.962758
  S      1.164784    0.526978   -0.599048
  C     -0.029630   -0.811285   -0.834501
  S     -1.296950   -0.851002    0.447888
  P     -2.687466    0.427303   -0.564634
  S     -2.843380    0.033991   -2.479926
  O     -2.247322    1.929706   -0.405822
  C     -2.384351    2.763184    0.772109
  C     -1.418721    2.367053    1.868998
  O     -3.981250    0.359586    0.349746
  C     -4.593784   -0.850357    0.833451
  C     -4.967406   -1.802948   -0.282431
  H      1.954884    2.116072    3.445951
  H      3.459218    1.306995    2.972110
  H      2.364460    1.928472    1.732315
  H      0.637083    0.265789    2.397834
  H      1.713778   -0.350702    3.678667
  H      5.715064    0.975887   -0.289261
  H      5.299862   -0.660553   -0.881667
  H      5.126919    1.078154   -2.691833
  H      3.591461    0.260339   -2.380230
  H      3.861972    1.894238   -1.755254
  H      0.504377   -1.763527   -0.815332
  H     -0.521758   -0.663013   -1.798687
  H     -2.168155    3.762603    0.391625
  H     -3.419073    2.709474    1.114084
  H     -0.405624    2.337061    1.475306
  H     -1.469645    3.101283    2.666761
  H     -1.679488    1.390090    2.270576
  H     -3.902476   -1.327554    1.533380
  H     -5.477335   -0.494446    1.366315
  H     -5.500107   -2.653169    0.131170
  H     -5.598382   -1.303131   -1.013663
  H     -4.071867   -2.159048   -0.790010

 Total Charge           Charge          ....    0
 Multiplicity           Mult            ....    1
 Number of Electrons    NEL             ....  202
 Basis Dimension        Dim             ....  334

ORBITAL ENERGIES
----------------

  NO   OCC          E(Eh)            E(eV)
   0   2.0000     -88.046673     -2395.8718
   1   2.0000     -88.044685     -2395.8177
   2   2.0000     -87.983991     -2394.1661
   3   2.0000     -87.983498     -2394.1527
   4   2.0000     -76.430879     -2079.7899
   5   2.0000     -76.428384     -2079.7220
   6   2.0000     -18.803784      -511.6770
   7   2.0000     -18.797069      -511.4943
   8   2.0000     -18.794593      -511.4269
   9   2.0000     -18.792888      -511.3805
  10   2.0000      -9.965859      -271.1848
  11   2.0000      -9.961183      -271.0576
  12   2.0000      -9.958474      -270.9838
  13   2.0000      -9.954939      -270.8877
  14   2.0000      -9.949869      -270.7497
  15   2.0000      -9.894137      -269.2332
  16   2.0000      -9.891465      -269.1605
  17   2.0000      -9.886769      -269.0327
  18   2.0000      -9.884666      -268.9754
  19   2.0000      -7.691214      -209.2886
  20   2.0000      -7.689244      -209.2350
  21   2.0000      -7.629263      -207.6028
  22   2.0000      -7.628762      -207.5892
  23   2.0000      -6.428067      -174.9166
  24   2.0000      -6.425734      -174.8531
  25   2.0000      -5.718771      -155.6157
  26   2.0000      -5.716861      -155.5637
  27   2.0000      -5.715849      -155.5362
  28   2.0000      -5.713850      -155.4818
  29   2.0000      -5.708496      -155.3361
  30   2.0000      -5.706465      -155.2808
  31   2.0000      -5.658297      -153.9701
  32   2.0000      -5.657893      -153.9591
  33   2.0000      -5.649927      -153.7423
  34   2.0000      -5.649513      -153.7311
  35   2.0000      -5.649219      -153.7231
  36   2.0000      -5.648549      -153.7048
  37   2.0000      -4.651227      -126.5663
  38   2.0000      -4.649892      -126.5300
  39   2.0000      -4.648613      -126.4952
  40   2.0000      -4.647949      -126.4771
  41   2.0000      -4.647508      -126.4651
  42   2.0000      -4.645928      -126.4221
  43   2.0000      -0.995578       -27.0911
  44   2.0000      -0.989736       -26.9321
  45   2.0000      -0.950960       -25.8769
  46   2.0000      -0.948993       -25.8234
  47   2.0000      -0.764813       -20.8116
  48   2.0000      -0.725957       -19.7543
  49   2.0000      -0.716499       -19.4969
  50   2.0000      -0.697606       -18.9828
  51   2.0000      -0.693056       -18.8590
  52   2.0000      -0.682256       -18.5651
  53   2.0000      -0.653119       -17.7723
  54   2.0000      -0.637175       -17.3384
  55   2.0000      -0.600338       -16.3360
  56   2.0000      -0.594876       -16.1874
  57   2.0000      -0.588080       -16.0025
  58   2.0000      -0.580176       -15.7874
  59   2.0000      -0.560750       -15.2588
  60   2.0000      -0.506180       -13.7738
  61   2.0000      -0.494756       -13.4630
  62   2.0000      -0.478088       -13.0094
  63   2.0000      -0.475626       -12.9425
  64   2.0000      -0.461532       -12.5589
  65   2.0000      -0.451871       -12.2960
  66   2.0000      -0.444868       -12.1055
  67   2.0000      -0.441674       -12.0186
  68   2.0000      -0.437541       -11.9061
  69   2.0000      -0.428398       -11.6573
  70   2.0000      -0.416233       -11.3263
  71   2.0000      -0.409758       -11.1501
  72   2.0000      -0.402397       -10.9498
  73   2.0000      -0.394968       -10.7476
  74   2.0000      -0.378481       -10.2990
  75   2.0000      -0.369110       -10.0440
  76   2.0000      -0.365193        -9.9374
  77   2.0000      -0.361740        -9.8435
  78   2.0000      -0.358598        -9.7579
  79   2.0000      -0.356747        -9.7076
  80   2.0000      -0.352096        -9.5810
  81   2.0000      -0.349007        -9.4970
  82   2.0000      -0.346190        -9.4203
  83   2.0000      -0.344860        -9.3841
  84   2.0000      -0.337689        -9.1890
  85   2.0000      -0.329698        -8.9715
  86   2.0000      -0.314409        -8.5555
  87   2.0000      -0.303667        -8.2632
  88   2.0000      -0.298133        -8.1126
  89   2.0000      -0.295709        -8.0467
  90   2.0000      -0.294207        -8.0058
  91   2.0000      -0.282828        -7.6961
  92   2.0000      -0.274985        -7.4827
  93   2.0000      -0.266964        -7.2644
  94   2.0000      -0.260395        -7.0857
  95   2.0000      -0.240115        -6.5339
  96   2.0000      -0.224360        -6.1051
  97   2.0000      -0.207205        -5.6383
  98   2.0000      -0.202156        -5.5009
  99   2.0000      -0.199350        -5.4246
 100   2.0000      -0.193192        -5.2570
 101   0.0000      -0.043918        -1.1951
 102   0.0000      -0.034391        -0.9358
 103   0.0000      -0.015341        -0.4174
 104   0.0000      -0.000388        -0.0106
 105   0.0000       0.016671         0.4536

MULLIKEN ATOMIC CHARGES
-----------------------
   0 C :   -0.313386
   1 C :   -0.021015
   2 O :   -0.359175
   3 P :    0.590508
   4 S :   -0.307912
   5 O :   -0.375707
   6 C :   -0.002417
   7 C :   -0.319787
   8 S :   -0.097614
   9 C :   -0.351340
  10 S :   -0.120970
  11 P :    0.605642
  12 S :   -0.302166
  13 O :   -0.353986
  14 C :    0.008359
  15 C :   -0.347433
  16 O :   -0.384753
  17 C :   -0.014405
  18 C :   -0.309872
  19 H :    0.112789
  20 H :    0.124074
  21 H :    0.124418
  22 H :    0.130595
  23 H :    0.109770
  24 H :    0.105164
  25 H :    0.115850
  26 H :    0.115397
  27 H :    0.133241
  28 H :    0.115985
  29 H :    0.191378
  30 H :    0.195957
  31 H :    0.111670
  32 H :    0.110940
  33 H :    0.140937
  34 H :    0.111867
  35 H :    0.128018
  36 H :    0.115895
  37 H :    0.110356
  38 H :    0.113595
  39 H :    0.127869
  40 H :    0.131665
Sum of atomic charges:    0.0000000

LOEWDIN ATOMIC CHARGES
----------------------
   0 C :   -0.367336
   1 C :   -0.114869
   2 O :   -0.236097
   3 P :    0.575428
   4 S :   -0.312481
   5 O :   -0.241132
   6 C :   -0.117130
   7 C :   -0.370833
   8 S :    0.077186
   9 C :   -0.492777
  10 S :    0.067310
  11 P :    0.571514
  12 S :   -0.302868
  13 O :   -0.235062
  14 C :   -0.107357
  15 C :   -0.372845
  16 O :   -0.243676
  17 C :   -0.113991
  18 C :   -0.368506
  19 H :    0.130466
  20 H :    0.129503
  21 H :    0.117275
  22 H :    0.107999
  23 H :    0.123439
  24 H :    0.118737
  25 H :    0.114115
  26 H :    0.132450
  27 H :    0.124038
  28 H :    0.123068
  29 H :    0.128269
  30 H :    0.127611
  31 H :    0.123487
  32 H :    0.114461
  33 H :    0.125663
  34 H :    0.130165
  35 H :    0.116903
  36 H :    0.108921
  37 H :    0.121571
  38 H :    0.131485
  39 H :    0.131479
  40 H :    0.124415

  Mayer bond orders larger than 0.100000
B(  0-C ,  1-C ) :   1.1743 B(  0-C , 19-H ) :   0.9351 B(  0-C , 20-H ) :   0.9413
B(  0-C , 21-H ) :   0.9327 B(  1-C ,  2-O ) :   0.8942 B(  1-C , 22-H ) :   0.9088
B(  1-C , 23-H ) :   0.9327 B(  2-O ,  3-P ) :   1.1467 B(  3-P ,  4-S ) :   1.6176
B(  3-P ,  5-O ) :   1.0971 B(  3-P ,  8-S ) :   0.9448 B(  4-S ,  8-S ) :   0.1098
B(  4-S , 29-H ) :   0.1105 B(  5-O ,  6-C ) :   0.9026 B(  6-C ,  7-C ) :   1.1653
B(  6-C , 24-H ) :   0.9336 B(  6-C , 25-H ) :   0.9169 B(  7-C , 26-H ) :   0.9374
B(  7-C , 27-H ) :   0.9334 B(  7-C , 28-H ) :   0.9447 B(  8-S ,  9-C ) :   0.9956
B(  9-C , 10-S ) :   1.0035 B(  9-C , 29-H ) :   0.8541 B(  9-C , 30-H ) :   0.8508
B( 10-S , 11-P ) :   0.9319 B( 10-S , 12-S ) :   0.1132 B( 11-P , 12-S ) :   1.6443
B( 11-P , 13-O ) :   1.1415 B( 11-P , 16-O ) :   1.0849 B( 12-S , 30-H ) :   0.1178
B( 13-O , 14-C ) :   0.9007 B( 14-C , 15-C ) :   1.1672 B( 14-C , 31-H ) :   0.9343
B( 14-C , 32-H ) :   0.9262 B( 15-C , 33-H ) :   0.9300 B( 15-C , 34-H ) :   0.9343
B( 15-C , 35-H ) :   0.9351 B( 16-O , 17-C ) :   0.9071 B( 17-C , 18-C ) :   1.1681
B( 17-C , 36-H ) :   0.9257 B( 17-C , 37-H ) :   0.9330 B( 18-C , 38-H ) :   0.9347
B( 18-C , 39-H ) :   0.9434 B( 18-C , 40-H ) :   0.9310

Dispersion correction           -0.064580572
FINAL SINGLE POINT ENERGY     -2929.511710303266

DIPOLE MOMENT
-------------

Method             : SCF
Type of density    : Electron Density
Multiplicity       :   1
Irrep              :   0
Energy             : -2929.6330583892290633 Eh
Relativity type    :
Basis              : AO
                                X                 Y                 Z
Electronic contribution:     -0.326524108     -10.011366065     -10.489801345
Nuclear contribution   :      0.014456738      11.342512672      12.318334259
                        -----------------------------------------
Total Dipole Moment    :     -0.312067370       1.331146607       1.828532914
                        -----------------------------------------
Magnitude (a.u.)       :      2.283171029
Magnitude (Debye)      :      5.803359556

Rotational constants in cm-1:             0.013021             0.004370             0.004111
Rotational constants in MHz :           390.353472           131.020263           123.258235

                             ****ORCA TERMINATED NORMALLY****
TOTAL RUN TIME: 0 days 0 hours 0 minutes 21 seconds 28 msec
