                         Program Version 6.0.0  -   RELEASE  -
|  1> ! r2scan-3c def2/J RI DEFGRID2 scfconv6 printgap
|  2> %output
|  3>     printlevel normal
|  4> end
|  5> * xyz 0 1
|  6> C -3.9806698277 -0.6950194865 0.0009850252
|  7> C -3.9806802376 0.6950062742 0.0016968114
|  8> C -2.784932151 1.3826232228 0.0011738833
|  9> C -1.5685323929 0.6986279268 -1.46217e-05
| 10> C -1.5685196902 -0.6986060669 -0.0006140782
| 11> C -2.7849123316 -1.3826239966 -0.0002451682
| 12> C -0.3138949593 -1.4613323662 -0.0011388879
| 13> O -0.3655465831 -2.7101400524 -0.0021317242
| 14> C 0.9229922217 -0.7159126692 -0.000201829
| 15> C 2.1536783197 -1.4160277395 0.0005145663
| 16> C 3.3681287995 -0.6768673955 0.0014565463
| 17> C 3.3681289003 0.6768455184 0.0011675531
| 18> C 2.1536889795 1.4160125676 8.53152e-05
| 19> C 0.9229783491 0.7159161851 -0.0003013779
| 20> C -0.3139061642 1.4613556561 -0.000731027
| 21> O -0.3655328294 2.7101615891 -0.0015219328
| 22> N 2.2271852365 2.752427993 -0.000621056
| 23> N 2.2271475569 -2.7524473152 0.0010019435
| 24> H -4.9142881584 -1.2360590619 0.0012436969
| 25> H -4.9143035804 1.2360301529 0.0028496067
| 26> H -2.7583037225 2.4625887566 0.0017728132
| 27> H -2.7582927635 -2.4625920911 -0.0007605474
| 28> H 4.2974235709 -1.2257055829 0.0023322351
| 29> H 4.2974301519 1.2256825684 0.0016093274
| 30> H 3.1235138912 3.206194024 -0.000131878
| 31> H 1.3590887369 3.2751684977 -0.0012496553
| 32> H 1.3590070773 -3.2751171173 -0.0006691367
| 33> H 3.1234544366 -3.2062352658 3.46453e-05
| 34> *
| 35>
| 36>                          ****END OF INPUT****

CARTESIAN COORDINATES (ANGSTROEM)
---------------------------------
  C     -3.980670   -0.695019    0.000985
  C     -3.980680    0.695006    0.001697
  C     -2.784932    1.382623    0.001174
  C     -1.568532    0.698628   -0.000015
  C     -1.568520   -0.698606   -0.000614
  C     -2.784912   -1.382624   -0.000245
  C     -0.313895   -1.461332   -0.001139
  O     -0.365547   -2.710140   -0.002132
  C      0.922992   -0.715913   -0.000202
  C      2.153678   -1.416028    0.000515
  C      3.368129   -0.676867    0.001457
  C      3.368129    0.676846    0.001168
  C      2.153689    1.416013    0.000085
  C      0.922978    0.715916   -0.000301
  C     -0.313906    1.461356   -0.000731
  O     -0.365533    2.710162   -0.001522
  N      2.227185    2.752428   -0.000621
  N      2.227148   -2.752447    0.001002
  H     -4.914288   -1.236059    0.001244
  H     -4.914304    1.236030    0.002850
  H     -2.758304    2.462589    0.001773
  H     -2.758293   -2.462592   -0.000761
  H      4.297424   -1.225706    0.002332
  H      4.297430    1.225683    0.001609
  H      3.123514    3.206194   -0.000132
  H      1.359089    3.275168   -0.001250
  H      1.359007   -3.275117   -0.000669
  H      3.123454   -3.206235    0.000035

 Total Charge           Charge          ....    0
 Multiplicity           Mult            ....    1
 Number of Electrons    NEL             ....  124
 Basis Dimension        Dim             ....  412

ORBITAL ENERGIES
----------------

  NO   OCC          E(Eh)            E(eV)
   0   2.0000     -18.925425      -514.9870
   1   2.0000     -18.925420      -514.9869
   2   2.0000     -14.179509      -385.8441
   3   2.0000     -14.179505      -385.8439
   4   2.0000     -10.109207      -275.0855
   5   2.0000     -10.109195      -275.0852
   6   2.0000     -10.098406      -274.7916
   7   2.0000     -10.098398      -274.7914
   8   2.0000     -10.060111      -273.7495
   9   2.0000     -10.059497      -273.7328
  10   2.0000     -10.049249      -273.4540
  11   2.0000     -10.048945      -273.4457
  12   2.0000     -10.045959      -273.3644
  13   2.0000     -10.045546      -273.3532
  14   2.0000     -10.042619      -273.2735
  15   2.0000     -10.042178      -273.2616
  16   2.0000     -10.038268      -273.1552
  17   2.0000     -10.038258      -273.1549
  18   2.0000      -0.989789       -26.9335
  19   2.0000      -0.986972       -26.8569
  20   2.0000      -0.914505       -24.8849
  21   2.0000      -0.905534       -24.6408
  22   2.0000      -0.838583       -22.8190
  23   2.0000      -0.812400       -22.1065
  24   2.0000      -0.769400       -20.9364
  25   2.0000      -0.726393       -19.7661
  26   2.0000      -0.726068       -19.7573
  27   2.0000      -0.702715       -19.1218
  28   2.0000      -0.647218       -17.6117
  29   2.0000      -0.625013       -17.0075
  30   2.0000      -0.610100       -16.6017
  31   2.0000      -0.573709       -15.6114
  32   2.0000      -0.546357       -14.8671
  33   2.0000      -0.536607       -14.6018
  34   2.0000      -0.532877       -14.5003
  35   2.0000      -0.500770       -13.6266
  36   2.0000      -0.488761       -13.2999
  37   2.0000      -0.469324       -12.7710
  38   2.0000      -0.457967       -12.4619
  39   2.0000      -0.444243       -12.0885
  40   2.0000      -0.432998       -11.7825
  41   2.0000      -0.421885       -11.4801
  42   2.0000      -0.413110       -11.2413
  43   2.0000      -0.395441       -10.7605
  44   2.0000      -0.394365       -10.7312
  45   2.0000      -0.391986       -10.6665
  46   2.0000      -0.389195       -10.5905
  47   2.0000      -0.373127       -10.1533
  48   2.0000      -0.368315       -10.0223
  49   2.0000      -0.363289        -9.8856
  50   2.0000      -0.356330        -9.6962
  51   2.0000      -0.332567        -9.0496
  52   2.0000      -0.328145        -8.9293
  53   2.0000      -0.327071        -8.9000
  54   2.0000      -0.312612        -8.5066
  55   2.0000      -0.262243        -7.1360
  56   2.0000      -0.254411        -6.9229
  57   2.0000      -0.240980        -6.5574
  58   2.0000      -0.239117        -6.5067
  59   2.0000      -0.223362        -6.0780
  60   2.0000      -0.213876        -5.8199
  61   2.0000      -0.174207        -4.7404
  62   0.0000      -0.116929        -3.1818
  63   0.0000      -0.067924        -1.8483
  64   0.0000      -0.045363        -1.2344
  65   0.0000      -0.013787        -0.3752
  66   0.0000       0.029424         0.8007

MULLIKEN ATOMIC CHARGES
-----------------------
   0 C :   -0.134175
   1 C :   -0.134200
   2 C :   -0.241856
   3 C :    0.168272
   4 C :    0.168246
   5 C :   -0.241895
   6 C :   -0.002341
   7 O :   -0.452606
   8 C :   -0.042362
   9 C :    0.522742
  10 C :   -0.394925
  11 C :   -0.394944
  12 C :    0.522714
  13 C :   -0.042402
  14 C :   -0.002372
  15 O :   -0.452591
  16 N :   -0.437879
  17 N :   -0.437892
  18 H :    0.146922
  19 H :    0.146921
  20 H :    0.181719
  21 H :    0.181719
  22 H :    0.140371
  23 H :    0.140371
  24 H :    0.239352
  25 H :    0.306868
  26 H :    0.306875
  27 H :    0.239349
Sum of atomic charges:   -0.0000000

LOEWDIN ATOMIC CHARGES
----------------------
   0 C :   -0.147794
   1 C :   -0.147793
   2 C :   -0.104308
   3 C :   -0.027628
   4 C :   -0.027625
   5 C :   -0.104305
   6 C :    0.262937
   7 O :   -0.553172
   8 C :   -0.036662
   9 C :    0.175810
  10 C :   -0.109557
  11 C :   -0.109557
  12 C :    0.175811
  13 C :   -0.036661
  14 C :    0.262936
  15 O :   -0.553163
  16 N :   -0.537653
  17 N :   -0.537648
  18 H :    0.168933
  19 H :    0.168933
  20 H :    0.191871
  21 H :    0.191872
  22 H :    0.174135
  23 H :    0.174136
  24 H :    0.256470
  25 H :    0.286607
  26 H :    0.286608
  27 H :    0.256466

  Mayer bond orders larger than 0.100000
B(  0-C ,  1-C ) :   1.3074 B(  0-C ,  5-C ) :   1.3665 B(  0-C , 18-H ) :   0.9550
B(  1-C ,  2-C ) :   1.3665 B(  1-C , 19-H ) :   0.9550 B(  2-C ,  3-C ) :   1.3297
B(  2-C , 15-O ) :   0.1079 B(  2-C , 20-H ) :   0.9623 B(  3-C ,  4-C ) :   1.5392
B(  3-C , 14-C ) :   0.9487 B(  3-C , 15-O ) :  -0.2184 B(  4-C ,  5-C ) :   1.3297
B(  4-C ,  6-C ) :   0.9486 B(  4-C ,  7-O ) :  -0.2184 B(  5-C ,  7-O ) :   0.1079
B(  5-C , 21-H ) :   0.9623 B(  6-C ,  7-O ) :   1.8748 B(  6-C ,  8-C ) :   1.0097
B(  6-C , 13-C ) :  -0.1242 B(  7-O ,  8-C ) :  -0.1319 B(  7-O ,  9-C ) :   0.1057
B(  8-C ,  9-C ) :   1.3358 B(  8-C , 13-C ) :   0.9226 B(  8-C , 14-C ) :  -0.1243
B(  9-C , 10-C ) :   1.0776 B(  9-C , 17-N ) :   1.0629 B( 10-C , 11-C ) :   1.4896
B( 10-C , 22-H ) :   0.9397 B( 11-C , 12-C ) :   1.0776 B( 11-C , 23-H ) :   0.9397
B( 12-C , 13-C ) :   1.3359 B( 12-C , 15-O ) :   0.1056 B( 12-C , 16-N ) :   1.0629
B( 13-C , 14-C ) :   1.0095 B( 13-C , 15-O ) :  -0.1319 B( 14-C , 15-O ) :   1.8749
B( 16-N , 24-H ) :   0.9360 B( 16-N , 25-H ) :   0.8422 B( 17-N , 26-H ) :   0.8422
B( 17-N , 27-H ) :   0.9360

Dispersion correction           -0.013790553
FINAL SINGLE POINT ENERGY      -799.342450151245

DIPOLE MOMENT
-------------

Method             : SCF
Type of density    : Electron Density
Multiplicity       :   1
Irrep              :   0
Energy             :  -799.3431844918441129 Eh
Relativity type    :
Basis              : AO
                                X                 Y                 Z
Electronic contribution:     -0.606719919       0.000057654      -0.005244039
Nuclear contribution   :      2.091450259      -0.000042117       0.006544391
                        -----------------------------------------
Total Dipole Moment    :      1.484730341       0.000015537       0.001300352
                        -----------------------------------------
Magnitude (a.u.)       :      1.484730910
Magnitude (Debye)      :      3.773886058

Rotational constants in cm-1:             0.024083             0.012960             0.008426
Rotational constants in MHz :           722.000263           388.542676           252.604366

                             ****ORCA TERMINATED NORMALLY****
TOTAL RUN TIME: 0 days 0 hours 1 minutes 29 seconds 953 msec
