                         Program Version 6.0.0  -   RELEASE  -
|  1> ! r2scan-3c def2/J RI DEFGRID2 scfconv6 printgap
|  2> %output
|  3>     printlevel normal
|  4> end
|  5> %cpcm
|  6>     smd true
|  7>     smdsolvent "water"
|  8> end
|  9> * xyz 0 1
| 10> C -3.9806698277 -0.6950194865 0.0009850252
| 11> C -3.9806802376 0.6950062742 0.0016968114
| 12> C -2.784932151 1.3826232228 0.0011738833
| 13> C -1.5685323929 0.6986279268 -1.46217e-05
| 14> C -1.5685196902 -0.6986060669 -0.0006140782
| 15> C -2.7849123316 -1.3826239966 -0.0002451682
| 16> C -0.3138949593 -1.4613323662 -0.0011388879
| 17> O -0.3655465831 -2.7101400524 -0.0021317242
| 18> C 0.9229922217 -0.7159126692 -0.000201829
| 19> C 2.1536783197 -1.4160277395 0.0005145663
| 20> C 3.3681287995 -0.6768673955 0.0014565463
| 21> C 3.3681289003 0.6768455184 0.0011675531
| 22> C 2.1536889795 1.4160125676 8.53152e-05
| 23> C 0.9229783491 0.7159161851 -0.0003013779
| 24> C -0.3139061642 1.4613556561 -0.000731027
| 25> O -0.3655328294 2.7101615891 -0.0015219328
| 26> N 2.2271852365 2.752427993 -0.000621056
| 27> N 2.2271475569 -2.7524473152 0.0010019435
| 28> H -4.9142881584 -1.2360590619 0.0012436969
| 29> H -4.9143035804 1.2360301529 0.0028496067
| 30> H -2.7583037225 2.4625887566 0.0017728132
| 31> H -2.7582927635 -2.4625920911 -0.0007605474
| 32> H 4.2974235709 -1.2257055829 0.0023322351
| 33> H 4.2974301519 1.2256825684 0.0016093274
| 34> H 3.1235138912 3.206194024 -0.000131878
| 35> H 1.3590887369 3.2751684977 -0.0012496553
| 36> H 1.3590070773 -3.2751171173 -0.0006691367
| 37> H 3.1234544366 -3.2062352658 3.46453e-05
| 38> *
| 39>
| 40>                          ****END OF INPUT****

CARTESIAN COORDINATES (ANGSTROEM)
---------------------------------
  C     -3.980670   -0.695019    0.000985
  C     -3.980680    0.695006    0.001697
  C     -2.784932    1.382623    0.001174
  C     -1.568532    0.698628   -0.000015
  C     -1.568520   -0.698606   -0.000614
  C     -2.784912   -1.382624   -0.000245
  C     -0.313895   -1.461332   -0.001139
  O     -0.365547   -2.710140   -0.002132
  C      0.922992   -0.715913   -0.000202
  C      2.153678   -1.416028    0.000515
  C      3.368129   -0.676867    0.001457
  C      3.368129    0.676846    0.001168
  C      2.153689    1.416013    0.000085
  C      0.922978    0.715916   -0.000301
  C     -0.313906    1.461356   -0.000731
  O     -0.365533    2.710162   -0.001522
  N      2.227185    2.752428   -0.000621
  N      2.227148   -2.752447    0.001002
  H     -4.914288   -1.236059    0.001244
  H     -4.914304    1.236030    0.002850
  H     -2.758304    2.462589    0.001773
  H     -2.758293   -2.462592   -0.000761
  H      4.297424   -1.225706    0.002332
  H      4.297430    1.225683    0.001609
  H      3.123514    3.206194   -0.000132
  H      1.359089    3.275168   -0.001250
  H      1.359007   -3.275117   -0.000669
  H      3.123454   -3.206235    0.000035

 Total Charge           Charge          ....    0
 Multiplicity           Mult            ....    1
 Number of Electrons    NEL             ....  124
 Basis Dimension        Dim             ....  412

ORBITAL ENERGIES
----------------

  NO   OCC          E(Eh)            E(eV)
   0   2.0000     -18.933049      -515.1945
   1   2.0000     -18.933044      -515.1943
   2   2.0000     -14.176927      -385.7738
   3   2.0000     -14.176923      -385.7737
   4   2.0000     -10.115013      -275.2435
   5   2.0000     -10.115001      -275.2432
   6   2.0000     -10.098755      -274.8011
   7   2.0000     -10.098746      -274.8009
   8   2.0000     -10.053219      -273.5620
   9   2.0000     -10.052605      -273.5453
  10   2.0000     -10.051145      -273.5056
  11   2.0000     -10.050731      -273.4943
  12   2.0000     -10.049733      -273.4671
  13   2.0000     -10.049429      -273.4589
  14   2.0000     -10.043782      -273.3052
  15   2.0000     -10.043366      -273.2939
  16   2.0000     -10.042466      -273.2694
  17   2.0000     -10.042452      -273.2690
  18   2.0000      -0.999561       -27.1994
  19   2.0000      -0.997045       -27.1310
  20   2.0000      -0.912055       -24.8183
  21   2.0000      -0.902486       -24.5579
  22   2.0000      -0.843429       -22.9509
  23   2.0000      -0.811169       -22.0730
  24   2.0000      -0.768750       -20.9187
  25   2.0000      -0.731272       -19.8989
  26   2.0000      -0.727335       -19.7918
  27   2.0000      -0.701797       -19.0969
  28   2.0000      -0.647051       -17.6071
  29   2.0000      -0.624423       -16.9914
  30   2.0000      -0.610792       -16.6205
  31   2.0000      -0.572257       -15.5719
  32   2.0000      -0.549518       -14.9532
  33   2.0000      -0.534120       -14.5341
  34   2.0000      -0.527828       -14.3629
  35   2.0000      -0.499401       -13.5894
  36   2.0000      -0.486051       -13.2261
  37   2.0000      -0.462094       -12.5742
  38   2.0000      -0.461990       -12.5714
  39   2.0000      -0.444071       -12.0838
  40   2.0000      -0.431879       -11.7520
  41   2.0000      -0.421539       -11.4707
  42   2.0000      -0.418036       -11.3753
  43   2.0000      -0.403004       -10.9663
  44   2.0000      -0.400029       -10.8853
  45   2.0000      -0.396451       -10.7880
  46   2.0000      -0.385224       -10.4825
  47   2.0000      -0.376075       -10.2335
  48   2.0000      -0.376006       -10.2316
  49   2.0000      -0.367917       -10.0115
  50   2.0000      -0.349557        -9.5119
  51   2.0000      -0.335338        -9.1250
  52   2.0000      -0.334763        -9.1094
  53   2.0000      -0.327853        -8.9213
  54   2.0000      -0.316749        -8.6192
  55   2.0000      -0.263372        -7.1667
  56   2.0000      -0.256332        -6.9751
  57   2.0000      -0.246473        -6.7069
  58   2.0000      -0.244966        -6.6659
  59   2.0000      -0.233963        -6.3665
  60   2.0000      -0.223035        -6.0691
  61   2.0000      -0.176203        -4.7947
  62   0.0000      -0.120834        -3.2881
  63   0.0000      -0.073280        -1.9940
  64   0.0000      -0.046434        -1.2635
  65   0.0000      -0.016093        -0.4379
  66   0.0000       0.028578         0.7776

MULLIKEN ATOMIC CHARGES
-----------------------
   0 C :   -0.172593
   1 C :   -0.172582
   2 C :   -0.263965
   3 C :    0.171712
   4 C :    0.171664
   5 C :   -0.263943
   6 C :    0.002676
   7 O :   -0.529216
   8 C :   -0.071674
   9 C :    0.515815
  10 C :   -0.375894
  11 C :   -0.375892
  12 C :    0.515776
  13 C :   -0.071510
  14 C :    0.002599
  15 O :   -0.529199
  16 N :   -0.486459
  17 N :   -0.486461
  18 H :    0.182026
  19 H :    0.182026
  20 H :    0.194065
  21 H :    0.194066
  22 H :    0.190471
  23 H :    0.190470
  24 H :    0.307921
  25 H :    0.335088
  26 H :    0.335099
  27 H :    0.307915
Sum of atomic charges:    0.0000000

LOEWDIN ATOMIC CHARGES
----------------------
   0 C :   -0.147050
   1 C :   -0.147049
   2 C :   -0.117087
   3 C :   -0.035678
   4 C :   -0.035676
   5 C :   -0.117085
   6 C :    0.254261
   7 O :   -0.619405
   8 C :   -0.049886
   9 C :    0.180074
  10 C :   -0.091215
  11 C :   -0.091216
  12 C :    0.180075
  13 C :   -0.049884
  14 C :    0.254260
  15 O :   -0.619397
  16 N :   -0.509280
  17 N :   -0.509275
  18 H :    0.182104
  19 H :    0.182104
  20 H :    0.193958
  21 H :    0.193959
  22 H :    0.195197
  23 H :    0.195198
  24 H :    0.276384
  25 H :    0.287615
  26 H :    0.287615
  27 H :    0.276379

  Mayer bond orders larger than 0.100000
B(  0-C ,  1-C ) :   1.2902 B(  0-C ,  5-C ) :   1.3633 B(  0-C , 18-H ) :   0.9622
B(  1-C ,  2-C ) :   1.3634 B(  1-C , 19-H ) :   0.9622 B(  2-C ,  3-C ) :   1.2630
B(  2-C , 15-O ) :   0.1067 B(  2-C , 20-H ) :   0.9769 B(  3-C ,  4-C ) :   1.5286
B(  3-C , 14-C ) :   0.9442 B(  3-C , 15-O ) :  -0.2261 B(  4-C ,  5-C ) :   1.2630
B(  4-C ,  6-C ) :   0.9443 B(  4-C ,  7-O ) :  -0.2261 B(  5-C ,  7-O ) :   0.1067
B(  5-C , 21-H ) :   0.9769 B(  6-C ,  7-O ) :   1.8555 B(  6-C ,  8-C ) :   1.0356
B(  6-C , 13-C ) :  -0.1204 B(  7-O ,  8-C ) :  -0.1392 B(  8-C ,  9-C ) :   1.2968
B(  8-C , 13-C ) :   0.8941 B(  8-C , 14-C ) :  -0.1203 B(  9-C , 10-C ) :   1.0635
B(  9-C , 17-N ) :   1.0757 B( 10-C , 11-C ) :   1.4653 B( 10-C , 22-H ) :   0.9604
B( 11-C , 12-C ) :   1.0635 B( 11-C , 23-H ) :   0.9604 B( 12-C , 13-C ) :   1.2968
B( 12-C , 16-N ) :   1.0757 B( 13-C , 14-C ) :   1.0356 B( 13-C , 15-O ) :  -0.1393
B( 14-C , 15-O ) :   1.8555 B( 16-N , 24-H ) :   0.9108 B( 16-N , 25-H ) :   0.8367
B( 17-N , 26-H ) :   0.8367 B( 17-N , 27-H ) :   0.9108

Dispersion correction           -0.013790553
FINAL SINGLE POINT ENERGY      -799.362407594642

DIPOLE MOMENT
-------------

Method             : SCF
Type of density    : Electron Density
Multiplicity       :   1
Irrep              :   0
Energy             :  -799.3631419352417424 Eh
Relativity type    :
Basis              : AO
                                X                 Y                 Z
Electronic contribution:      0.658280157       0.000059230      -0.004190134
Nuclear contribution   :      2.091450259      -0.000042117       0.006544391
                        -----------------------------------------
Total Dipole Moment    :      2.749730417       0.000017113       0.002354257
                        -----------------------------------------
Magnitude (a.u.)       :      2.749731425
Magnitude (Debye)      :      6.989261836

Rotational constants in cm-1:             0.024083             0.012960             0.008426
Rotational constants in MHz :           722.000263           388.542676           252.604366

                             ****ORCA TERMINATED NORMALLY****
TOTAL RUN TIME: 0 days 0 hours 2 minutes 3 seconds 964 msec
