                         Program Version 6.0.0  -   RELEASE  -
|  1> ! r2scan-3c def2/J RI DEFGRID2 scfconv6 printgap
|  2> %output
|  3>     printlevel normal
|  4> end
|  5> * xyz 0 1
|  6> C 3.4797977069 -1.4965719346 -2.7566072011
|  7> C 3.9674477793 -0.2489689112 -2.04903172
|  8> O 3.6308730224 -0.256747997 -0.6510248632
|  9> P 2.1321055591 -0.1550897499 -0.1342055464
| 10> S 1.0256395612 1.096230439 -1.1714075951
| 11> O 2.3172186283 0.1764553647 1.4028733722
| 12> C 2.428794229 1.5216629909 1.9041283527
| 13> C 3.7139431285 2.1861966705 1.4598578758
| 14> S 1.5703322556 -2.1750107325 0.0313423838
| 15> C -0.0892742484 -2.0141983331 0.742990086
| 16> S -1.3621992117 -1.5085737412 -0.4557264451
| 17> P -2.0140433823 0.3297181692 0.4149836379
| 18> S -1.0560165864 0.9109585957 2.0177853223
| 19> O -3.5682971894 0.0576579275 0.6572406515
| 20> C -4.022777156 -0.87235499 1.6586136762
| 21> C -5.5250533313 -0.7207264612 1.7850789721
| 22> O -2.0823819826 1.4140614959 -0.712340988
| 23> C -2.7228586987 1.1806539647 -1.996215406
| 24> C -2.1512176511 2.1776853244 -2.9808050285
| 25> H 2.3903842462 -1.5096911182 -2.7758353477
| 26> H 3.8502575586 -1.5006614294 -3.7766526067
| 27> H 3.829981821 -2.3859861748 -2.2388117663
| 28> H 3.5310191386 0.6460912349 -2.5044056336
| 29> H 5.055839795 -0.1783824623 -2.0555709038
| 30> H 1.5553914877 2.0918316793 1.5701038103
| 31> H 2.3814452398 1.3989404684 2.9870979798
| 32> H 4.5652906422 1.5600241982 1.7134747914
| 33> H 3.6979462688 2.3420734036 0.381816556
| 34> H 3.8085077728 3.1478624186 1.9543815757
| 35> H -0.0711228821 -1.2894574749 1.5619383939
| 36> H -0.3489922345 -3.0087660916 1.0955467615
| 37> H -3.7492762275 -1.8819508903 1.3376087115
| 38> H -3.5142426105 -0.6440501553 2.6012186394
| 39> H -5.7728870788 0.2945291187 2.0816130907
| 40> H -6.0010152026 -0.935939012 0.8329748451
| 41> H -5.8906729222 -1.413417142 2.5357886909
| 42> H -2.5165589056 0.1518614485 -2.3057431298
| 43> H -3.7973546783 1.3123123206 -1.8562950992
| 44> H -2.3620245909 3.1909645838 -2.6517166601
| 45> H -1.0727425608 2.0523309914 -3.0452434034
| 46> H -2.5948677119 2.0113683861 -3.9568186658
| 47> *
| 48>
| 49>                          ****END OF INPUT****

CARTESIAN COORDINATES (ANGSTROEM)
---------------------------------
  C      3.479798   -1.496572   -2.756607
  C      3.967448   -0.248969   -2.049032
  O      3.630873   -0.256748   -0.651025
  P      2.132106   -0.155090   -0.134206
  S      1.025640    1.096230   -1.171408
  O      2.317219    0.176455    1.402873
  C      2.428794    1.521663    1.904128
  C      3.713943    2.186197    1.459858
  S      1.570332   -2.175011    0.031342
  C     -0.089274   -2.014198    0.742990
  S     -1.362199   -1.508574   -0.455726
  P     -2.014043    0.329718    0.414984
  S     -1.056017    0.910959    2.017785
  O     -3.568297    0.057658    0.657241
  C     -4.022777   -0.872355    1.658614
  C     -5.525053   -0.720726    1.785079
  O     -2.082382    1.414061   -0.712341
  C     -2.722859    1.180654   -1.996215
  C     -2.151218    2.177685   -2.980805
  H      2.390384   -1.509691   -2.775835
  H      3.850258   -1.500661   -3.776653
  H      3.829982   -2.385986   -2.238812
  H      3.531019    0.646091   -2.504406
  H      5.055840   -0.178382   -2.055571
  H      1.555391    2.091832    1.570104
  H      2.381445    1.398940    2.987098
  H      4.565291    1.560024    1.713475
  H      3.697946    2.342073    0.381817
  H      3.808508    3.147862    1.954382
  H     -0.071123   -1.289457    1.561938
  H     -0.348992   -3.008766    1.095547
  H     -3.749276   -1.881951    1.337609
  H     -3.514243   -0.644050    2.601219
  H     -5.772887    0.294529    2.081613
  H     -6.001015   -0.935939    0.832975
  H     -5.890673   -1.413417    2.535789
  H     -2.516559    0.151861   -2.305743
  H     -3.797355    1.312312   -1.856295
  H     -2.362025    3.190965   -2.651717
  H     -1.072743    2.052331   -3.045243
  H     -2.594868    2.011368   -3.956819

 Total Charge           Charge          ....    0
 Multiplicity           Mult            ....    1
 Number of Electrons    NEL             ....  202
 Basis Dimension        Dim             ....  539

ORBITAL ENERGIES
----------------

  NO   OCC          E(Eh)            E(eV)
   0   2.0000     -88.572131     -2410.1702
   1   2.0000     -88.572054     -2410.1681
   2   2.0000     -88.516050     -2408.6442
   3   2.0000     -88.511462     -2408.5193
   4   2.0000     -76.909791     -2092.8218
   5   2.0000     -76.908294     -2092.7811
   6   2.0000     -18.988823      -516.7121
   7   2.0000     -18.987920      -516.6876
   8   2.0000     -18.984289      -516.5888
   9   2.0000     -18.981972      -516.5257
  10   2.0000     -10.104842      -274.9667
  11   2.0000     -10.101691      -274.8810
  12   2.0000     -10.095218      -274.7049
  13   2.0000     -10.094560      -274.6869
  14   2.0000     -10.085072      -274.4288
  15   2.0000     -10.031203      -272.9629
  16   2.0000     -10.028650      -272.8934
  17   2.0000     -10.026682      -272.8399
  18   2.0000     -10.020460      -272.6706
  19   2.0000      -7.866797      -214.0664
  20   2.0000      -7.866213      -214.0505
  21   2.0000      -7.811094      -212.5507
  22   2.0000      -7.806302      -212.4203
  23   2.0000      -6.588367      -179.2786
  24   2.0000      -6.586655      -179.2320
  25   2.0000      -5.813729      -158.1996
  26   2.0000      -5.813094      -158.1823
  27   2.0000      -5.810572      -158.1137
  28   2.0000      -5.810012      -158.0985
  29   2.0000      -5.803844      -157.9306
  30   2.0000      -5.803386      -157.9182
  31   2.0000      -5.758829      -156.7057
  32   2.0000      -5.753913      -156.5719
  33   2.0000      -5.751533      -156.5072
  34   2.0000      -5.750789      -156.4869
  35   2.0000      -5.746600      -156.3729
  36   2.0000      -5.746319      -156.3653
  37   2.0000      -4.733969      -128.8178
  38   2.0000      -4.733351      -128.8010
  39   2.0000      -4.732116      -128.7674
  40   2.0000      -4.731967      -128.7634
  41   2.0000      -4.731678      -128.7555
  42   2.0000      -4.730348      -128.7193
  43   2.0000      -1.047656       -28.5082
  44   2.0000      -1.043940       -28.4071
  45   2.0000      -1.005430       -27.3592
  46   2.0000      -1.004722       -27.3399
  47   2.0000      -0.795836       -21.6558
  48   2.0000      -0.757453       -20.6113
  49   2.0000      -0.745778       -20.2937
  50   2.0000      -0.732821       -19.9411
  51   2.0000      -0.726302       -19.7637
  52   2.0000      -0.706288       -19.2191
  53   2.0000      -0.683083       -18.5876
  54   2.0000      -0.663573       -18.0567
  55   2.0000      -0.626576       -17.0500
  56   2.0000      -0.612070       -16.6553
  57   2.0000      -0.601864       -16.3775
  58   2.0000      -0.600122       -16.3302
  59   2.0000      -0.591698       -16.1009
  60   2.0000      -0.533704       -14.5228
  61   2.0000      -0.511795       -13.9267
  62   2.0000      -0.498531       -13.5657
  63   2.0000      -0.486375       -13.2349
  64   2.0000      -0.469199       -12.7676
  65   2.0000      -0.463587       -12.6148
  66   2.0000      -0.453750       -12.3472
  67   2.0000      -0.451699       -12.2914
  68   2.0000      -0.443341       -12.0639
  69   2.0000      -0.429993       -11.7007
  70   2.0000      -0.425025       -11.5655
  71   2.0000      -0.414897       -11.2899
  72   2.0000      -0.403601       -10.9825
  73   2.0000      -0.398310       -10.8386
  74   2.0000      -0.389080       -10.5874
  75   2.0000      -0.387593       -10.5470
  76   2.0000      -0.378890       -10.3101
  77   2.0000      -0.368877       -10.0376
  78   2.0000      -0.366579        -9.9751
  79   2.0000      -0.363102        -9.8805
  80   2.0000      -0.358343        -9.7510
  81   2.0000      -0.354934        -9.6583
  82   2.0000      -0.353234        -9.6120
  83   2.0000      -0.349958        -9.5228
  84   2.0000      -0.342676        -9.3247
  85   2.0000      -0.327271        -8.9055
  86   2.0000      -0.322227        -8.7682
  87   2.0000      -0.314874        -8.5682
  88   2.0000      -0.309529        -8.4227
  89   2.0000      -0.305383        -8.3099
  90   2.0000      -0.292453        -7.9580
  91   2.0000      -0.283338        -7.7100
  92   2.0000      -0.280789        -7.6406
  93   2.0000      -0.273952        -7.4546
  94   2.0000      -0.268824        -7.3151
  95   2.0000      -0.249960        -6.8018
  96   2.0000      -0.233100        -6.3430
  97   2.0000      -0.218306        -5.9404
  98   2.0000      -0.214399        -5.8341
  99   2.0000      -0.204738        -5.5712
 100   2.0000      -0.200055        -5.4438
 101   0.0000      -0.039389        -1.0718
 102   0.0000      -0.029411        -0.8003
 103   0.0000      -0.010016        -0.2725
 104   0.0000       0.005911         0.1608
 105   0.0000       0.018279         0.4974

MULLIKEN ATOMIC CHARGES
-----------------------
   0 C :   -0.472388
   1 C :   -0.146601
   2 O :   -0.298037
   3 P :    0.673898
   4 S :   -0.451171
   5 O :   -0.292536
   6 C :   -0.149409
   7 C :   -0.457307
   8 S :   -0.094676
   9 C :   -0.247738
  10 S :   -0.173778
  11 P :    0.703551
  12 S :   -0.458761
  13 O :   -0.253598
  14 C :   -0.150882
  15 C :   -0.444630
  16 O :   -0.299595
  17 C :   -0.116084
  18 C :   -0.445168
  19 H :    0.182988
  20 H :    0.147823
  21 H :    0.157436
  22 H :    0.172817
  23 H :    0.147844
  24 H :    0.191432
  25 H :    0.149954
  26 H :    0.156119
  27 H :    0.165679
  28 H :    0.146150
  29 H :    0.216776
  30 H :    0.193858
  31 H :    0.149852
  32 H :    0.166927
  33 H :    0.158157
  34 H :    0.150955
  35 H :    0.144981
  36 H :    0.146172
  37 H :    0.158186
  38 H :    0.156417
  39 H :    0.170809
  40 H :    0.143579
Sum of atomic charges:    0.0000000

LOEWDIN ATOMIC CHARGES
----------------------
   0 C :   -0.408438
   1 C :    0.017202
   2 O :   -0.665098
   3 P :    0.376426
   4 S :   -0.088154
   5 O :   -0.670900
   6 C :    0.009697
   7 C :   -0.400040
   8 S :    0.167466
   9 C :   -0.417607
  10 S :    0.118402
  11 P :    0.377440
  12 S :   -0.096461
  13 O :   -0.677579
  14 C :    0.013753
  15 C :   -0.386327
  16 O :   -0.655317
  17 C :    0.027733
  18 C :   -0.386246
  19 H :    0.167029
  20 H :    0.159276
  21 H :    0.159976
  22 H :    0.179682
  23 H :    0.179153
  24 H :    0.186442
  25 H :    0.180824
  26 H :    0.160537
  27 H :    0.164075
  28 H :    0.158944
  29 H :    0.199167
  30 H :    0.180207
  31 H :    0.171096
  32 H :    0.178075
  33 H :    0.161513
  34 H :    0.158477
  35 H :    0.159033
  36 H :    0.175715
  37 H :    0.175446
  38 H :    0.161925
  39 H :    0.168708
  40 H :    0.158745

  Mayer bond orders larger than 0.100000
B(  0-C ,  1-C ) :   0.9132 B(  0-C , 19-H ) :   0.9630 B(  0-C , 20-H ) :   0.9582
B(  0-C , 21-H ) :   0.9689 B(  1-C ,  2-O ) :   0.8187 B(  1-C , 22-H ) :   0.9655
B(  1-C , 23-H ) :   0.9585 B(  2-O ,  3-P ) :   1.0601 B(  3-P ,  4-S ) :   1.7472
B(  3-P ,  5-O ) :   1.1773 B(  3-P ,  8-S ) :   1.1155 B(  5-O ,  6-C ) :   0.8046
B(  6-C ,  7-C ) :   0.9171 B(  6-C , 24-H ) :   0.9603 B(  6-C , 25-H ) :   0.9605
B(  7-C , 26-H ) :   0.9732 B(  7-C , 27-H ) :   0.9625 B(  7-C , 28-H ) :   0.9616
B(  8-S ,  9-C ) :   0.9133 B(  9-C , 10-S ) :   0.8993 B(  9-C , 29-H ) :   0.9038
B(  9-C , 30-H ) :   0.9156 B( 10-S , 11-P ) :   1.0031 B( 11-P , 12-S ) :   1.7753
B( 11-P , 13-O ) :   1.0426 B( 11-P , 16-O ) :   1.2176 B( 13-O , 14-C ) :   0.7903
B( 14-C , 15-C ) :   0.9546 B( 14-C , 31-H ) :   0.9404 B( 14-C , 32-H ) :   0.9494
B( 15-C , 33-H ) :   0.9725 B( 15-C , 34-H ) :   0.9723 B( 15-C , 35-H ) :   0.9646
B( 16-O , 17-C ) :   0.7348 B( 17-C , 18-C ) :   0.9627 B( 17-C , 36-H ) :   0.9468
B( 17-C , 37-H ) :   0.9454 B( 18-C , 38-H ) :   0.9716 B( 18-C , 39-H ) :   0.9641
B( 18-C , 40-H ) :   0.9633

Dispersion correction           -0.021523362
FINAL SINGLE POINT ENERGY     -2932.457774129401

DIPOLE MOMENT
-------------

Method             : SCF
Type of density    : Electron Density
Multiplicity       :   1
Irrep              :   0
Energy             : -2932.4829303876240374 Eh
Relativity type    :
Basis              : AO
                                X                 Y                 Z
Electronic contribution:      2.594749908      -5.591969008       5.830598569
Nuclear contribution   :     -2.944850402       5.027910755      -6.363582956
                        -----------------------------------------
Total Dipole Moment    :     -0.350100494      -0.564058253      -0.532984387
                        -----------------------------------------
Magnitude (a.u.)       :      0.851354465
Magnitude (Debye)      :      2.163971076

Rotational constants in cm-1:             0.011997             0.005078             0.004922
Rotational constants in MHz :           359.667255           152.248378           147.544800

                             ****ORCA TERMINATED NORMALLY****
TOTAL RUN TIME: 0 days 0 hours 1 minutes 20 seconds 590 msec
