                         Program Version 6.0.0  -   RELEASE  -
|  1> ! r2scan-3c def2/J RI DEFGRID2 scfconv6 printgap
|  2> %output
|  3>     printlevel normal
|  4> end
|  5> %cpcm
|  6>     smd true
|  7>     smdsolvent "water"
|  8> end
|  9> * xyz 0 1
| 10> C 3.4797977069 -1.4965719346 -2.7566072011
| 11> C 3.9674477793 -0.2489689112 -2.04903172
| 12> O 3.6308730224 -0.256747997 -0.6510248632
| 13> P 2.1321055591 -0.1550897499 -0.1342055464
| 14> S 1.0256395612 1.096230439 -1.1714075951
| 15> O 2.3172186283 0.1764553647 1.4028733722
| 16> C 2.428794229 1.5216629909 1.9041283527
| 17> C 3.7139431285 2.1861966705 1.4598578758
| 18> S 1.5703322556 -2.1750107325 0.0313423838
| 19> C -0.0892742484 -2.0141983331 0.742990086
| 20> S -1.3621992117 -1.5085737412 -0.4557264451
| 21> P -2.0140433823 0.3297181692 0.4149836379
| 22> S -1.0560165864 0.9109585957 2.0177853223
| 23> O -3.5682971894 0.0576579275 0.6572406515
| 24> C -4.022777156 -0.87235499 1.6586136762
| 25> C -5.5250533313 -0.7207264612 1.7850789721
| 26> O -2.0823819826 1.4140614959 -0.712340988
| 27> C -2.7228586987 1.1806539647 -1.996215406
| 28> C -2.1512176511 2.1776853244 -2.9808050285
| 29> H 2.3903842462 -1.5096911182 -2.7758353477
| 30> H 3.8502575586 -1.5006614294 -3.7766526067
| 31> H 3.829981821 -2.3859861748 -2.2388117663
| 32> H 3.5310191386 0.6460912349 -2.5044056336
| 33> H 5.055839795 -0.1783824623 -2.0555709038
| 34> H 1.5553914877 2.0918316793 1.5701038103
| 35> H 2.3814452398 1.3989404684 2.9870979798
| 36> H 4.5652906422 1.5600241982 1.7134747914
| 37> H 3.6979462688 2.3420734036 0.381816556
| 38> H 3.8085077728 3.1478624186 1.9543815757
| 39> H -0.0711228821 -1.2894574749 1.5619383939
| 40> H -0.3489922345 -3.0087660916 1.0955467615
| 41> H -3.7492762275 -1.8819508903 1.3376087115
| 42> H -3.5142426105 -0.6440501553 2.6012186394
| 43> H -5.7728870788 0.2945291187 2.0816130907
| 44> H -6.0010152026 -0.935939012 0.8329748451
| 45> H -5.8906729222 -1.413417142 2.5357886909
| 46> H -2.5165589056 0.1518614485 -2.3057431298
| 47> H -3.7973546783 1.3123123206 -1.8562950992
| 48> H -2.3620245909 3.1909645838 -2.6517166601
| 49> H -1.0727425608 2.0523309914 -3.0452434034
| 50> H -2.5948677119 2.0113683861 -3.9568186658
| 51> *
| 52>
| 53>                          ****END OF INPUT****

CARTESIAN COORDINATES (ANGSTROEM)
---------------------------------
  C      3.479798   -1.496572   -2.756607
  C      3.967448   -0.248969   -2.049032
  O      3.630873   -0.256748   -0.651025
  P      2.132106   -0.155090   -0.134206
  S      1.025640    1.096230   -1.171408
  O      2.317219    0.176455    1.402873
  C      2.428794    1.521663    1.904128
  C      3.713943    2.186197    1.459858
  S      1.570332   -2.175011    0.031342
  C     -0.089274   -2.014198    0.742990
  S     -1.362199   -1.508574   -0.455726
  P     -2.014043    0.329718    0.414984
  S     -1.056017    0.910959    2.017785
  O     -3.568297    0.057658    0.657241
  C     -4.022777   -0.872355    1.658614
  C     -5.525053   -0.720726    1.785079
  O     -2.082382    1.414061   -0.712341
  C     -2.722859    1.180654   -1.996215
  C     -2.151218    2.177685   -2.980805
  H      2.390384   -1.509691   -2.775835
  H      3.850258   -1.500661   -3.776653
  H      3.829982   -2.385986   -2.238812
  H      3.531019    0.646091   -2.504406
  H      5.055840   -0.178382   -2.055571
  H      1.555391    2.091832    1.570104
  H      2.381445    1.398940    2.987098
  H      4.565291    1.560024    1.713475
  H      3.697946    2.342073    0.381817
  H      3.808508    3.147862    1.954382
  H     -0.071123   -1.289457    1.561938
  H     -0.348992   -3.008766    1.095547
  H     -3.749276   -1.881951    1.337609
  H     -3.514243   -0.644050    2.601219
  H     -5.772887    0.294529    2.081613
  H     -6.001015   -0.935939    0.832975
  H     -5.890673   -1.413417    2.535789
  H     -2.516559    0.151861   -2.305743
  H     -3.797355    1.312312   -1.856295
  H     -2.362025    3.190965   -2.651717
  H     -1.072743    2.052331   -3.045243
  H     -2.594868    2.011368   -3.956819

 Total Charge           Charge          ....    0
 Multiplicity           Mult            ....    1
 Number of Electrons    NEL             ....  202
 Basis Dimension        Dim             ....  539

ORBITAL ENERGIES
----------------

  NO   OCC          E(Eh)            E(eV)
   0   2.0000     -88.578521     -2410.3441
   1   2.0000     -88.576607     -2410.2920
   2   2.0000     -88.526940     -2408.9405
   3   2.0000     -88.521081     -2408.7811
   4   2.0000     -76.917435     -2093.0298
   5   2.0000     -76.916261     -2092.9979
   6   2.0000     -18.994746      -516.8733
   7   2.0000     -18.993408      -516.8369
   8   2.0000     -18.991203      -516.7769
   9   2.0000     -18.988960      -516.7159
  10   2.0000     -10.104455      -274.9562
  11   2.0000     -10.094812      -274.6938
  12   2.0000     -10.088871      -274.5321
  13   2.0000     -10.087510      -274.4951
  14   2.0000     -10.085800      -274.4486
  15   2.0000     -10.020451      -272.6703
  16   2.0000     -10.018935      -272.6291
  17   2.0000     -10.018905      -272.6283
  18   2.0000     -10.017490      -272.5898
  19   2.0000      -7.873131      -214.2388
  20   2.0000      -7.870725      -214.1733
  21   2.0000      -7.822230      -212.8537
  22   2.0000      -7.816113      -212.6872
  23   2.0000      -6.596082      -179.4885
  24   2.0000      -6.594753      -179.4523
  25   2.0000      -5.820023      -158.3709
  26   2.0000      -5.817629      -158.3057
  27   2.0000      -5.816857      -158.2847
  28   2.0000      -5.814545      -158.2218
  29   2.0000      -5.810287      -158.1060
  30   2.0000      -5.807865      -158.0401
  31   2.0000      -5.769873      -157.0062
  32   2.0000      -5.763681      -156.8377
  33   2.0000      -5.762723      -156.8117
  34   2.0000      -5.761917      -156.7897
  35   2.0000      -5.756419      -156.6401
  36   2.0000      -5.756124      -156.6321
  37   2.0000      -4.741664      -129.0272
  38   2.0000      -4.741007      -129.0094
  39   2.0000      -4.740199      -128.9874
  40   2.0000      -4.739782      -128.9760
  41   2.0000      -4.739778      -128.9759
  42   2.0000      -4.738455      -128.9399
  43   2.0000      -1.053006       -28.6537
  44   2.0000      -1.050917       -28.5969
  45   2.0000      -1.012221       -27.5439
  46   2.0000      -1.009139       -27.4601
  47   2.0000      -0.799003       -21.7420
  48   2.0000      -0.756741       -20.5920
  49   2.0000      -0.744599       -20.2616
  50   2.0000      -0.725580       -19.7440
  51   2.0000      -0.723225       -19.6800
  52   2.0000      -0.708420       -19.2771
  53   2.0000      -0.688967       -18.7477
  54   2.0000      -0.671332       -18.2679
  55   2.0000      -0.628994       -17.1158
  56   2.0000      -0.609996       -16.5988
  57   2.0000      -0.599468       -16.3124
  58   2.0000      -0.597516       -16.2592
  59   2.0000      -0.591069       -16.0838
  60   2.0000      -0.532636       -14.4938
  61   2.0000      -0.512905       -13.9569
  62   2.0000      -0.497762       -13.5448
  63   2.0000      -0.488366       -13.2891
  64   2.0000      -0.470797       -12.8110
  65   2.0000      -0.465815       -12.6755
  66   2.0000      -0.452197       -12.3049
  67   2.0000      -0.448189       -12.1959
  68   2.0000      -0.443118       -12.0578
  69   2.0000      -0.430047       -11.7022
  70   2.0000      -0.424797       -11.5593
  71   2.0000      -0.413569       -11.2538
  72   2.0000      -0.405473       -11.0335
  73   2.0000      -0.400492       -10.8979
  74   2.0000      -0.387944       -10.5565
  75   2.0000      -0.385911       -10.5012
  76   2.0000      -0.377785       -10.2801
  77   2.0000      -0.365608        -9.9487
  78   2.0000      -0.361118        -9.8265
  79   2.0000      -0.357185        -9.7195
  80   2.0000      -0.355462        -9.6726
  81   2.0000      -0.351699        -9.5702
  82   2.0000      -0.350640        -9.5414
  83   2.0000      -0.346467        -9.4278
  84   2.0000      -0.342802        -9.3281
  85   2.0000      -0.325429        -8.8554
  86   2.0000      -0.322691        -8.7809
  87   2.0000      -0.314418        -8.5558
  88   2.0000      -0.310479        -8.4486
  89   2.0000      -0.303823        -8.2675
  90   2.0000      -0.297089        -8.0842
  91   2.0000      -0.286151        -7.7866
  92   2.0000      -0.284238        -7.7345
  93   2.0000      -0.277189        -7.5427
  94   2.0000      -0.272638        -7.4189
  95   2.0000      -0.256126        -6.9695
  96   2.0000      -0.242251        -6.5920
  97   2.0000      -0.229708        -6.2507
  98   2.0000      -0.223038        -6.0692
  99   2.0000      -0.213848        -5.8191
 100   2.0000      -0.210764        -5.7352
 101   0.0000      -0.044874        -1.2211
 102   0.0000      -0.036670        -0.9978
 103   0.0000      -0.014398        -0.3918
 104   0.0000       0.000353         0.0096
 105   0.0000       0.011562         0.3146

MULLIKEN ATOMIC CHARGES
-----------------------
   0 C :   -0.502683
   1 C :   -0.145788
   2 O :   -0.323724
   3 P :    0.700506
   4 S :   -0.493859
   5 O :   -0.321554
   6 C :   -0.142344
   7 C :   -0.498422
   8 S :   -0.109661
   9 C :   -0.238318
  10 S :   -0.180980
  11 P :    0.708027
  12 S :   -0.501850
  13 O :   -0.284288
  14 C :   -0.135703
  15 C :   -0.483428
  16 O :   -0.326803
  17 C :   -0.109458
  18 C :   -0.487037
  19 H :    0.175378
  20 H :    0.173990
  21 H :    0.171161
  22 H :    0.177439
  23 H :    0.174973
  24 H :    0.183137
  25 H :    0.175254
  26 H :    0.169737
  27 H :    0.168715
  28 H :    0.171145
  29 H :    0.213513
  30 H :    0.237272
  31 H :    0.166452
  32 H :    0.170149
  33 H :    0.165171
  34 H :    0.165083
  35 H :    0.168517
  36 H :    0.163188
  37 H :    0.179239
  38 H :    0.170406
  39 H :    0.165750
  40 H :    0.171700
Sum of atomic charges:   -0.0000000

LOEWDIN ATOMIC CHARGES
----------------------
   0 C :   -0.410438
   1 C :    0.022849
   2 O :   -0.679299
   3 P :    0.378630
   4 S :   -0.111880
   5 O :   -0.688895
   6 C :    0.011830
   7 C :   -0.403079
   8 S :    0.162755
   9 C :   -0.408284
  10 S :    0.123337
  11 P :    0.376931
  12 S :   -0.129166
  13 O :   -0.691251
  14 C :    0.019632
  15 C :   -0.389995
  16 O :   -0.677383
  17 C :    0.034268
  18 C :   -0.390031
  19 H :    0.162013
  20 H :    0.169022
  21 H :    0.163569
  22 H :    0.181308
  23 H :    0.190634
  24 H :    0.183497
  25 H :    0.190004
  26 H :    0.164062
  27 H :    0.162962
  28 H :    0.168283
  29 H :    0.198439
  30 H :    0.198024
  31 H :    0.178553
  32 H :    0.179676
  33 H :    0.162608
  34 H :    0.162587
  35 H :    0.168299
  36 H :    0.181869
  37 H :    0.185060
  38 H :    0.164850
  39 H :    0.164236
  40 H :    0.169914

  Mayer bond orders larger than 0.100000
B(  0-C ,  1-C ) :   0.9019 B(  0-C , 19-H ) :   0.9643 B(  0-C , 20-H ) :   0.9524
B(  0-C , 21-H ) :   0.9657 B(  1-C ,  2-O ) :   0.8067 B(  1-C , 22-H ) :   0.9633
B(  1-C , 23-H ) :   0.9488 B(  2-O ,  3-P ) :   1.0645 B(  3-P ,  4-S ) :   1.7118
B(  3-P ,  5-O ) :   1.1716 B(  3-P ,  8-S ) :   1.1366 B(  5-O ,  6-C ) :   0.7931
B(  6-C ,  7-C ) :   0.9101 B(  6-C , 24-H ) :   0.9596 B(  6-C , 25-H ) :   0.9503
B(  7-C , 26-H ) :   0.9714 B(  7-C , 27-H ) :   0.9611 B(  7-C , 28-H ) :   0.9552
B(  8-S ,  9-C ) :   0.9028 B(  9-C , 10-S ) :   0.8919 B(  9-C , 29-H ) :   0.9064
B(  9-C , 30-H ) :   0.8985 B( 10-S , 11-P ) :   1.0156 B( 11-P , 12-S ) :   1.7666
B( 11-P , 13-O ) :   1.0451 B( 11-P , 16-O ) :   1.2198 B( 13-O , 14-C ) :   0.7857
B( 14-C , 15-C ) :   0.9494 B( 14-C , 31-H ) :   0.9327 B( 14-C , 32-H ) :   0.9469
B( 15-C , 33-H ) :   0.9703 B( 15-C , 34-H ) :   0.9689 B( 15-C , 35-H ) :   0.9586
B( 16-O , 17-C ) :   0.7271 B( 17-C , 18-C ) :   0.9489 B( 17-C , 36-H ) :   0.9402
B( 17-C , 37-H ) :   0.9350 B( 18-C , 38-H ) :   0.9697 B( 18-C , 39-H ) :   0.9664
B( 18-C , 40-H ) :   0.9569

Dispersion correction           -0.021523362
FINAL SINGLE POINT ENERGY     -2932.466634642196

DIPOLE MOMENT
-------------

Method             : SCF
Type of density    : Electron Density
Multiplicity       :   1
Irrep              :   0
Energy             : -2932.4917909004193461 Eh
Relativity type    :
Basis              : AO
                                X                 Y                 Z
Electronic contribution:      2.464595971      -6.089944245       5.640380496
Nuclear contribution   :     -2.944850402       5.027910755      -6.363582956
                        -----------------------------------------
Total Dipole Moment    :     -0.480254430      -1.062033489      -0.723202460
                        -----------------------------------------
Magnitude (a.u.)       :      1.371707421
Magnitude (Debye)      :      3.486603178

Rotational constants in cm-1:             0.011997             0.005078             0.004922
Rotational constants in MHz :           359.667255           152.248378           147.544800

                             ****ORCA TERMINATED NORMALLY****
TOTAL RUN TIME: 0 days 0 hours 1 minutes 52 seconds 418 msec
