                         Program Version 6.0.0  -   RELEASE  -
|  1> ! pbe def2-sv(p) def2/J RI DEFGRID1 loosescf d4 GCP(DFT/SV(P)) printgap
|  2> %output
|  3>     printlevel normal
|  4> end
|  5> * xyz 0 1
|  6> C 3.0106609177 2.5188835508 -0.5246350224
|  7> C 3.5459326992 1.5015646674 0.4619626019
|  8> O 2.4445630566 0.8361935461 1.1387124454
|  9> P 2.1227920219 -0.6945316285 0.9489851016
| 10> S 0.625688753 -1.2800219829 2.0585692393
| 11> O 3.5293305511 -1.361760717 1.2790491196
| 12> C 3.6776984722 -2.7525348326 1.6186588998
| 13> C 3.3044033118 -3.6728811834 0.4748746306
| 14> S 1.9111944181 -0.9980297774 -1.1560101162
| 15> C 0.1454727596 -0.6866742829 -1.2263067148
| 16> S -0.2246196933 1.0872716377 -0.9344427551
| 17> P -2.2612187635 0.7886143004 -0.5552818107
| 18> S -3.214557544 -0.4693428974 -1.724840696
| 19> O -2.9063097998 2.2413865068 -0.4950540431
| 20> C -3.4641475596 2.880610317 -1.6583532773
| 21> C -2.3919533724 3.2758689576 -2.6527931582
| 22> O -2.1799915818 0.4145373843 0.9807563832
| 23> C -3.2903816459 -0.1699900895 1.6984688911
| 24> C -3.1564598971 -1.6788087258 1.7505952483
| 25> H 2.3365809109 3.206456227 -0.021750596
| 26> H 3.8425768818 3.0728835098 -0.9473255616
| 27> H 2.4633270332 2.0268506479 -1.325462983
| 28> H 4.1170685692 1.9807411338 1.2585458859
| 29> H 4.1654092903 0.7515186896 -0.0342937214
| 30> H 4.7331693628 -2.8414578211 1.8797859746
| 31> H 3.0583184339 -2.9595037552 2.496782819
| 32> H 3.8350382002 -3.389019964 -0.4303517274
| 33> H 3.5619044555 -4.6932555871 0.7401663412
| 34> H 2.2333065806 -3.6189976419 0.2863702276
| 35> H -0.3518270837 -1.2717584024 -0.4495005943
| 36> H -0.2000563356 -0.969531739 -2.2183118795
| 37> H -4.1828229362 2.1941700352 -2.1177112852
| 38> H -3.98452386 3.7501564171 -1.2548965071
| 39> H -1.6257489186 3.8727775838 -2.1645530707
| 40> H -1.9273335373 2.3841626902 -3.0719593915
| 41> H -2.8413704475 3.8503034237 -3.4563941762
| 42> H -3.2296555536 0.2683256468 2.6956592112
| 43> H -4.22645567 0.1282807092 1.21800792
| 44> H -3.9365922978 -2.0869708394 2.3846095485
| 45> H -3.2515103792 -2.1017225999 0.7524330071
| 46> H -2.1835048885 -1.9479160083 2.1563763018
| 47> *
| 48>
| 49>                          ****END OF INPUT****

CARTESIAN COORDINATES (ANGSTROEM)
---------------------------------
  C      3.010661    2.518884   -0.524635
  C      3.545933    1.501565    0.461963
  O      2.444563    0.836194    1.138712
  P      2.122792   -0.694532    0.948985
  S      0.625689   -1.280022    2.058569
  O      3.529331   -1.361761    1.279049
  C      3.677698   -2.752535    1.618659
  C      3.304403   -3.672881    0.474875
  S      1.911194   -0.998030   -1.156010
  C      0.145473   -0.686674   -1.226307
  S     -0.224620    1.087272   -0.934443
  P     -2.261219    0.788614   -0.555282
  S     -3.214558   -0.469343   -1.724841
  O     -2.906310    2.241387   -0.495054
  C     -3.464148    2.880610   -1.658353
  C     -2.391953    3.275869   -2.652793
  O     -2.179992    0.414537    0.980756
  C     -3.290382   -0.169990    1.698469
  C     -3.156460   -1.678809    1.750595
  H      2.336581    3.206456   -0.021751
  H      3.842577    3.072884   -0.947326
  H      2.463327    2.026851   -1.325463
  H      4.117069    1.980741    1.258546
  H      4.165409    0.751519   -0.034294
  H      4.733169   -2.841458    1.879786
  H      3.058318   -2.959504    2.496783
  H      3.835038   -3.389020   -0.430352
  H      3.561904   -4.693256    0.740166
  H      2.233307   -3.618998    0.286370
  H     -0.351827   -1.271758   -0.449501
  H     -0.200056   -0.969532   -2.218312
  H     -4.182823    2.194170   -2.117711
  H     -3.984524    3.750156   -1.254897
  H     -1.625749    3.872778   -2.164553
  H     -1.927334    2.384163   -3.071959
  H     -2.841370    3.850303   -3.456394
  H     -3.229656    0.268326    2.695659
  H     -4.226456    0.128281    1.218008
  H     -3.936592   -2.086971    2.384610
  H     -3.251510   -2.101723    0.752433
  H     -2.183505   -1.947916    2.156376

 Total Charge           Charge          ....    0
 Multiplicity           Mult            ....    1
 Number of Electrons    NEL             ....  202
 Basis Dimension        Dim             ....  334

ORBITAL ENERGIES
----------------

  NO   OCC          E(Eh)            E(eV)
   0   2.0000     -88.049720     -2395.9547
   1   2.0000     -88.039371     -2395.6731
   2   2.0000     -87.987340     -2394.2573
   3   2.0000     -87.983782     -2394.1604
   4   2.0000     -76.427779     -2079.7056
   5   2.0000     -76.422232     -2079.5547
   6   2.0000     -18.795941      -511.4636
   7   2.0000     -18.790384      -511.3123
   8   2.0000     -18.789936      -511.3001
   9   2.0000     -18.781303      -511.0652
  10   2.0000      -9.957398      -270.9546
  11   2.0000      -9.956039      -270.9176
  12   2.0000      -9.954158      -270.8664
  13   2.0000      -9.950187      -270.7584
  14   2.0000      -9.945207      -270.6228
  15   2.0000      -9.886632      -269.0289
  16   2.0000      -9.885302      -268.9927
  17   2.0000      -9.883438      -268.9420
  18   2.0000      -9.870751      -268.5968
  19   2.0000      -7.694498      -209.3779
  20   2.0000      -7.684497      -209.1058
  21   2.0000      -7.632393      -207.6880
  22   2.0000      -7.628821      -207.5908
  23   2.0000      -6.425270      -174.8405
  24   2.0000      -6.419904      -174.6945
  25   2.0000      -5.722192      -155.7088
  26   2.0000      -5.719083      -155.6242
  27   2.0000      -5.712340      -155.4407
  28   2.0000      -5.711628      -155.4213
  29   2.0000      -5.709305      -155.3581
  30   2.0000      -5.701158      -155.1364
  31   2.0000      -5.661323      -154.0524
  32   2.0000      -5.657595      -153.9510
  33   2.0000      -5.652871      -153.8224
  34   2.0000      -5.652639      -153.8161
  35   2.0000      -5.649495      -153.7306
  36   2.0000      -5.649088      -153.7195
  37   2.0000      -4.648084      -126.4808
  38   2.0000      -4.646979      -126.4507
  39   2.0000      -4.645571      -126.4124
  40   2.0000      -4.642394      -126.3260
  41   2.0000      -4.641633      -126.3053
  42   2.0000      -4.640464      -126.2735
  43   2.0000      -0.989452       -26.9244
  44   2.0000      -0.981380       -26.7047
  45   2.0000      -0.945527       -25.7291
  46   2.0000      -0.939459       -25.5640
  47   2.0000      -0.765252       -20.8236
  48   2.0000      -0.721347       -19.6288
  49   2.0000      -0.708903       -19.2902
  50   2.0000      -0.691046       -18.8043
  51   2.0000      -0.684116       -18.6158
  52   2.0000      -0.673271       -18.3206
  53   2.0000      -0.650565       -17.7028
  54   2.0000      -0.635490       -17.2926
  55   2.0000      -0.598497       -16.2859
  56   2.0000      -0.589666       -16.0456
  57   2.0000      -0.576401       -15.6847
  58   2.0000      -0.567414       -15.4401
  59   2.0000      -0.556474       -15.1424
  60   2.0000      -0.504405       -13.7255
  61   2.0000      -0.495510       -13.4835
  62   2.0000      -0.473765       -12.8918
  63   2.0000      -0.465367       -12.6633
  64   2.0000      -0.451021       -12.2729
  65   2.0000      -0.446990       -12.1632
  66   2.0000      -0.443426       -12.0662
  67   2.0000      -0.434386       -11.8202
  68   2.0000      -0.432947       -11.7811
  69   2.0000      -0.418871       -11.3981
  70   2.0000      -0.412793       -11.2327
  71   2.0000      -0.395821       -10.7708
  72   2.0000      -0.391106       -10.6425
  73   2.0000      -0.382607       -10.4113
  74   2.0000      -0.375399       -10.2151
  75   2.0000      -0.371019       -10.0959
  76   2.0000      -0.369632       -10.0582
  77   2.0000      -0.358156        -9.7459
  78   2.0000      -0.353508        -9.6195
  79   2.0000      -0.349571        -9.5123
  80   2.0000      -0.345785        -9.4093
  81   2.0000      -0.344841        -9.3836
  82   2.0000      -0.339802        -9.2465
  83   2.0000      -0.335072        -9.1178
  84   2.0000      -0.331182        -9.0119
  85   2.0000      -0.316708        -8.6181
  86   2.0000      -0.306209        -8.3324
  87   2.0000      -0.300872        -8.1871
  88   2.0000      -0.296728        -8.0744
  89   2.0000      -0.291625        -7.9355
  90   2.0000      -0.280804        -7.6411
  91   2.0000      -0.274261        -7.4630
  92   2.0000      -0.267719        -7.2850
  93   2.0000      -0.264756        -7.2044
  94   2.0000      -0.259759        -7.0684
  95   2.0000      -0.232262        -6.3202
  96   2.0000      -0.221847        -6.0368
  97   2.0000      -0.205421        -5.5898
  98   2.0000      -0.204301        -5.5593
  99   2.0000      -0.202571        -5.5122
 100   2.0000      -0.197898        -5.3851
 101   0.0000      -0.043526        -1.1844
 102   0.0000      -0.033067        -0.8998
 103   0.0000      -0.007256        -0.1975
 104   0.0000       0.005771         0.1570
 105   0.0000       0.012522         0.3407

MULLIKEN ATOMIC CHARGES
-----------------------
   0 C :   -0.287346
   1 C :   -0.014766
   2 O :   -0.349515
   3 P :    0.601971
   4 S :   -0.302840
   5 O :   -0.381382
   6 C :    0.001826
   7 C :   -0.320050
   8 S :   -0.105659
   9 C :   -0.352897
  10 S :   -0.085613
  11 P :    0.606372
  12 S :   -0.349356
  13 O :   -0.370645
  14 C :   -0.005480
  15 C :   -0.317123
  16 O :   -0.354503
  17 C :    0.004454
  18 C :   -0.307568
  19 H :    0.122704
  20 H :    0.108458
  21 H :    0.124784
  22 H :    0.112624
  23 H :    0.104670
  24 H :    0.105571
  25 H :    0.112806
  26 H :    0.117686
  27 H :    0.115433
  28 H :    0.129667
  29 H :    0.207740
  30 H :    0.187993
  31 H :    0.111904
  32 H :    0.105279
  33 H :    0.116931
  34 H :    0.126746
  35 H :    0.113080
  36 H :    0.107737
  37 H :    0.098279
  38 H :    0.103233
  39 H :    0.123598
  40 H :    0.133196
Sum of atomic charges:    0.0000000

LOEWDIN ATOMIC CHARGES
----------------------
   0 C :   -0.360847
   1 C :   -0.111297
   2 O :   -0.234539
   3 P :    0.571414
   4 S :   -0.290187
   5 O :   -0.250188
   6 C :   -0.115268
   7 C :   -0.371432
   8 S :    0.082551
   9 C :   -0.478206
  10 S :    0.089809
  11 P :    0.571258
  12 S :   -0.334140
  13 O :   -0.245072
  14 C :   -0.120083
  15 C :   -0.369564
  16 O :   -0.235534
  17 C :   -0.110215
  18 C :   -0.366282
  19 H :    0.129710
  20 H :    0.128981
  21 H :    0.114732
  22 H :    0.122358
  23 H :    0.107280
  24 H :    0.119105
  25 H :    0.113520
  26 H :    0.123018
  27 H :    0.132334
  28 H :    0.122099
  29 H :    0.123897
  30 H :    0.134351
  31 H :    0.110254
  32 H :    0.118655
  33 H :    0.124352
  34 H :    0.121096
  35 H :    0.131101
  36 H :    0.120601
  37 H :    0.107331
  38 H :    0.126574
  39 H :    0.122705
  40 H :    0.123769

  Mayer bond orders larger than 0.100000
B(  0-C ,  1-C ) :   1.1657 B(  0-C , 19-H ) :   0.9452 B(  0-C , 20-H ) :   0.9383
B(  0-C , 21-H ) :   0.9321 B(  1-C ,  2-O ) :   0.8897 B(  1-C , 22-H ) :   0.9334
B(  1-C , 23-H ) :   0.9176 B(  2-O ,  3-P ) :   1.1472 B(  3-P ,  4-S ) :   1.6449
B(  3-P ,  5-O ) :   1.0900 B(  3-P ,  8-S ) :   0.9230 B(  4-S ,  8-S ) :   0.1100
B(  5-O ,  6-C ) :   0.9053 B(  6-C ,  7-C ) :   1.1663 B(  6-C , 24-H ) :   0.9344
B(  6-C , 25-H ) :   0.9189 B(  7-C , 26-H ) :   0.9434 B(  7-C , 27-H ) :   0.9369
B(  7-C , 28-H ) :   0.9347 B(  8-S ,  9-C ) :   1.0197 B(  9-C , 10-S ) :   0.9708
B(  9-C , 29-H ) :   0.8604 B(  9-C , 30-H ) :   0.8981 B( 10-S , 11-P ) :   0.9788
B( 10-S , 12-S ) :   0.1112 B( 11-P , 12-S ) :   1.5744 B( 11-P , 13-O ) :   1.1127
B( 11-P , 16-O ) :   1.1439 B( 13-O , 14-C ) :   0.9094 B( 14-C , 15-C ) :   1.1642
B( 14-C , 31-H ) :   0.9140 B( 14-C , 32-H ) :   0.9336 B( 15-C , 33-H ) :   0.9456
B( 15-C , 34-H ) :   0.9345 B( 15-C , 35-H ) :   0.9384 B( 16-O , 17-C ) :   0.8913
B( 17-C , 18-C ) :   1.1717 B( 17-C , 36-H ) :   0.9332 B( 17-C , 37-H ) :   0.9172
B( 18-C , 38-H ) :   0.9390 B( 18-C , 39-H ) :   0.9350 B( 18-C , 40-H ) :   0.9374

Dispersion correction           -0.064865432
FINAL SINGLE POINT ENERGY     -2929.519114305549

DIPOLE MOMENT
-------------

Method             : SCF
Type of density    : Electron Density
Multiplicity       :   1
Irrep              :   0
Energy             : -2929.6384686410092399 Eh
Relativity type    :
Basis              : AO
                                X                 Y                 Z
Electronic contribution:     -1.451888147      -1.087771800       1.624899232
Nuclear contribution   :      2.419531961       1.502709475      -1.781302017
                        -----------------------------------------
Total Dipole Moment    :      0.967643814       0.414937675      -0.156402785
                        -----------------------------------------
Magnitude (a.u.)       :      1.064410473
Magnitude (Debye)      :      2.705516412

Rotational constants in cm-1:             0.012048             0.005057             0.004322
Rotational constants in MHz :           361.200595           151.590266           129.568269

                             ****ORCA TERMINATED NORMALLY****
TOTAL RUN TIME: 0 days 0 hours 0 minutes 20 seconds 751 msec
