                         Program Version 6.0.0  -   RELEASE  -
|  1> ! r2scan-3c def2/J RI DEFGRID2 scfconv6 printgap
|  2> %output
|  3>     printlevel normal
|  4> end
|  5> * xyz 0 1
|  6> C 4.0940707956 -1.6500676687 -2.2892459967
|  7> C 4.3379632461 -1.684919002 -0.794495195
|  8> O 3.1129250406 -1.5991528078 -0.0458394561
|  9> P 2.2195669977 -0.2833051088 -0.0143703597
| 10> S 3.2407488918 1.3924304765 0.0624172467
| 11> O 1.2748389657 -0.5908011634 1.2189251382
| 12> C 1.6348661382 -0.2528107174 2.5792841187
| 13> C 0.3799121543 0.1740100168 3.3123164327
| 14> S 0.8379719137 -0.5258123985 -1.5895998773
| 15> C 0.2836621078 1.2017942604 -1.6424173481
| 16> S -0.5585735106 1.7253625736 -0.1349001879
| 17> P -2.2882189413 0.4761340757 -0.341331324
| 18> S -2.7901839576 -0.0081497974 -2.1652689715
| 19> O -3.4084856401 1.3140175176 0.3773917176
| 20> C -3.2755785716 2.0127612524 1.6391949087
| 21> C -3.5013771175 1.0879172746 2.8166381961
| 22> O -2.0498907732 -0.7529300488 0.644887644
| 23> C -1.6462901447 -2.0702964479 0.2377475175
| 24> C -2.6105542981 -3.0791938499 0.8299665791
| 25> H 3.7130974709 -0.6721870792 -2.5815869328
| 26> H 5.0278220454 -1.8335240713 -2.8110015706
| 27> H 3.3664540475 -2.4067754843 -2.572023259
| 28> H 4.9859589565 -0.8566510961 -0.4906358714
| 29> H 4.7726481993 -2.6338514201 -0.4779201496
| 30> H 2.0819670598 -1.1428133537 3.027474388
| 31> H 2.3756283289 0.5536666879 2.5566280921
| 32> H -0.3586968627 -0.6220014775 3.2760023917
| 33> H 0.6266177353 0.3898635153 4.3466214011
| 34> H -0.0359386416 1.0652847269 2.8488027905
| 35> H -0.3961249359 1.2781969933 -2.490584153
| 36> H 1.1452394322 1.8589048957 -1.7564389601
| 37> H -2.2860783321 2.4767366023 1.6784231674
| 38> H -4.0411740688 2.7887437382 1.5865298138
| 39> H -4.4769465828 0.6161879584 2.737120648
| 40> H -2.7380533963 0.3156618021 2.8413862115
| 41> H -3.4556005857 1.6658057784 3.7343706314
| 42> H -1.6464393295 -2.124959886 -0.8562047334
| 43> H -0.6280168037 -2.221647553 0.6052857278
| 44> H -3.6103968481 -2.9101674313 0.4381118373
| 45> H -2.2866939889 -4.0793026361 0.5608895032
| 46> H -2.6351387204 -2.9873035371 1.9119984054
| 47> *
| 48>
| 49>                          ****END OF INPUT****

CARTESIAN COORDINATES (ANGSTROEM)
---------------------------------
  C      4.094071   -1.650068   -2.289246
  C      4.337963   -1.684919   -0.794495
  O      3.112925   -1.599153   -0.045839
  P      2.219567   -0.283305   -0.014370
  S      3.240749    1.392430    0.062417
  O      1.274839   -0.590801    1.218925
  C      1.634866   -0.252811    2.579284
  C      0.379912    0.174010    3.312316
  S      0.837972   -0.525812   -1.589600
  C      0.283662    1.201794   -1.642417
  S     -0.558574    1.725363   -0.134900
  P     -2.288219    0.476134   -0.341331
  S     -2.790184   -0.008150   -2.165269
  O     -3.408486    1.314018    0.377392
  C     -3.275579    2.012761    1.639195
  C     -3.501377    1.087917    2.816638
  O     -2.049891   -0.752930    0.644888
  C     -1.646290   -2.070296    0.237748
  C     -2.610554   -3.079194    0.829967
  H      3.713097   -0.672187   -2.581587
  H      5.027822   -1.833524   -2.811002
  H      3.366454   -2.406775   -2.572023
  H      4.985959   -0.856651   -0.490636
  H      4.772648   -2.633851   -0.477920
  H      2.081967   -1.142813    3.027474
  H      2.375628    0.553667    2.556628
  H     -0.358697   -0.622001    3.276002
  H      0.626618    0.389864    4.346621
  H     -0.035939    1.065285    2.848803
  H     -0.396125    1.278197   -2.490584
  H      1.145239    1.858905   -1.756439
  H     -2.286078    2.476737    1.678423
  H     -4.041174    2.788744    1.586530
  H     -4.476947    0.616188    2.737121
  H     -2.738053    0.315662    2.841386
  H     -3.455601    1.665806    3.734371
  H     -1.646439   -2.124960   -0.856205
  H     -0.628017   -2.221648    0.605286
  H     -3.610397   -2.910167    0.438112
  H     -2.286694   -4.079303    0.560890
  H     -2.635139   -2.987304    1.911998

 Total Charge           Charge          ....    0
 Multiplicity           Mult            ....    1
 Number of Electrons    NEL             ....  202
 Basis Dimension        Dim             ....  539

ORBITAL ENERGIES
----------------

  NO   OCC          E(Eh)            E(eV)
   0   2.0000     -88.578402     -2410.3409
   1   2.0000     -88.572372     -2410.1768
   2   2.0000     -88.524314     -2408.8690
   3   2.0000     -88.519081     -2408.7266
   4   2.0000     -76.916497     -2093.0043
   5   2.0000     -76.914349     -2092.9458
   6   2.0000     -18.995670      -516.8984
   7   2.0000     -18.993270      -516.8331
   8   2.0000     -18.991696      -516.7903
   9   2.0000     -18.988048      -516.6911
  10   2.0000     -10.108873      -275.0764
  11   2.0000     -10.106153      -275.0024
  12   2.0000     -10.100712      -274.8543
  13   2.0000     -10.100698      -274.8540
  14   2.0000     -10.090072      -274.5648
  15   2.0000     -10.035388      -273.0768
  16   2.0000     -10.034525      -273.0533
  17   2.0000     -10.030743      -272.9504
  18   2.0000     -10.027469      -272.8613
  19   2.0000      -7.872790      -214.2295
  20   2.0000      -7.866780      -214.0660
  21   2.0000      -7.819061      -212.7675
  22   2.0000      -7.813971      -212.6290
  23   2.0000      -6.595143      -179.4630
  24   2.0000      -6.592458      -179.3899
  25   2.0000      -5.819688      -158.3618
  26   2.0000      -5.816665      -158.2795
  27   2.0000      -5.813689      -158.1985
  28   2.0000      -5.810648      -158.1158
  29   2.0000      -5.809860      -158.0943
  30   2.0000      -5.803821      -157.9300
  31   2.0000      -5.766616      -156.9176
  32   2.0000      -5.761741      -156.7850
  33   2.0000      -5.759382      -156.7208
  34   2.0000      -5.759113      -156.7134
  35   2.0000      -5.754274      -156.5818
  36   2.0000      -5.753796      -156.5687
  37   2.0000      -4.740605      -128.9984
  38   2.0000      -4.740015      -128.9824
  39   2.0000      -4.738927      -128.9527
  40   2.0000      -4.738238      -128.9340
  41   2.0000      -4.737271      -128.9077
  42   2.0000      -4.736091      -128.8756
  43   2.0000      -1.052292       -28.6343
  44   2.0000      -1.049000       -28.5447
  45   2.0000      -1.012736       -27.5579
  46   2.0000      -1.009305       -27.4646
  47   2.0000      -0.803471       -21.8636
  48   2.0000      -0.762165       -20.7396
  49   2.0000      -0.754210       -20.5231
  50   2.0000      -0.735003       -20.0004
  51   2.0000      -0.733682       -19.9645
  52   2.0000      -0.710609       -19.3367
  53   2.0000      -0.685853       -18.6630
  54   2.0000      -0.671571       -18.2744
  55   2.0000      -0.633109       -17.2278
  56   2.0000      -0.624627       -16.9970
  57   2.0000      -0.609022       -16.5723
  58   2.0000      -0.604942       -16.4613
  59   2.0000      -0.591980       -16.1086
  60   2.0000      -0.533336       -14.5128
  61   2.0000      -0.524269       -14.2661
  62   2.0000      -0.501878       -13.6568
  63   2.0000      -0.495510       -13.4835
  64   2.0000      -0.475550       -12.9404
  65   2.0000      -0.465501       -12.6669
  66   2.0000      -0.463381       -12.6092
  67   2.0000      -0.453016       -12.3272
  68   2.0000      -0.446852       -12.1594
  69   2.0000      -0.436062       -11.8659
  70   2.0000      -0.424414       -11.5489
  71   2.0000      -0.413556       -11.2534
  72   2.0000      -0.410385       -11.1671
  73   2.0000      -0.404517       -11.0075
  74   2.0000      -0.400764       -10.9053
  75   2.0000      -0.389277       -10.5928
  76   2.0000      -0.384023       -10.4498
  77   2.0000      -0.376199       -10.2369
  78   2.0000      -0.371313       -10.1039
  79   2.0000      -0.370271       -10.0756
  80   2.0000      -0.366062        -9.9611
  81   2.0000      -0.362309        -9.8589
  82   2.0000      -0.361411        -9.8345
  83   2.0000      -0.356730        -9.7071
  84   2.0000      -0.353408        -9.6167
  85   2.0000      -0.331999        -9.0342
  86   2.0000      -0.326792        -8.8925
  87   2.0000      -0.314950        -8.5702
  88   2.0000      -0.311240        -8.4693
  89   2.0000      -0.304541        -8.2870
  90   2.0000      -0.303088        -8.2474
  91   2.0000      -0.294691        -8.0189
  92   2.0000      -0.291010        -7.9188
  93   2.0000      -0.281885        -7.6705
  94   2.0000      -0.269988        -7.3467
  95   2.0000      -0.247680        -6.7397
  96   2.0000      -0.229485        -6.2446
  97   2.0000      -0.226730        -6.1696
  98   2.0000      -0.222229        -6.0471
  99   2.0000      -0.214712        -5.8426
 100   2.0000      -0.212575        -5.7845
 101   0.0000      -0.049455        -1.3457
 102   0.0000      -0.028522        -0.7761
 103   0.0000      -0.005225        -0.1422
 104   0.0000       0.002516         0.0685
 105   0.0000       0.005970         0.1624

MULLIKEN ATOMIC CHARGES
-----------------------
   0 C :   -0.449190
   1 C :   -0.151879
   2 O :   -0.306049
   3 P :    0.696277
   4 S :   -0.486110
   5 O :   -0.261489
   6 C :   -0.136609
   7 C :   -0.464485
   8 S :   -0.122751
   9 C :   -0.239456
  10 S :   -0.176146
  11 P :    0.665279
  12 S :   -0.453655
  13 O :   -0.285117
  14 C :   -0.147388
  15 C :   -0.428948
  16 O :   -0.238674
  17 C :   -0.118981
  18 C :   -0.484295
  19 H :    0.175951
  20 H :    0.148794
  21 H :    0.155958
  22 H :    0.172866
  23 H :    0.147786
  24 H :    0.149793
  25 H :    0.169330
  26 H :    0.154913
  27 H :    0.146311
  28 H :    0.163848
  29 H :    0.213488
  30 H :    0.214245
  31 H :    0.150221
  32 H :    0.157843
  33 H :    0.156874
  34 H :    0.162107
  35 H :    0.149408
  36 H :    0.174315
  37 H :    0.168604
  38 H :    0.162979
  39 H :    0.146668
  40 H :    0.147363
Sum of atomic charges:    0.0000000

LOEWDIN ATOMIC CHARGES
----------------------
   0 C :   -0.406246
   1 C :    0.019723
   2 O :   -0.660207
   3 P :    0.375834
   4 S :   -0.133270
   5 O :   -0.683218
   6 C :    0.024909
   7 C :   -0.393416
   8 S :    0.174772
   9 C :   -0.422132
  10 S :    0.132221
  11 P :    0.393602
  12 S :   -0.100576
  13 O :   -0.650382
  14 C :    0.027684
  15 C :   -0.396323
  16 O :   -0.672806
  17 C :    0.004242
  18 C :   -0.390313
  19 H :    0.165362
  20 H :    0.159781
  21 H :    0.160391
  22 H :    0.179909
  23 H :    0.179467
  24 H :    0.172140
  25 H :    0.182988
  26 H :    0.159888
  27 H :    0.158645
  28 H :    0.162846
  29 H :    0.192431
  30 H :    0.191009
  31 H :    0.174533
  32 H :    0.183750
  33 H :    0.162973
  34 H :    0.167494
  35 H :    0.159585
  36 H :    0.183503
  37 H :    0.181710
  38 H :    0.162229
  39 H :    0.159294
  40 H :    0.155973

  Mayer bond orders larger than 0.100000
B(  0-C ,  1-C ) :   0.9229 B(  0-C , 19-H ) :   0.9621 B(  0-C , 20-H ) :   0.9587
B(  0-C , 21-H ) :   0.9682 B(  1-C ,  2-O ) :   0.8166 B(  1-C , 22-H ) :   0.9675
B(  1-C , 23-H ) :   0.9584 B(  2-O ,  3-P ) :   1.0601 B(  3-P ,  4-S ) :   1.7409
B(  3-P ,  5-O ) :   1.1540 B(  3-P ,  8-S ) :   1.0970 B(  5-O ,  6-C ) :   0.7726
B(  6-C ,  7-C ) :   0.9593 B(  6-C , 24-H ) :   0.9490 B(  6-C , 25-H ) :   0.9546
B(  7-C , 26-H ) :   0.9676 B(  7-C , 27-H ) :   0.9630 B(  7-C , 28-H ) :   0.9682
B(  8-S ,  9-C ) :   0.8888 B(  9-C , 10-S ) :   0.9137 B(  9-C , 29-H ) :   0.9072
B(  9-C , 30-H ) :   0.9117 B( 10-S , 11-P ) :   0.9810 B( 11-P , 12-S ) :   1.8342
B( 11-P , 13-O ) :   1.1911 B( 11-P , 16-O ) :   1.0411 B( 13-O , 14-C ) :   0.7702
B( 14-C , 15-C ) :   0.9427 B( 14-C , 31-H ) :   0.9640 B( 14-C , 32-H ) :   0.9642
B( 15-C , 33-H ) :   0.9678 B( 15-C , 34-H ) :   0.9567 B( 15-C , 35-H ) :   0.9665
B( 16-O , 17-C ) :   0.7248 B( 17-C , 18-C ) :   0.9407 B( 17-C , 36-H ) :   0.9455
B( 17-C , 37-H ) :   0.9494 B( 18-C , 38-H ) :   0.9739 B( 18-C , 39-H ) :   0.9673
B( 18-C , 40-H ) :   0.9781

Dispersion correction           -0.022151121
FINAL SINGLE POINT ENERGY     -2932.461389554842

DIPOLE MOMENT
-------------

Method             : SCF
Type of density    : Electron Density
Multiplicity       :   1
Irrep              :   0
Energy             : -2932.4858829681852512 Eh
Relativity type    :
Basis              : AO
                                X                 Y                 Z
Electronic contribution:      0.949658489      10.281909753     -15.988870991
Nuclear contribution   :     -0.444605429     -11.043425030      17.454466135
                        -----------------------------------------
Total Dipole Moment    :      0.505053060      -0.761515276       1.465595144
                        -----------------------------------------
Magnitude (a.u.)       :      1.727122820
Magnitude (Debye)      :      4.389997329

Rotational constants in cm-1:             0.011793             0.005451             0.005063
Rotational constants in MHz :           353.540679           163.405685           151.776193

                             ****ORCA TERMINATED NORMALLY****
TOTAL RUN TIME: 0 days 0 hours 1 minutes 22 seconds 182 msec
