                         Program Version 6.0.0  -   RELEASE  -
|  1> ! r2scan-3c def2/J RI DEFGRID2 scfconv6 printgap
|  2> %output
|  3>     printlevel normal
|  4> end
|  5> %cpcm
|  6>     smd true
|  7>     smdsolvent "water"
|  8> end
|  9> * xyz 0 1
| 10> C 4.0940707956 -1.6500676687 -2.2892459967
| 11> C 4.3379632461 -1.684919002 -0.794495195
| 12> O 3.1129250406 -1.5991528078 -0.0458394561
| 13> P 2.2195669977 -0.2833051088 -0.0143703597
| 14> S 3.2407488918 1.3924304765 0.0624172467
| 15> O 1.2748389657 -0.5908011634 1.2189251382
| 16> C 1.6348661382 -0.2528107174 2.5792841187
| 17> C 0.3799121543 0.1740100168 3.3123164327
| 18> S 0.8379719137 -0.5258123985 -1.5895998773
| 19> C 0.2836621078 1.2017942604 -1.6424173481
| 20> S -0.5585735106 1.7253625736 -0.1349001879
| 21> P -2.2882189413 0.4761340757 -0.341331324
| 22> S -2.7901839576 -0.0081497974 -2.1652689715
| 23> O -3.4084856401 1.3140175176 0.3773917176
| 24> C -3.2755785716 2.0127612524 1.6391949087
| 25> C -3.5013771175 1.0879172746 2.8166381961
| 26> O -2.0498907732 -0.7529300488 0.644887644
| 27> C -1.6462901447 -2.0702964479 0.2377475175
| 28> C -2.6105542981 -3.0791938499 0.8299665791
| 29> H 3.7130974709 -0.6721870792 -2.5815869328
| 30> H 5.0278220454 -1.8335240713 -2.8110015706
| 31> H 3.3664540475 -2.4067754843 -2.572023259
| 32> H 4.9859589565 -0.8566510961 -0.4906358714
| 33> H 4.7726481993 -2.6338514201 -0.4779201496
| 34> H 2.0819670598 -1.1428133537 3.027474388
| 35> H 2.3756283289 0.5536666879 2.5566280921
| 36> H -0.3586968627 -0.6220014775 3.2760023917
| 37> H 0.6266177353 0.3898635153 4.3466214011
| 38> H -0.0359386416 1.0652847269 2.8488027905
| 39> H -0.3961249359 1.2781969933 -2.490584153
| 40> H 1.1452394322 1.8589048957 -1.7564389601
| 41> H -2.2860783321 2.4767366023 1.6784231674
| 42> H -4.0411740688 2.7887437382 1.5865298138
| 43> H -4.4769465828 0.6161879584 2.737120648
| 44> H -2.7380533963 0.3156618021 2.8413862115
| 45> H -3.4556005857 1.6658057784 3.7343706314
| 46> H -1.6464393295 -2.124959886 -0.8562047334
| 47> H -0.6280168037 -2.221647553 0.6052857278
| 48> H -3.6103968481 -2.9101674313 0.4381118373
| 49> H -2.2866939889 -4.0793026361 0.5608895032
| 50> H -2.6351387204 -2.9873035371 1.9119984054
| 51> *
| 52>
| 53>                          ****END OF INPUT****

CARTESIAN COORDINATES (ANGSTROEM)
---------------------------------
  C      4.094071   -1.650068   -2.289246
  C      4.337963   -1.684919   -0.794495
  O      3.112925   -1.599153   -0.045839
  P      2.219567   -0.283305   -0.014370
  S      3.240749    1.392430    0.062417
  O      1.274839   -0.590801    1.218925
  C      1.634866   -0.252811    2.579284
  C      0.379912    0.174010    3.312316
  S      0.837972   -0.525812   -1.589600
  C      0.283662    1.201794   -1.642417
  S     -0.558574    1.725363   -0.134900
  P     -2.288219    0.476134   -0.341331
  S     -2.790184   -0.008150   -2.165269
  O     -3.408486    1.314018    0.377392
  C     -3.275579    2.012761    1.639195
  C     -3.501377    1.087917    2.816638
  O     -2.049891   -0.752930    0.644888
  C     -1.646290   -2.070296    0.237748
  C     -2.610554   -3.079194    0.829967
  H      3.713097   -0.672187   -2.581587
  H      5.027822   -1.833524   -2.811002
  H      3.366454   -2.406775   -2.572023
  H      4.985959   -0.856651   -0.490636
  H      4.772648   -2.633851   -0.477920
  H      2.081967   -1.142813    3.027474
  H      2.375628    0.553667    2.556628
  H     -0.358697   -0.622001    3.276002
  H      0.626618    0.389864    4.346621
  H     -0.035939    1.065285    2.848803
  H     -0.396125    1.278197   -2.490584
  H      1.145239    1.858905   -1.756439
  H     -2.286078    2.476737    1.678423
  H     -4.041174    2.788744    1.586530
  H     -4.476947    0.616188    2.737121
  H     -2.738053    0.315662    2.841386
  H     -3.455601    1.665806    3.734371
  H     -1.646439   -2.124960   -0.856205
  H     -0.628017   -2.221648    0.605286
  H     -3.610397   -2.910167    0.438112
  H     -2.286694   -4.079303    0.560890
  H     -2.635139   -2.987304    1.911998

 Total Charge           Charge          ....    0
 Multiplicity           Mult            ....    1
 Number of Electrons    NEL             ....  202
 Basis Dimension        Dim             ....  539

ORBITAL ENERGIES
----------------

  NO   OCC          E(Eh)            E(eV)
   0   2.0000     -88.580120     -2410.3876
   1   2.0000     -88.576658     -2410.2934
   2   2.0000     -88.530641     -2409.0412
   3   2.0000     -88.528922     -2408.9944
   4   2.0000     -76.921774     -2093.1479
   5   2.0000     -76.918758     -2093.0658
   6   2.0000     -18.997059      -516.9363
   7   2.0000     -18.995441      -516.8922
   8   2.0000     -18.992379      -516.8089
   9   2.0000     -18.990567      -516.7596
  10   2.0000     -10.105251      -274.9779
  11   2.0000     -10.096318      -274.7348
  12   2.0000     -10.089367      -274.5456
  13   2.0000     -10.088371      -274.5185
  14   2.0000     -10.086086      -274.4564
  15   2.0000     -10.019141      -272.6347
  16   2.0000     -10.018724      -272.6233
  17   2.0000     -10.018111      -272.6067
  18   2.0000     -10.017300      -272.5846
  19   2.0000      -7.874562      -214.2777
  20   2.0000      -7.871018      -214.1813
  21   2.0000      -7.825886      -212.9532
  22   2.0000      -7.823955      -212.9006
  23   2.0000      -6.599940      -179.5935
  24   2.0000      -6.597417      -179.5248
  25   2.0000      -5.821450      -158.4097
  26   2.0000      -5.818440      -158.3278
  27   2.0000      -5.817917      -158.3136
  28   2.0000      -5.814864      -158.2305
  29   2.0000      -5.811633      -158.1426
  30   2.0000      -5.808103      -158.0465
  31   2.0000      -5.773539      -157.1060
  32   2.0000      -5.771450      -157.0491
  33   2.0000      -5.766178      -156.9057
  34   2.0000      -5.765769      -156.8946
  35   2.0000      -5.764260      -156.8535
  36   2.0000      -5.764033      -156.8473
  37   2.0000      -4.745684      -129.1366
  38   2.0000      -4.744723      -129.1105
  39   2.0000      -4.743677      -129.0820
  40   2.0000      -4.742823      -129.0588
  41   2.0000      -4.742288      -129.0442
  42   2.0000      -4.741292      -129.0171
  43   2.0000      -1.052840       -28.6492
  44   2.0000      -1.051244       -28.6058
  45   2.0000      -1.012736       -27.5580
  46   2.0000      -1.010872       -27.5072
  47   2.0000      -0.804927       -21.9032
  48   2.0000      -0.757920       -20.6241
  49   2.0000      -0.746308       -20.3081
  50   2.0000      -0.726715       -19.7749
  51   2.0000      -0.722550       -19.6616
  52   2.0000      -0.708655       -19.2835
  53   2.0000      -0.688803       -18.7433
  54   2.0000      -0.676610       -18.4115
  55   2.0000      -0.629811       -17.1380
  56   2.0000      -0.620223       -16.8771
  57   2.0000      -0.600759       -16.3475
  58   2.0000      -0.597611       -16.2618
  59   2.0000      -0.588231       -16.0066
  60   2.0000      -0.528543       -14.3824
  61   2.0000      -0.520271       -14.1573
  62   2.0000      -0.498852       -13.5745
  63   2.0000      -0.489502       -13.3200
  64   2.0000      -0.475275       -12.9329
  65   2.0000      -0.460504       -12.5310
  66   2.0000      -0.456347       -12.4178
  67   2.0000      -0.447244       -12.1701
  68   2.0000      -0.439928       -11.9711
  69   2.0000      -0.432106       -11.7582
  70   2.0000      -0.421665       -11.4741
  71   2.0000      -0.409349       -11.1389
  72   2.0000      -0.405905       -11.0452
  73   2.0000      -0.399812       -10.8794
  74   2.0000      -0.395986       -10.7753
  75   2.0000      -0.386105       -10.5065
  76   2.0000      -0.381836       -10.3903
  77   2.0000      -0.366780        -9.9806
  78   2.0000      -0.362536        -9.8651
  79   2.0000      -0.360974        -9.8226
  80   2.0000      -0.356771        -9.7082
  81   2.0000      -0.355473        -9.6729
  82   2.0000      -0.351920        -9.5762
  83   2.0000      -0.347473        -9.4552
  84   2.0000      -0.345427        -9.3996
  85   2.0000      -0.329300        -8.9607
  86   2.0000      -0.320784        -8.7290
  87   2.0000      -0.309265        -8.4155
  88   2.0000      -0.305312        -8.3080
  89   2.0000      -0.302534        -8.2324
  90   2.0000      -0.300305        -8.1717
  91   2.0000      -0.291084        -7.9208
  92   2.0000      -0.289651        -7.8818
  93   2.0000      -0.280010        -7.6195
  94   2.0000      -0.271712        -7.3937
  95   2.0000      -0.249731        -6.7955
  96   2.0000      -0.238537        -6.4909
  97   2.0000      -0.234305        -6.3758
  98   2.0000      -0.228429        -6.2159
  99   2.0000      -0.223841        -6.0910
 100   2.0000      -0.219709        -5.9786
 101   0.0000      -0.053609        -1.4588
 102   0.0000      -0.033958        -0.9240
 103   0.0000      -0.007042        -0.1916
 104   0.0000      -0.001953        -0.0531
 105   0.0000       0.006669         0.1815

MULLIKEN ATOMIC CHARGES
-----------------------
   0 C :   -0.486298
   1 C :   -0.150876
   2 O :   -0.331831
   3 P :    0.732543
   4 S :   -0.533255
   5 O :   -0.284411
   6 C :   -0.128491
   7 C :   -0.511148
   8 S :   -0.131475
   9 C :   -0.248920
  10 S :   -0.185078
  11 P :    0.675402
  12 S :   -0.506031
  13 O :   -0.323006
  14 C :   -0.125114
  15 C :   -0.475850
  16 O :   -0.263241
  17 C :   -0.094319
  18 C :   -0.526102
  19 H :    0.171984
  20 H :    0.172956
  21 H :    0.169749
  22 H :    0.177866
  23 H :    0.174559
  24 H :    0.172728
  25 H :    0.169295
  26 H :    0.171731
  27 H :    0.169467
  28 H :    0.172587
  29 H :    0.231114
  30 H :    0.236084
  31 H :    0.162524
  32 H :    0.180785
  33 H :    0.168374
  34 H :    0.168595
  35 H :    0.174398
  36 H :    0.172494
  37 H :    0.177435
  38 H :    0.166679
  39 H :    0.169053
  40 H :    0.167042
Sum of atomic charges:   -0.0000000

LOEWDIN ATOMIC CHARGES
----------------------
   0 C :   -0.409710
   1 C :    0.024951
   2 O :   -0.670533
   3 P :    0.381735
   4 S :   -0.163088
   5 O :   -0.692778
   6 C :    0.029475
   7 C :   -0.396437
   8 S :    0.170777
   9 C :   -0.417678
  10 S :    0.131839
  11 P :    0.392847
  12 S :   -0.141551
  13 O :   -0.672225
  14 C :    0.035940
  15 C :   -0.397925
  16 O :   -0.679580
  17 C :    0.009066
  18 C :   -0.393666
  19 H :    0.161363
  20 H :    0.168499
  21 H :    0.163659
  22 H :    0.181416
  23 H :    0.190769
  24 H :    0.181840
  25 H :    0.182908
  26 H :    0.163864
  27 H :    0.167706
  28 H :    0.163389
  29 H :    0.197277
  30 H :    0.197782
  31 H :    0.181114
  32 H :    0.193593
  33 H :    0.164855
  34 H :    0.167621
  35 H :    0.170031
  36 H :    0.182620
  37 H :    0.185835
  38 H :    0.162104
  39 H :    0.167788
  40 H :    0.162505

  Mayer bond orders larger than 0.100000
B(  0-C ,  1-C ) :   0.9101 B(  0-C , 19-H ) :   0.9632 B(  0-C , 20-H ) :   0.9535
B(  0-C , 21-H ) :   0.9656 B(  1-C ,  2-O ) :   0.8052 B(  1-C , 22-H ) :   0.9659
B(  1-C , 23-H ) :   0.9488 B(  2-O ,  3-P ) :   1.0685 B(  3-P ,  4-S ) :   1.6998
B(  3-P ,  5-O ) :   1.1670 B(  3-P ,  8-S ) :   1.1030 B(  5-O ,  6-C ) :   0.7631
B(  6-C ,  7-C ) :   0.9475 B(  6-C , 24-H ) :   0.9388 B(  6-C , 25-H ) :   0.9528
B(  7-C , 26-H ) :   0.9651 B(  7-C , 27-H ) :   0.9571 B(  7-C , 28-H ) :   0.9656
B(  8-S ,  9-C ) :   0.8810 B(  9-C , 10-S ) :   0.8975 B(  9-C , 29-H ) :   0.9030
B(  9-C , 30-H ) :   0.9053 B( 10-S , 11-P ) :   0.9993 B( 11-P , 12-S ) :   1.8157
B( 11-P , 13-O ) :   1.1962 B( 11-P , 16-O ) :   1.0434 B( 13-O , 14-C ) :   0.7624
B( 14-C , 15-C ) :   0.9297 B( 14-C , 31-H ) :   0.9523 B( 14-C , 32-H ) :   0.9539
B( 15-C , 33-H ) :   0.9679 B( 15-C , 34-H ) :   0.9567 B( 15-C , 35-H ) :   0.9593
B( 16-O , 17-C ) :   0.7166 B( 17-C , 18-C ) :   0.9385 B( 17-C , 36-H ) :   0.9449
B( 17-C , 37-H ) :   0.9406 B( 18-C , 38-H ) :   0.9723 B( 18-C , 39-H ) :   0.9612
B( 18-C , 40-H ) :   0.9734

Dispersion correction           -0.022151121
FINAL SINGLE POINT ENERGY     -2932.470656729245

DIPOLE MOMENT
-------------

Method             : SCF
Type of density    : Electron Density
Multiplicity       :   1
Irrep              :   0
Energy             : -2932.4951501425875904 Eh
Relativity type    :
Basis              : AO
                                X                 Y                 Z
Electronic contribution:      1.280433336      10.062146743     -15.449820011
Nuclear contribution   :     -0.444605429     -11.043425030      17.454466135
                        -----------------------------------------
Total Dipole Moment    :      0.835827907      -0.981278287       2.004646124
                        -----------------------------------------
Magnitude (a.u.)       :      2.383300537
Magnitude (Debye)      :      6.057868538

Rotational constants in cm-1:             0.011793             0.005451             0.005063
Rotational constants in MHz :           353.540679           163.405685           151.776193

                             ****ORCA TERMINATED NORMALLY****
TOTAL RUN TIME: 0 days 0 hours 1 minutes 54 seconds 783 msec
