                         Program Version 6.0.0  -   RELEASE  -
|  1> ! pbe def2-sv(p) def2/J RI DEFGRID1 loosescf d4 GCP(DFT/SV(P)) printgap
|  2> %output
|  3>     printlevel normal
|  4> end
|  5> * xyz 0 1
|  6> C 1.6653472582 -1.5494359991 3.119672831
|  7> C 2.3847394081 -2.0794994956 1.8960758875
|  8> O 1.5751963361 -1.8721040608 0.7063852791
|  9> P 1.9589383895 -0.8443815731 -0.4274012238
| 10> S 0.7121980024 -0.9189099276 -1.9338670962
| 11> O 3.4578814495 -1.2721300471 -0.7499000762
| 12> C 4.133006463 -0.9076455205 -1.9663240805
| 13> C 4.3528402729 0.586833651 -2.0822349885
| 14> S 2.1925441754 1.0405837244 0.5354855242
| 15> C 0.4841715046 1.6003424166 0.4196795588
| 16> S -0.6590501606 0.5208767571 1.3573459559
| 17> P -2.3737648974 0.6087946999 0.105890767
| 18> S -2.1202484177 1.4374303754 -1.6595301901
| 19> O -3.5039714789 1.2147513888 1.034377146
| 20> C -3.3520109422 2.3931799062 1.845123605
| 21> C -3.1019824556 3.6391668141 1.018761986
| 22> O -3.0008841723 -0.8433902974 0.0854773076
| 23> C -2.6229589538 -1.8786972031 -0.8352210882
| 24> C -1.7893516508 -2.9313054894 -0.1307925591
| 25> H 1.5486224682 -0.4699230689 3.0604509744
| 26> H 0.6789060822 -1.9976941795 3.1985487514
| 27> H 2.2445593384 -1.7976201014 4.0031972909
| 28> H 2.5230443555 -3.1601899963 1.9523302146
| 29> H 3.3516643043 -1.5918878037 1.7586121968
| 30> H 5.0775161937 -1.4506730476 -1.9087197341
| 31> H 3.5432936445 -1.2765103727 -2.8112572325
| 32> H 4.8318621031 0.9712093504 -1.1852518912
| 33> H 4.9821277283 0.7890780325 -2.9430745259
| 34> H 3.3994786608 1.0953508304 -2.2185983888
| 35> H 0.1592665099 1.6100786149 -0.6252815037
| 36> H 0.469594184 2.598920428 0.8493656689
| 37> H -4.2995452479 2.4567918681 2.3828805048
| 38> H -2.5367544049 2.2242532634 2.5554402822
| 39> H -3.0621152595 4.5043843711 1.6726593388
| 40> H -2.1598897231 3.5530141381 0.478926194
| 41> H -3.8976027643 3.7736184049 0.2900949243
| 42> H -3.564784384 -2.2984773467 -1.1947029097
| 43> H -2.0797751891 -1.4415960146 -1.6809236962
| 44> H -2.3169863619 -3.2943189642 0.746513822
| 45> H -1.6074456609 -3.7544089798 -0.8144227512
| 46> H -0.8307504212 -2.5174981222 0.1767513097
| 47> *
| 48>
| 49>                          ****END OF INPUT****

CARTESIAN COORDINATES (ANGSTROEM)
---------------------------------
  C      1.665347   -1.549436    3.119673
  C      2.384739   -2.079499    1.896076
  O      1.575196   -1.872104    0.706385
  P      1.958938   -0.844382   -0.427401
  S      0.712198   -0.918910   -1.933867
  O      3.457881   -1.272130   -0.749900
  C      4.133006   -0.907646   -1.966324
  C      4.352840    0.586834   -2.082235
  S      2.192544    1.040584    0.535486
  C      0.484172    1.600342    0.419680
  S     -0.659050    0.520877    1.357346
  P     -2.373765    0.608795    0.105891
  S     -2.120248    1.437430   -1.659530
  O     -3.503971    1.214751    1.034377
  C     -3.352011    2.393180    1.845124
  C     -3.101982    3.639167    1.018762
  O     -3.000884   -0.843390    0.085477
  C     -2.622959   -1.878697   -0.835221
  C     -1.789352   -2.931305   -0.130793
  H      1.548622   -0.469923    3.060451
  H      0.678906   -1.997694    3.198549
  H      2.244559   -1.797620    4.003197
  H      2.523044   -3.160190    1.952330
  H      3.351664   -1.591888    1.758612
  H      5.077516   -1.450673   -1.908720
  H      3.543294   -1.276510   -2.811257
  H      4.831862    0.971209   -1.185252
  H      4.982128    0.789078   -2.943075
  H      3.399479    1.095351   -2.218598
  H      0.159267    1.610079   -0.625282
  H      0.469594    2.598920    0.849366
  H     -4.299545    2.456792    2.382881
  H     -2.536754    2.224253    2.555440
  H     -3.062115    4.504384    1.672659
  H     -2.159890    3.553014    0.478926
  H     -3.897603    3.773618    0.290095
  H     -3.564784   -2.298477   -1.194703
  H     -2.079775   -1.441596   -1.680924
  H     -2.316986   -3.294319    0.746514
  H     -1.607446   -3.754409   -0.814423
  H     -0.830750   -2.517498    0.176751

 Total Charge           Charge          ....    0
 Multiplicity           Mult            ....    1
 Number of Electrons    NEL             ....  202
 Basis Dimension        Dim             ....  334

ORBITAL ENERGIES
----------------

  NO   OCC          E(Eh)            E(eV)
   0   2.0000     -88.050266     -2395.9695
   1   2.0000     -88.043880     -2395.7958
   2   2.0000     -87.987581     -2394.2638
   3   2.0000     -87.980977     -2394.0841
   4   2.0000     -76.429846     -2079.7618
   5   2.0000     -76.421526     -2079.5354
   6   2.0000     -18.797457      -511.5048
   7   2.0000     -18.794729      -511.4306
   8   2.0000     -18.783875      -511.1352
   9   2.0000     -18.780953      -511.0557
  10   2.0000      -9.959508      -271.0120
  11   2.0000      -9.956835      -270.9393
  12   2.0000      -9.956094      -270.9191
  13   2.0000      -9.951959      -270.8066
  14   2.0000      -9.936445      -270.3844
  15   2.0000      -9.887211      -269.0447
  16   2.0000      -9.887197      -269.0443
  17   2.0000      -9.882349      -268.9124
  18   2.0000      -9.866574      -268.4831
  19   2.0000      -7.695107      -209.3945
  20   2.0000      -7.688012      -209.2014
  21   2.0000      -7.632384      -207.6877
  22   2.0000      -7.625964      -207.5130
  23   2.0000      -6.427078      -174.8897
  24   2.0000      -6.418655      -174.6605
  25   2.0000      -5.722975      -155.7301
  26   2.0000      -5.719493      -155.6353
  27   2.0000      -5.715820      -155.5354
  28   2.0000      -5.712456      -155.4438
  29   2.0000      -5.712245      -155.4381
  30   2.0000      -5.705246      -155.2476
  31   2.0000      -5.661411      -154.0548
  32   2.0000      -5.654869      -153.8768
  33   2.0000      -5.652776      -153.8199
  34   2.0000      -5.652657      -153.8166
  35   2.0000      -5.646556      -153.6506
  36   2.0000      -5.646165      -153.6400
  37   2.0000      -4.649904      -126.5303
  38   2.0000      -4.648833      -126.5012
  39   2.0000      -4.647363      -126.4612
  40   2.0000      -4.640892      -126.2851
  41   2.0000      -4.640846      -126.2838
  42   2.0000      -4.639041      -126.2347
  43   2.0000      -0.991852       -26.9897
  44   2.0000      -0.981627       -26.7114
  45   2.0000      -0.948033       -25.7973
  46   2.0000      -0.936067       -25.4717
  47   2.0000      -0.764293       -20.7975
  48   2.0000      -0.720605       -19.6087
  49   2.0000      -0.710058       -19.3217
  50   2.0000      -0.692367       -18.8403
  51   2.0000      -0.681427       -18.5426
  52   2.0000      -0.672275       -18.2935
  53   2.0000      -0.651646       -17.7322
  54   2.0000      -0.633250       -17.2316
  55   2.0000      -0.598271       -16.2798
  56   2.0000      -0.590080       -16.0569
  57   2.0000      -0.578696       -15.7471
  58   2.0000      -0.566970       -15.4280
  59   2.0000      -0.555366       -15.1123
  60   2.0000      -0.506356       -13.7786
  61   2.0000      -0.492720       -13.4076
  62   2.0000      -0.475552       -12.9404
  63   2.0000      -0.463760       -12.6196
  64   2.0000      -0.451450       -12.2846
  65   2.0000      -0.450105       -12.2480
  66   2.0000      -0.446091       -12.1387
  67   2.0000      -0.434829       -11.8323
  68   2.0000      -0.421332       -11.4650
  69   2.0000      -0.413825       -11.2608
  70   2.0000      -0.412691       -11.2299
  71   2.0000      -0.408308       -11.1106
  72   2.0000      -0.394706       -10.7405
  73   2.0000      -0.380309       -10.3487
  74   2.0000      -0.376686       -10.2502
  75   2.0000      -0.371272       -10.1028
  76   2.0000      -0.363618        -9.8945
  77   2.0000      -0.359758        -9.7895
  78   2.0000      -0.354011        -9.6331
  79   2.0000      -0.349131        -9.5003
  80   2.0000      -0.346432        -9.4269
  81   2.0000      -0.342020        -9.3069
  82   2.0000      -0.341081        -9.2813
  83   2.0000      -0.335719        -9.1354
  84   2.0000      -0.322401        -8.7730
  85   2.0000      -0.317459        -8.6385
  86   2.0000      -0.312062        -8.4916
  87   2.0000      -0.304207        -8.2779
  88   2.0000      -0.297047        -8.0831
  89   2.0000      -0.291153        -7.9227
  90   2.0000      -0.278357        -7.5745
  91   2.0000      -0.275499        -7.4967
  92   2.0000      -0.265712        -7.2304
  93   2.0000      -0.263269        -7.1639
  94   2.0000      -0.254376        -6.9219
  95   2.0000      -0.234042        -6.3686
  96   2.0000      -0.225571        -6.1381
  97   2.0000      -0.211959        -5.7677
  98   2.0000      -0.205354        -5.5880
  99   2.0000      -0.196879        -5.3574
 100   2.0000      -0.187139        -5.0923
 101   0.0000      -0.046191        -1.2569
 102   0.0000      -0.036311        -0.9881
 103   0.0000      -0.013179        -0.3586
 104   0.0000       0.007155         0.1947
 105   0.0000       0.012934         0.3519

MULLIKEN ATOMIC CHARGES
-----------------------
   0 C :   -0.285127
   1 C :   -0.014886
   2 O :   -0.351157
   3 P :    0.600563
   4 S :   -0.294462
   5 O :   -0.380106
   6 C :    0.001173
   7 C :   -0.321761
   8 S :   -0.110424
   9 C :   -0.349098
  10 S :   -0.133523
  11 P :    0.609762
  12 S :   -0.309967
  13 O :   -0.356162
  14 C :   -0.006918
  15 C :   -0.312017
  16 O :   -0.356268
  17 C :   -0.010879
  18 C :   -0.310784
  19 H :    0.121043
  20 H :    0.123886
  21 H :    0.108945
  22 H :    0.113125
  23 H :    0.106380
  24 H :    0.105612
  25 H :    0.114432
  26 H :    0.116924
  27 H :    0.115902
  28 H :    0.133060
  29 H :    0.214512
  30 H :    0.180589
  31 H :    0.108121
  32 H :    0.104835
  33 H :    0.107849
  34 H :    0.121969
  35 H :    0.125834
  36 H :    0.099674
  37 H :    0.121974
  38 H :    0.102116
  39 H :    0.103575
  40 H :    0.141686
Sum of atomic charges:   -0.0000000

LOEWDIN ATOMIC CHARGES
----------------------
   0 C :   -0.360812
   1 C :   -0.111436
   2 O :   -0.233229
   3 P :    0.567048
   4 S :   -0.284607
   5 O :   -0.249505
   6 C :   -0.115718
   7 C :   -0.371372
   8 S :    0.079987
   9 C :   -0.482024
  10 S :    0.071215
  11 P :    0.566409
  12 S :   -0.296302
  13 O :   -0.235708
  14 C :   -0.119558
  15 C :   -0.367441
  16 O :   -0.231467
  17 C :   -0.118603
  18 C :   -0.367090
  19 H :    0.114698
  20 H :    0.129297
  21 H :    0.129109
  22 H :    0.122756
  23 H :    0.108993
  24 H :    0.119059
  25 H :    0.114051
  26 H :    0.122580
  27 H :    0.132546
  28 H :    0.123397
  29 H :    0.123680
  30 H :    0.131763
  31 H :    0.120799
  32 H :    0.101790
  33 H :    0.127773
  34 H :    0.117642
  35 H :    0.131242
  36 H :    0.115179
  37 H :    0.105424
  38 H :    0.119570
  39 H :    0.128187
  40 H :    0.120678

  Mayer bond orders larger than 0.100000
B(  0-C ,  1-C ) :   1.1658 B(  0-C , 19-H ) :   0.9325 B(  0-C , 20-H ) :   0.9458
B(  0-C , 21-H ) :   0.9384 B(  1-C ,  2-O ) :   0.8857 B(  1-C , 22-H ) :   0.9343
B(  1-C , 23-H ) :   0.9174 B(  2-O ,  3-P ) :   1.1210 B(  3-P ,  4-S ) :   1.6513
B(  3-P ,  5-O ) :   1.0888 B(  3-P ,  8-S ) :   0.9323 B(  4-S ,  8-S ) :   0.1074
B(  5-O ,  6-C ) :   0.9052 B(  6-C ,  7-C ) :   1.1662 B(  6-C , 24-H ) :   0.9345
B(  6-C , 25-H ) :   0.9186 B(  7-C , 26-H ) :   0.9434 B(  7-C , 27-H ) :   0.9369
B(  7-C , 28-H ) :   0.9349 B(  8-S ,  9-C ) :   1.0124 B(  9-C , 10-S ) :   0.9900
B(  9-C , 29-H ) :   0.8425 B(  9-C , 30-H ) :   0.9049 B( 10-S , 11-P ) :   0.9284
B( 10-S , 12-S ) :   0.1259 B( 11-P , 12-S ) :   1.6261 B( 11-P , 13-O ) :   1.1169
B( 11-P , 16-O ) :   1.1459 B( 13-O , 14-C ) :   0.9276 B( 14-C , 15-C ) :   1.1600
B( 14-C , 31-H ) :   0.9340 B( 14-C , 32-H ) :   0.9161 B( 15-C , 33-H ) :   0.9371
B( 15-C , 34-H ) :   0.9334 B( 15-C , 35-H ) :   0.9447 B( 16-O , 17-C ) :   0.9029
B( 17-C , 18-C ) :   1.1696 B( 17-C , 36-H ) :   0.9342 B( 17-C , 37-H ) :   0.9014
B( 18-C , 38-H ) :   0.9463 B( 18-C , 39-H ) :   0.9406 B( 18-C , 40-H ) :   0.9259

Dispersion correction           -0.067300754
FINAL SINGLE POINT ENERGY     -2929.520257802598

DIPOLE MOMENT
-------------

Method             : SCF
Type of density    : Electron Density
Multiplicity       :   1
Irrep              :   0
Energy             : -2929.6380198847273277 Eh
Relativity type    :
Basis              : AO
                                X                 Y                 Z
Electronic contribution:     -5.090990801       1.287305201      -6.390308519
Nuclear contribution   :      6.400450461      -1.273736225       7.617208535
                        -----------------------------------------
Total Dipole Moment    :      1.309459660       0.013568976       1.226900017
                        -----------------------------------------
Magnitude (a.u.)       :      1.794478300
Magnitude (Debye)      :      4.561201354

Rotational constants in cm-1:             0.011845             0.005223             0.005161
Rotational constants in MHz :           355.090937           156.591486           154.734525

                             ****ORCA TERMINATED NORMALLY****
TOTAL RUN TIME: 0 days 0 hours 0 minutes 21 seconds 651 msec
