                         Program Version 6.0.0  -   RELEASE  -
|  1> ! pbe def2-sv(p) def2/J RI DEFGRID1 loosescf d4 GCP(DFT/SV(P)) printgap
|  2> %output
|  3>     printlevel normal
|  4> end
|  5> * xyz 0 1
|  6> C 4.765620324 -0.8882245941 -1.3607358803
|  7> C 4.5008867678 -0.8394264002 0.1298909464
|  8> O 3.5367240252 0.1613817559 0.500899789
|  9> P 2.0829237504 0.3416659019 -0.1192387466
| 10> S 1.9698342479 1.1476076318 -1.9070461241
| 11> O 1.4065277133 1.1776995083 1.0483561407
| 12> C 1.3533497683 2.6174926406 1.0153132344
| 13> C 2.7285435084 3.2279299825 1.1741155066
| 14> S 1.2427380831 -1.5830605339 0.1277579973
| 15> C 0.2005319334 -1.6795310274 -1.3680654947
| 16> S -1.4993665607 -2.1823673067 -1.0072028012
| 17> P -2.0884404364 -0.5172017223 0.1389630236
| 18> S -1.4440118565 1.2330522638 -0.4877952656
| 19> O -1.6356158916 -0.9603315894 1.5864190466
| 20> C -1.4287487966 -0.0343104393 2.6715370506
| 21> C -2.7056612012 0.6893158189 3.040973636
| 22> O -3.6621100348 -0.7017656245 0.2368191157
| 23> C -4.5468884881 -0.4804017137 -0.8800345749
| 24> C -5.0859644513 0.9372003183 -0.8735538082
| 25> H 3.8685124874 -1.2005139332 -1.8933562037
| 26> H 5.0567015648 0.0928854607 -1.7283353867
| 27> H 5.5619071592 -1.5978831552 -1.5608816844
| 28> H 5.3954711695 -0.5479773927 0.6833585679
| 29> H 4.141457872 -1.8071945625 0.4908890942
| 30> H 0.8894008469 2.9261869306 0.0722164186
| 31> H 0.6925942792 2.8788399152 1.8432993671
| 32> H 3.350169758 2.9552156398 0.3219545231
| 33> H 2.6397415057 4.3088067168 1.2174653199
| 34> H 3.1981618539 2.8615117827 2.0830867135
| 35> H 0.6029500612 -2.4519079179 -2.0185629305
| 36> H 0.2117320961 -0.7035054592 -1.8626646268
| 37> H -1.0659505612 -0.6669390111 3.4829002418
| 38> H -0.6460841858 0.6721193695 2.3781856309
| 39> H -3.4911152132 -0.0286713985 3.2620321213
| 40> H -2.5298809589 1.3159704207 3.9097580926
| 41> H -3.0258883789 1.3155701793 2.2084392135
| 42> H -4.0149489785 -0.6947625427 -1.8113156777
| 43> H -5.3462183434 -1.2108223649 -0.742591092
| 44> H -4.2739672605 1.6499253315 -1.0014035054
| 45> H -5.7905088882 1.0552912751 -1.6904182847
| 46> H -5.588679579 1.1421076735 0.0674900047
| 47> *
| 48>
| 49>                          ****END OF INPUT****

CARTESIAN COORDINATES (ANGSTROEM)
---------------------------------
  C      4.765620   -0.888225   -1.360736
  C      4.500887   -0.839426    0.129891
  O      3.536724    0.161382    0.500900
  P      2.082924    0.341666   -0.119239
  S      1.969834    1.147608   -1.907046
  O      1.406528    1.177700    1.048356
  C      1.353350    2.617493    1.015313
  C      2.728544    3.227930    1.174116
  S      1.242738   -1.583061    0.127758
  C      0.200532   -1.679531   -1.368065
  S     -1.499367   -2.182367   -1.007203
  P     -2.088440   -0.517202    0.138963
  S     -1.444012    1.233052   -0.487795
  O     -1.635616   -0.960332    1.586419
  C     -1.428749   -0.034310    2.671537
  C     -2.705661    0.689316    3.040974
  O     -3.662110   -0.701766    0.236819
  C     -4.546888   -0.480402   -0.880035
  C     -5.085964    0.937200   -0.873554
  H      3.868512   -1.200514   -1.893356
  H      5.056702    0.092885   -1.728335
  H      5.561907   -1.597883   -1.560882
  H      5.395471   -0.547977    0.683359
  H      4.141458   -1.807195    0.490889
  H      0.889401    2.926187    0.072216
  H      0.692594    2.878840    1.843299
  H      3.350170    2.955216    0.321955
  H      2.639742    4.308807    1.217465
  H      3.198162    2.861512    2.083087
  H      0.602950   -2.451908   -2.018563
  H      0.211732   -0.703505   -1.862665
  H     -1.065951   -0.666939    3.482900
  H     -0.646084    0.672119    2.378186
  H     -3.491115   -0.028671    3.262032
  H     -2.529881    1.315970    3.909758
  H     -3.025888    1.315570    2.208439
  H     -4.014949   -0.694763   -1.811316
  H     -5.346218   -1.210822   -0.742591
  H     -4.273967    1.649925   -1.001404
  H     -5.790509    1.055291   -1.690418
  H     -5.588680    1.142108    0.067490

 Total Charge           Charge          ....    0
 Multiplicity           Mult            ....    1
 Number of Electrons    NEL             ....  202
 Basis Dimension        Dim             ....  334

ORBITAL ENERGIES
----------------

  NO   OCC          E(Eh)            E(eV)
   0   2.0000     -88.043169     -2395.7764
   1   2.0000     -88.042819     -2395.7669
   2   2.0000     -87.983760     -2394.1598
   3   2.0000     -87.983163     -2394.1436
   4   2.0000     -76.424732     -2079.6227
   5   2.0000     -76.424496     -2079.6163
   6   2.0000     -18.792542      -511.3711
   7   2.0000     -18.789755      -511.2952
   8   2.0000     -18.785524      -511.1801
   9   2.0000     -18.783807      -511.1334
  10   2.0000      -9.954995      -270.8892
  11   2.0000      -9.954729      -270.8820
  12   2.0000      -9.954253      -270.8690
  13   2.0000      -9.946551      -270.6594
  14   2.0000      -9.943709      -270.5821
  15   2.0000      -9.881899      -268.9001
  16   2.0000      -9.880878      -268.8724
  17   2.0000      -9.880636      -268.8658
  18   2.0000      -9.877609      -268.7834
  19   2.0000      -7.688509      -209.2150
  20   2.0000      -7.688000      -209.2011
  21   2.0000      -7.628326      -207.5773
  22   2.0000      -7.628132      -207.5720
  23   2.0000      -6.422123      -174.7549
  24   2.0000      -6.421608      -174.7408
  25   2.0000      -5.716428      -155.5519
  26   2.0000      -5.715801      -155.5349
  27   2.0000      -5.712868      -155.4550
  28   2.0000      -5.712538      -155.4460
  29   2.0000      -5.705493      -155.2543
  30   2.0000      -5.705040      -155.2420
  31   2.0000      -5.657144      -153.9387
  32   2.0000      -5.657070      -153.9367
  33   2.0000      -5.648987      -153.7168
  34   2.0000      -5.648982      -153.7166
  35   2.0000      -5.648581      -153.7057
  36   2.0000      -5.648022      -153.6905
  37   2.0000      -4.644539      -126.3843
  38   2.0000      -4.643966      -126.3688
  39   2.0000      -4.643945      -126.3682
  40   2.0000      -4.643483      -126.3556
  41   2.0000      -4.642696      -126.3342
  42   2.0000      -4.642258      -126.3223
  43   2.0000      -0.985100       -26.8059
  44   2.0000      -0.982531       -26.7360
  45   2.0000      -0.943366       -25.6703
  46   2.0000      -0.939780       -25.5727
  47   2.0000      -0.762164       -20.7395
  48   2.0000      -0.719218       -19.5709
  49   2.0000      -0.706076       -19.2133
  50   2.0000      -0.685260       -18.6469
  51   2.0000      -0.683655       -18.6032
  52   2.0000      -0.673001       -18.3133
  53   2.0000      -0.651156       -17.7188
  54   2.0000      -0.635490       -17.2926
  55   2.0000      -0.598404       -16.2834
  56   2.0000      -0.591490       -16.0953
  57   2.0000      -0.572109       -15.5679
  58   2.0000      -0.567748       -15.4492
  59   2.0000      -0.560877       -15.2622
  60   2.0000      -0.499597       -13.5947
  61   2.0000      -0.489921       -13.3314
  62   2.0000      -0.471539       -12.8312
  63   2.0000      -0.464660       -12.6440
  64   2.0000      -0.451814       -12.2945
  65   2.0000      -0.443694       -12.0735
  66   2.0000      -0.438096       -11.9212
  67   2.0000      -0.432735       -11.7753
  68   2.0000      -0.426881       -11.6160
  69   2.0000      -0.414505       -11.2792
  70   2.0000      -0.404054       -10.9949
  71   2.0000      -0.401107       -10.9147
  72   2.0000      -0.395331       -10.7575
  73   2.0000      -0.387434       -10.5426
  74   2.0000      -0.385822       -10.4987
  75   2.0000      -0.370134       -10.0719
  76   2.0000      -0.367753       -10.0071
  77   2.0000      -0.351609        -9.5678
  78   2.0000      -0.346628        -9.4322
  79   2.0000      -0.346188        -9.4202
  80   2.0000      -0.344661        -9.3787
  81   2.0000      -0.341352        -9.2886
  82   2.0000      -0.336585        -9.1590
  83   2.0000      -0.334046        -9.0899
  84   2.0000      -0.331517        -9.0210
  85   2.0000      -0.316192        -8.6040
  86   2.0000      -0.310721        -8.4552
  87   2.0000      -0.296741        -8.0747
  88   2.0000      -0.293519        -7.9871
  89   2.0000      -0.284685        -7.7467
  90   2.0000      -0.282429        -7.6853
  91   2.0000      -0.272185        -7.4065
  92   2.0000      -0.268996        -7.3197
  93   2.0000      -0.261553        -7.1172
  94   2.0000      -0.258255        -7.0275
  95   2.0000      -0.232982        -6.3398
  96   2.0000      -0.222412        -6.0521
  97   2.0000      -0.212233        -5.7752
  98   2.0000      -0.202490        -5.5100
  99   2.0000      -0.195786        -5.3276
 100   2.0000      -0.186397        -5.0721
 101   0.0000      -0.039474        -1.0741
 102   0.0000      -0.032953        -0.8967
 103   0.0000      -0.008710        -0.2370
 104   0.0000       0.016502         0.4490
 105   0.0000       0.020730         0.5641

MULLIKEN ATOMIC CHARGES
-----------------------
   0 C :   -0.308328
   1 C :   -0.005047
   2 O :   -0.375916
   3 P :    0.617970
   4 S :   -0.315949
   5 O :   -0.360350
   6 C :   -0.012977
   7 C :   -0.292830
   8 S :   -0.098216
   9 C :   -0.360547
  10 S :   -0.085769
  11 P :    0.607010
  12 S :   -0.324157
  13 O :   -0.358260
  14 C :   -0.021224
  15 C :   -0.313612
  16 O :   -0.371579
  17 C :   -0.011588
  18 C :   -0.294273
  19 H :    0.119968
  20 H :    0.125107
  21 H :    0.109459
  22 H :    0.106604
  23 H :    0.110003
  24 H :    0.123633
  25 H :    0.099534
  26 H :    0.122289
  27 H :    0.108637
  28 H :    0.111745
  29 H :    0.180604
  30 H :    0.213724
  31 H :    0.103776
  32 H :    0.138062
  33 H :    0.115979
  34 H :    0.108783
  35 H :    0.124197
  36 H :    0.104099
  37 H :    0.107951
  38 H :    0.130218
  39 H :    0.107816
  40 H :    0.113454
Sum of atomic charges:    0.0000000

LOEWDIN ATOMIC CHARGES
----------------------
   0 C :   -0.369307
   1 C :   -0.115830
   2 O :   -0.245930
   3 P :    0.574908
   4 S :   -0.301586
   5 O :   -0.238113
   6 C :   -0.121545
   7 C :   -0.364589
   8 S :    0.080656
   9 C :   -0.479061
  10 S :    0.084365
  11 P :    0.563845
  12 S :   -0.304518
  13 O :   -0.235249
  14 C :   -0.116413
  15 C :   -0.368154
  16 O :   -0.245128
  17 C :   -0.115375
  18 C :   -0.363716
  19 H :    0.119039
  20 H :    0.128879
  21 H :    0.128811
  22 H :    0.120136
  23 H :    0.107856
  24 H :    0.109255
  25 H :    0.113250
  26 H :    0.121868
  27 H :    0.129184
  28 H :    0.124245
  29 H :    0.134987
  30 H :    0.125652
  31 H :    0.119697
  32 H :    0.116385
  33 H :    0.125651
  34 H :    0.128775
  35 H :    0.121085
  36 H :    0.108081
  37 H :    0.119061
  38 H :    0.124835
  39 H :    0.128908
  40 H :    0.125099

  Mayer bond orders larger than 0.100000
B(  0-C ,  1-C ) :   1.1641 B(  0-C , 19-H ) :   0.9349 B(  0-C , 20-H ) :   0.9434
B(  0-C , 21-H ) :   0.9350 B(  1-C ,  2-O ) :   0.9171 B(  1-C , 22-H ) :   0.9342
B(  1-C , 23-H ) :   0.9259 B(  2-O ,  3-P ) :   1.0997 B(  3-P ,  4-S ) :   1.5978
B(  3-P ,  5-O ) :   1.1217 B(  3-P ,  8-S ) :   0.9574 B(  4-S ,  8-S ) :   0.1194
B(  5-O ,  6-C ) :   0.8997 B(  6-C ,  7-C ) :   1.1635 B(  6-C , 24-H ) :   0.9122
B(  6-C , 25-H ) :   0.9304 B(  7-C , 26-H ) :   0.9343 B(  7-C , 27-H ) :   0.9390
B(  7-C , 28-H ) :   0.9453 B(  8-S ,  9-C ) :   0.9915 B(  9-C , 10-S ) :   1.0079
B(  9-C , 29-H ) :   0.9114 B(  9-C , 30-H ) :   0.8460 B( 10-S , 11-P ) :   0.9584
B( 10-S , 12-S ) :   0.1107 B( 11-P , 12-S ) :   1.6116 B( 11-P , 13-O ) :   1.1395
B( 11-P , 16-O ) :   1.1061 B( 13-O , 14-C ) :   0.8988 B( 14-C , 15-C ) :   1.1619
B( 14-C , 31-H ) :   0.9343 B( 14-C , 32-H ) :   0.9092 B( 15-C , 33-H ) :   0.9445
B( 15-C , 34-H ) :   0.9385 B( 15-C , 35-H ) :   0.9317 B( 16-O , 17-C ) :   0.9048
B( 17-C , 18-C ) :   1.1680 B( 17-C , 36-H ) :   0.9161 B( 17-C , 37-H ) :   0.9360
B( 18-C , 38-H ) :   0.9309 B( 18-C , 39-H ) :   0.9394 B( 18-C , 40-H ) :   0.9467

Dispersion correction           -0.067503592
FINAL SINGLE POINT ENERGY     -2929.520516228857

DIPOLE MOMENT
-------------

Method             : SCF
Type of density    : Electron Density
Multiplicity       :   1
Irrep              :   0
Energy             : -2929.6384942546251295 Eh
Relativity type    :
Basis              : AO
                                X                 Y                 Z
Electronic contribution:      0.155460274     -11.984523458      -6.676670465
Nuclear contribution   :     -0.162387647      11.698119682       7.361860007
                        -----------------------------------------
Total Dipole Moment    :     -0.006927373      -0.286403776       0.685189542
                        -----------------------------------------
Magnitude (a.u.)       :      0.742670734
Magnitude (Debye)      :      1.887718987

Rotational constants in cm-1:             0.012939             0.005277             0.004786
Rotational constants in MHz :           387.899003           158.188773           143.487293

                             ****ORCA TERMINATED NORMALLY****
TOTAL RUN TIME: 0 days 0 hours 0 minutes 21 seconds 389 msec
