                         Program Version 6.0.0  -   RELEASE  -
|  1> ! pbe def2-sv(p) def2/J RI DEFGRID1 loosescf d4 GCP(DFT/SV(P)) printgap
|  2> %output
|  3>     printlevel normal
|  4> end
|  5> * xyz 0 1
|  6> C 4.5707785109 0.6296706231 -1.9641754596
|  7> C 4.6680745424 0.0529442605 -0.5678707681
|  8> O 3.602958226 0.4976226323 0.2934874889
|  9> P 2.0548714016 0.3269934216 -0.0078183132
| 10> S 1.1955761336 1.589349868 -1.2427535608
| 11> O 1.4300663151 0.5193874129 1.4284483879
| 12> C 1.9955982671 0.0596714945 2.6847171081
| 13> C 1.9548663068 -1.4478505575 2.8286513587
| 14> S 1.8924430975 -1.7120429771 -0.5966002234
| 15> C 0.1587205022 -1.6800160201 -1.0803386569
| 16> S -0.9619986107 -1.4204512102 0.3321849705
| 17> P -2.0783829838 0.2559735767 -0.3499657506
| 18> S -2.1148464578 0.5135038235 -2.2869507051
| 19> O -1.5719138456 1.508757117 0.4583546059
| 20> C -1.5430636444 1.5642797471 1.9058111241
| 21> C -2.7699391928 2.2683090099 2.4463976799
| 22> O -3.509368817 0.0144751438 0.3072309842
| 23> C -4.4859305279 -0.8784474964 -0.261770652
| 24> C -4.4276175509 -2.2510445748 0.3802990602
| 25> H 5.4332538577 0.3192656396 -2.5449775156
| 26> H 3.6653740295 0.2751593436 -2.4551886948
| 27> H 4.5328647054 1.7158793232 -1.9255438688
| 28> H 5.5697274002 0.3953186974 -0.056944023
| 29> H 4.6477605517 -1.0397186741 -0.5991427842
| 30> H 3.0165441422 0.4373816597 2.7572559389
| 31> H 1.3649245545 0.5471169703 3.4301182853
| 32> H 0.9547736489 -1.8220422141 2.6209367683
| 33> H 2.6546263347 -1.9207934856 2.1439839366
| 34> H 2.2280617661 -1.7080635206 3.84651739
| 35> H -0.054368591 -2.655631054 -1.5096831707
| 36> H -0.0153007915 -0.8819824247 -1.8079818638
| 37> H -1.4633053198 0.5452542908 2.2956759061
| 38> H -0.6296760267 2.1183584292 2.1324260509
| 39> H -3.6657508158 1.7011940646 2.2091986813
| 40> H -2.6767741915 2.3621091438 3.5238842161
| 41> H -2.8538164885 3.2576963462 2.0048019277
| 42> H -5.443921294 -0.3929786935 -0.0658226683
| 43> H -4.3234265939 -0.9319488365 -1.3433419584
| 44> H -3.4847727856 -2.7430448057 0.156357957
| 45> H -4.5287110091 -2.1624271608 1.4582485114
| 46> H -5.2426852356 -2.8535957152 -0.0074591684
| 47> *
| 48>
| 49>                          ****END OF INPUT****

CARTESIAN COORDINATES (ANGSTROEM)
---------------------------------
  C      4.570779    0.629671   -1.964175
  C      4.668075    0.052944   -0.567871
  O      3.602958    0.497623    0.293487
  P      2.054871    0.326993   -0.007818
  S      1.195576    1.589350   -1.242754
  O      1.430066    0.519387    1.428448
  C      1.995598    0.059671    2.684717
  C      1.954866   -1.447851    2.828651
  S      1.892443   -1.712043   -0.596600
  C      0.158721   -1.680016   -1.080339
  S     -0.961999   -1.420451    0.332185
  P     -2.078383    0.255974   -0.349966
  S     -2.114846    0.513504   -2.286951
  O     -1.571914    1.508757    0.458355
  C     -1.543064    1.564280    1.905811
  C     -2.769939    2.268309    2.446398
  O     -3.509369    0.014475    0.307231
  C     -4.485931   -0.878447   -0.261771
  C     -4.427618   -2.251045    0.380299
  H      5.433254    0.319266   -2.544978
  H      3.665374    0.275159   -2.455189
  H      4.532865    1.715879   -1.925544
  H      5.569727    0.395319   -0.056944
  H      4.647761   -1.039719   -0.599143
  H      3.016544    0.437382    2.757256
  H      1.364925    0.547117    3.430118
  H      0.954774   -1.822042    2.620937
  H      2.654626   -1.920793    2.143984
  H      2.228062   -1.708064    3.846517
  H     -0.054369   -2.655631   -1.509683
  H     -0.015301   -0.881982   -1.807982
  H     -1.463305    0.545254    2.295676
  H     -0.629676    2.118358    2.132426
  H     -3.665751    1.701194    2.209199
  H     -2.676774    2.362109    3.523884
  H     -2.853816    3.257696    2.004802
  H     -5.443921   -0.392979   -0.065823
  H     -4.323427   -0.931949   -1.343342
  H     -3.484773   -2.743045    0.156358
  H     -4.528711   -2.162427    1.458249
  H     -5.242685   -2.853596   -0.007459

 Total Charge           Charge          ....    0
 Multiplicity           Mult            ....    1
 Number of Electrons    NEL             ....  202
 Basis Dimension        Dim             ....  334

ORBITAL ENERGIES
----------------

  NO   OCC          E(Eh)            E(eV)
   0   2.0000     -88.044523     -2395.8133
   1   2.0000     -88.039876     -2395.6868
   2   2.0000     -87.977784     -2393.9972
   3   2.0000     -87.973977     -2393.8936
   4   2.0000     -76.423825     -2079.5980
   5   2.0000     -76.420038     -2079.4950
   6   2.0000     -18.796716      -511.4846
   7   2.0000     -18.789139      -511.2785
   8   2.0000     -18.788749      -511.2679
   9   2.0000     -18.782192      -511.0894
  10   2.0000      -9.961701      -271.0717
  11   2.0000      -9.957584      -270.9596
  12   2.0000      -9.953140      -270.8387
  13   2.0000      -9.948879      -270.7228
  14   2.0000      -9.948604      -270.7153
  15   2.0000      -9.887836      -269.0617
  16   2.0000      -9.882914      -268.9278
  17   2.0000      -9.882648      -268.9205
  18   2.0000      -9.880754      -268.8690
  19   2.0000      -7.689486      -209.2416
  20   2.0000      -7.684421      -209.1037
  21   2.0000      -7.623053      -207.4338
  22   2.0000      -7.618898      -207.3207
  23   2.0000      -6.420823      -174.7195
  24   2.0000      -6.417562      -174.6307
  25   2.0000      -5.717245      -155.5742
  26   2.0000      -5.713860      -155.4820
  27   2.0000      -5.712236      -155.4378
  28   2.0000      -5.708848      -155.3457
  29   2.0000      -5.706734      -155.2881
  30   2.0000      -5.701537      -155.1467
  31   2.0000      -5.652138      -153.8025
  32   2.0000      -5.648069      -153.6918
  33   2.0000      -5.643440      -153.5658
  34   2.0000      -5.643212      -153.5596
  35   2.0000      -5.639488      -153.4583
  36   2.0000      -5.638880      -153.4417
  37   2.0000      -4.643875      -126.3663
  38   2.0000      -4.642818      -126.3375
  39   2.0000      -4.640644      -126.2783
  40   2.0000      -4.640328      -126.2698
  41   2.0000      -4.639281      -126.2412
  42   2.0000      -4.637894      -126.2035
  43   2.0000      -0.989310       -26.9205
  44   2.0000      -0.981979       -26.7210
  45   2.0000      -0.944583       -25.7034
  46   2.0000      -0.937628       -25.5142
  47   2.0000      -0.761835       -20.7306
  48   2.0000      -0.718829       -19.5603
  49   2.0000      -0.709843       -19.3158
  50   2.0000      -0.692588       -18.8463
  51   2.0000      -0.686242       -18.6736
  52   2.0000      -0.676605       -18.4114
  53   2.0000      -0.646822       -17.6009
  54   2.0000      -0.630220       -17.1491
  55   2.0000      -0.591951       -16.1078
  56   2.0000      -0.586285       -15.9536
  57   2.0000      -0.582238       -15.8435
  58   2.0000      -0.569012       -15.4836
  59   2.0000      -0.561259       -15.2726
  60   2.0000      -0.502573       -13.6757
  61   2.0000      -0.495813       -13.4918
  62   2.0000      -0.473869       -12.8946
  63   2.0000      -0.472474       -12.8567
  64   2.0000      -0.452821       -12.3219
  65   2.0000      -0.445739       -12.1292
  66   2.0000      -0.440886       -11.9971
  67   2.0000      -0.434741       -11.8299
  68   2.0000      -0.431227       -11.7343
  69   2.0000      -0.421497       -11.4695
  70   2.0000      -0.410823       -11.1791
  71   2.0000      -0.403831       -10.9888
  72   2.0000      -0.387850       -10.5539
  73   2.0000      -0.385816       -10.4986
  74   2.0000      -0.382578       -10.4105
  75   2.0000      -0.365293        -9.9401
  76   2.0000      -0.356090        -9.6897
  77   2.0000      -0.356000        -9.6873
  78   2.0000      -0.352851        -9.6016
  79   2.0000      -0.351193        -9.5565
  80   2.0000      -0.346741        -9.4353
  81   2.0000      -0.342215        -9.3121
  82   2.0000      -0.341113        -9.2822
  83   2.0000      -0.338781        -9.2187
  84   2.0000      -0.331299        -9.0151
  85   2.0000      -0.323717        -8.8088
  86   2.0000      -0.312902        -8.5145
  87   2.0000      -0.298619        -8.1258
  88   2.0000      -0.293831        -7.9955
  89   2.0000      -0.288694        -7.8558
  90   2.0000      -0.286196        -7.7878
  91   2.0000      -0.278241        -7.5713
  92   2.0000      -0.266881        -7.2622
  93   2.0000      -0.261653        -7.1199
  94   2.0000      -0.255492        -6.9523
  95   2.0000      -0.233701        -6.3593
  96   2.0000      -0.218333        -5.9412
  97   2.0000      -0.208158        -5.6643
  98   2.0000      -0.194900        -5.3035
  99   2.0000      -0.185107        -5.0370
 100   2.0000      -0.180297        -4.9061
 101   0.0000      -0.042024        -1.1435
 102   0.0000      -0.029898        -0.8136
 103   0.0000      -0.009467        -0.2576
 104   0.0000       0.008477         0.2307
 105   0.0000       0.020166         0.5488

MULLIKEN ATOMIC CHARGES
-----------------------
   0 C :   -0.307700
   1 C :   -0.015070
   2 O :   -0.383124
   3 P :    0.595103
   4 S :   -0.277047
   5 O :   -0.354021
   6 C :    0.000124
   7 C :   -0.318876
   8 S :   -0.128182
   9 C :   -0.341257
  10 S :   -0.126609
  11 P :    0.611784
  12 S :   -0.290127
  13 O :   -0.340111
  14 C :   -0.022576
  15 C :   -0.280923
  16 O :   -0.385118
  17 C :   -0.003119
  18 C :   -0.300179
  19 H :    0.110884
  20 H :    0.130225
  21 H :    0.127503
  22 H :    0.109158
  23 H :    0.113838
  24 H :    0.110916
  25 H :    0.102226
  26 H :    0.130341
  27 H :    0.120960
  28 H :    0.110181
  29 H :    0.178729
  30 H :    0.212364
  31 H :    0.097365
  32 H :    0.119509
  33 H :    0.119089
  34 H :    0.103230
  35 H :    0.121091
  36 H :    0.105260
  37 H :    0.103166
  38 H :    0.122790
  39 H :    0.108792
  40 H :    0.109409
Sum of atomic charges:   -0.0000000

LOEWDIN ATOMIC CHARGES
----------------------
   0 C :   -0.368938
   1 C :   -0.114785
   2 O :   -0.246173
   3 P :    0.558208
   4 S :   -0.285599
   5 O :   -0.233971
   6 C :   -0.109669
   7 C :   -0.371663
   8 S :    0.066835
   9 C :   -0.479624
  10 S :    0.065527
  11 P :    0.571207
  12 S :   -0.292517
  13 O :   -0.223008
  14 C :   -0.113692
  15 C :   -0.359999
  16 O :   -0.250103
  17 C :   -0.119635
  18 C :   -0.366256
  19 H :    0.129998
  20 H :    0.123387
  21 H :    0.131551
  22 H :    0.120992
  23 H :    0.107312
  24 H :    0.114067
  25 H :    0.116562
  26 H :    0.122967
  27 H :    0.116676
  28 H :    0.129432
  29 H :    0.135940
  30 H :    0.126157
  31 H :    0.100257
  32 H :    0.121817
  33 H :    0.124798
  34 H :    0.126577
  35 H :    0.129809
  36 H :    0.118257
  37 H :    0.106850
  38 H :    0.117774
  39 H :    0.123153
  40 H :    0.129521

  Mayer bond orders larger than 0.100000
B(  0-C ,  1-C ) :   1.1669 B(  0-C , 19-H ) :   0.9347 B(  0-C , 20-H ) :   0.9305
B(  0-C , 21-H ) :   0.9433 B(  1-C ,  2-O ) :   0.9126 B(  1-C , 22-H ) :   0.9334
B(  1-C , 23-H ) :   0.9256 B(  2-O ,  3-P ) :   1.0759 B(  3-P ,  4-S ) :   1.6829
B(  3-P ,  5-O ) :   1.1172 B(  3-P ,  8-S ) :   0.9234 B(  4-S ,  8-S ) :   0.1094
B(  5-O ,  6-C ) :   0.9008 B(  6-C ,  7-C ) :   1.1709 B(  6-C , 24-H ) :   0.9268
B(  6-C , 25-H ) :   0.9321 B(  7-C , 26-H ) :   0.9385 B(  7-C , 27-H ) :   0.9389
B(  7-C , 28-H ) :   0.9356 B(  8-S ,  9-C ) :   1.0072 B(  9-C , 10-S ) :   0.9965
B(  9-C , 29-H ) :   0.9107 B(  9-C , 30-H ) :   0.8407 B( 10-S , 11-P ) :   0.9441
B( 10-S , 12-S ) :   0.1130 B( 11-P , 12-S ) :   1.6466 B( 11-P , 13-O ) :   1.1474
B( 11-P , 16-O ) :   1.0697 B( 13-O , 14-C ) :   0.8967 B( 14-C , 15-C ) :   1.1560
B( 14-C , 31-H ) :   0.9159 B( 14-C , 32-H ) :   0.9282 B( 15-C , 33-H ) :   0.9402
B( 15-C , 34-H ) :   0.9402 B( 15-C , 35-H ) :   0.9463 B( 16-O , 17-C ) :   0.9067
B( 17-C , 18-C ) :   1.1667 B( 17-C , 36-H ) :   0.9356 B( 17-C , 37-H ) :   0.9029
B( 18-C , 38-H ) :   0.9341 B( 18-C , 39-H ) :   0.9489 B( 18-C , 40-H ) :   0.9398

Dispersion correction           -0.067942609
FINAL SINGLE POINT ENERGY     -2929.510624056147

DIPOLE MOMENT
-------------

Method             : SCF
Type of density    : Electron Density
Multiplicity       :   1
Irrep              :   0
Energy             : -2929.6291873607015077 Eh
Relativity type    :
Basis              : AO
                                X                 Y                 Z
Electronic contribution:      0.914415784       4.378290030     -13.987378858
Nuclear contribution   :     -0.275177430      -5.554759669      15.724139997
                        -----------------------------------------
Total Dipole Moment    :      0.639238354      -1.176469639       1.736761139
                        -----------------------------------------
Magnitude (a.u.)       :      2.192953656
Magnitude (Debye)      :      5.574045217

Rotational constants in cm-1:             0.012660             0.005342             0.005098
Rotational constants in MHz :           379.527081           160.152061           152.819429

                             ****ORCA TERMINATED NORMALLY****
TOTAL RUN TIME: 0 days 0 hours 0 minutes 21 seconds 623 msec
