                         Program Version 6.0.0  -   RELEASE  -
|  1> ! pbe def2-sv(p) def2/J RI DEFGRID1 loosescf d4 GCP(DFT/SV(P)) printgap
|  2> %output
|  3>     printlevel normal
|  4> end
|  5> * xyz 0 1
|  6> C 4.2678959468 -0.5302588317 -2.1591295744
|  7> C 4.4747168405 -0.2561340003 -0.6832294282
|  8> O 3.3669151095 -0.700061495 0.1166823813
|  9> P 1.9209561151 -0.022537181 0.0484662855
| 10> S 2.0169042682 1.9322216977 -0.1367404995
| 11> O 1.2944586363 -0.6063178301 1.3795237171
| 12> C 1.6263773456 -0.0501815071 2.6684077222
| 13> C 0.5570684961 -0.4744259254 3.6534891654
| 14> S 0.9062818441 -1.1168279303 -1.4271908951
| 15> C -0.079407529 0.2116930097 -2.1835457377
| 16> S -1.8788580367 0.0710044038 -1.9515070106
| 17> P -2.0260724828 0.0419101438 0.1649026362
| 18> S -3.8189553312 0.30822571 0.9018600437
| 19> O -0.9055917702 1.0615952375 0.6575960994
| 20> C -1.2609264175 2.4140191195 1.0050560837
| 21> C -1.5578395195 3.2596962088 -0.2167214369
| 22> O -1.3021349744 -1.2888563798 0.6377267137
| 23> C -2.0076301058 -2.5358549896 0.7597261032
| 24> C -2.3733534677 -3.1223223612 -0.5897490685
| 25> H 5.1824565225 -0.3003082267 -2.696264723
| 26> H 4.0077551952 -1.5737854392 -2.3171636952
| 27> H 3.4652350649 0.0957861701 -2.5460867378
| 28> H 4.618705759 0.8150846574 -0.5080123622
| 29> H 5.3238099366 -0.8134378247 -0.2851632679
| 30> H 2.6112756318 -0.4267567395 2.9579283301
| 31> H 1.6742903906 1.0408573252 2.5764101823
| 32> H 0.5331872409 -1.5572622552 3.7330819268
| 33> H 0.7733057171 -0.0440007361 4.6259753625
| 34> H -0.4173495858 -0.1292595146 3.3152739409
| 35> H 0.0558903902 0.1519881082 -3.2606186719
| 36> H 0.2760879409 1.1682547465 -1.7940396334
| 37> H -2.1278244268 2.3815281848 1.6724080555
| 38> H -0.3893475216 2.7906392409 1.5430312025
| 39> H -2.4020616031 2.8420313575 -0.7646975278
| 40> H -1.807888423 4.2662191201 0.1029114626
| 41> H -0.6881071135 3.3029007479 -0.8683127116
| 42> H -1.3087898473 -3.1769718594 1.2992776861
| 43> H -2.9040948679 -2.368402877 1.3660741204
| 44> H -1.4904797885 -3.196006807 -1.2209955484
| 45> H -2.7958109752 -4.1115888154 -0.445309139
| 46> H -3.111384503 -2.4921797087 -1.0851193645
| 47> *
| 48>
| 49>                          ****END OF INPUT****

CARTESIAN COORDINATES (ANGSTROEM)
---------------------------------
  C      4.267896   -0.530259   -2.159130
  C      4.474717   -0.256134   -0.683229
  O      3.366915   -0.700061    0.116682
  P      1.920956   -0.022537    0.048466
  S      2.016904    1.932222   -0.136740
  O      1.294459   -0.606318    1.379524
  C      1.626377   -0.050182    2.668408
  C      0.557068   -0.474426    3.653489
  S      0.906282   -1.116828   -1.427191
  C     -0.079408    0.211693   -2.183546
  S     -1.878858    0.071004   -1.951507
  P     -2.026072    0.041910    0.164903
  S     -3.818955    0.308226    0.901860
  O     -0.905592    1.061595    0.657596
  C     -1.260926    2.414019    1.005056
  C     -1.557840    3.259696   -0.216721
  O     -1.302135   -1.288856    0.637727
  C     -2.007630   -2.535855    0.759726
  C     -2.373353   -3.122322   -0.589749
  H      5.182457   -0.300308   -2.696265
  H      4.007755   -1.573785   -2.317164
  H      3.465235    0.095786   -2.546087
  H      4.618706    0.815085   -0.508012
  H      5.323810   -0.813438   -0.285163
  H      2.611276   -0.426757    2.957928
  H      1.674290    1.040857    2.576410
  H      0.533187   -1.557262    3.733082
  H      0.773306   -0.044001    4.625975
  H     -0.417350   -0.129260    3.315274
  H      0.055890    0.151988   -3.260619
  H      0.276088    1.168255   -1.794040
  H     -2.127824    2.381528    1.672408
  H     -0.389348    2.790639    1.543031
  H     -2.402062    2.842031   -0.764698
  H     -1.807888    4.266219    0.102911
  H     -0.688107    3.302901   -0.868313
  H     -1.308790   -3.176972    1.299278
  H     -2.904095   -2.368403    1.366074
  H     -1.490480   -3.196007   -1.220996
  H     -2.795811   -4.111589   -0.445309
  H     -3.111385   -2.492180   -1.085119

 Total Charge           Charge          ....    0
 Multiplicity           Mult            ....    1
 Number of Electrons    NEL             ....  202
 Basis Dimension        Dim             ....  334

ORBITAL ENERGIES
----------------

  NO   OCC          E(Eh)            E(eV)
   0   2.0000     -88.049967     -2395.9614
   1   2.0000     -88.043447     -2395.7840
   2   2.0000     -87.992994     -2394.4111
   3   2.0000     -87.987264     -2394.2552
   4   2.0000     -76.429006     -2079.7390
   5   2.0000     -76.424612     -2079.6194
   6   2.0000     -18.793281      -511.3912
   7   2.0000     -18.789833      -511.2974
   8   2.0000     -18.787107      -511.2232
   9   2.0000     -18.784275      -511.1461
  10   2.0000      -9.960280      -271.0330
  11   2.0000      -9.952294      -270.8157
  12   2.0000      -9.950794      -270.7749
  13   2.0000      -9.948277      -270.7064
  14   2.0000      -9.945235      -270.6236
  15   2.0000      -9.885689      -269.0033
  16   2.0000      -9.883367      -268.9401
  17   2.0000      -9.879989      -268.8482
  18   2.0000      -9.876702      -268.7587
  19   2.0000      -7.694956      -209.3904
  20   2.0000      -7.688467      -209.2138
  21   2.0000      -7.637778      -207.8345
  22   2.0000      -7.632426      -207.6889
  23   2.0000      -6.426541      -174.8751
  24   2.0000      -6.422177      -174.7563
  25   2.0000      -5.722851      -155.7267
  26   2.0000      -5.719573      -155.6375
  27   2.0000      -5.716688      -155.5590
  28   2.0000      -5.712640      -155.4488
  29   2.0000      -5.711693      -155.4231
  30   2.0000      -5.705447      -155.2531
  31   2.0000      -5.666497      -154.1932
  32   2.0000      -5.661350      -154.0532
  33   2.0000      -5.658743      -153.9822
  34   2.0000      -5.657747      -153.9551
  35   2.0000      -5.653031      -153.8268
  36   2.0000      -5.652597      -153.8150
  37   2.0000      -4.648847      -126.5016
  38   2.0000      -4.648119      -126.4817
  39   2.0000      -4.647423      -126.4628
  40   2.0000      -4.644533      -126.3842
  41   2.0000      -4.644281      -126.3773
  42   2.0000      -4.642480      -126.3283
  43   2.0000      -0.987518       -26.8717
  44   2.0000      -0.983308       -26.7572
  45   2.0000      -0.942706       -25.6523
  46   2.0000      -0.941996       -25.6330
  47   2.0000      -0.764874       -20.8133
  48   2.0000      -0.721258       -19.6264
  49   2.0000      -0.707322       -19.2472
  50   2.0000      -0.687114       -18.6973
  51   2.0000      -0.680003       -18.5038
  52   2.0000      -0.677663       -18.4401
  53   2.0000      -0.654572       -17.8118
  54   2.0000      -0.640542       -17.4300
  55   2.0000      -0.601945       -16.3798
  56   2.0000      -0.593363       -16.1462
  57   2.0000      -0.571239       -15.5442
  58   2.0000      -0.564829       -15.3698
  59   2.0000      -0.560626       -15.2554
  60   2.0000      -0.504295       -13.7226
  61   2.0000      -0.490431       -13.3453
  62   2.0000      -0.473539       -12.8857
  63   2.0000      -0.463324       -12.6077
  64   2.0000      -0.451729       -12.2922
  65   2.0000      -0.450114       -12.2482
  66   2.0000      -0.440493       -11.9864
  67   2.0000      -0.437398       -11.9022
  68   2.0000      -0.427470       -11.6321
  69   2.0000      -0.417850       -11.3703
  70   2.0000      -0.410979       -11.1833
  71   2.0000      -0.394978       -10.7479
  72   2.0000      -0.392759       -10.6875
  73   2.0000      -0.390960       -10.6386
  74   2.0000      -0.386198       -10.5090
  75   2.0000      -0.374722       -10.1967
  76   2.0000      -0.367662       -10.0046
  77   2.0000      -0.354523        -9.6471
  78   2.0000      -0.352427        -9.5900
  79   2.0000      -0.347872        -9.4661
  80   2.0000      -0.345881        -9.4119
  81   2.0000      -0.341101        -9.2818
  82   2.0000      -0.336604        -9.1595
  83   2.0000      -0.332549        -9.0491
  84   2.0000      -0.329692        -8.9714
  85   2.0000      -0.321214        -8.7407
  86   2.0000      -0.314502        -8.5580
  87   2.0000      -0.300951        -8.1893
  88   2.0000      -0.295918        -8.0523
  89   2.0000      -0.293335        -7.9821
  90   2.0000      -0.281760        -7.6671
  91   2.0000      -0.271075        -7.3763
  92   2.0000      -0.266156        -7.2425
  93   2.0000      -0.261315        -7.1108
  94   2.0000      -0.258626        -7.0376
  95   2.0000      -0.228659        -6.2221
  96   2.0000      -0.223031        -6.0690
  97   2.0000      -0.213453        -5.8084
  98   2.0000      -0.210366        -5.7244
  99   2.0000      -0.203754        -5.5444
 100   2.0000      -0.201447        -5.4816
 101   0.0000      -0.043537        -1.1847
 102   0.0000      -0.032199        -0.8762
 103   0.0000      -0.023218        -0.6318
 104   0.0000       0.000365         0.0099
 105   0.0000       0.012981         0.3532

MULLIKEN ATOMIC CHARGES
-----------------------
   0 C :   -0.310184
   1 C :   -0.002630
   2 O :   -0.381052
   3 P :    0.634946
   4 S :   -0.340540
   5 O :   -0.354231
   6 C :   -0.010511
   7 C :   -0.285072
   8 S :   -0.074780
   9 C :   -0.364441
  10 S :   -0.089068
  11 P :    0.603926
  12 S :   -0.323789
  13 O :   -0.373613
  14 C :   -0.003982
  15 C :   -0.322848
  16 O :   -0.347971
  17 C :   -0.001607
  18 C :   -0.315220
  19 H :    0.112473
  20 H :    0.117902
  21 H :    0.116966
  22 H :    0.109805
  23 H :    0.103722
  24 H :    0.100617
  25 H :    0.104675
  26 H :    0.112990
  27 H :    0.107323
  28 H :    0.131466
  29 H :    0.182082
  30 H :    0.211837
  31 H :    0.112737
  32 H :    0.108343
  33 H :    0.124387
  34 H :    0.109323
  35 H :    0.129272
  36 H :    0.104094
  37 H :    0.109735
  38 H :    0.118654
  39 H :    0.110085
  40 H :    0.124179
Sum of atomic charges:   -0.0000000

LOEWDIN ATOMIC CHARGES
----------------------
   0 C :   -0.369195
   1 C :   -0.121002
   2 O :   -0.251592
   3 P :    0.580939
   4 S :   -0.306199
   5 O :   -0.229947
   6 C :   -0.115279
   7 C :   -0.351607
   8 S :    0.111522
   9 C :   -0.481152
  10 S :    0.080786
  11 P :    0.566106
  12 S :   -0.317175
  13 O :   -0.238664
  14 C :   -0.126014
  15 C :   -0.369080
  16 O :   -0.229408
  17 C :   -0.118208
  18 C :   -0.369525
  19 H :    0.130377
  20 H :    0.124112
  21 H :    0.117962
  22 H :    0.108826
  23 H :    0.117994
  24 H :    0.111127
  25 H :    0.106490
  26 H :    0.125366
  27 H :    0.128655
  28 H :    0.128963
  29 H :    0.139259
  30 H :    0.123014
  31 H :    0.108057
  32 H :    0.114091
  33 H :    0.120109
  34 H :    0.130770
  35 H :    0.122526
  36 H :    0.118185
  37 H :    0.108841
  38 H :    0.120966
  39 H :    0.129202
  40 H :    0.119803

  Mayer bond orders larger than 0.100000
B(  0-C ,  1-C ) :   1.1655 B(  0-C , 19-H ) :   0.9380 B(  0-C , 20-H ) :   0.9442
B(  0-C , 21-H ) :   0.9387 B(  1-C ,  2-O ) :   0.9170 B(  1-C , 22-H ) :   0.9146
B(  1-C , 23-H ) :   0.9338 B(  2-O ,  3-P ) :   1.0925 B(  3-P ,  4-S ) :   1.5714
B(  3-P ,  5-O ) :   1.1476 B(  3-P ,  8-S ) :   0.9818 B(  4-S ,  8-S ) :   0.1159
B(  5-O ,  6-C ) :   0.9011 B(  6-C ,  7-C ) :   1.1624 B(  6-C , 24-H ) :   0.9301
B(  6-C , 25-H ) :   0.9110 B(  7-C , 26-H ) :   0.9496 B(  7-C , 27-H ) :   0.9406
B(  7-C , 28-H ) :   0.9447 B(  8-S ,  9-C ) :   1.0101 B(  9-C , 10-S ) :   0.9836
B(  9-C , 29-H ) :   0.9097 B(  9-C , 30-H ) :   0.8485 B( 10-S , 11-P ) :   0.9631
B( 11-P , 12-S ) :   1.6368 B( 11-P , 13-O ) :   1.0816 B( 11-P , 16-O ) :   1.1064
B( 13-O , 14-C ) :   0.8965 B( 14-C , 15-C ) :   1.1730 B( 14-C , 31-H ) :   0.9128
B( 14-C , 32-H ) :   0.9189 B( 15-C , 33-H ) :   0.9351 B( 15-C , 34-H ) :   0.9382
B( 15-C , 35-H ) :   0.9352 B( 16-O , 17-C ) :   0.9139 B( 17-C , 18-C ) :   1.1643
B( 17-C , 36-H ) :   0.9320 B( 17-C , 37-H ) :   0.9157 B( 18-C , 38-H ) :   0.9426
B( 18-C , 39-H ) :   0.9384 B( 18-C , 40-H ) :   0.9380

Dispersion correction           -0.070508138
FINAL SINGLE POINT ENERGY     -2929.519665801530

DIPOLE MOMENT
-------------

Method             : SCF
Type of density    : Electron Density
Multiplicity       :   1
Irrep              :   0
Energy             : -2929.6377899786339185 Eh
Relativity type    :
Basis              : AO
                                X                 Y                 Z
Electronic contribution:     -7.430727731       0.849175339      -4.966797564
Nuclear contribution   :      8.728110195      -1.326755257       4.993032914
                        -----------------------------------------
Total Dipole Moment    :      1.297382465      -0.477579918       0.026235350
                        -----------------------------------------
Magnitude (a.u.)       :      1.382740804
Magnitude (Debye)      :      3.514647810

Rotational constants in cm-1:             0.011459             0.006115             0.005936
Rotational constants in MHz :           343.534366           183.319426           177.961142

                             ****ORCA TERMINATED NORMALLY****
TOTAL RUN TIME: 0 days 0 hours 0 minutes 22 seconds 994 msec
