                         Program Version 6.0.0  -   RELEASE  -
|  1> ! pbe def2-sv(p) def2/J RI DEFGRID1 loosescf d4 GCP(DFT/SV(P)) printgap
|  2> %output
|  3>     printlevel normal
|  4> end
|  5> * xyz 0 1
|  6> C 3.2051979765 1.7595023926 -2.288198644
|  7> C 3.3314976214 0.2501573442 -2.2571926686
|  8> O 2.3013009265 -0.36488291 -1.4569638599
|  9> P 2.1374417427 -0.1874824359 0.102511729
| 10> S 1.4514581829 1.4859402782 0.8795025654
| 11> O 3.6278788085 -0.5063230981 0.5796887259
| 12> C 4.0997975463 -0.2184841284 1.9048387482
| 13> C 3.4665871974 -1.1234403048 2.9421668044
| 14> S 1.0047972982 -1.9243422144 0.4801962496
| 15> C -0.2835080563 -1.2496266871 1.5848775838
| 16> S -1.959990387 -1.3713522246 0.913396415
| 17> P -1.9676272119 0.2928217829 -0.4165846428
| 18> S -0.7207514599 0.312701762 -1.9243332793
| 19> O -1.7835004037 1.5524784253 0.509626997
| 20> C -2.5958637596 1.8541930459 1.6717291816
| 21> C -3.7498913039 2.7637935634 1.3046248825
| 22> O -3.4997364497 0.3663393816 -0.8383807462
| 23> C -4.0278406251 -0.356826986 -1.963524151
| 24> C -3.9978104033 -1.8557009418 -1.746310763
| 25> H 3.9267641419 2.1706771933 -2.9868509672
| 26> H 2.2004024182 2.0398047666 -2.5992271233
| 27> H 3.3890693129 2.1756733254 -1.2982613358
| 28> H 4.304245159 -0.0582523803 -1.8663873367
| 29> H 3.1696857382 -0.1818991443 -3.2462444052
| 30> H 5.1776209079 -0.3727528771 1.8384711824
| 31> H 3.8850565757 0.8317762767 2.1278848011
| 32> H 3.5728964095 -2.1648853194 2.6495765886
| 33> H 3.9508174622 -0.9648714577 3.9002576347
| 34> H 2.4072731182 -0.8896743031 3.0382855689
| 35> H -0.0446788538 -0.201484483 1.7921171735
| 36> H -0.2904841357 -1.8488396948 2.4913055737
| 37> H -2.9551292731 0.9174456562 2.1068331142
| 38> H -1.9023832162 2.3452816386 2.3577983584
| 39> H -4.4288430208 2.2562398219 0.6249189243
| 40> H -4.2840511176 3.0381130791 2.2089521444
| 41> H -3.3758115007 3.6625606807 0.8218014131
| 42> H -5.0484441621 0.0168785521 -2.0572415986
| 43> H -3.4479724369 -0.084090834 -2.8508848171
| 44> H -4.5239062401 -2.3464364187 -2.5588164089
| 45> H -2.9674982685 -2.2088086071 -1.7308670509
| 46> H -4.4701447688 -2.1113053309 -0.8010892377
| 47> *
| 48>
| 49>                          ****END OF INPUT****

CARTESIAN COORDINATES (ANGSTROEM)
---------------------------------
  C      3.205198    1.759502   -2.288199
  C      3.331498    0.250157   -2.257193
  O      2.301301   -0.364883   -1.456964
  P      2.137442   -0.187482    0.102512
  S      1.451458    1.485940    0.879503
  O      3.627879   -0.506323    0.579689
  C      4.099798   -0.218484    1.904839
  C      3.466587   -1.123440    2.942167
  S      1.004797   -1.924342    0.480196
  C     -0.283508   -1.249627    1.584878
  S     -1.959990   -1.371352    0.913396
  P     -1.967627    0.292822   -0.416585
  S     -0.720751    0.312702   -1.924333
  O     -1.783500    1.552478    0.509627
  C     -2.595864    1.854193    1.671729
  C     -3.749891    2.763794    1.304625
  O     -3.499736    0.366339   -0.838381
  C     -4.027841   -0.356827   -1.963524
  C     -3.997810   -1.855701   -1.746311
  H      3.926764    2.170677   -2.986851
  H      2.200402    2.039805   -2.599227
  H      3.389069    2.175673   -1.298261
  H      4.304245   -0.058252   -1.866387
  H      3.169686   -0.181899   -3.246244
  H      5.177621   -0.372753    1.838471
  H      3.885057    0.831776    2.127885
  H      3.572896   -2.164885    2.649577
  H      3.950817   -0.964871    3.900258
  H      2.407273   -0.889674    3.038286
  H     -0.044679   -0.201484    1.792117
  H     -0.290484   -1.848840    2.491306
  H     -2.955129    0.917446    2.106833
  H     -1.902383    2.345282    2.357798
  H     -4.428843    2.256240    0.624919
  H     -4.284051    3.038113    2.208952
  H     -3.375812    3.662561    0.821801
  H     -5.048444    0.016879   -2.057242
  H     -3.447972   -0.084091   -2.850885
  H     -4.523906   -2.346436   -2.558816
  H     -2.967498   -2.208809   -1.730867
  H     -4.470145   -2.111305   -0.801089

 Total Charge           Charge          ....    0
 Multiplicity           Mult            ....    1
 Number of Electrons    NEL             ....  202
 Basis Dimension        Dim             ....  334

ORBITAL ENERGIES
----------------

  NO   OCC          E(Eh)            E(eV)
   0   2.0000     -88.039781     -2395.6842
   1   2.0000     -88.036055     -2395.5829
   2   2.0000     -87.982828     -2394.1345
   3   2.0000     -87.973498     -2393.8806
   4   2.0000     -76.421247     -2079.5279
   5   2.0000     -76.418494     -2079.4529
   6   2.0000     -18.788017      -511.2479
   7   2.0000     -18.784681      -511.1572
   8   2.0000     -18.784389      -511.1492
   9   2.0000     -18.782841      -511.1071
  10   2.0000      -9.953584      -270.8508
  11   2.0000      -9.950296      -270.7613
  12   2.0000      -9.949291      -270.7340
  13   2.0000      -9.948400      -270.7097
  14   2.0000      -9.948149      -270.7029
  15   2.0000      -9.884010      -268.9576
  16   2.0000      -9.881824      -268.8981
  17   2.0000      -9.881662      -268.8937
  18   2.0000      -9.874880      -268.7092
  19   2.0000      -7.684702      -209.1114
  20   2.0000      -7.681447      -209.0228
  21   2.0000      -7.627622      -207.5581
  22   2.0000      -7.618539      -207.3110
  23   2.0000      -6.418341      -174.6519
  24   2.0000      -6.415990      -174.5880
  25   2.0000      -5.712406      -155.4425
  26   2.0000      -5.709343      -155.3591
  27   2.0000      -5.709091      -155.3523
  28   2.0000      -5.706039      -155.2692
  29   2.0000      -5.701978      -155.1587
  30   2.0000      -5.698247      -155.0572
  31   2.0000      -5.656367      -153.9176
  32   2.0000      -5.648742      -153.7101
  33   2.0000      -5.647578      -153.6784
  34   2.0000      -5.647450      -153.6749
  35   2.0000      -5.638998      -153.4449
  36   2.0000      -5.638730      -153.4376
  37   2.0000      -4.641023      -126.2887
  38   2.0000      -4.639826      -126.2561
  39   2.0000      -4.639024      -126.2343
  40   2.0000      -4.639021      -126.2342
  41   2.0000      -4.637838      -126.2020
  42   2.0000      -4.635948      -126.1506
  43   2.0000      -0.982205       -26.7271
  44   2.0000      -0.981294       -26.7024
  45   2.0000      -0.940486       -25.5919
  46   2.0000      -0.936638       -25.4872
  47   2.0000      -0.757378       -20.6093
  48   2.0000      -0.715863       -19.4796
  49   2.0000      -0.705711       -19.2034
  50   2.0000      -0.686555       -18.6821
  51   2.0000      -0.684048       -18.6139
  52   2.0000      -0.671023       -18.2595
  53   2.0000      -0.646978       -17.6052
  54   2.0000      -0.630524       -17.1574
  55   2.0000      -0.595047       -16.1920
  56   2.0000      -0.585739       -15.9388
  57   2.0000      -0.573782       -15.6134
  58   2.0000      -0.570715       -15.5299
  59   2.0000      -0.555487       -15.1156
  60   2.0000      -0.495956       -13.4957
  61   2.0000      -0.491120       -13.3640
  62   2.0000      -0.470789       -12.8108
  63   2.0000      -0.463723       -12.6185
  64   2.0000      -0.450264       -12.2523
  65   2.0000      -0.446306       -12.1446
  66   2.0000      -0.437869       -11.9150
  67   2.0000      -0.427920       -11.6443
  68   2.0000      -0.424757       -11.5582
  69   2.0000      -0.415007       -11.2929
  70   2.0000      -0.407532       -11.0895
  71   2.0000      -0.405039       -11.0217
  72   2.0000      -0.388367       -10.5680
  73   2.0000      -0.382786       -10.4161
  74   2.0000      -0.377134       -10.2623
  75   2.0000      -0.366789        -9.9808
  76   2.0000      -0.359731        -9.7888
  77   2.0000      -0.354281        -9.6405
  78   2.0000      -0.349976        -9.5233
  79   2.0000      -0.348815        -9.4917
  80   2.0000      -0.343318        -9.3422
  81   2.0000      -0.341104        -9.2819
  82   2.0000      -0.338431        -9.2092
  83   2.0000      -0.331273        -9.0144
  84   2.0000      -0.329398        -8.9634
  85   2.0000      -0.312716        -8.5094
  86   2.0000      -0.308330        -8.3901
  87   2.0000      -0.292655        -7.9636
  88   2.0000      -0.290197        -7.8967
  89   2.0000      -0.286686        -7.8011
  90   2.0000      -0.281883        -7.6704
  91   2.0000      -0.269371        -7.3300
  92   2.0000      -0.265653        -7.2288
  93   2.0000      -0.257065        -6.9951
  94   2.0000      -0.255644        -6.9564
  95   2.0000      -0.235439        -6.4066
  96   2.0000      -0.216420        -5.8891
  97   2.0000      -0.203175        -5.5287
  98   2.0000      -0.200234        -5.4487
  99   2.0000      -0.185351        -5.0437
 100   2.0000      -0.182454        -4.9648
 101   0.0000      -0.032937        -0.8963
 102   0.0000      -0.026924        -0.7326
 103   0.0000      -0.010999        -0.2993
 104   0.0000       0.007776         0.2116
 105   0.0000       0.018924         0.5149

MULLIKEN ATOMIC CHARGES
-----------------------
   0 C :   -0.317306
   1 C :    0.000055
   2 O :   -0.358490
   3 P :    0.630536
   4 S :   -0.314879
   5 O :   -0.381931
   6 C :    0.001051
   7 C :   -0.314716
   8 S :   -0.067698
   9 C :   -0.371086
  10 S :   -0.102324
  11 P :    0.598496
  12 S :   -0.296866
  13 O :   -0.346133
  14 C :   -0.015368
  15 C :   -0.288091
  16 O :   -0.382681
  17 C :    0.001583
  18 C :   -0.327428
  19 H :    0.106472
  20 H :    0.133602
  21 H :    0.125104
  22 H :    0.105929
  23 H :    0.108056
  24 H :    0.100948
  25 H :    0.106903
  26 H :    0.119473
  27 H :    0.110857
  28 H :    0.118085
  29 H :    0.197857
  30 H :    0.181908
  31 H :    0.097687
  32 H :    0.108774
  33 H :    0.121882
  34 H :    0.106607
  35 H :    0.120844
  36 H :    0.102362
  37 H :    0.112137
  38 H :    0.114378
  39 H :    0.135889
  40 H :    0.117522
Sum of atomic charges:   -0.0000000

LOEWDIN ATOMIC CHARGES
----------------------
   0 C :   -0.367464
   1 C :   -0.108989
   2 O :   -0.228816
   3 P :    0.570959
   4 S :   -0.296426
   5 O :   -0.252135
   6 C :   -0.121862
   7 C :   -0.367743
   8 S :    0.091070
   9 C :   -0.487735
  10 S :    0.075320
  11 P :    0.564023
  12 S :   -0.302149
  13 O :   -0.227475
  14 C :   -0.117112
  15 C :   -0.359788
  16 O :   -0.249236
  17 C :   -0.118886
  18 C :   -0.373446
  19 H :    0.127382
  20 H :    0.133237
  21 H :    0.121056
  22 H :    0.110851
  23 H :    0.121399
  24 H :    0.116561
  25 H :    0.106867
  26 H :    0.125767
  27 H :    0.129628
  28 H :    0.118044
  29 H :    0.119653
  30 H :    0.135133
  31 H :    0.100862
  32 H :    0.119764
  33 H :    0.125894
  34 H :    0.128228
  35 H :    0.129194
  36 H :    0.117067
  37 H :    0.112140
  38 H :    0.131942
  39 H :    0.124668
  40 H :    0.122553

  Mayer bond orders larger than 0.100000
B(  0-C ,  1-C ) :   1.1653 B(  0-C , 19-H ) :   0.9369 B(  0-C , 20-H ) :   0.9426
B(  0-C , 21-H ) :   0.9364 B(  1-C ,  2-O ) :   0.9073 B(  1-C , 22-H ) :   0.9281
B(  1-C , 23-H ) :   0.9345 B(  2-O ,  3-P ) :   1.1411 B(  3-P ,  4-S ) :   1.5878
B(  3-P ,  5-O ) :   1.0676 B(  3-P ,  8-S ) :   0.9657 B(  4-S ,  8-S ) :   0.1230
B(  4-S , 29-H ) :   0.1162 B(  5-O ,  6-C ) :   0.9225 B(  6-C ,  7-C ) :   1.1640
B(  6-C , 24-H ) :   0.9332 B(  6-C , 25-H ) :   0.9110 B(  7-C , 26-H ) :   0.9438
B(  7-C , 27-H ) :   0.9384 B(  7-C , 28-H ) :   0.9385 B(  8-S ,  9-C ) :   1.0039
B(  9-C , 10-S ) :   0.9934 B(  9-C , 29-H ) :   0.8439 B(  9-C , 30-H ) :   0.9092
B( 10-S , 11-P ) :   0.9463 B( 10-S , 12-S ) :   0.1113 B( 11-P , 12-S ) :   1.6699
B( 11-P , 13-O ) :   1.1353 B( 11-P , 16-O ) :   1.0718 B( 13-O , 14-C ) :   0.8979
B( 14-C , 15-C ) :   1.1680 B( 14-C , 31-H ) :   0.9071 B( 14-C , 32-H ) :   0.9329
B( 15-C , 33-H ) :   0.9411 B( 15-C , 34-H ) :   0.9396 B( 15-C , 35-H ) :   0.9475
B( 16-O , 17-C ) :   0.9081 B( 17-C , 18-C ) :   1.1655 B( 17-C , 36-H ) :   0.9334
B( 17-C , 37-H ) :   0.9151 B( 18-C , 38-H ) :   0.9375 B( 18-C , 39-H ) :   0.9329
B( 18-C , 40-H ) :   0.9428

Dispersion correction           -0.067237957
FINAL SINGLE POINT ENERGY     -2929.515005402034

DIPOLE MOMENT
-------------

Method             : SCF
Type of density    : Electron Density
Multiplicity       :   1
Irrep              :   0
Energy             : -2929.6327454008328459 Eh
Relativity type    :
Basis              : AO
                                X                 Y                 Z
Electronic contribution:      1.679626434      -5.807484583      -3.227859290
Nuclear contribution   :     -1.782640737       5.613602823       3.970016845
                        -----------------------------------------
Total Dipole Moment    :     -0.103014303      -0.193881760       0.742157555
                        -----------------------------------------
Magnitude (a.u.)       :      0.773950851
Magnitude (Debye)      :      1.967226726

Rotational constants in cm-1:             0.012123             0.005237             0.004992
Rotational constants in MHz :           363.439534           157.011863           149.644083

                             ****ORCA TERMINATED NORMALLY****
TOTAL RUN TIME: 0 days 0 hours 0 minutes 21 seconds 331 msec
