                         Program Version 6.0.0  -   RELEASE  -
|  1> ! r2scan-3c def2/J RI DEFGRID2 scfconv6 printgap
|  2> %output
|  3>     printlevel normal
|  4> end
|  5> * xyz 0 1
|  6> C 4.16044e-05 -2.5736893382 -2.47835e-05
|  7> C 1.2025604044 -1.8882338772 -2.52055e-05
|  8> C 1.1999367723 -0.5026069547 -4.2789e-05
|  9> C 1.1147e-06 0.2030710728 2.1943e-06
| 10> C -1.1999208703 -0.5026287114 3.04524e-05
| 11> C -1.2025043965 -1.8882650547 2.7411e-05
| 12> Cl -2.6950945327 0.3653877378 -1.2938e-06
| 13> Cl -3.08378e-05 1.9332833672 -8.0305e-06
| 14> Cl 2.6950829828 0.365433905 1.63665e-05
| 15> H 6.1066e-05 -3.6508885865 7.60392e-05
| 16> H 2.1427860716 -2.4135311894 6.27318e-05
| 17> H -2.142722141 -2.4135858244 3.427e-06
| 18> *
| 19>
| 20>                          ****END OF INPUT****

CARTESIAN COORDINATES (ANGSTROEM)
---------------------------------
  C      0.000042   -2.573689   -0.000025
  C      1.202560   -1.888234   -0.000025
  C      1.199937   -0.502607   -0.000043
  C      0.000001    0.203071    0.000002
  C     -1.199921   -0.502629    0.000030
  C     -1.202504   -1.888265    0.000027
  Cl    -2.695095    0.365388   -0.000001
  Cl    -0.000031    1.933283   -0.000008
  Cl     2.695083    0.365434    0.000016
  H      0.000061   -3.650889    0.000076
  H      2.142786   -2.413531    0.000063
  H     -2.142722   -2.413586    0.000003

 Total Charge           Charge          ....    0
 Multiplicity           Mult            ....    1
 Number of Electrons    NEL             ....   90
 Basis Dimension        Dim             ....  210

ORBITAL ENERGIES
----------------

  NO   OCC          E(Eh)            E(eV)
   0   2.0000    -101.234754     -2754.7377
   1   2.0000    -101.234752     -2754.7377
   2   2.0000    -101.234654     -2754.7350
   3   2.0000     -10.127948      -275.5955
   4   2.0000     -10.126744      -275.5627
   5   2.0000     -10.126664      -275.5605
   6   2.0000     -10.068779      -273.9854
   7   2.0000     -10.068524      -273.9785
   8   2.0000     -10.068098      -273.9669
   9   2.0000      -9.390586      -255.5308
  10   2.0000      -9.390584      -255.5308
  11   2.0000      -9.390271      -255.5223
  12   2.0000      -7.137066      -194.2094
  13   2.0000      -7.137066      -194.2094
  14   2.0000      -7.136972      -194.2069
  15   2.0000      -7.126870      -193.9320
  16   2.0000      -7.126870      -193.9320
  17   2.0000      -7.126575      -193.9240
  18   2.0000      -7.126086      -193.9107
  19   2.0000      -7.126086      -193.9107
  20   2.0000      -7.125558      -193.8963
  21   2.0000      -0.910056       -24.7639
  22   2.0000      -0.858290       -23.3552
  23   2.0000      -0.831079       -22.6148
  24   2.0000      -0.809082       -22.0162
  25   2.0000      -0.720692       -19.6110
  26   2.0000      -0.719842       -19.5879
  27   2.0000      -0.598112       -16.2755
  28   2.0000      -0.597828       -16.2677
  29   2.0000      -0.509863       -13.8741
  30   2.0000      -0.484880       -13.1943
  31   2.0000      -0.458139       -12.4666
  32   2.0000      -0.430853       -11.7241
  33   2.0000      -0.430338       -11.7101
  34   2.0000      -0.418365       -11.3843
  35   2.0000      -0.372298       -10.1307
  36   2.0000      -0.370485       -10.0814
  37   2.0000      -0.354686        -9.6515
  38   2.0000      -0.331163        -9.0114
  39   2.0000      -0.314318        -8.5530
  40   2.0000      -0.310611        -8.4522
  41   2.0000      -0.303837        -8.2678
  42   2.0000      -0.279261        -7.5991
  43   2.0000      -0.244542        -6.6543
  44   2.0000      -0.243611        -6.6290
  45   0.0000      -0.064603        -1.7579
  46   0.0000      -0.063474        -1.7272
  47   0.0000      -0.044055        -1.1988
  48   0.0000       0.022148         0.6027
  49   0.0000       0.040284         1.0962

MULLIKEN ATOMIC CHARGES
-----------------------
   0 C :   -0.100898
   1 C :   -0.215337
   2 C :    0.165839
   3 C :   -0.006765
   4 C :    0.165836
   5 C :   -0.215340
   6 Cl:   -0.102162
   7 Cl:   -0.080222
   8 Cl:   -0.102158
   9 H :    0.157094
  10 H :    0.167056
  11 H :    0.167057
Sum of atomic charges:    0.0000000

LOEWDIN ATOMIC CHARGES
----------------------
   0 C :   -0.147040
   1 C :   -0.167376
   2 C :   -0.175073
   3 C :   -0.195747
   4 C :   -0.175069
   5 C :   -0.167375
   6 Cl:    0.158823
   7 Cl:    0.169952
   8 Cl:    0.158829
   9 H :    0.175561
  10 H :    0.182257
  11 H :    0.182258

  Mayer bond orders larger than 0.100000
B(  0-C ,  1-C ) :   1.3843 B(  0-C ,  5-C ) :   1.3843 B(  0-C ,  9-H ) :   0.9472
B(  1-C ,  2-C ) :   1.3509 B(  1-C , 10-H ) :   0.9396 B(  2-C ,  3-C ) :   1.2248
B(  2-C ,  8-Cl) :   1.0443 B(  3-C ,  4-C ) :   1.2248 B(  3-C ,  7-Cl) :   1.2023
B(  4-C ,  5-C ) :   1.3509 B(  4-C ,  6-Cl) :   1.0443 B(  5-C , 11-H ) :   0.9396

Dispersion correction           -0.005630440
FINAL SINGLE POINT ENERGY     -1610.914863807261

DIPOLE MOMENT
-------------

Method             : SCF
Type of density    : Electron Density
Multiplicity       :   1
Irrep              :   0
Energy             : -1610.9154949059973205 Eh
Relativity type    :
Basis              : AO
                                X                 Y                 Z
Electronic contribution:     -0.000150477      10.529536623      -0.000079898
Nuclear contribution   :      0.000174162     -11.529661359       0.000123955
                        -----------------------------------------
Total Dipole Moment    :      0.000023685      -1.000124737       0.000044056
                        -----------------------------------------
Magnitude (a.u.)       :      1.000124738
Magnitude (Debye)      :      2.542115058

Rotational constants in cm-1:             0.049738             0.028399             0.018077
Rotational constants in MHz :          1491.107152           851.369573           541.940608

                             ****ORCA TERMINATED NORMALLY****
TOTAL RUN TIME: 0 days 0 hours 0 minutes 19 seconds 141 msec
