                         Program Version 6.0.0  -   RELEASE  -
|  1> ! r2scan-3c def2/J RI DEFGRID2 scfconv6 printgap
|  2> %output
|  3>     printlevel normal
|  4> end
|  5> %cpcm
|  6>     smd true
|  7>     smdsolvent "water"
|  8> end
|  9> * xyz 0 1
| 10> C 4.16044e-05 -2.5736893382 -2.47835e-05
| 11> C 1.2025604044 -1.8882338772 -2.52055e-05
| 12> C 1.1999367723 -0.5026069547 -4.2789e-05
| 13> C 1.1147e-06 0.2030710728 2.1943e-06
| 14> C -1.1999208703 -0.5026287114 3.04524e-05
| 15> C -1.2025043965 -1.8882650547 2.7411e-05
| 16> Cl -2.6950945327 0.3653877378 -1.2938e-06
| 17> Cl -3.08378e-05 1.9332833672 -8.0305e-06
| 18> Cl 2.6950829828 0.365433905 1.63665e-05
| 19> H 6.1066e-05 -3.6508885865 7.60392e-05
| 20> H 2.1427860716 -2.4135311894 6.27318e-05
| 21> H -2.142722141 -2.4135858244 3.427e-06
| 22> *
| 23>
| 24>                          ****END OF INPUT****

CARTESIAN COORDINATES (ANGSTROEM)
---------------------------------
  C      0.000042   -2.573689   -0.000025
  C      1.202560   -1.888234   -0.000025
  C      1.199937   -0.502607   -0.000043
  C      0.000001    0.203071    0.000002
  C     -1.199921   -0.502629    0.000030
  C     -1.202504   -1.888265    0.000027
  Cl    -2.695095    0.365388   -0.000001
  Cl    -0.000031    1.933283   -0.000008
  Cl     2.695083    0.365434    0.000016
  H      0.000061   -3.650889    0.000076
  H      2.142786   -2.413531    0.000063
  H     -2.142722   -2.413586    0.000003

 Total Charge           Charge          ....    0
 Multiplicity           Mult            ....    1
 Number of Electrons    NEL             ....   90
 Basis Dimension        Dim             ....  210

ORBITAL ENERGIES
----------------

  NO   OCC          E(Eh)            E(eV)
   0   2.0000    -101.236611     -2754.7882
   1   2.0000    -101.234157     -2754.7214
   2   2.0000    -101.234155     -2754.7214
   3   2.0000     -10.123569      -275.4763
   4   2.0000     -10.120921      -275.4043
   5   2.0000     -10.120883      -275.4032
   6   2.0000     -10.058302      -273.7003
   7   2.0000     -10.058258      -273.6991
   8   2.0000     -10.056058      -273.6393
   9   2.0000      -9.392389      -255.5799
  10   2.0000      -9.390135      -255.5186
  11   2.0000      -9.390133      -255.5185
  12   2.0000      -7.138935      -194.2603
  13   2.0000      -7.136489      -194.1937
  14   2.0000      -7.136489      -194.1937
  15   2.0000      -7.128720      -193.9823
  16   2.0000      -7.127775      -193.9566
  17   2.0000      -7.126461      -193.9209
  18   2.0000      -7.126461      -193.9209
  19   2.0000      -7.125693      -193.9000
  20   2.0000      -7.125692      -193.9000
  21   2.0000      -0.906728       -24.6733
  22   2.0000      -0.856329       -23.3019
  23   2.0000      -0.829566       -22.5736
  24   2.0000      -0.804873       -21.9017
  25   2.0000      -0.713938       -19.4272
  26   2.0000      -0.713454       -19.4141
  27   2.0000      -0.591724       -16.1016
  28   2.0000      -0.589428       -16.0392
  29   2.0000      -0.501880       -13.6568
  30   2.0000      -0.477407       -12.9909
  31   2.0000      -0.452322       -12.3083
  32   2.0000      -0.424524       -11.5519
  33   2.0000      -0.423534       -11.5249
  34   2.0000      -0.414813       -11.2876
  35   2.0000      -0.361897        -9.8477
  36   2.0000      -0.360479        -9.8091
  37   2.0000      -0.353407        -9.6167
  38   2.0000      -0.330230        -8.9860
  39   2.0000      -0.315161        -8.5760
  40   2.0000      -0.308595        -8.3973
  41   2.0000      -0.303009        -8.2453
  42   2.0000      -0.280577        -7.6349
  43   2.0000      -0.240375        -6.5409
  44   2.0000      -0.239684        -6.5221
  45   0.0000      -0.057640        -1.5685
  46   0.0000      -0.056953        -1.5498
  47   0.0000      -0.041957        -1.1417
  48   0.0000       0.025072         0.6822
  49   0.0000       0.041085         1.1180

MULLIKEN ATOMIC CHARGES
-----------------------
   0 C :   -0.140391
   1 C :   -0.221530
   2 C :    0.161116
   3 C :    0.003503
   4 C :    0.161109
   5 C :   -0.221533
   6 Cl:   -0.121253
   7 Cl:   -0.104434
   8 Cl:   -0.121249
   9 H :    0.198801
  10 H :    0.202930
  11 H :    0.202931
Sum of atomic charges:    0.0000000

LOEWDIN ATOMIC CHARGES
----------------------
   0 C :   -0.138393
   1 C :   -0.160700
   2 C :   -0.180552
   3 C :   -0.200388
   4 C :   -0.180549
   5 C :   -0.160700
   6 Cl:    0.144279
   7 Cl:    0.151881
   8 Cl:    0.144285
   9 H :    0.190688
  10 H :    0.195074
  11 H :    0.195074

  Mayer bond orders larger than 0.100000
B(  0-C ,  1-C ) :   1.3800 B(  0-C ,  5-C ) :   1.3800 B(  0-C ,  9-H ) :   0.9478
B(  1-C ,  2-C ) :   1.3223 B(  1-C , 10-H ) :   0.9379 B(  2-C ,  3-C ) :   1.2148
B(  2-C ,  8-Cl) :   1.0339 B(  3-C ,  4-C ) :   1.2148 B(  3-C ,  7-Cl) :   1.1737
B(  4-C ,  5-C ) :   1.3223 B(  4-C ,  6-Cl) :   1.0339 B(  5-C , 11-H ) :   0.9379

Dispersion correction           -0.005630440
FINAL SINGLE POINT ENERGY     -1610.916390755725

DIPOLE MOMENT
-------------

Method             : SCF
Type of density    : Electron Density
Multiplicity       :   1
Irrep              :   0
Energy             : -1610.9170218544618365 Eh
Relativity type    :
Basis              : AO
                                X                 Y                 Z
Electronic contribution:     -0.000137651      10.000556243      -0.000064551
Nuclear contribution   :      0.000174162     -11.529661359       0.000123955
                        -----------------------------------------
Total Dipole Moment    :      0.000036511      -1.529105116       0.000059404
                        -----------------------------------------
Magnitude (a.u.)       :      1.529105118
Magnitude (Debye)      :      3.886676330

Rotational constants in cm-1:             0.049738             0.028399             0.018077
Rotational constants in MHz :          1491.107152           851.369573           541.940608

                             ****ORCA TERMINATED NORMALLY****
TOTAL RUN TIME: 0 days 0 hours 0 minutes 23 seconds 160 msec
