                         Program Version 6.0.0  -   RELEASE  -
|  1> ! pbe def2-sv(p) def2/J RI DEFGRID1 loosescf d4 GCP(DFT/SV(P)) printgap
|  2> %output
|  3>     printlevel normal
|  4> end
|  5> * xyz 0 1
|  6> C 1.9319410823 2.9211695281 0.6160189318
|  7> C 1.4191279764 1.665817403 1.2921007649
|  8> O 1.1946754454 0.6319968353 0.3113299842
|  9> P 2.2576164289 -0.5614179993 0.1608532793
| 10> S 4.1271669085 -0.0660111812 0.449099329
| 11> O 1.8969613822 -1.1835793243 -1.2457599062
| 12> C 2.5832266314 -0.8005471568 -2.4562554482
| 13> C 2.3311942847 0.6472196946 -2.8163964774
| 14> S 1.5120228413 -2.0613587682 1.4351694048
| 15> C -0.2151989164 -2.1381569006 0.8585207136
| 16> S -1.2774163776 -0.831406024 1.5270276385
| 17> P -1.8391454577 0.1846473421 -0.2782534201
| 18> S -1.1301341361 -0.5328107365 -1.9520172166
| 19> O -1.5758980103 1.7188367409 -0.0574141448
| 20> C -2.2891985255 2.4766157863 0.9606059275
| 21> C -1.8132799693 3.9121717938 0.8933417231
| 22> O -3.4332538762 0.1433012547 -0.1927635279
| 23> C -4.1561930125 -1.0833025453 -0.4025548191
| 24> C -5.6278812229 -0.7412562319 -0.5183894076
| 25> H 1.2651110321 3.2035700554 -0.1947430674
| 26> H 1.9886701104 3.7244169747 1.3438831462
| 27> H 2.9262548017 2.7432013939 0.2116732541
| 28> H 0.4527253307 1.8279739491 1.7719628813
| 29> H 2.1361078952 1.3056399679 2.0367977705
| 30> H 3.6525785869 -0.9858114589 -2.3154370047
| 31> H 2.1764127376 -1.4801384847 -3.2061011055
| 32> H 1.2615406279 0.8351220815 -2.8734313315
| 33> H 2.766592869 1.2970191604 -2.0586004745
| 34> H 2.7876581252 0.8646387387 -3.7766711542
| 35> H -0.590516342 -3.090310328 1.2232693567
| 36> H -0.2354429404 -2.087335141 -0.232870965
| 37> H -3.3570420334 2.4036361984 0.7494428043
| 38> H -2.0851510251 2.0212607865 1.9338694576
| 39> H -1.9762833285 4.3095029157 -0.1044025323
| 40> H -2.377224474 4.5017913808 1.6091790729
| 41> H -0.7558208094 3.9797127602 1.12886806
| 42> H -3.7812546814 -1.5577047261 -1.3155855974
| 43> H -3.9668114025 -1.7431055526 0.4493204072
| 44> H -5.9701456251 -0.2575263386 0.391751813
| 45> H -5.7898284487 -0.0707974588 -1.357612238
| 46> H -6.1939152755 -1.6535389364 -0.6747619896
| 47> *
| 48>
| 49>                          ****END OF INPUT****

CARTESIAN COORDINATES (ANGSTROEM)
---------------------------------
  C      1.931941    2.921170    0.616019
  C      1.419128    1.665817    1.292101
  O      1.194675    0.631997    0.311330
  P      2.257616   -0.561418    0.160853
  S      4.127167   -0.066011    0.449099
  O      1.896961   -1.183579   -1.245760
  C      2.583227   -0.800547   -2.456255
  C      2.331194    0.647220   -2.816396
  S      1.512023   -2.061359    1.435169
  C     -0.215199   -2.138157    0.858521
  S     -1.277416   -0.831406    1.527028
  P     -1.839145    0.184647   -0.278253
  S     -1.130134   -0.532811   -1.952017
  O     -1.575898    1.718837   -0.057414
  C     -2.289199    2.476616    0.960606
  C     -1.813280    3.912172    0.893342
  O     -3.433254    0.143301   -0.192764
  C     -4.156193   -1.083303   -0.402555
  C     -5.627881   -0.741256   -0.518389
  H      1.265111    3.203570   -0.194743
  H      1.988670    3.724417    1.343883
  H      2.926255    2.743201    0.211673
  H      0.452725    1.827974    1.771963
  H      2.136108    1.305640    2.036798
  H      3.652579   -0.985811   -2.315437
  H      2.176413   -1.480138   -3.206101
  H      1.261541    0.835122   -2.873431
  H      2.766593    1.297019   -2.058600
  H      2.787658    0.864639   -3.776671
  H     -0.590516   -3.090310    1.223269
  H     -0.235443   -2.087335   -0.232871
  H     -3.357042    2.403636    0.749443
  H     -2.085151    2.021261    1.933869
  H     -1.976283    4.309503   -0.104403
  H     -2.377224    4.501791    1.609179
  H     -0.755821    3.979713    1.128868
  H     -3.781255   -1.557705   -1.315586
  H     -3.966811   -1.743106    0.449320
  H     -5.970146   -0.257526    0.391752
  H     -5.789828   -0.070797   -1.357612
  H     -6.193915   -1.653539   -0.674762

 Total Charge           Charge          ....    0
 Multiplicity           Mult            ....    1
 Number of Electrons    NEL             ....  202
 Basis Dimension        Dim             ....  334

ORBITAL ENERGIES
----------------

  NO   OCC          E(Eh)            E(eV)
   0   2.0000     -88.044954     -2395.8250
   1   2.0000     -88.036770     -2395.6023
   2   2.0000     -87.991857     -2394.3802
   3   2.0000     -87.983407     -2394.1502
   4   2.0000     -76.430716     -2079.7855
   5   2.0000     -76.420957     -2079.5200
   6   2.0000     -18.801779      -511.6224
   7   2.0000     -18.795154      -511.4421
   8   2.0000     -18.785060      -511.1675
   9   2.0000     -18.784566      -511.1540
  10   2.0000      -9.966289      -271.1965
  11   2.0000      -9.955614      -270.9060
  12   2.0000      -9.954668      -270.8803
  13   2.0000      -9.946965      -270.6707
  14   2.0000      -9.944701      -270.6091
  15   2.0000      -9.898624      -269.3553
  16   2.0000      -9.892547      -269.1899
  17   2.0000      -9.878990      -268.8210
  18   2.0000      -9.871843      -268.6265
  19   2.0000      -7.689688      -209.2470
  20   2.0000      -7.682518      -209.0520
  21   2.0000      -7.636872      -207.8099
  22   2.0000      -7.628688      -207.5872
  23   2.0000      -6.428148      -174.9188
  24   2.0000      -6.418878      -174.6666
  25   2.0000      -5.717529      -155.5819
  26   2.0000      -5.714165      -155.4903
  27   2.0000      -5.710737      -155.3971
  28   2.0000      -5.706820      -155.2905
  29   2.0000      -5.706727      -155.2879
  30   2.0000      -5.699355      -155.0873
  31   2.0000      -5.665790      -154.1740
  32   2.0000      -5.657649      -153.9524
  33   2.0000      -5.657611      -153.9514
  34   2.0000      -5.656767      -153.9285
  35   2.0000      -5.649226      -153.7233
  36   2.0000      -5.648890      -153.7141
  37   2.0000      -4.650939      -126.5585
  38   2.0000      -4.649800      -126.5275
  39   2.0000      -4.648515      -126.4925
  40   2.0000      -4.641225      -126.2941
  41   2.0000      -4.640772      -126.2818
  42   2.0000      -4.639415      -126.2449
  43   2.0000      -0.995772       -27.0963
  44   2.0000      -0.978879       -26.6367
  45   2.0000      -0.949443       -25.8356
  46   2.0000      -0.939237       -25.5579
  47   2.0000      -0.759615       -20.6702
  48   2.0000      -0.726734       -19.7754
  49   2.0000      -0.708823       -19.2881
  50   2.0000      -0.698010       -18.9938
  51   2.0000      -0.680334       -18.5128
  52   2.0000      -0.672487       -18.2993
  53   2.0000      -0.653090       -17.7715
  54   2.0000      -0.639081       -17.3903
  55   2.0000      -0.590841       -16.0776
  56   2.0000      -0.587997       -16.0002
  57   2.0000      -0.579716       -15.7749
  58   2.0000      -0.567048       -15.4302
  59   2.0000      -0.559340       -15.2204
  60   2.0000      -0.517149       -14.0723
  61   2.0000      -0.493632       -13.4324
  62   2.0000      -0.490263       -13.3407
  63   2.0000      -0.469931       -12.7875
  64   2.0000      -0.460848       -12.5403
  65   2.0000      -0.447603       -12.1799
  66   2.0000      -0.443680       -12.0731
  67   2.0000      -0.432423       -11.7668
  68   2.0000      -0.427364       -11.6292
  69   2.0000      -0.413840       -11.2612
  70   2.0000      -0.411113       -11.1870
  71   2.0000      -0.402972       -10.9654
  72   2.0000      -0.396616       -10.7925
  73   2.0000      -0.383260       -10.4290
  74   2.0000      -0.376449       -10.2437
  75   2.0000      -0.372744       -10.1429
  76   2.0000      -0.363972        -9.9042
  77   2.0000      -0.358209        -9.7474
  78   2.0000      -0.356685        -9.7059
  79   2.0000      -0.352352        -9.5880
  80   2.0000      -0.350741        -9.5441
  81   2.0000      -0.344344        -9.3701
  82   2.0000      -0.340728        -9.2717
  83   2.0000      -0.331828        -9.0295
  84   2.0000      -0.324575        -8.8321
  85   2.0000      -0.323408        -8.8004
  86   2.0000      -0.318363        -8.6631
  87   2.0000      -0.310633        -8.4528
  88   2.0000      -0.303935        -8.2705
  89   2.0000      -0.290827        -7.9138
  90   2.0000      -0.282059        -7.6752
  91   2.0000      -0.276073        -7.5123
  92   2.0000      -0.269663        -7.3379
  93   2.0000      -0.265513        -7.2250
  94   2.0000      -0.255631        -6.9561
  95   2.0000      -0.230119        -6.2619
  96   2.0000      -0.219637        -5.9766
  97   2.0000      -0.210899        -5.7389
  98   2.0000      -0.205751        -5.5988
  99   2.0000      -0.200791        -5.4638
 100   2.0000      -0.198880        -5.4118
 101   0.0000      -0.041527        -1.1300
 102   0.0000      -0.024865        -0.6766
 103   0.0000      -0.014541        -0.3957
 104   0.0000       0.001859         0.0506
 105   0.0000       0.009291         0.2528

MULLIKEN ATOMIC CHARGES
-----------------------
   0 C :   -0.296884
   1 C :   -0.020536
   2 O :   -0.381106
   3 P :    0.614854
   4 S :   -0.324771
   5 O :   -0.367225
   6 C :    0.005501
   7 C :   -0.329528
   8 S :   -0.075643
   9 C :   -0.358460
  10 S :   -0.116419
  11 P :    0.622483
  12 S :   -0.289603
  13 O :   -0.364842
  14 C :   -0.033017
  15 C :   -0.292313
  16 O :   -0.392003
  17 C :   -0.005926
  18 C :   -0.281924
  19 H :    0.124315
  20 H :    0.106048
  21 H :    0.130786
  22 H :    0.100347
  23 H :    0.105000
  24 H :    0.110666
  25 H :    0.104047
  26 H :    0.134713
  27 H :    0.125197
  28 H :    0.106727
  29 H :    0.181210
  30 H :    0.208131
  31 H :    0.119135
  32 H :    0.112841
  33 H :    0.126302
  34 H :    0.114654
  35 H :    0.130174
  36 H :    0.103445
  37 H :    0.095582
  38 H :    0.114223
  39 H :    0.120604
  40 H :    0.113216
Sum of atomic charges:    0.0000000

LOEWDIN ATOMIC CHARGES
----------------------
   0 C :   -0.363206
   1 C :   -0.123943
   2 O :   -0.250745
   3 P :    0.571874
   4 S :   -0.320696
   5 O :   -0.236237
   6 C :   -0.112159
   7 C :   -0.372524
   8 S :    0.079979
   9 C :   -0.482557
  10 S :    0.059965
  11 P :    0.577438
  12 S :   -0.275641
  13 O :   -0.233115
  14 C :   -0.116112
  15 C :   -0.350427
  16 O :   -0.254984
  17 C :   -0.123945
  18 C :   -0.350460
  19 H :    0.126508
  20 H :    0.126031
  21 H :    0.125324
  22 H :    0.104783
  23 H :    0.108051
  24 H :    0.111079
  25 H :    0.119494
  26 H :    0.124857
  27 H :    0.120794
  28 H :    0.128528
  29 H :    0.137740
  30 H :    0.126024
  31 H :    0.117083
  32 H :    0.108288
  33 H :    0.133333
  34 H :    0.133388
  35 H :    0.128737
  36 H :    0.107657
  37 H :    0.104303
  38 H :    0.125354
  39 H :    0.128662
  40 H :    0.131478

  Mayer bond orders larger than 0.100000
B(  0-C ,  1-C ) :   1.1774 B(  0-C , 19-H ) :   0.9385 B(  0-C , 20-H ) :   0.9354
B(  0-C , 21-H ) :   0.9263 B(  1-C ,  2-O ) :   0.8981 B(  1-C , 22-H ) :   0.9168
B(  1-C , 23-H ) :   0.9053 B(  2-O ,  3-P ) :   1.0665 B(  3-P ,  4-S ) :   1.6271
B(  3-P ,  5-O ) :   1.1309 B(  3-P ,  8-S ) :   0.9849 B(  5-O ,  6-C ) :   0.8955
B(  6-C ,  7-C ) :   1.1655 B(  6-C , 24-H ) :   0.9217 B(  6-C , 25-H ) :   0.9336
B(  7-C , 26-H ) :   0.9339 B(  7-C , 27-H ) :   0.9297 B(  7-C , 28-H ) :   0.9364
B(  8-S ,  9-C ) :   0.9851 B(  9-C , 10-S ) :   0.9967 B(  9-C , 29-H ) :   0.9111
B(  9-C , 30-H ) :   0.8476 B( 10-S , 11-P ) :   0.9404 B( 10-S , 12-S ) :   0.1195
B( 11-P , 12-S ) :   1.6511 B( 11-P , 13-O ) :   1.1334 B( 11-P , 16-O ) :   1.0570
B( 12-S , 30-H ) :   0.1020 B( 13-O , 14-C ) :   0.8872 B( 14-C , 15-C ) :   1.1679
B( 14-C , 31-H ) :   0.9220 B( 14-C , 32-H ) :   0.9159 B( 15-C , 33-H ) :   0.9464
B( 15-C , 34-H ) :   0.9382 B( 15-C , 35-H ) :   0.9422 B( 16-O , 17-C ) :   0.9117
B( 17-C , 18-C ) :   1.1604 B( 17-C , 36-H ) :   0.9120 B( 17-C , 37-H ) :   0.9207
B( 18-C , 38-H ) :   0.9515 B( 18-C , 39-H ) :   0.9515 B( 18-C , 40-H ) :   0.9421

Dispersion correction           -0.067250331
FINAL SINGLE POINT ENERGY     -2929.519019076434

DIPOLE MOMENT
-------------

Method             : SCF
Type of density    : Electron Density
Multiplicity       :   1
Irrep              :   0
Energy             : -2929.6401195658500001 Eh
Relativity type    :
Basis              : AO
                                X                 Y                 Z
Electronic contribution:     13.234449567     -18.645769887       5.146881975
Nuclear contribution   :    -15.193048684      19.306141997      -4.889859395
                        -----------------------------------------
Total Dipole Moment    :     -1.958599117       0.660372111       0.257022580
                        -----------------------------------------
Magnitude (a.u.)       :      2.082849594
Magnitude (Debye)      :      5.294182933

Rotational constants in cm-1:             0.011617             0.005617             0.005131
Rotational constants in MHz :           348.255861           168.390777           153.822154

                             ****ORCA TERMINATED NORMALLY****
TOTAL RUN TIME: 0 days 0 hours 0 minutes 21 seconds 952 msec
