                         Program Version 6.0.0  -   RELEASE  -
|  1> ! pbe def2-sv(p) def2/J RI DEFGRID1 loosescf d4 GCP(DFT/SV(P)) printgap
|  2> %output
|  3>     printlevel normal
|  4> end
|  5> * xyz 0 1
|  6> C 5.2465053464 2.0076504522 -0.6165406161
|  7> C 3.755305068 1.7391144116 -0.6641232821
|  8> O 3.538781098 0.3503832393 -0.3442224208
|  9> P 2.24698481 -0.1696408917 0.4140581208
| 10> S 1.5707926867 1.0485387491 1.7989055383
| 11> O 2.6593350985 -1.6310578694 0.8593522232
| 12> C 3.9553696588 -1.9695820425 1.4070595241
| 13> C 4.2410108551 -1.2294902096 2.6963091546
| 14> S 0.9036968821 -0.6397730198 -1.1694738559
| 15> C -0.2472188937 -1.6776358406 -0.2189348764
| 16> S -1.4109181114 -0.737868734 0.7970066105
| 17> P -2.5114172793 0.1029418065 -0.8281522329
| 18> S -2.6315017312 -0.9940109824 -2.4427485469
| 19> O -1.8473226691 1.4979354213 -1.1411821556
| 20> C -1.3373722686 2.4654982399 -0.1941318575
| 21> C -2.3583960632 2.8772751631 0.8429297036
| 22> O -3.9119053677 0.5053073972 -0.1945989204
| 23> C -5.0273745223 -0.4020011407 -0.1526010899
| 24> C -4.7760682042 -1.5834453728 0.7620757846
| 25> H 5.7648333722 1.3509754198 -1.3093077371
| 26> H 5.4294043861 3.0398372614 -0.8964347945
| 27> H 5.6288639658 1.8373395541 0.3861441571
| 28> H 3.3490749992 1.9172339673 -1.6625287515
| 29> H 3.2144038767 2.3548872244 0.063012533
| 30> H 3.8877675271 -3.0466983192 1.5678448551
| 31> H 4.7127010591 -1.751475501 0.6517786494
| 32> H 5.1919191964 -1.5621626348 3.1004874434
| 33> H 4.2876510087 -0.1571407161 2.5106954315
| 34> H 3.454549696 -1.4163645859 3.4238470254
| 35> H 0.3124520434 -2.3287978143 0.4466781913
| 36> H -0.8056941797 -2.2476201429 -0.9625358384
| 37> H -0.4494974817 2.0461951546 0.2891982799
| 38> H -1.0446612383 3.3024300889 -0.8297158889
| 39> H -2.5993864341 2.0344821585 1.4877558574
| 40> H -1.9376601558 3.67275494 1.4503874157
| 41> H -3.267412911 3.2274041382 0.3609928843
| 42> H -5.8508903224 0.2171385743 0.2057312587
| 43> H -5.2328176323 -0.7431146526 -1.172130552
| 44> H -5.6898509441 -2.1605605052 0.8603311971
| 45> H -4.000526278 -2.2212691409 0.3408186444
| 46> H -4.4561620298 -1.2426515097 1.7435967917
| 47> *
| 48>
| 49>                          ****END OF INPUT****

CARTESIAN COORDINATES (ANGSTROEM)
---------------------------------
  C      5.246505    2.007650   -0.616541
  C      3.755305    1.739114   -0.664123
  O      3.538781    0.350383   -0.344222
  P      2.246985   -0.169641    0.414058
  S      1.570793    1.048539    1.798906
  O      2.659335   -1.631058    0.859352
  C      3.955370   -1.969582    1.407060
  C      4.241011   -1.229490    2.696309
  S      0.903697   -0.639773   -1.169474
  C     -0.247219   -1.677636   -0.218935
  S     -1.410918   -0.737869    0.797007
  P     -2.511417    0.102942   -0.828152
  S     -2.631502   -0.994011   -2.442749
  O     -1.847323    1.497935   -1.141182
  C     -1.337372    2.465498   -0.194132
  C     -2.358396    2.877275    0.842930
  O     -3.911905    0.505307   -0.194599
  C     -5.027375   -0.402001   -0.152601
  C     -4.776068   -1.583445    0.762076
  H      5.764833    1.350975   -1.309308
  H      5.429404    3.039837   -0.896435
  H      5.628864    1.837340    0.386144
  H      3.349075    1.917234   -1.662529
  H      3.214404    2.354887    0.063013
  H      3.887768   -3.046698    1.567845
  H      4.712701   -1.751476    0.651779
  H      5.191919   -1.562163    3.100487
  H      4.287651   -0.157141    2.510695
  H      3.454550   -1.416365    3.423847
  H      0.312452   -2.328798    0.446678
  H     -0.805694   -2.247620   -0.962536
  H     -0.449497    2.046195    0.289198
  H     -1.044661    3.302430   -0.829716
  H     -2.599386    2.034482    1.487756
  H     -1.937660    3.672755    1.450387
  H     -3.267413    3.227404    0.360993
  H     -5.850890    0.217139    0.205731
  H     -5.232818   -0.743115   -1.172131
  H     -5.689851   -2.160561    0.860331
  H     -4.000526   -2.221269    0.340819
  H     -4.456162   -1.242652    1.743597

 Total Charge           Charge          ....    0
 Multiplicity           Mult            ....    1
 Number of Electrons    NEL             ....  202
 Basis Dimension        Dim             ....  334

ORBITAL ENERGIES
----------------

  NO   OCC          E(Eh)            E(eV)
   0   2.0000     -88.037176     -2395.6134
   1   2.0000     -88.036434     -2395.5932
   2   2.0000     -87.989539     -2394.3171
   3   2.0000     -87.978714     -2394.0225
   4   2.0000     -76.430883     -2079.7901
   5   2.0000     -76.420397     -2079.5047
   6   2.0000     -18.802259      -511.6355
   7   2.0000     -18.797685      -511.5110
   8   2.0000     -18.788417      -511.2588
   9   2.0000     -18.780881      -511.0538
  10   2.0000      -9.962770      -271.1007
  11   2.0000      -9.959535      -271.0127
  12   2.0000      -9.952280      -270.8153
  13   2.0000      -9.948764      -270.7196
  14   2.0000      -9.940324      -270.4900
  15   2.0000      -9.894898      -269.2539
  16   2.0000      -9.889788      -269.1148
  17   2.0000      -9.880312      -268.8570
  18   2.0000      -9.877294      -268.7748
  19   2.0000      -7.682339      -209.0471
  20   2.0000      -7.681233      -209.0170
  21   2.0000      -7.634168      -207.7363
  22   2.0000      -7.624080      -207.4618
  23   2.0000      -6.428397      -174.9256
  24   2.0000      -6.417650      -174.6331
  25   2.0000      -5.710222      -155.3830
  26   2.0000      -5.708943      -155.3482
  27   2.0000      -5.707217      -155.3013
  28   2.0000      -5.705837      -155.2637
  29   2.0000      -5.698948      -155.0763
  30   2.0000      -5.698296      -155.0585
  31   2.0000      -5.662919      -154.0959
  32   2.0000      -5.654865      -153.8767
  33   2.0000      -5.654463      -153.8658
  34   2.0000      -5.652982      -153.8255
  35   2.0000      -5.644641      -153.5985
  36   2.0000      -5.644247      -153.5878
  37   2.0000      -4.651642      -126.5776
  38   2.0000      -4.649979      -126.5324
  39   2.0000      -4.648396      -126.4893
  40   2.0000      -4.640399      -126.2717
  41   2.0000      -4.639444      -126.2457
  42   2.0000      -4.637986      -126.2060
  43   2.0000      -0.995508       -27.0891
  44   2.0000      -0.979659       -26.6579
  45   2.0000      -0.952747       -25.9256
  46   2.0000      -0.937661       -25.5151
  47   2.0000      -0.760157       -20.6849
  48   2.0000      -0.723727       -19.6936
  49   2.0000      -0.706213       -19.2170
  50   2.0000      -0.697587       -18.9823
  51   2.0000      -0.683666       -18.6035
  52   2.0000      -0.671817       -18.2811
  53   2.0000      -0.651606       -17.7311
  54   2.0000      -0.634302       -17.2602
  55   2.0000      -0.597906       -16.2699
  56   2.0000      -0.591171       -16.0866
  57   2.0000      -0.581003       -15.8099
  58   2.0000      -0.568362       -15.4659
  59   2.0000      -0.559594       -15.2273
  60   2.0000      -0.511698       -13.9240
  61   2.0000      -0.485989       -13.2244
  62   2.0000      -0.482690       -13.1347
  63   2.0000      -0.465361       -12.6631
  64   2.0000      -0.459517       -12.5041
  65   2.0000      -0.445668       -12.1272
  66   2.0000      -0.441037       -12.0012
  67   2.0000      -0.437547       -11.9062
  68   2.0000      -0.425620       -11.5817
  69   2.0000      -0.417397       -11.3580
  70   2.0000      -0.410582       -11.1725
  71   2.0000      -0.403595       -10.9824
  72   2.0000      -0.387810       -10.5529
  73   2.0000      -0.384022       -10.4498
  74   2.0000      -0.375921       -10.2293
  75   2.0000      -0.375253       -10.2112
  76   2.0000      -0.364940        -9.9305
  77   2.0000      -0.360033        -9.7970
  78   2.0000      -0.357585        -9.7304
  79   2.0000      -0.353941        -9.6312
  80   2.0000      -0.346468        -9.4279
  81   2.0000      -0.343593        -9.3496
  82   2.0000      -0.342910        -9.3311
  83   2.0000      -0.338512        -9.2114
  84   2.0000      -0.332540        -9.0489
  85   2.0000      -0.324161        -8.8209
  86   2.0000      -0.306993        -8.3537
  87   2.0000      -0.305088        -8.3019
  88   2.0000      -0.299743        -8.1564
  89   2.0000      -0.287859        -7.8330
  90   2.0000      -0.283877        -7.7247
  91   2.0000      -0.281957        -7.6724
  92   2.0000      -0.267271        -7.2728
  93   2.0000      -0.258143        -7.0244
  94   2.0000      -0.256546        -6.9810
  95   2.0000      -0.238705        -6.4955
  96   2.0000      -0.214835        -5.8460
  97   2.0000      -0.207113        -5.6358
  98   2.0000      -0.198156        -5.3921
  99   2.0000      -0.195620        -5.3231
 100   2.0000      -0.192279        -5.2322
 101   0.0000      -0.043027        -1.1708
 102   0.0000      -0.025535        -0.6948
 103   0.0000      -0.008857        -0.2410
 104   0.0000       0.004059         0.1105
 105   0.0000       0.017648         0.4802

MULLIKEN ATOMIC CHARGES
-----------------------
   0 C :   -0.289672
   1 C :   -0.011035
   2 O :   -0.387032
   3 P :    0.630202
   4 S :   -0.314211
   5 O :   -0.382343
   6 C :   -0.001670
   7 C :   -0.316706
   8 S :   -0.072634
   9 C :   -0.365005
  10 S :   -0.089569
  11 P :    0.606001
  12 S :   -0.327019
  13 O :   -0.354405
  14 C :   -0.019524
  15 C :   -0.304816
  16 O :   -0.374763
  17 C :   -0.001965
  18 C :   -0.313534
  19 H :    0.119200
  20 H :    0.115588
  21 H :    0.119081
  22 H :    0.109778
  23 H :    0.108136
  24 H :    0.109983
  25 H :    0.113116
  26 H :    0.112386
  27 H :    0.128055
  28 H :    0.126098
  29 H :    0.188499
  30 H :    0.196087
  31 H :    0.128715
  32 H :    0.100283
  33 H :    0.116581
  34 H :    0.111754
  35 H :    0.116515
  36 H :    0.103877
  37 H :    0.113623
  38 H :    0.111484
  39 H :    0.124348
  40 H :    0.116511
Sum of atomic charges:    0.0000000

LOEWDIN ATOMIC CHARGES
----------------------
   0 C :   -0.351896
   1 C :   -0.119739
   2 O :   -0.246278
   3 P :    0.570848
   4 S :   -0.305997
   5 O :   -0.248593
   6 C :   -0.107768
   7 C :   -0.367049
   8 S :    0.081947
   9 C :   -0.482434
  10 S :    0.080747
  11 P :    0.573947
  12 S :   -0.319114
  13 O :   -0.232422
  14 C :   -0.122422
  15 C :   -0.363956
  16 O :   -0.242217
  17 C :   -0.117716
  18 C :   -0.370704
  19 H :    0.127456
  20 H :    0.132874
  21 H :    0.126578
  22 H :    0.116295
  23 H :    0.106872
  24 H :    0.121855
  25 H :    0.114783
  26 H :    0.130362
  27 H :    0.120693
  28 H :    0.131105
  29 H :    0.133563
  30 H :    0.129882
  31 H :    0.101126
  32 H :    0.118776
  33 H :    0.118186
  34 H :    0.130964
  35 H :    0.125146
  36 H :    0.118200
  37 H :    0.112482
  38 H :    0.130209
  39 H :    0.120197
  40 H :    0.123214

  Mayer bond orders larger than 0.100000
B(  0-C ,  1-C ) :   1.1607 B(  0-C , 19-H ) :   0.9502 B(  0-C , 20-H ) :   0.9411
B(  0-C , 21-H ) :   0.9510 B(  1-C ,  2-O ) :   0.9009 B(  1-C , 22-H ) :   0.9321
B(  1-C , 23-H ) :   0.9014 B(  2-O ,  3-P ) :   1.0853 B(  3-P ,  4-S ) :   1.6375
B(  3-P ,  5-O ) :   1.0992 B(  3-P ,  8-S ) :   0.9685 B(  4-S ,  8-S ) :   0.1168
B(  5-O ,  6-C ) :   0.9027 B(  6-C ,  7-C ) :   1.1672 B(  6-C , 24-H ) :   0.9351
B(  6-C , 25-H ) :   0.9289 B(  7-C , 26-H ) :   0.9355 B(  7-C , 27-H ) :   0.9329
B(  7-C , 28-H ) :   0.9444 B(  8-S ,  9-C ) :   0.9995 B(  9-C , 10-S ) :   1.0079
B(  9-C , 29-H ) :   0.8939 B(  9-C , 30-H ) :   0.8728 B( 10-S , 11-P ) :   0.9402
B( 10-S , 12-S ) :   0.1086 B( 11-P , 12-S ) :   1.6079 B( 11-P , 13-O ) :   1.1595
B( 11-P , 16-O ) :   1.0918 B( 13-O , 14-C ) :   0.8932 B( 14-C , 15-C ) :   1.1735
B( 14-C , 31-H ) :   0.8930 B( 14-C , 32-H ) :   0.9340 B( 15-C , 33-H ) :   0.9392
B( 15-C , 34-H ) :   0.9363 B( 15-C , 35-H ) :   0.9449 B( 16-O , 17-C ) :   0.9079
B( 17-C , 18-C ) :   1.1660 B( 17-C , 36-H ) :   0.9341 B( 17-C , 37-H ) :   0.9162
B( 18-C , 38-H ) :   0.9373 B( 18-C , 39-H ) :   0.9344 B( 18-C , 40-H ) :   0.9446

Dispersion correction           -0.064415668
FINAL SINGLE POINT ENERGY     -2929.516567310400

DIPOLE MOMENT
-------------

Method             : SCF
Type of density    : Electron Density
Multiplicity       :   1
Irrep              :   0
Energy             : -2929.6368059045789778 Eh
Relativity type    :
Basis              : AO
                                X                 Y                 Z
Electronic contribution:     -8.386586905      -5.757980704     -10.827724040
Nuclear contribution   :      9.575179416       5.852857755      11.698466913
                        -----------------------------------------
Total Dipole Moment    :      1.188592511       0.094877052       0.870742874
                        -----------------------------------------
Magnitude (a.u.)       :      1.476464346
Magnitude (Debye)      :      3.752874121

Rotational constants in cm-1:             0.014056             0.004329             0.004151
Rotational constants in MHz :           421.393052           129.766720           124.453778

                             ****ORCA TERMINATED NORMALLY****
TOTAL RUN TIME: 0 days 0 hours 0 minutes 20 seconds 554 msec
