                         Program Version 6.0.0  -   RELEASE  -
|  1> ! pbe def2-sv(p) def2/J RI DEFGRID1 loosescf d4 GCP(DFT/SV(P)) printgap
|  2> %output
|  3>     printlevel normal
|  4> end
|  5> * xyz 0 1
|  6> C 1.9246154402 -5.69095e-05 -0.7793190799
|  7> N 1.1176683046 -3.14159e-05 0.4241876434
|  8> C 0.2979433074 1.193784071 0.5828599848
|  9> C -0.9526841586 1.1953283145 -0.3118647858
| 10> N -1.7662972627 2.09049e-05 -0.1252560778
| 11> C -0.9526720343 -1.1952820652 -0.311899496
| 12> C 0.2978569512 -1.193756676 0.5829448503
| 13> H 2.5597249433 -0.8846916811 -0.7673842119
| 14> H 2.5608644539 0.8838866631 -0.7667934292
| 15> H 1.347641964 0.0005472622 -1.7140323318
| 16> H -0.0146761413 1.229987365 1.6329788608
| 17> H 0.9143046286 2.0703880306 0.3775495186
| 18> H -1.5669661182 2.0712481481 -0.0970415559
| 19> H -0.660058042 1.2315344985 -1.3654149915
| 20> H -2.128788007 -1.17076e-05 0.8253843328
| 21> H -1.5669448795 -2.0712734025 -0.0972535042
| 22> H -0.6599523661 -1.231371954 -1.3654523209
| 23> H -0.0149364429 -1.2298334695 1.6330191232
| 24> H 0.9141510264 -2.0704631102 0.3778283688
| 25> *
| 26>
| 27>                          ****END OF INPUT****

CARTESIAN COORDINATES (ANGSTROEM)
---------------------------------
  C      1.924615   -0.000057   -0.779319
  N      1.117668   -0.000031    0.424188
  C      0.297943    1.193784    0.582860
  C     -0.952684    1.195328   -0.311865
  N     -1.766297    0.000021   -0.125256
  C     -0.952672   -1.195282   -0.311899
  C      0.297857   -1.193757    0.582945
  H      2.559725   -0.884692   -0.767384
  H      2.560864    0.883887   -0.766793
  H      1.347642    0.000547   -1.714032
  H     -0.014676    1.229987    1.632979
  H      0.914305    2.070388    0.377550
  H     -1.566966    2.071248   -0.097042
  H     -0.660058    1.231534   -1.365415
  H     -2.128788   -0.000012    0.825384
  H     -1.566945   -2.071273   -0.097254
  H     -0.659952   -1.231372   -1.365452
  H     -0.014936   -1.229833    1.633019
  H      0.914151   -2.070463    0.377828

 Total Charge           Charge          ....    0
 Multiplicity           Mult            ....    1
 Number of Electrons    NEL             ....   56
 Basis Dimension        Dim             ....  122

ORBITAL ENERGIES
----------------

  NO   OCC          E(Eh)            E(eV)
   0   2.0000     -13.978243      -380.3673
   1   2.0000     -13.968088      -380.0910
   2   2.0000      -9.904323      -269.5103
   3   2.0000      -9.904317      -269.5102
   4   2.0000      -9.903526      -269.4886
   5   2.0000      -9.903518      -269.4884
   6   2.0000      -9.900152      -269.3968
   7   2.0000      -0.852498       -23.1977
   8   2.0000      -0.800303       -21.7773
   9   2.0000      -0.679824       -18.4989
  10   2.0000      -0.637433       -17.3454
  11   2.0000      -0.570272       -15.5179
  12   2.0000      -0.569596       -15.4995
  13   2.0000      -0.508406       -13.8344
  14   2.0000      -0.444956       -12.1079
  15   2.0000      -0.422042       -11.4844
  16   2.0000      -0.406911       -11.0726
  17   2.0000      -0.400643       -10.9021
  18   2.0000      -0.393050       -10.6954
  19   2.0000      -0.371030       -10.0963
  20   2.0000      -0.342575        -9.3219
  21   2.0000      -0.332631        -9.0514
  22   2.0000      -0.331330        -9.0160
  23   2.0000      -0.305869        -8.3231
  24   2.0000      -0.297973        -8.1082
  25   2.0000      -0.293620        -7.9898
  26   2.0000      -0.201036        -5.4705
  27   2.0000      -0.143527        -3.9056
  28   0.0000       0.030459         0.8288
  29   0.0000       0.045272         1.2319
  30   0.0000       0.072198         1.9646
  31   0.0000       0.073494         1.9999
  32   0.0000       0.086815         2.3624

MULLIKEN ATOMIC CHARGES
-----------------------
   0 C :   -0.179915
   1 N :   -0.279180
   2 C :   -0.068966
   3 C :   -0.092890
   4 N :   -0.326654
   5 C :   -0.092916
   6 C :   -0.068995
   7 H :    0.101697
   8 H :    0.101729
   9 H :    0.082454
  10 H :    0.069543
  11 H :    0.078099
  12 H :    0.085682
  13 H :    0.084595
  14 H :    0.187790
  15 H :    0.085684
  16 H :    0.084594
  17 H :    0.069539
  18 H :    0.078111
Sum of atomic charges:    0.0000000

LOEWDIN ATOMIC CHARGES
----------------------
   0 C :   -0.260572
   1 N :   -0.149681
   2 C :   -0.177385
   3 C :   -0.190051
   4 N :   -0.258203
   5 C :   -0.190052
   6 C :   -0.177387
   7 H :    0.114267
   8 H :    0.114262
   9 H :    0.086743
  10 H :    0.105531
  11 H :    0.111416
  12 H :    0.113359
  13 H :    0.113103
  14 H :    0.201256
  15 H :    0.113352
  16 H :    0.113101
  17 H :    0.105527
  18 H :    0.111412

  Mayer bond orders larger than 0.100000
B(  0-C ,  1-N ) :   1.0476 B(  0-C ,  7-H ) :   0.9539 B(  0-C ,  8-H ) :   0.9539
B(  0-C ,  9-H ) :   0.9238 B(  1-N ,  2-C ) :   1.0602 B(  1-N ,  6-C ) :   1.0602
B(  2-C ,  3-C ) :   1.0849 B(  2-C , 10-H ) :   0.9124 B(  2-C , 11-H ) :   0.9157
B(  3-C ,  4-N ) :   1.0966 B(  3-C , 12-H ) :   0.9269 B(  3-C , 13-H ) :   0.9123
B(  4-N ,  5-C ) :   1.0965 B(  4-N , 14-H ) :   0.8790 B(  5-C ,  6-C ) :   1.0848
B(  5-C , 15-H ) :   0.9269 B(  5-C , 16-H ) :   0.9123 B(  6-C , 17-H ) :   0.9124
B(  6-C , 18-H ) :   0.9157

Dispersion correction           -0.017159299
FINAL SINGLE POINT ENERGY      -306.496636071696

DIPOLE MOMENT
-------------

Method             : SCF
Type of density    : Electron Density
Multiplicity       :   1
Irrep              :   0
Energy             :  -306.5709700527937116 Eh
Relativity type    :
Basis              : AO
                                X                 Y                 Z
Electronic contribution:     -1.461862859       0.000003459       1.340689665
Nuclear contribution   :      1.576662705      -0.000050115      -1.242945276
                        -----------------------------------------
Total Dipole Moment    :      0.114799846      -0.000046656       0.097744389
                        -----------------------------------------
Magnitude (a.u.)       :      0.150774575
Magnitude (Debye)      :      0.383238512

Rotational constants in cm-1:             0.131396             0.088003             0.067345
Rotational constants in MHz :          3939.149789          2638.263927          2018.941429

                             ****ORCA TERMINATED NORMALLY****
TOTAL RUN TIME: 0 days 0 hours 0 minutes 8 seconds 578 msec
