                         Program Version 6.0.0  -   RELEASE  -
|  1> ! pbe def2-sv(p) def2/J RI DEFGRID1 loosescf d4 GCP(DFT/SV(P)) printgap
|  2> %output
|  3>     printlevel normal
|  4> end
|  5> * xyz 0 1
|  6> C 5.5104536081 -0.8310996667 -1.2414079791
|  7> C 4.1425714863 -1.1674258211 -1.7965596396
|  8> O 3.1668420184 -1.3377920067 -0.7484383241
|  9> P 2.6486752687 -0.1196865247 0.1268868417
| 10> S 2.489250813 1.587729664 -0.8396862135
| 11> O 3.6618731294 -0.104107822 1.3491701732
| 12> C 3.7812073466 1.0261469611 2.2310511703
| 13> C 2.5116895625 1.2580256499 3.0242658671
| 14> S 0.9307947617 -1.0484662935 0.9221806699
| 15> C -0.0407625023 -1.084311314 -0.6061631115
| 16> S -0.7512864902 0.5392159909 -1.0565881839
| 17> P -2.7489331555 0.1713419715 -0.4753294924
| 18> S -4.0144698441 1.6521882499 -0.6695342207
| 19> O -2.6815609389 -0.4748970739 0.9825475199
| 20> C -2.8432672198 0.3145667559 2.1712066305
| 21> C -1.6304724169 1.18040423 2.4440350931
| 22> O -3.0214423223 -1.1130952112 -1.371518842
| 23> C -4.3606011896 -1.5373874758 -1.7021010881
| 24> C -5.1154984143 -2.0352189737 -0.4875594432
| 25> H 6.2352324796 -0.8234568458 -2.0495029599
| 26> H 5.4880591987 0.1534001281 -0.776374382
| 27> H 5.8038654401 -1.5659421984 -0.4964962782
| 28> H 4.1406215176 -2.1272335793 -2.3151583987
| 29> H 3.794885165 -0.3765614626 -2.4695696918
| 30> H 4.6222562982 0.7684540585 2.875838614
| 31> H 4.0243181899 1.9089954699 1.6312115564
| 32> H 2.6763419996 2.0477678586 3.7501456011
| 33> H 1.7092910169 1.5611650119 2.3516440302
| 34> H 2.2162570169 0.3469919339 3.5389377748
| 35> H -0.8492258505 -1.7928802712 -0.4531591257
| 36> H 0.6007582491 -1.39074279 -1.4284838661
| 37> H -3.7387795473 0.9342113259 2.0552939281
| 38> H -2.995869241 -0.4222769886 2.9605881105
| 39> H -0.7397987493 0.5626216755 2.5277800756
| 40> H -1.4937416322 1.8932394584 1.6299939241
| 41> H -1.7781872963 1.7284262926 3.3688461435
| 42> H -4.8852766595 -0.694748841 -2.1629917034
| 43> H -4.2072731722 -2.3275118172 -2.4383647032
| 44> H -6.0724723816 -2.4398929289 -0.8018321459
| 45> H -4.5454130296 -2.8071607649 0.022538745
| 46> H -5.2903174427 -1.2103601096 0.2017214012
| 47> *
| 48>
| 49>                          ****END OF INPUT****

CARTESIAN COORDINATES (ANGSTROEM)
---------------------------------
  C      5.510454   -0.831100   -1.241408
  C      4.142571   -1.167426   -1.796560
  O      3.166842   -1.337792   -0.748438
  P      2.648675   -0.119687    0.126887
  S      2.489251    1.587730   -0.839686
  O      3.661873   -0.104108    1.349170
  C      3.781207    1.026147    2.231051
  C      2.511690    1.258026    3.024266
  S      0.930795   -1.048466    0.922181
  C     -0.040763   -1.084311   -0.606163
  S     -0.751286    0.539216   -1.056588
  P     -2.748933    0.171342   -0.475329
  S     -4.014470    1.652188   -0.669534
  O     -2.681561   -0.474897    0.982548
  C     -2.843267    0.314567    2.171207
  C     -1.630472    1.180404    2.444035
  O     -3.021442   -1.113095   -1.371519
  C     -4.360601   -1.537387   -1.702101
  C     -5.115498   -2.035219   -0.487559
  H      6.235232   -0.823457   -2.049503
  H      5.488059    0.153400   -0.776374
  H      5.803865   -1.565942   -0.496496
  H      4.140622   -2.127234   -2.315158
  H      3.794885   -0.376561   -2.469570
  H      4.622256    0.768454    2.875839
  H      4.024318    1.908995    1.631212
  H      2.676342    2.047768    3.750146
  H      1.709291    1.561165    2.351644
  H      2.216257    0.346992    3.538938
  H     -0.849226   -1.792880   -0.453159
  H      0.600758   -1.390743   -1.428484
  H     -3.738780    0.934211    2.055294
  H     -2.995869   -0.422277    2.960588
  H     -0.739799    0.562622    2.527780
  H     -1.493742    1.893239    1.629994
  H     -1.778187    1.728426    3.368846
  H     -4.885277   -0.694749   -2.162992
  H     -4.207273   -2.327512   -2.438365
  H     -6.072472   -2.439893   -0.801832
  H     -4.545413   -2.807161    0.022539
  H     -5.290317   -1.210360    0.201721

 Total Charge           Charge          ....    0
 Multiplicity           Mult            ....    1
 Number of Electrons    NEL             ....  202
 Basis Dimension        Dim             ....  334

ORBITAL ENERGIES
----------------

  NO   OCC          E(Eh)            E(eV)
   0   2.0000     -88.046574     -2395.8691
   1   2.0000     -88.036185     -2395.5864
   2   2.0000     -87.992976     -2394.4106
   3   2.0000     -87.985399     -2394.2044
   4   2.0000     -76.431556     -2079.8084
   5   2.0000     -76.421207     -2079.5268
   6   2.0000     -18.800296      -511.5821
   7   2.0000     -18.795900      -511.4624
   8   2.0000     -18.790235      -511.3083
   9   2.0000     -18.788492      -511.2609
  10   2.0000      -9.958710      -270.9903
  11   2.0000      -9.958298      -270.9791
  12   2.0000      -9.955002      -270.8894
  13   2.0000      -9.950928      -270.7785
  14   2.0000      -9.948284      -270.7066
  15   2.0000      -9.889562      -269.1087
  16   2.0000      -9.887368      -269.0490
  17   2.0000      -9.883752      -268.9506
  18   2.0000      -9.876945      -268.7653
  19   2.0000      -7.691837      -209.3055
  20   2.0000      -7.681075      -209.0127
  21   2.0000      -7.637621      -207.8302
  22   2.0000      -7.630556      -207.6380
  23   2.0000      -6.429154      -174.9462
  24   2.0000      -6.419315      -174.6784
  25   2.0000      -5.719615      -155.6386
  26   2.0000      -5.716448      -155.5525
  27   2.0000      -5.709392      -155.3605
  28   2.0000      -5.708718      -155.3421
  29   2.0000      -5.705541      -155.2557
  30   2.0000      -5.697666      -155.0414
  31   2.0000      -5.666415      -154.1910
  32   2.0000      -5.659499      -154.0028
  33   2.0000      -5.658307      -153.9704
  34   2.0000      -5.657956      -153.9608
  35   2.0000      -5.651150      -153.7756
  36   2.0000      -5.650718      -153.7638
  37   2.0000      -4.651709      -126.5794
  38   2.0000      -4.650924      -126.5581
  39   2.0000      -4.649606      -126.5222
  40   2.0000      -4.641699      -126.3071
  41   2.0000      -4.641285      -126.2958
  42   2.0000      -4.639677      -126.2520
  43   2.0000      -0.992766       -27.0145
  44   2.0000      -0.983985       -26.7756
  45   2.0000      -0.952854       -25.9285
  46   2.0000      -0.943149       -25.6644
  47   2.0000      -0.764058       -20.7911
  48   2.0000      -0.723285       -19.6816
  49   2.0000      -0.708023       -19.2663
  50   2.0000      -0.692135       -18.8340
  51   2.0000      -0.683900       -18.6099
  52   2.0000      -0.673171       -18.3179
  53   2.0000      -0.656613       -17.8673
  54   2.0000      -0.640704       -17.4344
  55   2.0000      -0.604429       -16.4474
  56   2.0000      -0.594011       -16.1639
  57   2.0000      -0.578183       -15.7332
  58   2.0000      -0.569340       -15.4925
  59   2.0000      -0.562118       -15.2960
  60   2.0000      -0.498264       -13.5585
  61   2.0000      -0.491779       -13.3820
  62   2.0000      -0.479388       -13.0448
  63   2.0000      -0.470856       -12.8127
  64   2.0000      -0.459644       -12.5075
  65   2.0000      -0.448388       -12.2013
  66   2.0000      -0.444846       -12.1049
  67   2.0000      -0.437790       -11.9129
  68   2.0000      -0.428881       -11.6704
  69   2.0000      -0.418174       -11.3791
  70   2.0000      -0.409251       -11.1363
  71   2.0000      -0.397835       -10.8256
  72   2.0000      -0.393920       -10.7191
  73   2.0000      -0.392658       -10.6848
  74   2.0000      -0.388831       -10.5806
  75   2.0000      -0.382032       -10.3956
  76   2.0000      -0.366505        -9.9731
  77   2.0000      -0.360378        -9.8064
  78   2.0000      -0.354601        -9.6492
  79   2.0000      -0.351598        -9.5675
  80   2.0000      -0.348405        -9.4806
  81   2.0000      -0.345462        -9.4005
  82   2.0000      -0.344154        -9.3649
  83   2.0000      -0.339139        -9.2284
  84   2.0000      -0.327898        -8.9225
  85   2.0000      -0.319742        -8.7006
  86   2.0000      -0.314792        -8.5659
  87   2.0000      -0.301751        -8.2111
  88   2.0000      -0.292802        -7.9675
  89   2.0000      -0.288308        -7.8453
  90   2.0000      -0.285256        -7.7622
  91   2.0000      -0.278920        -7.5898
  92   2.0000      -0.271500        -7.3879
  93   2.0000      -0.268868        -7.3163
  94   2.0000      -0.262865        -7.1529
  95   2.0000      -0.236699        -6.4409
  96   2.0000      -0.213938        -5.8215
  97   2.0000      -0.211859        -5.7650
  98   2.0000      -0.205101        -5.5811
  99   2.0000      -0.203609        -5.5405
 100   2.0000      -0.199992        -5.4421
 101   0.0000      -0.042307        -1.1512
 102   0.0000      -0.022622        -0.6156
 103   0.0000      -0.014318        -0.3896
 104   0.0000      -0.003633        -0.0989
 105   0.0000       0.020277         0.5518

MULLIKEN ATOMIC CHARGES
-----------------------
   0 C :   -0.306264
   1 C :   -0.006963
   2 O :   -0.370855
   3 P :    0.593502
   4 S :   -0.312397
   5 O :   -0.370847
   6 C :    0.000889
   7 C :   -0.342247
   8 S :   -0.070183
   9 C :   -0.355226
  10 S :   -0.034880
  11 P :    0.594200
  12 S :   -0.320662
  13 O :   -0.384153
  14 C :   -0.004383
  15 C :   -0.339204
  16 O :   -0.383360
  17 C :   -0.002592
  18 C :   -0.307666
  19 H :    0.113944
  20 H :    0.122123
  21 H :    0.118845
  22 H :    0.106146
  23 H :    0.112682
  24 H :    0.108145
  25 H :    0.113697
  26 H :    0.117390
  27 H :    0.147969
  28 H :    0.121828
  29 H :    0.194827
  30 H :    0.188420
  31 H :    0.109747
  32 H :    0.100997
  33 H :    0.139490
  34 H :    0.131974
  35 H :    0.107063
  36 H :    0.113886
  37 H :    0.104263
  38 H :    0.111936
  39 H :    0.113788
  40 H :    0.124130
Sum of atomic charges:   -0.0000000

LOEWDIN ATOMIC CHARGES
----------------------
   0 C :   -0.363889
   1 C :   -0.119639
   2 O :   -0.243928
   3 P :    0.567563
   4 S :   -0.312459
   5 O :   -0.241765
   6 C :   -0.117886
   7 C :   -0.371936
   8 S :    0.104652
   9 C :   -0.473173
  10 S :    0.103862
  11 P :    0.564780
  12 S :   -0.319329
  13 O :   -0.251450
  14 C :   -0.121472
  15 C :   -0.374489
  16 O :   -0.252704
  17 C :   -0.115882
  18 C :   -0.365633
  19 H :    0.131352
  20 H :    0.122801
  21 H :    0.127395
  22 H :    0.119020
  23 H :    0.110707
  24 H :    0.120153
  25 H :    0.112416
  26 H :    0.133689
  27 H :    0.126655
  28 H :    0.124617
  29 H :    0.137413
  30 H :    0.134877
  31 H :    0.107910
  32 H :    0.116761
  33 H :    0.116981
  34 H :    0.124192
  35 H :    0.128637
  36 H :    0.112685
  37 H :    0.118271
  38 H :    0.130345
  39 H :    0.124851
  40 H :    0.123050

  Mayer bond orders larger than 0.100000
B(  0-C ,  1-C ) :   1.1668 B(  0-C , 19-H ) :   0.9389 B(  0-C , 20-H ) :   0.9377
B(  0-C , 21-H ) :   0.9461 B(  1-C ,  2-O ) :   0.9038 B(  1-C , 22-H ) :   0.9340
B(  1-C , 23-H ) :   0.9146 B(  2-O ,  3-P ) :   1.1085 B(  3-P ,  4-S ) :   1.6110
B(  3-P ,  5-O ) :   1.1101 B(  3-P ,  8-S ) :   0.9712 B(  4-S ,  8-S ) :   0.1152
B(  5-O ,  6-C ) :   0.9032 B(  6-C ,  7-C ) :   1.1645 B(  6-C , 24-H ) :   0.9329
B(  6-C , 25-H ) :   0.9163 B(  7-C , 26-H ) :   0.9365 B(  7-C , 27-H ) :   0.9281
B(  7-C , 28-H ) :   0.9437 B(  8-S ,  9-C ) :   0.9909 B(  9-C , 10-S ) :   0.9814
B(  9-C , 29-H ) :   0.8905 B(  9-C , 30-H ) :   0.8953 B( 10-S , 11-P ) :   0.9911
B( 11-P , 12-S ) :   1.6345 B( 11-P , 13-O ) :   1.0640 B( 11-P , 16-O ) :   1.0860
B( 13-O , 14-C ) :   0.9108 B( 14-C , 15-C ) :   1.1647 B( 14-C , 31-H ) :   0.9128
B( 14-C , 32-H ) :   0.9328 B( 15-C , 33-H ) :   0.9271 B( 15-C , 34-H ) :   0.9366
B( 15-C , 35-H ) :   0.9369 B( 16-O , 17-C ) :   0.9094 B( 17-C , 18-C ) :   1.1622
B( 17-C , 36-H ) :   0.9180 B( 17-C , 37-H ) :   0.9360 B( 18-C , 38-H ) :   0.9382
B( 18-C , 39-H ) :   0.9466 B( 18-C , 40-H ) :   0.9360

Dispersion correction           -0.063905561
FINAL SINGLE POINT ENERGY     -2929.519801594147

DIPOLE MOMENT
-------------

Method             : SCF
Type of density    : Electron Density
Multiplicity       :   1
Irrep              :   0
Energy             : -2929.6415532879223065 Eh
Relativity type    :
Basis              : AO
                                X                 Y                 Z
Electronic contribution:     -3.749555829       4.540262557     -10.389984424
Nuclear contribution   :      4.569186276      -5.868054918      11.172234686
                        -----------------------------------------
Total Dipole Moment    :      0.819630446      -1.327792361       0.782250262
                        -----------------------------------------
Magnitude (a.u.)       :      1.745491935
Magnitude (Debye)      :      4.436687909

Rotational constants in cm-1:             0.014436             0.004109             0.003776
Rotational constants in MHz :           432.787760           123.173225           113.195204

                             ****ORCA TERMINATED NORMALLY****
TOTAL RUN TIME: 0 days 0 hours 0 minutes 20 seconds 656 msec
