                         Program Version 6.0.0  -   RELEASE  -
|  1> ! pbe def2-sv(p) def2/J RI DEFGRID1 loosescf d4 GCP(DFT/SV(P)) printgap
|  2> %output
|  3>     printlevel normal
|  4> end
|  5> * xyz 0 1
|  6> C 5.246289459 -1.1373072328 -2.0322601064
|  7> C 3.7713882051 -1.1826659262 -1.6870423282
|  8> O 3.4990380988 -0.1148348267 -0.761958705
|  9> P 2.0064306647 0.346082322 -0.4362783325
| 10> S 0.9946460581 0.7760920837 -2.0594951433
| 11> O 2.2735533065 1.5840873815 0.4841043334
| 12> C 2.5989999224 1.5694984808 1.8956247524
| 13> C 3.7702135483 0.6695220278 2.220286718
| 14> S 1.2439075276 -1.2735807543 0.7202166599
| 15> C -0.066972802 -1.8644789527 -0.3924695547
| 16> S -1.7397681129 -1.7787810579 0.2966448599
| 17> P -2.0959765847 0.3171700941 0.2710465655
| 18> S -0.815370081 1.4961772148 1.1735730408
| 19> O -3.5848586208 0.4153374295 0.8080741181
| 20> C -4.0993755539 -0.2394168798 1.9833640238
| 21> C -3.2530868775 0.0008790482 3.2155054115
| 22> O -2.2281757802 0.7788645679 -1.2269247393
| 23> C -2.8401183532 0.0696225819 -2.3317575181
| 24> C -4.2522890781 -0.3946996678 -2.0479802296
| 25> H 5.4921025997 -0.1816909433 -2.4867399646
| 26> H 5.8424651799 -1.2632722509 -1.1333979027
| 27> H 5.4732358228 -1.9358670727 -2.730755643
| 28> H 3.5043240003 -2.1281104531 -1.2055355882
| 29> H 3.1471556613 -1.0415907405 -2.5763789155
| 30> H 2.8198134604 2.6171510282 2.1044792926
| 31> H 1.697533268 1.2750680726 2.4403400005
| 32> H 4.0180055161 0.7821065338 3.2711671356
| 33> H 3.5134938644 -0.3712597344 2.0283432241
| 34> H 4.6300800729 0.940813366 1.6132164143
| 35> H 0.1068152227 -2.921071503 -0.5790355615
| 36> H -0.0137921763 -1.2772977857 -1.3142849637
| 37> H -5.0977119332 0.1868630661 2.0962907846
| 38> H -4.1732061581 -1.3091813782 1.7692744267
| 39> H -3.1296955961 1.0673791064 3.3895937145
| 40> H -3.7337857094 -0.4524103596 4.0763769601
| 41> H -2.2656251799 -0.4405483839 3.0863749074
| 42> H -2.8097071797 0.805844779 -3.1368939304
| 43> H -2.1938601843 -0.7724305644 -2.5930769325
| 44> H -4.2546014053 -1.1795568398 -1.2948468558
| 45> H -4.8575610857 0.4369329187 -1.6968308495
| 46> H -4.6793307575 -0.7862508293 -2.9662716513
| 47> *
| 48>
| 49>                          ****END OF INPUT****

CARTESIAN COORDINATES (ANGSTROEM)
---------------------------------
  C      5.246289   -1.137307   -2.032260
  C      3.771388   -1.182666   -1.687042
  O      3.499038   -0.114835   -0.761959
  P      2.006431    0.346082   -0.436278
  S      0.994646    0.776092   -2.059495
  O      2.273553    1.584087    0.484104
  C      2.599000    1.569498    1.895625
  C      3.770214    0.669522    2.220287
  S      1.243908   -1.273581    0.720217
  C     -0.066973   -1.864479   -0.392470
  S     -1.739768   -1.778781    0.296645
  P     -2.095977    0.317170    0.271047
  S     -0.815370    1.496177    1.173573
  O     -3.584859    0.415337    0.808074
  C     -4.099376   -0.239417    1.983364
  C     -3.253087    0.000879    3.215505
  O     -2.228176    0.778865   -1.226925
  C     -2.840118    0.069623   -2.331758
  C     -4.252289   -0.394700   -2.047980
  H      5.492103   -0.181691   -2.486740
  H      5.842465   -1.263272   -1.133398
  H      5.473236   -1.935867   -2.730756
  H      3.504324   -2.128110   -1.205536
  H      3.147156   -1.041591   -2.576379
  H      2.819813    2.617151    2.104479
  H      1.697533    1.275068    2.440340
  H      4.018006    0.782107    3.271167
  H      3.513494   -0.371260    2.028343
  H      4.630080    0.940813    1.613216
  H      0.106815   -2.921072   -0.579036
  H     -0.013792   -1.277298   -1.314285
  H     -5.097712    0.186863    2.096291
  H     -4.173206   -1.309181    1.769274
  H     -3.129696    1.067379    3.389594
  H     -3.733786   -0.452410    4.076377
  H     -2.265625   -0.440548    3.086375
  H     -2.809707    0.805845   -3.136894
  H     -2.193860   -0.772431   -2.593077
  H     -4.254601   -1.179557   -1.294847
  H     -4.857561    0.436933   -1.696831
  H     -4.679331   -0.786251   -2.966272

 Total Charge           Charge          ....    0
 Multiplicity           Mult            ....    1
 Number of Electrons    NEL             ....  202
 Basis Dimension        Dim             ....  334

ORBITAL ENERGIES
----------------

  NO   OCC          E(Eh)            E(eV)
   0   2.0000     -88.045738     -2395.8463
   1   2.0000     -88.040555     -2395.7053
   2   2.0000     -87.977184     -2393.9809
   3   2.0000     -87.970786     -2393.8068
   4   2.0000     -76.421050     -2079.5225
   5   2.0000     -76.420270     -2079.5013
   6   2.0000     -18.787542      -511.2350
   7   2.0000     -18.786344      -511.2024
   8   2.0000     -18.782002      -511.0843
   9   2.0000     -18.779636      -511.0199
  10   2.0000      -9.957924      -270.9689
  11   2.0000      -9.957529      -270.9581
  12   2.0000      -9.952319      -270.8164
  13   2.0000      -9.951205      -270.7861
  14   2.0000      -9.946170      -270.6490
  15   2.0000      -9.886343      -269.0211
  16   2.0000      -9.885162      -268.9889
  17   2.0000      -9.884544      -268.9721
  18   2.0000      -9.880695      -268.8674
  19   2.0000      -7.690598      -209.2718
  20   2.0000      -7.685235      -209.1259
  21   2.0000      -7.622369      -207.4152
  22   2.0000      -7.615794      -207.2363
  23   2.0000      -6.417903      -174.6400
  24   2.0000      -6.417369      -174.6255
  25   2.0000      -5.718183      -155.5997
  26   2.0000      -5.714970      -155.5122
  27   2.0000      -5.713116      -155.4618
  28   2.0000      -5.709759      -155.3704
  29   2.0000      -5.708027      -155.3233
  30   2.0000      -5.702274      -155.1668
  31   2.0000      -5.651342      -153.7808
  32   2.0000      -5.644904      -153.6057
  33   2.0000      -5.643336      -153.5630
  34   2.0000      -5.642043      -153.5278
  35   2.0000      -5.636255      -153.3703
  36   2.0000      -5.635903      -153.3607
  37   2.0000      -4.640743      -126.2810
  38   2.0000      -4.640265      -126.2680
  39   2.0000      -4.639976      -126.2602
  40   2.0000      -4.639235      -126.2400
  41   2.0000      -4.637739      -126.1993
  42   2.0000      -4.637662      -126.1972
  43   2.0000      -0.981335       -26.7035
  44   2.0000      -0.980376       -26.6774
  45   2.0000      -0.939515       -25.5655
  46   2.0000      -0.937039       -25.4981
  47   2.0000      -0.760854       -20.7039
  48   2.0000      -0.717189       -19.5157
  49   2.0000      -0.710311       -19.3285
  50   2.0000      -0.688714       -18.7409
  51   2.0000      -0.688131       -18.7250
  52   2.0000      -0.676479       -18.4079
  53   2.0000      -0.646320       -17.5873
  54   2.0000      -0.631326       -17.1793
  55   2.0000      -0.593705       -16.1555
  56   2.0000      -0.584209       -15.8971
  57   2.0000      -0.576016       -15.6742
  58   2.0000      -0.569349       -15.4928
  59   2.0000      -0.561341       -15.2749
  60   2.0000      -0.499727       -13.5983
  61   2.0000      -0.491914       -13.3857
  62   2.0000      -0.470865       -12.8129
  63   2.0000      -0.469132       -12.7657
  64   2.0000      -0.453144       -12.3307
  65   2.0000      -0.450172       -12.2498
  66   2.0000      -0.436421       -11.8756
  67   2.0000      -0.431926       -11.7533
  68   2.0000      -0.430360       -11.7107
  69   2.0000      -0.416955       -11.3459
  70   2.0000      -0.408344       -11.1116
  71   2.0000      -0.403515       -10.9802
  72   2.0000      -0.398366       -10.8401
  73   2.0000      -0.390434       -10.6243
  74   2.0000      -0.377179       -10.2636
  75   2.0000      -0.361049        -9.8246
  76   2.0000      -0.356975        -9.7138
  77   2.0000      -0.355330        -9.6690
  78   2.0000      -0.350382        -9.5344
  79   2.0000      -0.348477        -9.4826
  80   2.0000      -0.346077        -9.4172
  81   2.0000      -0.343464        -9.3461
  82   2.0000      -0.342257        -9.3133
  83   2.0000      -0.338377        -9.2077
  84   2.0000      -0.333565        -9.0768
  85   2.0000      -0.317500        -8.6396
  86   2.0000      -0.306569        -8.3422
  87   2.0000      -0.293592        -7.9890
  88   2.0000      -0.291907        -7.9432
  89   2.0000      -0.284391        -7.7387
  90   2.0000      -0.281412        -7.6576
  91   2.0000      -0.271208        -7.3800
  92   2.0000      -0.269759        -7.3405
  93   2.0000      -0.258900        -7.0450
  94   2.0000      -0.253361        -6.8943
  95   2.0000      -0.241978        -6.5846
  96   2.0000      -0.219680        -5.9778
  97   2.0000      -0.199367        -5.4250
  98   2.0000      -0.195811        -5.3283
  99   2.0000      -0.183203        -4.9852
 100   2.0000      -0.177042        -4.8176
 101   0.0000      -0.040618        -1.1053
 102   0.0000      -0.028726        -0.7817
 103   0.0000      -0.012353        -0.3361
 104   0.0000       0.001259         0.0343
 105   0.0000       0.024606         0.6696

MULLIKEN ATOMIC CHARGES
-----------------------
   0 C :   -0.279752
   1 C :   -0.003358
   2 O :   -0.375821
   3 P :    0.599305
   4 S :   -0.298578
   5 O :   -0.347859
   6 C :   -0.005475
   7 C :   -0.319020
   8 S :   -0.107606
   9 C :   -0.331953
  10 S :   -0.135915
  11 P :    0.601108
  12 S :   -0.305140
  13 O :   -0.374004
  14 C :   -0.013104
  15 C :   -0.308876
  16 O :   -0.344762
  17 C :    0.004299
  18 C :   -0.309833
  19 H :    0.121456
  20 H :    0.113392
  21 H :    0.108231
  22 H :    0.088189
  23 H :    0.096535
  24 H :    0.111956
  25 H :    0.127280
  26 H :    0.115395
  27 H :    0.125224
  28 H :    0.125239
  29 H :    0.179147
  30 H :    0.190067
  31 H :    0.110076
  32 H :    0.111203
  33 H :    0.128924
  34 H :    0.108493
  35 H :    0.126384
  36 H :    0.113699
  37 H :    0.106085
  38 H :    0.113327
  39 H :    0.124537
  40 H :    0.111501
Sum of atomic charges:    0.0000000

LOEWDIN ATOMIC CHARGES
----------------------
   0 C :   -0.350312
   1 C :   -0.126173
   2 O :   -0.252826
   3 P :    0.575760
   4 S :   -0.297337
   5 O :   -0.219386
   6 C :   -0.112138
   7 C :   -0.367950
   8 S :    0.067529
   9 C :   -0.483967
  10 S :    0.058170
  11 P :    0.563420
  12 S :   -0.301544
  13 O :   -0.242820
  14 C :   -0.114088
  15 C :   -0.371446
  16 O :   -0.224866
  17 C :   -0.108164
  18 C :   -0.368221
  19 H :    0.129330
  20 H :    0.125002
  21 H :    0.128868
  22 H :    0.101361
  23 H :    0.103765
  24 H :    0.124707
  25 H :    0.111657
  26 H :    0.132716
  27 H :    0.115904
  28 H :    0.129641
  29 H :    0.136614
  30 H :    0.118081
  31 H :    0.121858
  32 H :    0.106623
  33 H :    0.130831
  34 H :    0.128658
  35 H :    0.121205
  36 H :    0.124966
  37 H :    0.108989
  38 H :    0.115908
  39 H :    0.129430
  40 H :    0.130245

  Mayer bond orders larger than 0.100000
B(  0-C ,  1-C ) :   1.1613 B(  0-C , 19-H ) :   0.9512 B(  0-C , 20-H ) :   0.9517
B(  0-C , 21-H ) :   0.9425 B(  1-C ,  2-O ) :   0.9177 B(  1-C , 22-H ) :   0.9224
B(  1-C , 23-H ) :   0.9069 B(  2-O ,  3-P ) :   1.0686 B(  3-P ,  4-S ) :   1.6123
B(  3-P ,  5-O ) :   1.1687 B(  3-P ,  8-S ) :   0.9313 B(  4-S ,  8-S ) :   0.1154
B(  4-S , 30-H ) :   0.1382 B(  5-O ,  6-C ) :   0.8931 B(  6-C ,  7-C ) :   1.1670
B(  6-C , 24-H ) :   0.9346 B(  6-C , 25-H ) :   0.9144 B(  7-C , 26-H ) :   0.9346
B(  7-C , 27-H ) :   0.9368 B(  7-C , 28-H ) :   0.9411 B(  8-S ,  9-C ) :   1.0099
B(  9-C , 10-S ) :   0.9901 B(  9-C , 29-H ) :   0.9108 B(  9-C , 30-H ) :   0.8373
B( 10-S , 11-P ) :   0.9318 B( 10-S , 12-S ) :   0.1149 B( 11-P , 12-S ) :   1.6538
B( 11-P , 13-O ) :   1.0896 B( 11-P , 16-O ) :   1.1462 B( 13-O , 14-C ) :   0.9149
B( 14-C , 15-C ) :   1.1680 B( 14-C , 31-H ) :   0.9338 B( 14-C , 32-H ) :   0.9264
B( 15-C , 33-H ) :   0.9407 B( 15-C , 34-H ) :   0.9338 B( 15-C , 35-H ) :   0.9321
B( 16-O , 17-C ) :   0.9024 B( 17-C , 18-C ) :   1.1651 B( 17-C , 36-H ) :   0.9355
B( 17-C , 37-H ) :   0.9220 B( 18-C , 38-H ) :   0.9396 B( 18-C , 39-H ) :   0.9424
B( 18-C , 40-H ) :   0.9360

Dispersion correction           -0.067694851
FINAL SINGLE POINT ENERGY     -2929.505261029779

DIPOLE MOMENT
-------------

Method             : SCF
Type of density    : Electron Density
Multiplicity       :   1
Irrep              :   0
Energy             : -2929.6228338878736395 Eh
Relativity type    :
Basis              : AO
                                X                 Y                 Z
Electronic contribution:     -3.142632414       6.456499367      -1.854761481
Nuclear contribution   :      2.937002709      -7.987537703       2.161299046
                        -----------------------------------------
Total Dipole Moment    :     -0.205629705      -1.531038335       0.306537564
                        -----------------------------------------
Magnitude (a.u.)       :      1.574905470
Magnitude (Debye)      :      4.003091573

Rotational constants in cm-1:             0.013183             0.005253             0.004635
Rotational constants in MHz :           395.207442           157.478725           138.961778

                             ****ORCA TERMINATED NORMALLY****
TOTAL RUN TIME: 0 days 0 hours 0 minutes 21 seconds 475 msec
