                         Program Version 6.0.0  -   RELEASE  -
|  1> ! pbe def2-sv(p) def2/J RI DEFGRID1 loosescf d4 GCP(DFT/SV(P)) printgap
|  2> %output
|  3>     printlevel normal
|  4> end
|  5> * xyz 0 1
|  6> C 1.2443063946 0.5623654623 2.8449736301
|  7> C 2.7294159754 0.3448443539 2.6386539448
|  8> O 3.13182967 0.6222389988 1.2863212592
|  9> P 2.7257114842 -0.3157208602 0.0677329295
| 10> S 2.7515782746 -2.2397392842 0.4638034781
| 11> O 3.7141978124 0.1792282989 -1.0647004589
| 12> C 5.0324297973 -0.3825019161 -1.2385354972
| 13> C 5.9494283181 -0.0654114807 -0.0757193247
| 14> S 0.944733805 0.5015785662 -0.7461838932
| 15> C -0.0906809329 -0.9955928772 -0.7688156412
| 16> S -1.4076747365 -0.9573844393 0.4651108114
| 17> P -2.6661871977 0.386076216 -0.6152812645
| 18> S -2.815935641 0.0504564208 -2.5352778434
| 19> O -2.0770782699 1.818675852 -0.3277470762
| 20> C -1.8489665013 2.3568127158 0.9977119957
| 21> C -3.0225723147 3.2023643124 1.4474553823
| 22> O -4.0267956225 0.3822681455 0.2051258024
| 23> C -5.0806935445 -0.5666844301 -0.0432977863
| 24> C -4.6709292646 -1.9857021166 0.2926385241
| 25> H 0.675304901 -0.1787389771 2.2833766403
| 26> H 1.0079259578 0.4563515409 3.8987719353
| 27> H 0.9613030875 1.5568836987 2.5092969915
| 28> H 3.0037501141 -0.6878139081 2.8775346421
| 29> H 3.324454973 1.0362761287 3.2367819779
| 30> H 4.931317023 -1.4649238948 -1.3673576212
| 31> H 5.3846408665 0.069305043 -2.1668453308
| 32> H 5.6046726152 -0.5777699356 0.8212894503
| 33> H 6.9543335722 -0.4028797862 -0.3098708051
| 34> H 5.9606105056 1.0049910915 0.1120649464
| 35> H 0.531919167 -1.8656903201 -0.5495052635
| 36> H -0.5450704681 -1.0704749007 -1.757344052
| 37> H -1.6700440395 1.5295086823 1.6902682763
| 38> H -0.9420120782 2.954950024 0.8890768296
| 39> H -2.7870848501 3.6538801143 2.4061102996
| 40> H -3.2176532226 3.9853856672 0.7198494719
| 41> H -3.9126182165 2.5874812573 1.5486113245
| 42> H -5.8956114104 -0.2216512494 0.5946377459
| 43> H -5.3723325659 -0.488959863 -1.095044526
| 44> H -5.5377130723 -2.6347679128 0.2202446225
| 45> H -3.9136886486 -2.3320275044 -0.4090515705
| 46> H -4.264663882 -2.0353275073 1.2997683626
| 47> *
| 48>
| 49>                          ****END OF INPUT****

CARTESIAN COORDINATES (ANGSTROEM)
---------------------------------
  C      1.244306    0.562365    2.844974
  C      2.729416    0.344844    2.638654
  O      3.131830    0.622239    1.286321
  P      2.725711   -0.315721    0.067733
  S      2.751578   -2.239739    0.463803
  O      3.714198    0.179228   -1.064700
  C      5.032430   -0.382502   -1.238535
  C      5.949428   -0.065411   -0.075719
  S      0.944734    0.501579   -0.746184
  C     -0.090681   -0.995593   -0.768816
  S     -1.407675   -0.957384    0.465111
  P     -2.666187    0.386076   -0.615281
  S     -2.815936    0.050456   -2.535278
  O     -2.077078    1.818676   -0.327747
  C     -1.848967    2.356813    0.997712
  C     -3.022572    3.202364    1.447455
  O     -4.026796    0.382268    0.205126
  C     -5.080694   -0.566684   -0.043298
  C     -4.670929   -1.985702    0.292639
  H      0.675305   -0.178739    2.283377
  H      1.007926    0.456352    3.898772
  H      0.961303    1.556884    2.509297
  H      3.003750   -0.687814    2.877535
  H      3.324455    1.036276    3.236782
  H      4.931317   -1.464924   -1.367358
  H      5.384641    0.069305   -2.166845
  H      5.604673   -0.577770    0.821289
  H      6.954334   -0.402880   -0.309871
  H      5.960611    1.004991    0.112065
  H      0.531919   -1.865690   -0.549505
  H     -0.545070   -1.070475   -1.757344
  H     -1.670044    1.529509    1.690268
  H     -0.942012    2.954950    0.889077
  H     -2.787085    3.653880    2.406110
  H     -3.217653    3.985386    0.719849
  H     -3.912618    2.587481    1.548611
  H     -5.895611   -0.221651    0.594638
  H     -5.372333   -0.488960   -1.095045
  H     -5.537713   -2.634768    0.220245
  H     -3.913689   -2.332028   -0.409052
  H     -4.264664   -2.035328    1.299768

 Total Charge           Charge          ....    0
 Multiplicity           Mult            ....    1
 Number of Electrons    NEL             ....  202
 Basis Dimension        Dim             ....  334

ORBITAL ENERGIES
----------------

  NO   OCC          E(Eh)            E(eV)
   0   2.0000     -88.044043     -2395.8002
   1   2.0000     -88.040719     -2395.7098
   2   2.0000     -87.996161     -2394.4973
   3   2.0000     -87.986463     -2394.2334
   4   2.0000     -76.428589     -2079.7276
   5   2.0000     -76.427414     -2079.6957
   6   2.0000     -18.798770      -511.5405
   7   2.0000     -18.794696      -511.4297
   8   2.0000     -18.793491      -511.3969
   9   2.0000     -18.791020      -511.3296
  10   2.0000      -9.956982      -270.9432
  11   2.0000      -9.955783      -270.9106
  12   2.0000      -9.955502      -270.9030
  13   2.0000      -9.953840      -270.8578
  14   2.0000      -9.949135      -270.7297
  15   2.0000      -9.887188      -269.0441
  16   2.0000      -9.886923      -269.0368
  17   2.0000      -9.886677      -269.0301
  18   2.0000      -9.886043      -269.0129
  19   2.0000      -7.688536      -209.2157
  20   2.0000      -7.685867      -209.1431
  21   2.0000      -7.640932      -207.9203
  22   2.0000      -7.631732      -207.6700
  23   2.0000      -6.426531      -174.8748
  24   2.0000      -6.425140      -174.8369
  25   2.0000      -5.716152      -155.5444
  26   2.0000      -5.713717      -155.4782
  27   2.0000      -5.713144      -155.4626
  28   2.0000      -5.710534      -155.3915
  29   2.0000      -5.705751      -155.2614
  30   2.0000      -5.702666      -155.1774
  31   2.0000      -5.669585      -154.2772
  32   2.0000      -5.661835      -154.0664
  33   2.0000      -5.661101      -154.0464
  34   2.0000      -5.660724      -154.0361
  35   2.0000      -5.652269      -153.8061
  36   2.0000      -5.651868      -153.7952
  37   2.0000      -4.648818      -126.5008
  38   2.0000      -4.648142      -126.4824
  39   2.0000      -4.648079      -126.4807
  40   2.0000      -4.647325      -126.4601
  41   2.0000      -4.646812      -126.4462
  42   2.0000      -4.645307      -126.4052
  43   2.0000      -0.991337       -26.9757
  44   2.0000      -0.988855       -26.9081
  45   2.0000      -0.949094       -25.8262
  46   2.0000      -0.947612       -25.7858
  47   2.0000      -0.761950       -20.7337
  48   2.0000      -0.723763       -19.6946
  49   2.0000      -0.711609       -19.3639
  50   2.0000      -0.692984       -18.8570
  51   2.0000      -0.690020       -18.7764
  52   2.0000      -0.677136       -18.4258
  53   2.0000      -0.653862       -17.7925
  54   2.0000      -0.639691       -17.4069
  55   2.0000      -0.606253       -16.4970
  56   2.0000      -0.595733       -16.2107
  57   2.0000      -0.577085       -15.7033
  58   2.0000      -0.574921       -15.6444
  59   2.0000      -0.557523       -15.1710
  60   2.0000      -0.503076       -13.6894
  61   2.0000      -0.494052       -13.4438
  62   2.0000      -0.477793       -13.0014
  63   2.0000      -0.475475       -12.9383
  64   2.0000      -0.458030       -12.4636
  65   2.0000      -0.450026       -12.2458
  66   2.0000      -0.443012       -12.0550
  67   2.0000      -0.439892       -11.9701
  68   2.0000      -0.431417       -11.7395
  69   2.0000      -0.422346       -11.4926
  70   2.0000      -0.409184       -11.1345
  71   2.0000      -0.396260       -10.7828
  72   2.0000      -0.394814       -10.7434
  73   2.0000      -0.392281       -10.6745
  74   2.0000      -0.384044       -10.4504
  75   2.0000      -0.376404       -10.2425
  76   2.0000      -0.367681       -10.0051
  77   2.0000      -0.359967        -9.7952
  78   2.0000      -0.357540        -9.7292
  79   2.0000      -0.354042        -9.6340
  80   2.0000      -0.350350        -9.5335
  81   2.0000      -0.348878        -9.4935
  82   2.0000      -0.343336        -9.3426
  83   2.0000      -0.341977        -9.3057
  84   2.0000      -0.337875        -9.1940
  85   2.0000      -0.320496        -8.7211
  86   2.0000      -0.313626        -8.5342
  87   2.0000      -0.300245        -8.1701
  88   2.0000      -0.297366        -8.0917
  89   2.0000      -0.294127        -8.0036
  90   2.0000      -0.287858        -7.8330
  91   2.0000      -0.276514        -7.5243
  92   2.0000      -0.272320        -7.4102
  93   2.0000      -0.267253        -7.2723
  94   2.0000      -0.262267        -7.1366
  95   2.0000      -0.232245        -6.3197
  96   2.0000      -0.220941        -6.0121
  97   2.0000      -0.217499        -5.9185
  98   2.0000      -0.209704        -5.7063
  99   2.0000      -0.206460        -5.6181
 100   2.0000      -0.199821        -5.4374
 101   0.0000      -0.042774        -1.1640
 102   0.0000      -0.032075        -0.8728
 103   0.0000      -0.011722        -0.3190
 104   0.0000       0.003348         0.0911
 105   0.0000       0.017954         0.4886

MULLIKEN ATOMIC CHARGES
-----------------------
   0 C :   -0.333107
   1 C :    0.000643
   2 O :   -0.371045
   3 P :    0.614076
   4 S :   -0.334035
   5 O :   -0.366266
   6 C :   -0.001779
   7 C :   -0.309583
   8 S :   -0.069084
   9 C :   -0.371763
  10 S :   -0.098230
  11 P :    0.598771
  12 S :   -0.307851
  13 O :   -0.350032
  14 C :   -0.028960
  15 C :   -0.286228
  16 O :   -0.381681
  17 C :   -0.000619
  18 C :   -0.321499
  19 H :    0.134071
  20 H :    0.111198
  21 H :    0.119530
  22 H :    0.110961
  23 H :    0.104684
  24 H :    0.113134
  25 H :    0.109181
  26 H :    0.122543
  27 H :    0.113078
  28 H :    0.119237
  29 H :    0.196169
  30 H :    0.197016
  31 H :    0.112741
  32 H :    0.117280
  33 H :    0.108526
  34 H :    0.120640
  35 H :    0.120708
  36 H :    0.105767
  37 H :    0.115195
  38 H :    0.116072
  39 H :    0.132565
  40 H :    0.117978
Sum of atomic charges:   -0.0000000

LOEWDIN ATOMIC CHARGES
----------------------
   0 C :   -0.371147
   1 C :   -0.118743
   2 O :   -0.243935
   3 P :    0.572296
   4 S :   -0.312293
   5 O :   -0.242650
   6 C :   -0.113752
   7 C :   -0.365174
   8 S :    0.093933
   9 C :   -0.490092
  10 S :    0.086033
  11 P :    0.569696
  12 S :   -0.306473
  13 O :   -0.232342
  14 C :   -0.118253
  15 C :   -0.359375
  16 O :   -0.246746
  17 C :   -0.115661
  18 C :   -0.371584
  19 H :    0.114092
  20 H :    0.130463
  21 H :    0.123481
  22 H :    0.109615
  23 H :    0.118566
  24 H :    0.112370
  25 H :    0.121152
  26 H :    0.122488
  27 H :    0.130904
  28 H :    0.127561
  29 H :    0.125574
  30 H :    0.127909
  31 H :    0.104742
  32 H :    0.120385
  33 H :    0.129099
  34 H :    0.129227
  35 H :    0.125735
  36 H :    0.118781
  37 H :    0.114586
  38 H :    0.132719
  39 H :    0.123398
  40 H :    0.123413

  Mayer bond orders larger than 0.100000
B(  0-C ,  1-C ) :   1.1626 B(  0-C , 19-H ) :   0.9276 B(  0-C , 20-H ) :   0.9375
B(  0-C , 21-H ) :   0.9406 B(  1-C ,  2-O ) :   0.9137 B(  1-C , 22-H ) :   0.9150
B(  1-C , 23-H ) :   0.9329 B(  2-O ,  3-P ) :   1.1009 B(  3-P ,  4-S ) :   1.5815
B(  3-P ,  5-O ) :   1.1402 B(  3-P ,  8-S ) :   0.9647 B(  4-S ,  8-S ) :   0.1167
B(  4-S , 29-H ) :   0.1091 B(  5-O ,  6-C ) :   0.9092 B(  6-C ,  7-C ) :   1.1629
B(  6-C , 24-H ) :   0.9203 B(  6-C , 25-H ) :   0.9353 B(  7-C , 26-H ) :   0.9382
B(  7-C , 27-H ) :   0.9380 B(  7-C , 28-H ) :   0.9456 B(  8-S ,  9-C ) :   1.0069
B(  9-C , 10-S ) :   1.0047 B(  9-C , 29-H ) :   0.8531 B(  9-C , 30-H ) :   0.8660
B( 10-S , 11-P ) :   0.9492 B( 10-S , 12-S ) :   0.1074 B( 11-P , 12-S ) :   1.6400
B( 11-P , 13-O ) :   1.1445 B( 11-P , 16-O ) :   1.0872 B( 13-O , 14-C ) :   0.8914
B( 14-C , 15-C ) :   1.1600 B( 14-C , 31-H ) :   0.9078 B( 14-C , 32-H ) :   0.9315
B( 15-C , 33-H ) :   0.9400 B( 15-C , 34-H ) :   0.9467 B( 15-C , 35-H ) :   0.9414
B( 16-O , 17-C ) :   0.9030 B( 17-C , 18-C ) :   1.1662 B( 17-C , 36-H ) :   0.9340
B( 17-C , 37-H ) :   0.9190 B( 18-C , 38-H ) :   0.9368 B( 18-C , 39-H ) :   0.9340
B( 18-C , 40-H ) :   0.9435

Dispersion correction           -0.063617676
FINAL SINGLE POINT ENERGY     -2929.522038943501

DIPOLE MOMENT
-------------

Method             : SCF
Type of density    : Electron Density
Multiplicity       :   1
Irrep              :   0
Energy             : -2929.6433833731425693 Eh
Relativity type    :
Basis              : AO
                                X                 Y                 Z
Electronic contribution:     -0.118681861      -4.163294064     -15.363214494
Nuclear contribution   :      0.237390813       4.630809025      16.932400852
                        -----------------------------------------
Total Dipole Moment    :      0.118708952       0.467514961       1.569186358
                        -----------------------------------------
Magnitude (a.u.)       :      1.641647916
Magnitude (Debye)      :      4.172737389

Rotational constants in cm-1:             0.014326             0.004021             0.003832
Rotational constants in MHz :           429.479554           120.552317           114.878252

                             ****ORCA TERMINATED NORMALLY****
TOTAL RUN TIME: 0 days 0 hours 0 minutes 20 seconds 843 msec
