                         Program Version 6.0.0  -   RELEASE  -
|  1> ! wb97x-v def2-tzvp def2/J RIJCOSX DEFGRID2 scfconv7 GCP(DFT/TZ) printgap
|  2> %output
|  3>     printlevel normal
|  4> end
|  5> * xyz 0 1
|  6> C -2.5691632732382077 0.601050277280938 -0.0024735445351519083
|  7> C -1.2244530275929382 -0.06833888823287688 9.464419705615767e-05
|  8> C -1.1388425847129597 -1.4621650909403021 0.00010617095987461779
|  9> C 0.10091862389458506 -2.0959341015892883 0.002026553592670571
| 10> C 1.2654618529920285 -1.3428056370055612 0.0010918015960752739
| 11> C 1.183590771855048 0.05020803584708517 -0.0006610029241604384
| 12> C -0.051719217606065265 0.7148988301671116 0.0025542836197497017
| 13> C -0.16398660218732083 2.213876261860832 0.004133575318205188
| 14> O 2.3949576612443355 0.7161069951041218 -0.005314562183447003
| 15> H -2.703162104191096 1.2338574639675923 0.8825905712472621
| 16> H -2.689965115505205 1.253074856575731 -0.8753196955034445
| 17> H -3.370702412949034 -0.14080153106593532 -0.01616764343271065
| 18> H -2.051631010652311 -2.0503074294489956 -0.0014613120962493813
| 19> H 0.16083728248596033 -3.1799309979390413 0.002849278840829657
| 20> H 2.242968446984462 -1.8140586481688783 0.0002818686698057649
| 21> H 0.7963008717136835 2.7321792987305034 0.05478644785061498
| 22> H -0.672788951343115 2.569359656181763 -0.8989366953690824
| 23> H -0.7539823911207586 2.5588305666386213 0.8601499461040097
| 24> H 2.244257170024009 1.6701515371024558 -0.019630197708153472
| 25> *
| 26>
| 27>                          ****END OF INPUT****

CARTESIAN COORDINATES (ANGSTROEM)
---------------------------------
  C     -2.569163    0.601050   -0.002474
  C     -1.224453   -0.068339    0.000095
  C     -1.138843   -1.462165    0.000106
  C      0.100919   -2.095934    0.002027
  C      1.265462   -1.342806    0.001092
  C      1.183591    0.050208   -0.000661
  C     -0.051719    0.714899    0.002554
  C     -0.163987    2.213876    0.004134
  O      2.394958    0.716107   -0.005315
  H     -2.703162    1.233857    0.882591
  H     -2.689965    1.253075   -0.875320
  H     -3.370702   -0.140802   -0.016168
  H     -2.051631   -2.050307   -0.001461
  H      0.160837   -3.179931    0.002849
  H      2.242968   -1.814059    0.000282
  H      0.796301    2.732179    0.054786
  H     -0.672789    2.569360   -0.898937
  H     -0.753982    2.558831    0.860150
  H      2.244257    1.670152   -0.019630

 Total Charge           Charge          ....    0
 Multiplicity           Mult            ....    1
 Number of Electrons    NEL             ....   66
 Basis Dimension        Dim             ....  339

ORBITAL ENERGIES
----------------

  NO   OCC          E(Eh)            E(eV)
   0   2.0000     -21.697226      -590.4115
   1   2.0000     -12.108466      -329.4881
   2   2.0000     -12.059817      -328.1643
   3   2.0000     -12.058843      -328.1378
   4   2.0000     -12.056308      -328.0688
   5   2.0000     -12.047289      -327.8234
   6   2.0000     -12.045491      -327.7745
   7   2.0000     -12.039113      -327.6009
   8   2.0000     -12.037607      -327.5599
   9   2.0000      -1.709354       -46.5139
  10   2.0000      -1.385839       -37.7106
  11   2.0000      -1.302913       -35.4541
  12   2.0000      -1.286385       -35.0043
  13   2.0000      -1.220936       -33.2233
  14   2.0000      -1.183630       -32.2082
  15   2.0000      -1.138941       -30.9922
  16   2.0000      -1.087501       -29.5924
  17   2.0000      -1.051851       -28.6223
  18   2.0000      -0.993244       -27.0276
  19   2.0000      -0.943018       -25.6608
  20   2.0000      -0.940862       -25.6022
  21   2.0000      -0.936968       -25.4962
  22   2.0000      -0.891078       -24.2475
  23   2.0000      -0.870277       -23.6814
  24   2.0000      -0.857265       -23.3274
  25   2.0000      -0.845229       -22.9998
  26   2.0000      -0.831369       -22.6227
  27   2.0000      -0.830257       -22.5924
  28   2.0000      -0.812719       -22.1152
  29   2.0000      -0.806846       -21.9554
  30   2.0000      -0.752020       -20.4635
  31   2.0000      -0.631634       -17.1876
  32   2.0000      -0.628375       -17.0989
  33   0.0000      -0.240829        -6.5533
  34   0.0000      -0.238544        -6.4911
  35   0.0000      -0.151377        -4.1192
  36   0.0000      -0.078104        -2.1253
  37   0.0000      -0.071343        -1.9414

MULLIKEN ATOMIC CHARGES
-----------------------
   0 C :   -0.349377
   1 C :    0.102243
   2 C :   -0.217209
   3 C :   -0.087469
   4 C :   -0.243035
   5 C :    0.224446
   6 C :   -0.040777
   7 C :   -0.338060
   8 O :   -0.379480
   9 H :    0.119625
  10 H :    0.117469
  11 H :    0.119524
  12 H :    0.105618
  13 H :    0.114438
  14 H :    0.119635
  15 H :    0.073893
  16 H :    0.133832
  17 H :    0.129466
  18 H :    0.295217
Sum of atomic charges:    0.0000000

LOEWDIN ATOMIC CHARGES
----------------------
   0 C :   -0.247401
   1 C :   -0.141350
   2 C :   -0.139167
   3 C :   -0.139472
   4 C :   -0.127619
   5 C :   -0.227740
   6 C :   -0.142440
   7 C :   -0.250990
   8 O :    0.062180
   9 H :    0.125867
  10 H :    0.125995
  11 H :    0.125558
  12 H :    0.140966
  13 H :    0.142073
  14 H :    0.146748
  15 H :    0.112003
  16 H :    0.130859
  17 H :    0.131028
  18 H :    0.172902

  Mayer bond orders larger than 0.100000
B(  0-C ,  1-C ) :   0.9228 B(  0-C ,  9-H ) :   0.9805 B(  0-C , 10-H ) :   0.9766
B(  0-C , 11-H ) :   0.9887 B(  1-C ,  2-C ) :   1.4439 B(  1-C ,  6-C ) :   1.3096
B(  2-C ,  3-C ) :   1.4197 B(  2-C , 12-H ) :   0.9742 B(  3-C ,  4-C ) :   1.4485
B(  3-C , 13-H ) :   0.9805 B(  4-C ,  5-C ) :   1.4124 B(  4-C , 14-H ) :   0.9759
B(  5-C ,  6-C ) :   1.3414 B(  5-C ,  8-O ) :   1.1564 B(  6-C ,  7-C ) :   0.9265
B(  7-C , 15-H ) :   0.9795 B(  7-C , 16-H ) :   0.9842 B(  7-C , 17-H ) :   0.9832
B(  8-O , 18-H ) :   0.8888

FINAL SINGLE POINT ENERGY      -386.119582065794

DIPOLE MOMENT
-------------

Method             : SCF
Type of density    : Electron Density
Multiplicity       :   1
Irrep              :   0
Energy             :  -386.1311217702944987 Eh
Relativity type    :
Basis              : AO
                                X                 Y                 Z
Electronic contribution:      5.859465220      -3.931144204       0.001003153
Nuclear contribution   :     -6.362006817       4.571712085      -0.009232070
                        -----------------------------------------
Total Dipole Moment    :     -0.502541597       0.640567880      -0.008228917
                        -----------------------------------------
Magnitude (a.u.)       :      0.814213106
Magnitude (Debye)      :      2.069565243

Rotational constants in cm-1:             0.074824             0.058834             0.033343
Rotational constants in MHz :          2243.179921          1763.806655           999.605234

                             ****ORCA TERMINATED NORMALLY****
TOTAL RUN TIME: 0 days 0 hours 2 minutes 36 seconds 356 msec
