                         Program Version 6.0.0  -   RELEASE  -
|  1> ! wb97x-v def2-tzvp def2/J RIJCOSX DEFGRID2 scfconv7 GCP(DFT/TZ) printgap
|  2> %output
|  3>     printlevel normal
|  4> end
|  5> %cpcm
|  6>     smd true
|  7>     smdsolvent "water"
|  8> end
|  9> * xyz 0 1
| 10> C -2.5691632732382077 0.601050277280938 -0.0024735445351519083
| 11> C -1.2244530275929382 -0.06833888823287688 9.464419705615767e-05
| 12> C -1.1388425847129597 -1.4621650909403021 0.00010617095987461779
| 13> C 0.10091862389458506 -2.0959341015892883 0.002026553592670571
| 14> C 1.2654618529920285 -1.3428056370055612 0.0010918015960752739
| 15> C 1.183590771855048 0.05020803584708517 -0.0006610029241604384
| 16> C -0.051719217606065265 0.7148988301671116 0.0025542836197497017
| 17> C -0.16398660218732083 2.213876261860832 0.004133575318205188
| 18> O 2.3949576612443355 0.7161069951041218 -0.005314562183447003
| 19> H -2.703162104191096 1.2338574639675923 0.8825905712472621
| 20> H -2.689965115505205 1.253074856575731 -0.8753196955034445
| 21> H -3.370702412949034 -0.14080153106593532 -0.01616764343271065
| 22> H -2.051631010652311 -2.0503074294489956 -0.0014613120962493813
| 23> H 0.16083728248596033 -3.1799309979390413 0.002849278840829657
| 24> H 2.242968446984462 -1.8140586481688783 0.0002818686698057649
| 25> H 0.7963008717136835 2.7321792987305034 0.05478644785061498
| 26> H -0.672788951343115 2.569359656181763 -0.8989366953690824
| 27> H -0.7539823911207586 2.5588305666386213 0.8601499461040097
| 28> H 2.244257170024009 1.6701515371024558 -0.019630197708153472
| 29> *
| 30>
| 31>                          ****END OF INPUT****

CARTESIAN COORDINATES (ANGSTROEM)
---------------------------------
  C     -2.569163    0.601050   -0.002474
  C     -1.224453   -0.068339    0.000095
  C     -1.138843   -1.462165    0.000106
  C      0.100919   -2.095934    0.002027
  C      1.265462   -1.342806    0.001092
  C      1.183591    0.050208   -0.000661
  C     -0.051719    0.714899    0.002554
  C     -0.163987    2.213876    0.004134
  O      2.394958    0.716107   -0.005315
  H     -2.703162    1.233857    0.882591
  H     -2.689965    1.253075   -0.875320
  H     -3.370702   -0.140802   -0.016168
  H     -2.051631   -2.050307   -0.001461
  H      0.160837   -3.179931    0.002849
  H      2.242968   -1.814059    0.000282
  H      0.796301    2.732179    0.054786
  H     -0.672789    2.569360   -0.898937
  H     -0.753982    2.558831    0.860150
  H      2.244257    1.670152   -0.019630

 Total Charge           Charge          ....    0
 Multiplicity           Mult            ....    1
 Number of Electrons    NEL             ....   66
 Basis Dimension        Dim             ....  339

ORBITAL ENERGIES
----------------

  NO   OCC          E(Eh)            E(eV)
   0   2.0000     -21.698325      -590.4414
   1   2.0000     -12.109454      -329.5150
   2   2.0000     -12.058182      -328.1198
   3   2.0000     -12.054772      -328.0270
   4   2.0000     -12.047235      -327.8219
   5   2.0000     -12.040556      -327.6402
   6   2.0000     -12.039259      -327.6049
   7   2.0000     -12.036790      -327.5377
   8   2.0000     -12.032937      -327.4329
   9   2.0000      -1.710822       -46.5538
  10   2.0000      -1.385916       -37.7127
  11   2.0000      -1.300478       -35.3878
  12   2.0000      -1.284615       -34.9562
  13   2.0000      -1.212633       -32.9974
  14   2.0000      -1.176628       -32.0177
  15   2.0000      -1.137090       -30.9418
  16   2.0000      -1.085549       -29.5393
  17   2.0000      -1.050165       -28.5765
  18   2.0000      -0.995685       -27.0940
  19   2.0000      -0.945234       -25.7211
  20   2.0000      -0.943325       -25.6692
  21   2.0000      -0.933632       -25.4054
  22   2.0000      -0.885417       -24.0934
  23   2.0000      -0.865460       -23.5504
  24   2.0000      -0.843848       -22.9623
  25   2.0000      -0.835051       -22.7229
  26   2.0000      -0.821304       -22.3488
  27   2.0000      -0.815936       -22.2028
  28   2.0000      -0.803435       -21.8626
  29   2.0000      -0.798841       -21.7376
  30   2.0000      -0.752963       -20.4892
  31   2.0000      -0.632281       -17.2052
  32   2.0000      -0.630123       -17.1465
  33   0.0000      -0.241831        -6.5806
  34   0.0000      -0.239924        -6.5287
  35   0.0000      -0.149521        -4.0687
  36   0.0000      -0.071835        -1.9547
  37   0.0000      -0.049802        -1.3552

MULLIKEN ATOMIC CHARGES
-----------------------
   0 C :   -0.388304
   1 C :    0.078713
   2 C :   -0.271581
   3 C :   -0.141141
   4 C :   -0.303761
   5 C :    0.254110
   6 C :   -0.063559
   7 C :   -0.383007
   8 O :   -0.456618
   9 H :    0.143668
  10 H :    0.141602
  11 H :    0.142409
  12 H :    0.152541
  13 H :    0.158501
  14 H :    0.152117
  15 H :    0.127550
  16 H :    0.150581
  17 H :    0.148065
  18 H :    0.358114
Sum of atomic charges:   -0.0000000

LOEWDIN ATOMIC CHARGES
----------------------
   0 C :   -0.248903
   1 C :   -0.146253
   2 C :   -0.151262
   3 C :   -0.155260
   4 C :   -0.148567
   5 C :   -0.241029
   6 C :   -0.140692
   7 C :   -0.247804
   8 O :    0.036737
   9 H :    0.132812
  10 H :    0.132782
  11 H :    0.129773
  12 H :    0.150367
  13 H :    0.150965
  14 H :    0.152164
  15 H :    0.125455
  16 H :    0.136524
  17 H :    0.136580
  18 H :    0.195612

  Mayer bond orders larger than 0.100000
B(  0-C ,  1-C ) :   0.9379 B(  0-C ,  9-H ) :   0.9730 B(  0-C , 10-H ) :   0.9702
B(  0-C , 11-H ) :   0.9834 B(  1-C ,  2-C ) :   1.4127 B(  1-C ,  6-C ) :   1.2801
B(  2-C ,  3-C ) :   1.4018 B(  2-C , 12-H ) :   0.9818 B(  3-C ,  4-C ) :   1.4350
B(  3-C , 13-H ) :   0.9823 B(  4-C ,  5-C ) :   1.3761 B(  4-C , 14-H ) :   0.9862
B(  5-C ,  6-C ) :   1.3333 B(  5-C ,  8-O ) :   1.1192 B(  6-C ,  7-C ) :   0.9547
B(  7-C , 15-H ) :   0.9708 B(  7-C , 16-H ) :   0.9762 B(  7-C , 17-H ) :   0.9757
B(  8-O , 18-H ) :   0.8517

FINAL SINGLE POINT ENERGY      -386.128632496614

DIPOLE MOMENT
-------------

Method             : SCF
Type of density    : Electron Density
Multiplicity       :   1
Irrep              :   0
Energy             :  -386.1401722011144670 Eh
Relativity type    :
Basis              : AO
                                X                 Y                 Z
Electronic contribution:      5.632417774      -3.582383565      -0.001930515
Nuclear contribution   :     -6.362006817       4.571712085      -0.009232070
                        -----------------------------------------
Total Dipole Moment    :     -0.729589042       0.989328520      -0.011162585
                        -----------------------------------------
Magnitude (a.u.)       :      1.229306998
Magnitude (Debye)      :      3.124650068

Rotational constants in cm-1:             0.074824             0.058834             0.033343
Rotational constants in MHz :          2243.179921          1763.806655           999.605234

                             ****ORCA TERMINATED NORMALLY****
TOTAL RUN TIME: 0 days 0 hours 2 minutes 45 seconds 325 msec
