                         Program Version 6.0.0  -   RELEASE  -
|  1> ! pbe def2-sv(p) def2/J RI DEFGRID1 loosescf d4 GCP(DFT/SV(P)) printgap
|  2> %output
|  3>     printlevel normal
|  4> end
|  5> * xyz 0 1
|  6> C 2.5249603689 -2.0262320237 -2.0702966154
|  7> C 2.1336710841 -0.5658360143 -2.1264335312
|  8> O 2.6335543548 0.2059360419 -1.0101769962
|  9> P 2.5658977871 -0.1447414096 0.5256745349
| 10> S 2.9384021372 1.4417533209 1.6105535434
| 11> O 3.6205796359 -1.3233262781 0.6694540762
| 12> C 4.2190281914 -1.6771781033 1.9284733094
| 13> C 3.2148567689 -2.265185978 2.8987413873
| 14> S 0.6763551264 -1.0672873962 0.8750414018
| 15> C -0.2484509922 0.4610002213 1.129426386
| 16> S -0.6091734249 1.3284966028 -0.4335635186
| 17> P -2.5909176288 0.5749201491 -0.6916070617
| 18> S -3.4620984853 1.0860343173 -2.3680106725
| 19> O -3.3508124675 0.9332725614 0.6534698527
| 20> C -4.1490138849 2.1248429926 0.7622390323
| 21> C -3.2953894395 3.3772727936 0.7953573204
| 22> O -2.4601490026 -0.976631714 -0.4043611909
| 23> C -1.9622064124 -1.8740263886 -1.4194461026
| 24> C -1.8534949332 -3.2503626997 -0.7977167276
| 25> H 3.6049273989 -2.1211524204 -1.9955995677
| 26> H 2.068839194 -2.5103153533 -1.2088685719
| 27> H 2.1828080281 -2.5175893888 -2.9761661379
| 28> H 1.046522539 -0.4437829598 -2.1549870356
| 29> H 2.569830665 -0.0634482014 -2.9913967373
| 30> H 4.9871365104 -2.4020549128 1.6554121291
| 31> H 4.6859803497 -0.7830712706 2.3533703141
| 32> H 3.7391239493 -2.6362725817 3.7735230585
| 33> H 2.5071393985 -1.4997867427 3.2127255881
| 34> H 2.669045937 -3.0809813193 2.4320284451
| 35> H 0.3556676316 1.1388520288 1.7347271824
| 36> H -1.1826779345 0.2031861972 1.6225932235
| 37> H -4.8440708277 2.1576300161 -0.0827457201
| 38> H -4.7018856636 1.9877976713 1.6925943995
| 39> H -3.9316055664 4.2419404003 0.9547775336
| 40> H -2.5616019295 3.3201909716 1.5957641632
| 41> H -2.7728644027 3.4956211251 -0.1539882553
| 42> H -2.6586460858 -1.8580361633 -2.2631489079
| 43> H -0.986192877 -1.517765204 -1.7637876983
| 44> H -1.1532633792 -3.2241142623 0.0330308813
| 45> H -2.8250890478 -3.5677798777 -0.4316401295
| 46> H -1.5029921935 -3.9526454409 -1.5464186172
| 47> *
| 48>
| 49>                          ****END OF INPUT****

CARTESIAN COORDINATES (ANGSTROEM)
---------------------------------
  C      2.524960   -2.026232   -2.070297
  C      2.133671   -0.565836   -2.126434
  O      2.633554    0.205936   -1.010177
  P      2.565898   -0.144741    0.525675
  S      2.938402    1.441753    1.610554
  O      3.620580   -1.323326    0.669454
  C      4.219028   -1.677178    1.928473
  C      3.214857   -2.265186    2.898741
  S      0.676355   -1.067287    0.875041
  C     -0.248451    0.461000    1.129426
  S     -0.609173    1.328497   -0.433564
  P     -2.590918    0.574920   -0.691607
  S     -3.462098    1.086034   -2.368011
  O     -3.350812    0.933273    0.653470
  C     -4.149014    2.124843    0.762239
  C     -3.295389    3.377273    0.795357
  O     -2.460149   -0.976632   -0.404361
  C     -1.962206   -1.874026   -1.419446
  C     -1.853495   -3.250363   -0.797717
  H      3.604927   -2.121152   -1.995600
  H      2.068839   -2.510315   -1.208869
  H      2.182808   -2.517589   -2.976166
  H      1.046523   -0.443783   -2.154987
  H      2.569831   -0.063448   -2.991397
  H      4.987137   -2.402055    1.655412
  H      4.685980   -0.783071    2.353370
  H      3.739124   -2.636273    3.773523
  H      2.507139   -1.499787    3.212726
  H      2.669046   -3.080981    2.432028
  H      0.355668    1.138852    1.734727
  H     -1.182678    0.203186    1.622593
  H     -4.844071    2.157630   -0.082746
  H     -4.701886    1.987798    1.692594
  H     -3.931606    4.241940    0.954778
  H     -2.561602    3.320191    1.595764
  H     -2.772864    3.495621   -0.153988
  H     -2.658646   -1.858036   -2.263149
  H     -0.986193   -1.517765   -1.763788
  H     -1.153263   -3.224114    0.033031
  H     -2.825089   -3.567780   -0.431640
  H     -1.502992   -3.952645   -1.546419

 Total Charge           Charge          ....    0
 Multiplicity           Mult            ....    1
 Number of Electrons    NEL             ....  202
 Basis Dimension        Dim             ....  334

ORBITAL ENERGIES
----------------

  NO   OCC          E(Eh)            E(eV)
   0   2.0000     -88.051382     -2395.9999
   1   2.0000     -88.045556     -2395.8414
   2   2.0000     -87.990448     -2394.3418
   3   2.0000     -87.988584     -2394.2911
   4   2.0000     -76.432166     -2079.8250
   5   2.0000     -76.429003     -2079.7389
   6   2.0000     -18.800000      -511.5740
   7   2.0000     -18.795715      -511.4574
   8   2.0000     -18.795261      -511.4451
   9   2.0000     -18.795136      -511.4417
  10   2.0000      -9.958976      -270.9975
  11   2.0000      -9.957910      -270.9685
  12   2.0000      -9.957873      -270.9675
  13   2.0000      -9.957222      -270.9498
  14   2.0000      -9.954971      -270.8885
  15   2.0000      -9.892682      -269.1936
  16   2.0000      -9.890025      -269.1213
  17   2.0000      -9.888917      -269.0911
  18   2.0000      -9.884854      -268.9805
  19   2.0000      -7.695753      -209.4121
  20   2.0000      -7.690060      -209.2572
  21   2.0000      -7.635629      -207.7760
  22   2.0000      -7.633855      -207.7278
  23   2.0000      -6.429475      -174.9549
  24   2.0000      -6.426639      -174.8777
  25   2.0000      -5.723423      -155.7422
  26   2.0000      -5.720301      -155.6573
  27   2.0000      -5.718103      -155.5975
  28   2.0000      -5.714426      -155.4974
  29   2.0000      -5.712986      -155.4582
  30   2.0000      -5.707148      -155.2994
  31   2.0000      -5.664618      -154.1421
  32   2.0000      -5.662874      -154.0946
  33   2.0000      -5.656191      -153.9128
  34   2.0000      -5.655816      -153.9026
  35   2.0000      -5.654407      -153.8642
  36   2.0000      -5.653934      -153.8514
  37   2.0000      -4.652259      -126.5944
  38   2.0000      -4.651272      -126.5675
  39   2.0000      -4.649745      -126.5260
  40   2.0000      -4.648934      -126.5039
  41   2.0000      -4.648897      -126.5029
  42   2.0000      -4.646850      -126.4472
  43   2.0000      -0.993849       -27.0440
  44   2.0000      -0.992069       -26.9956
  45   2.0000      -0.950682       -25.8694
  46   2.0000      -0.950211       -25.8566
  47   2.0000      -0.767224       -20.8772
  48   2.0000      -0.726119       -19.7587
  49   2.0000      -0.716429       -19.4950
  50   2.0000      -0.695544       -18.9267
  51   2.0000      -0.687448       -18.7064
  52   2.0000      -0.681854       -18.5542
  53   2.0000      -0.656861       -17.8741
  54   2.0000      -0.640667       -17.4334
  55   2.0000      -0.604119       -16.4389
  56   2.0000      -0.598995       -16.2995
  57   2.0000      -0.582193       -15.8423
  58   2.0000      -0.567508       -15.4427
  59   2.0000      -0.564482       -15.3603
  60   2.0000      -0.509584       -13.8665
  61   2.0000      -0.497447       -13.5362
  62   2.0000      -0.477475       -12.9928
  63   2.0000      -0.473914       -12.8959
  64   2.0000      -0.466938       -12.7060
  65   2.0000      -0.448568       -12.2062
  66   2.0000      -0.445561       -12.1243
  67   2.0000      -0.441553       -12.0153
  68   2.0000      -0.434514       -11.8237
  69   2.0000      -0.431446       -11.7403
  70   2.0000      -0.413493       -11.2517
  71   2.0000      -0.404175       -10.9982
  72   2.0000      -0.399253       -10.8642
  73   2.0000      -0.387593       -10.5469
  74   2.0000      -0.383125       -10.4254
  75   2.0000      -0.375514       -10.2183
  76   2.0000      -0.369970       -10.0674
  77   2.0000      -0.368784       -10.0351
  78   2.0000      -0.359217        -9.7748
  79   2.0000      -0.358164        -9.7461
  80   2.0000      -0.351999        -9.5784
  81   2.0000      -0.350438        -9.5359
  82   2.0000      -0.346790        -9.4366
  83   2.0000      -0.340204        -9.2574
  84   2.0000      -0.336808        -9.1650
  85   2.0000      -0.322188        -8.7672
  86   2.0000      -0.316284        -8.6065
  87   2.0000      -0.308930        -8.4064
  88   2.0000      -0.298467        -8.1217
  89   2.0000      -0.297078        -8.0839
  90   2.0000      -0.294387        -8.0107
  91   2.0000      -0.279445        -7.6041
  92   2.0000      -0.272553        -7.4165
  93   2.0000      -0.267262        -7.2726
  94   2.0000      -0.261347        -7.1116
  95   2.0000      -0.242246        -6.5919
  96   2.0000      -0.222984        -6.0677
  97   2.0000      -0.210488        -5.7277
  98   2.0000      -0.208329        -5.6689
  99   2.0000      -0.207224        -5.6388
 100   2.0000      -0.203323        -5.5327
 101   0.0000      -0.045930        -1.2498
 102   0.0000      -0.032764        -0.8916
 103   0.0000      -0.018923        -0.5149
 104   0.0000       0.001751         0.0476
 105   0.0000       0.008172         0.2224

MULLIKEN ATOMIC CHARGES
-----------------------
   0 C :   -0.314055
   1 C :   -0.023366
   2 O :   -0.355321
   3 P :    0.601405
   4 S :   -0.310045
   5 O :   -0.374856
   6 C :   -0.002666
   7 C :   -0.316829
   8 S :   -0.106731
   9 C :   -0.361450
  10 S :   -0.064914
  11 P :    0.563658
  12 S :   -0.316578
  13 O :   -0.364652
  14 C :   -0.004381
  15 C :   -0.313160
  16 O :   -0.369354
  17 C :   -0.027332
  18 C :   -0.283449
  19 H :    0.125213
  20 H :    0.118727
  21 H :    0.114871
  22 H :    0.141223
  23 H :    0.112328
  24 H :    0.106505
  25 H :    0.116249
  26 H :    0.115827
  27 H :    0.128114
  28 H :    0.114898
  29 H :    0.195333
  30 H :    0.196081
  31 H :    0.115053
  32 H :    0.107828
  33 H :    0.114297
  34 H :    0.116274
  35 H :    0.129612
  36 H :    0.111638
  37 H :    0.112971
  38 H :    0.121344
  39 H :    0.120393
  40 H :    0.109297
Sum of atomic charges:   -0.0000000

LOEWDIN ATOMIC CHARGES
----------------------
   0 C :   -0.368889
   1 C :   -0.114935
   2 O :   -0.232573
   3 P :    0.573089
   4 S :   -0.308235
   5 O :   -0.241472
   6 C :   -0.116924
   7 C :   -0.370674
   8 S :    0.087449
   9 C :   -0.486504
  10 S :    0.087255
  11 P :    0.564427
  12 S :   -0.319744
  13 O :   -0.238478
  14 C :   -0.118275
  15 C :   -0.367155
  16 O :   -0.242369
  17 C :   -0.122166
  18 C :   -0.352580
  19 H :    0.129911
  20 H :    0.114983
  21 H :    0.131949
  22 H :    0.105245
  23 H :    0.125628
  24 H :    0.119495
  25 H :    0.114154
  26 H :    0.132513
  27 H :    0.121737
  28 H :    0.122554
  29 H :    0.128152
  30 H :    0.135787
  31 H :    0.112224
  32 H :    0.119660
  33 H :    0.131655
  34 H :    0.124816
  35 H :    0.122958
  36 H :    0.113507
  37 H :    0.102645
  38 H :    0.119705
  39 H :    0.129409
  40 H :    0.130066

  Mayer bond orders larger than 0.100000
B(  0-C ,  1-C ) :   1.1709 B(  0-C , 19-H ) :   0.9411 B(  0-C , 20-H ) :   0.9366
B(  0-C , 21-H ) :   0.9355 B(  1-C ,  2-O ) :   0.8958 B(  1-C , 22-H ) :   0.9046
B(  1-C , 23-H ) :   0.9296 B(  2-O ,  3-P ) :   1.1506 B(  3-P ,  4-S ) :   1.6272
B(  3-P ,  5-O ) :   1.0968 B(  3-P ,  8-S ) :   0.9337 B(  4-S ,  8-S ) :   0.1073
B(  5-O ,  6-C ) :   0.9038 B(  6-C ,  7-C ) :   1.1657 B(  6-C , 24-H ) :   0.9338
B(  6-C , 25-H ) :   0.9167 B(  7-C , 26-H ) :   0.9373 B(  7-C , 27-H ) :   0.9347
B(  7-C , 28-H ) :   0.9449 B(  8-S ,  9-C ) :   1.0043 B(  9-C , 10-S ) :   0.9745
B(  9-C , 29-H ) :   0.8608 B(  9-C , 30-H ) :   0.8860 B( 10-S , 11-P ) :   0.9785
B( 11-P , 12-S ) :   1.6573 B( 11-P , 13-O ) :   1.0964 B( 11-P , 16-O ) :   1.0987
B( 13-O , 14-C ) :   0.9055 B( 14-C , 15-C ) :   1.1633 B( 14-C , 31-H ) :   0.9152
B( 14-C , 32-H ) :   0.9342 B( 15-C , 33-H ) :   0.9384 B( 15-C , 34-H ) :   0.9464
B( 15-C , 35-H ) :   0.9359 B( 16-O , 17-C ) :   0.8994 B( 17-C , 18-C ) :   1.1615
B( 17-C , 36-H ) :   0.9203 B( 17-C , 37-H ) :   0.9031 B( 18-C , 38-H ) :   0.9438
B( 18-C , 39-H ) :   0.9485 B( 18-C , 40-H ) :   0.9414

Dispersion correction           -0.064900372
FINAL SINGLE POINT ENERGY     -2929.520501261674

DIPOLE MOMENT
-------------

Method             : SCF
Type of density    : Electron Density
Multiplicity       :   1
Irrep              :   0
Energy             : -2929.6415440851737912 Eh
Relativity type    :
Basis              : AO
                                X                 Y                 Z
Electronic contribution:     -1.106888732      13.684954744      -3.014915159
Nuclear contribution   :      1.258127859     -15.149273340       3.431959212
                        -----------------------------------------
Total Dipole Moment    :      0.151239127      -1.464318595       0.417044053
                        -----------------------------------------
Magnitude (a.u.)       :      1.530041818
Magnitude (Debye)      :      3.889057233

Rotational constants in cm-1:             0.012593             0.004678             0.004231
Rotational constants in MHz :           377.530942           140.248597           126.831795

                             ****ORCA TERMINATED NORMALLY****
TOTAL RUN TIME: 0 days 0 hours 0 minutes 21 seconds 321 msec
