                         Program Version 6.0.0  -   RELEASE  -
|  1> ! pbe def2-sv(p) def2/J RI DEFGRID1 loosescf d4 GCP(DFT/SV(P)) printgap
|  2> %output
|  3>     printlevel normal
|  4> end
|  5> * xyz 0 1
|  6> C 0.8440501287 1.416332324 -0.5987796606
|  7> C 1.592807409 0.1893706076 -0.0566309623
|  8> H 2.5661022322 0.10838572 -0.551603785
|  9> C 0.7852004771 -1.1012777411 -0.3304654262
| 10> H 1.2331795031 -1.9059308603 0.2658210754
| 11> C -0.683072825 -0.9159671097 0.1166055458
| 12> H -1.284070252 -1.7469372343 -0.2770142821
| 13> C -1.2692125151 0.396908001 -0.4477666914
| 14> H -1.3283463596 0.3347329478 -1.5475091545
| 15> O -0.467807467 1.4985075768 -0.0759047124
| 16> O -2.5534336651 0.6165005124 -0.0034280795
| 17> O -0.7909183774 -0.8261015288 1.5194141539
| 18> O 0.881854135 -1.542547255 -1.6604000291
| 19> O 1.8667124998 0.3249372976 1.3149030364
| 20> H 0.8106257556 1.3921336445 -1.6964260898
| 21> H 1.3432326095 2.3283162644 -0.2701683514
| 22> H -2.5454834173 0.6335850661 0.9688154076
| 23> H -0.6562156415 -1.6962512266 1.9189137272
| 24> H 0.5894897992 -0.8547733273 -2.2733529456
| 25> H 1.0232550387 0.4493673618 1.7820408074
| 26> *
| 27>
| 28>                          ****END OF INPUT****

CARTESIAN COORDINATES (ANGSTROEM)
---------------------------------
  C      0.844050    1.416332   -0.598780
  C      1.592807    0.189371   -0.056631
  H      2.566102    0.108386   -0.551604
  C      0.785200   -1.101278   -0.330465
  H      1.233180   -1.905931    0.265821
  C     -0.683073   -0.915967    0.116606
  H     -1.284070   -1.746937   -0.277014
  C     -1.269213    0.396908   -0.447767
  H     -1.328346    0.334733   -1.547509
  O     -0.467807    1.498508   -0.075905
  O     -2.553434    0.616501   -0.003428
  O     -0.790918   -0.826102    1.519414
  O      0.881854   -1.542547   -1.660400
  O      1.866712    0.324937    1.314903
  H      0.810626    1.392134   -1.696426
  H      1.343233    2.328316   -0.270168
  H     -2.545483    0.633585    0.968815
  H     -0.656216   -1.696251    1.918914
  H      0.589490   -0.854773   -2.273353
  H      1.023255    0.449367    1.782041

 Total Charge           Charge          ....    0
 Multiplicity           Mult            ....    1
 Number of Electrons    NEL             ....   80
 Basis Dimension        Dim             ....  160

ORBITAL ENERGIES
----------------

  NO   OCC          E(Eh)            E(eV)
   0   2.0000     -18.783869      -511.1351
   1   2.0000     -18.769689      -510.7492
   2   2.0000     -18.765067      -510.6234
   3   2.0000     -18.760476      -510.4985
   4   2.0000     -18.744429      -510.0619
   5   2.0000      -9.994151      -271.9547
   6   2.0000      -9.951469      -270.7932
   7   2.0000      -9.947472      -270.6845
   8   2.0000      -9.942719      -270.5551
   9   2.0000      -9.942241      -270.5421
  10   2.0000      -0.989251       -26.9189
  11   2.0000      -0.951824       -25.9004
  12   2.0000      -0.942474       -25.6460
  13   2.0000      -0.927089       -25.2274
  14   2.0000      -0.911574       -24.8052
  15   2.0000      -0.697487       -18.9796
  16   2.0000      -0.679648       -18.4942
  17   2.0000      -0.603175       -16.4132
  18   2.0000      -0.587626       -15.9901
  19   2.0000      -0.547836       -14.9074
  20   2.0000      -0.501534       -13.6474
  21   2.0000      -0.492139       -13.3918
  22   2.0000      -0.472532       -12.8583
  23   2.0000      -0.453588       -12.3428
  24   2.0000      -0.442460       -12.0400
  25   2.0000      -0.422524       -11.4975
  26   2.0000      -0.403690       -10.9850
  27   2.0000      -0.384354       -10.4588
  28   2.0000      -0.379769       -10.3341
  29   2.0000      -0.354674        -9.6512
  30   2.0000      -0.335811        -9.1379
  31   2.0000      -0.315622        -8.5885
  32   2.0000      -0.306786        -8.3481
  33   2.0000      -0.286358        -7.7922
  34   2.0000      -0.281187        -7.6515
  35   2.0000      -0.266614        -7.2549
  36   2.0000      -0.254914        -6.9366
  37   2.0000      -0.245768        -6.6877
  38   2.0000      -0.214929        -5.8485
  39   2.0000      -0.202114        -5.4998
  40   0.0000       0.000263         0.0072
  41   0.0000       0.004653         0.1266
  42   0.0000       0.051478         1.4008
  43   0.0000       0.063422         1.7258
  44   0.0000       0.069373         1.8877

MULLIKEN ATOMIC CHARGES
-----------------------
   0 C :    0.024912
   1 C :    0.041953
   2 H :    0.079599
   3 C :    0.048178
   4 H :    0.068421
   5 C :    0.009335
   6 H :    0.081261
   7 C :    0.175470
   8 H :    0.045483
   9 O :   -0.302692
  10 O :   -0.379246
  11 O :   -0.430602
  12 O :   -0.412515
  13 O :   -0.433027
  14 H :    0.053259
  15 H :    0.108069
  16 H :    0.306234
  17 H :    0.318034
  18 H :    0.299046
  19 H :    0.298829
Sum of atomic charges:   -0.0000000

LOEWDIN ATOMIC CHARGES
----------------------
   0 C :   -0.127884
   1 C :   -0.085098
   2 H :    0.119018
   3 C :   -0.082295
   4 H :    0.112819
   5 C :   -0.103120
   6 H :    0.110838
   7 C :    0.000897
   8 H :    0.090996
   9 O :   -0.162378
  10 O :   -0.285175
  11 O :   -0.310896
  12 O :   -0.309034
  13 O :   -0.321796
  14 H :    0.093509
  15 H :    0.125247
  16 H :    0.286917
  17 H :    0.297626
  18 H :    0.277952
  19 H :    0.271858

  Mayer bond orders larger than 0.100000
B(  0-C ,  1-C ) :   1.0490 B(  0-C ,  9-O ) :   1.0153 B(  0-C , 14-H ) :   0.8903
B(  0-C , 15-H ) :   0.9196 B(  1-C ,  2-H ) :   0.8954 B(  1-C ,  3-C ) :   0.9693
B(  1-C , 13-O ) :   1.0487 B(  3-C ,  4-H ) :   0.8976 B(  3-C ,  5-C ) :   0.9582
B(  3-C , 12-O ) :   1.0445 B(  5-C ,  6-H ) :   0.8919 B(  5-C ,  7-C ) :   0.9745
B(  5-C , 11-O ) :   1.0186 B(  7-C ,  8-H ) :   0.8930 B(  7-C ,  9-O ) :   1.0135
B(  7-C , 10-O ) :   1.1761 B( 10-O , 16-H ) :   0.8312 B( 11-O , 17-H ) :   0.8394
B( 12-O , 18-H ) :   0.8412 B( 13-O , 19-H ) :   0.8224

Dispersion correction           -0.019827121
FINAL SINGLE POINT ENERGY      -571.415876255049

DIPOLE MOMENT
-------------

Method             : SCF
Type of density    : Electron Density
Multiplicity       :   1
Irrep              :   0
Energy             :  -571.5247773255558741 Eh
Relativity type    :
Basis              : AO
                                X                 Y                 Z
Electronic contribution:     -1.777019071       0.447058777       1.589666744
Nuclear contribution   :      1.627700993      -0.897121245      -1.560363778
                        -----------------------------------------
Total Dipole Moment    :     -0.149318077      -0.450062468       0.029302965
                        -----------------------------------------
Magnitude (a.u.)       :      0.475090283
Magnitude (Debye)      :      1.207583532

Rotational constants in cm-1:             0.057779             0.040435             0.037673
Rotational constants in MHz :          1732.157399          1212.197412          1129.406444

                             ****ORCA TERMINATED NORMALLY****
TOTAL RUN TIME: 0 days 0 hours 0 minutes 11 seconds 442 msec
