                         Program Version 6.0.1  -  RELEASE   -
|  1> ! r2scan-3c def2/J RI DEFGRID2 scfconv6 printgap
|  2> %output
|  3>     printlevel normal
|  4> end
|  5> * xyz 0 1
|  6> C 5.3183119397 -2.1397374067 -1.0868319349
|  7> C 4.0166212554 -2.9250409076 -1.0921492569
|  8> O 2.9929538783 -2.2146587378 -1.8178431839
|  9> C 2.2638912106 -1.3309548041 -1.1735399945
| 10> O 2.3556100752 -1.0887919388 0.0127155404
| 11> C 1.2833673846 -0.6322691446 -2.091560538
| 12> C 0.2884353007 0.1678542691 -1.2610555985
| 13> H -0.2951647111 0.8389098533 -1.9000920138
| 14> C 1.0383585075 1.0331190667 -0.2622748144
| 15> O 1.9756563 1.7223860616 -0.6006548824
| 16> O 0.5313399666 1.0078262412 0.9521037671
| 17> C 1.1977483152 1.814423792 1.9458951111
| 18> C 0.7481200103 1.377658397 3.3245342347
| 19> S -0.8831973246 -0.9560386194 -0.4357369592
| 20> P -2.2000328055 0.5085920658 0.3642145898
| 21> S -2.1067237398 2.3065066487 -0.4068318437
| 22> O -3.6268303854 -0.1995443978 0.1810344532
| 23> C -4.2023557827 -0.3804032016 -1.1172668995
| 24> O -2.0902994776 0.4873300884 1.938078432
| 25> C -2.1934630773 -0.7417627833 2.6854338601
| 26> H 5.6379741694 -1.936972716 -2.1051537444
| 27> H 5.1825958349 -1.1942671463 -0.5655372882
| 28> H 6.0841542621 -2.7158286339 -0.5782431108
| 29> H 3.6634715526 -3.0990682263 -0.0719531891
| 30> H 4.1227034991 -3.8689607323 -1.6265121472
| 31> H 0.7804172962 -1.3638664184 -2.7227107021
| 32> H 1.8539147911 0.0502019524 -2.7256605609
| 33> H 2.2748125195 1.6810394708 1.8045448756
| 34> H 0.9434985043 2.8605025892 1.7466143355
| 35> H 0.9650394268 0.3230620806 3.4680415891
| 36> H 1.2827142812 1.9594280879 4.0680843095
| 37> H -0.3188273144 1.5450554845 3.4361293156
| 38> H -5.2273815454 -0.6962222177 -0.9412800133
| 39> H -3.6509762385 -1.1462036058 -1.6625627919
| 40> H -4.1832967484 0.560173518 -1.6700312331
| 41> H -3.162968636 -1.2034342914 2.5100677213
| 42> H -2.0855436801 -0.4539126966 3.7278193908
| 43> H -1.3948834492 -1.4215701027 2.3887713122
| 44> *
| 45>
| 46>                          ****END OF INPUT****

CARTESIAN COORDINATES (ANGSTROEM)
---------------------------------
  C      5.318312   -2.139737   -1.086832
  C      4.016621   -2.925041   -1.092149
  O      2.992954   -2.214659   -1.817843
  C      2.263891   -1.330955   -1.173540
  O      2.355610   -1.088792    0.012716
  C      1.283367   -0.632269   -2.091561
  C      0.288435    0.167854   -1.261056
  H     -0.295165    0.838910   -1.900092
  C      1.038359    1.033119   -0.262275
  O      1.975656    1.722386   -0.600655
  O      0.531340    1.007826    0.952104
  C      1.197748    1.814424    1.945895
  C      0.748120    1.377658    3.324534
  S     -0.883197   -0.956039   -0.435737
  P     -2.200033    0.508592    0.364215
  S     -2.106724    2.306507   -0.406832
  O     -3.626830   -0.199544    0.181034
  C     -4.202356   -0.380403   -1.117267
  O     -2.090299    0.487330    1.938078
  C     -2.193463   -0.741763    2.685434
  H      5.637974   -1.936973   -2.105154
  H      5.182596   -1.194267   -0.565537
  H      6.084154   -2.715829   -0.578243
  H      3.663472   -3.099068   -0.071953
  H      4.122703   -3.868961   -1.626512
  H      0.780417   -1.363866   -2.722711
  H      1.853915    0.050202   -2.725661
  H      2.274813    1.681039    1.804545
  H      0.943499    2.860503    1.746614
  H      0.965039    0.323062    3.468042
  H      1.282714    1.959428    4.068084
  H     -0.318827    1.545055    3.436129
  H     -5.227382   -0.696222   -0.941280
  H     -3.650976   -1.146204   -1.662563
  H     -4.183297    0.560174   -1.670031
  H     -3.162969   -1.203434    2.510068
  H     -2.085544   -0.453913    3.727819
  H     -1.394883   -1.421570    2.388771

 Total Charge           Charge          ....    0
 Multiplicity           Mult            ....    1
 Number of Electrons    NEL             ....  174
 Basis Dimension        Dim             ....  510

ORBITAL ENERGIES
----------------

  NO   OCC          E(Eh)            E(eV)
   0   2.0000     -88.571782     -2410.1607
   1   2.0000     -88.516327     -2408.6517
   2   2.0000     -76.912171     -2092.8866
   3   2.0000     -19.009870      -517.2849
   4   2.0000     -18.993551      -516.8408
   5   2.0000     -18.989731      -516.7369
   6   2.0000     -18.988981      -516.7164
   7   2.0000     -18.942660      -515.4560
   8   2.0000     -18.921908      -514.8913
   9   2.0000     -10.167184      -276.6631
  10   2.0000     -10.152593      -276.2661
  11   2.0000     -10.100337      -274.8442
  12   2.0000     -10.096976      -274.7527
  13   2.0000     -10.091443      -274.6021
  14   2.0000     -10.090231      -274.5691
  15   2.0000     -10.081924      -274.3431
  16   2.0000     -10.065670      -273.9008
  17   2.0000     -10.034392      -273.0497
  18   2.0000     -10.022576      -272.7282
  19   2.0000      -7.866173      -214.0495
  20   2.0000      -7.810996      -212.5480
  21   2.0000      -6.590413      -179.3343
  22   2.0000      -5.812948      -158.1783
  23   2.0000      -5.810152      -158.1023
  24   2.0000      -5.803258      -157.9147
  25   2.0000      -5.758896      -156.7075
  26   2.0000      -5.751246      -156.4994
  27   2.0000      -5.750797      -156.4871
  28   2.0000      -4.736120      -128.8764
  29   2.0000      -4.735470      -128.8587
  30   2.0000      -4.733896      -128.8159
  31   2.0000      -1.087326       -29.5876
  32   2.0000      -1.068982       -29.0885
  33   2.0000      -1.049953       -28.5707
  34   2.0000      -1.007361       -27.4117
  35   2.0000      -0.992089       -26.9961
  36   2.0000      -0.971896       -26.4466
  37   2.0000      -0.809380       -22.0244
  38   2.0000      -0.759293       -20.6614
  39   2.0000      -0.736222       -20.0336
  40   2.0000      -0.733276       -19.9535
  41   2.0000      -0.698609       -19.0101
  42   2.0000      -0.675421       -18.3791
  43   2.0000      -0.657168       -17.8825
  44   2.0000      -0.646330       -17.5875
  45   2.0000      -0.627776       -17.0826
  46   2.0000      -0.590203       -16.0602
  47   2.0000      -0.540225       -14.7003
  48   2.0000      -0.534939       -14.5564
  49   2.0000      -0.524620       -14.2756
  50   2.0000      -0.500341       -13.6150
  51   2.0000      -0.492793       -13.4096
  52   2.0000      -0.484658       -13.1882
  53   2.0000      -0.465865       -12.6768
  54   2.0000      -0.457872       -12.4593
  55   2.0000      -0.451790       -12.2938
  56   2.0000      -0.448773       -12.2117
  57   2.0000      -0.442073       -12.0294
  58   2.0000      -0.433552       -11.7976
  59   2.0000      -0.427821       -11.6416
  60   2.0000      -0.423621       -11.5273
  61   2.0000      -0.418120       -11.3776
  62   2.0000      -0.406186       -11.0529
  63   2.0000      -0.405265       -11.0278
  64   2.0000      -0.390689       -10.6312
  65   2.0000      -0.377018       -10.2592
  66   2.0000      -0.372066       -10.1244
  67   2.0000      -0.365986        -9.9590
  68   2.0000      -0.360433        -9.8079
  69   2.0000      -0.350550        -9.5390
  70   2.0000      -0.349311        -9.5052
  71   2.0000      -0.346923        -9.4403
  72   2.0000      -0.333945        -9.0871
  73   2.0000      -0.326746        -8.8912
  74   2.0000      -0.320936        -8.7331
  75   2.0000      -0.316809        -8.6208
  76   2.0000      -0.314263        -8.5515
  77   2.0000      -0.307046        -8.3551
  78   2.0000      -0.285337        -7.7644
  79   2.0000      -0.284034        -7.7290
  80   2.0000      -0.275479        -7.4962
  81   2.0000      -0.263833        -7.1793
  82   2.0000      -0.254858        -6.9351
  83   2.0000      -0.247978        -6.7478
  84   2.0000      -0.220459        -5.9990
  85   2.0000      -0.215304        -5.8587
  86   2.0000      -0.211104        -5.7444
  87   0.0000      -0.041618        -1.1325
  88   0.0000      -0.023333        -0.6349
  89   0.0000      -0.008024        -0.2183
  90   0.0000       0.007547         0.2054
  91   0.0000       0.016875         0.4592

MULLIKEN ATOMIC CHARGES
-----------------------
   0 C :   -0.462658
   1 C :   -0.138827
   2 O :   -0.162421
   3 C :    0.399355
   4 O :   -0.388153
   5 C :   -0.463867
   6 C :    0.024304
   7 H :    0.245929
   8 C :    0.231138
   9 O :   -0.387707
  10 O :   -0.112053
  11 C :   -0.118107
  12 C :   -0.488504
  13 S :   -0.231911
  14 P :    0.785052
  15 S :   -0.444509
  16 O :   -0.345430
  17 C :   -0.299005
  18 O :   -0.313212
  19 C :   -0.302149
  20 H :    0.153733
  21 H :    0.174523
  22 H :    0.148735
  23 H :    0.168266
  24 H :    0.150621
  25 H :    0.190105
  26 H :    0.202298
  27 H :    0.168115
  28 H :    0.158872
  29 H :    0.156903
  30 H :    0.145314
  31 H :    0.166045
  32 H :    0.151234
  33 H :    0.158004
  34 H :    0.174689
  35 H :    0.169383
  36 H :    0.158504
  37 H :    0.177390
Sum of atomic charges:    0.0000000

LOEWDIN ATOMIC CHARGES
----------------------
   0 C :   -0.387063
   1 C :    0.031361
   2 O :   -0.574314
   3 C :    0.369395
   4 O :   -0.426760
   5 C :   -0.206532
   6 C :   -0.200100
   7 H :    0.207969
   8 C :    0.342987
   9 O :   -0.419631
  10 O :   -0.616251
  11 C :    0.043072
  12 C :   -0.387815
  13 S :    0.205311
  14 P :    0.399194
  15 S :   -0.080872
  16 O :   -0.688797
  17 C :   -0.062012
  18 O :   -0.654817
  19 C :   -0.056086
  20 H :    0.158474
  21 H :    0.167114
  22 H :    0.160169
  23 H :    0.188787
  24 H :    0.179233
  25 H :    0.189894
  26 H :    0.205646
  27 H :    0.190487
  28 H :    0.182683
  29 H :    0.160439
  30 H :    0.158305
  31 H :    0.167771
  32 H :    0.176692
  33 H :    0.168516
  34 H :    0.176286
  35 H :    0.175487
  36 H :    0.180227
  37 H :    0.175550

  Mayer bond orders larger than 0.100000
B(  0-C ,  1-C ) :   0.9448 B(  0-C , 20-H ) :   0.9722 B(  0-C , 21-H ) :   0.9685
B(  0-C , 22-H ) :   0.9644 B(  1-C ,  2-O ) :   0.7986 B(  1-C , 23-H ) :   0.9665
B(  1-C , 24-H ) :   0.9615 B(  2-O ,  3-C ) :   1.1312 B(  3-C ,  4-O ) :   1.7956
B(  3-C ,  5-C ) :   0.9731 B(  4-O ,  8-C ) :   0.1235 B(  5-C ,  6-C ) :   0.9113
B(  5-C ,  9-O ) :   0.1105 B(  5-C , 25-H ) :   0.9747 B(  5-C , 26-H ) :   0.9139
B(  6-C ,  7-H ) :   0.9242 B(  6-C ,  8-C ) :   0.8176 B(  6-C , 13-S ) :   0.8654
B(  8-C ,  9-O ) :   1.8559 B(  8-C , 10-O ) :   1.1710 B( 10-O , 11-C ) :   0.7923
B( 11-C , 12-C ) :   0.9298 B( 11-C , 27-H ) :   0.9629 B( 11-C , 28-H ) :   0.9444
B( 12-C , 29-H ) :   0.9769 B( 12-C , 30-H ) :   0.9663 B( 12-C , 31-H ) :   0.9630
B( 13-S , 14-P ) :   0.9846 B( 14-P , 15-S ) :   1.7964 B( 14-P , 16-O ) :   1.0325
B( 14-P , 18-O ) :   1.1576 B( 16-O , 17-C ) :   0.8318 B( 17-C , 32-H ) :   0.9676
B( 17-C , 33-H ) :   0.9565 B( 17-C , 34-H ) :   0.9593 B( 18-O , 19-C ) :   0.7866
B( 19-C , 35-H ) :   0.9588 B( 19-C , 36-H ) :   0.9639 B( 19-C , 37-H ) :   0.9580

Dispersion correction           -0.017617280
FINAL SINGLE POINT ENERGY     -1981.454601907164

DIPOLE MOMENT
-------------

Method             : SCF
Type of density    : Electron Density
Multiplicity       :   1
Irrep              :   0
Energy             : -1981.4744542354342229 Eh
Relativity type    :
Basis              : AO
                                X                 Y                 Z
Electronic contribution:    -13.602687883       7.226522102      -5.724253471
Nuclear contribution   :     13.785079072      -9.205796399       5.882301040
                        -----------------------------------------
Total Dipole Moment    :      0.182391189      -1.979274297       0.158047570
                        -----------------------------------------
Magnitude (a.u.)       :      1.993933881
Magnitude (Debye)      :      5.068177152

Rotational constants in cm-1:             0.015647             0.006226             0.005622
Rotational constants in MHz :           469.095791           186.659734           168.556901

                             ****ORCA TERMINATED NORMALLY****
TOTAL RUN TIME: 0 days 0 hours 1 minutes 36 seconds 254 msec
