                         Program Version 6.0.1  -  RELEASE   -
|  1> ! r2scan-3c def2/J RI DEFGRID2 scfconv6 printgap
|  2> %output
|  3>     printlevel normal
|  4> end
|  5> %cpcm
|  6>     smd true
|  7>     smdsolvent "water"
|  8> end
|  9> * xyz 0 1
| 10> C 5.3183119397 -2.1397374067 -1.0868319349
| 11> C 4.0166212554 -2.9250409076 -1.0921492569
| 12> O 2.9929538783 -2.2146587378 -1.8178431839
| 13> C 2.2638912106 -1.3309548041 -1.1735399945
| 14> O 2.3556100752 -1.0887919388 0.0127155404
| 15> C 1.2833673846 -0.6322691446 -2.091560538
| 16> C 0.2884353007 0.1678542691 -1.2610555985
| 17> H -0.2951647111 0.8389098533 -1.9000920138
| 18> C 1.0383585075 1.0331190667 -0.2622748144
| 19> O 1.9756563 1.7223860616 -0.6006548824
| 20> O 0.5313399666 1.0078262412 0.9521037671
| 21> C 1.1977483152 1.814423792 1.9458951111
| 22> C 0.7481200103 1.377658397 3.3245342347
| 23> S -0.8831973246 -0.9560386194 -0.4357369592
| 24> P -2.2000328055 0.5085920658 0.3642145898
| 25> S -2.1067237398 2.3065066487 -0.4068318437
| 26> O -3.6268303854 -0.1995443978 0.1810344532
| 27> C -4.2023557827 -0.3804032016 -1.1172668995
| 28> O -2.0902994776 0.4873300884 1.938078432
| 29> C -2.1934630773 -0.7417627833 2.6854338601
| 30> H 5.6379741694 -1.936972716 -2.1051537444
| 31> H 5.1825958349 -1.1942671463 -0.5655372882
| 32> H 6.0841542621 -2.7158286339 -0.5782431108
| 33> H 3.6634715526 -3.0990682263 -0.0719531891
| 34> H 4.1227034991 -3.8689607323 -1.6265121472
| 35> H 0.7804172962 -1.3638664184 -2.7227107021
| 36> H 1.8539147911 0.0502019524 -2.7256605609
| 37> H 2.2748125195 1.6810394708 1.8045448756
| 38> H 0.9434985043 2.8605025892 1.7466143355
| 39> H 0.9650394268 0.3230620806 3.4680415891
| 40> H 1.2827142812 1.9594280879 4.0680843095
| 41> H -0.3188273144 1.5450554845 3.4361293156
| 42> H -5.2273815454 -0.6962222177 -0.9412800133
| 43> H -3.6509762385 -1.1462036058 -1.6625627919
| 44> H -4.1832967484 0.560173518 -1.6700312331
| 45> H -3.162968636 -1.2034342914 2.5100677213
| 46> H -2.0855436801 -0.4539126966 3.7278193908
| 47> H -1.3948834492 -1.4215701027 2.3887713122
| 48> *
| 49>
| 50>                          ****END OF INPUT****

CARTESIAN COORDINATES (ANGSTROEM)
---------------------------------
  C      5.318312   -2.139737   -1.086832
  C      4.016621   -2.925041   -1.092149
  O      2.992954   -2.214659   -1.817843
  C      2.263891   -1.330955   -1.173540
  O      2.355610   -1.088792    0.012716
  C      1.283367   -0.632269   -2.091561
  C      0.288435    0.167854   -1.261056
  H     -0.295165    0.838910   -1.900092
  C      1.038359    1.033119   -0.262275
  O      1.975656    1.722386   -0.600655
  O      0.531340    1.007826    0.952104
  C      1.197748    1.814424    1.945895
  C      0.748120    1.377658    3.324534
  S     -0.883197   -0.956039   -0.435737
  P     -2.200033    0.508592    0.364215
  S     -2.106724    2.306507   -0.406832
  O     -3.626830   -0.199544    0.181034
  C     -4.202356   -0.380403   -1.117267
  O     -2.090299    0.487330    1.938078
  C     -2.193463   -0.741763    2.685434
  H      5.637974   -1.936973   -2.105154
  H      5.182596   -1.194267   -0.565537
  H      6.084154   -2.715829   -0.578243
  H      3.663472   -3.099068   -0.071953
  H      4.122703   -3.868961   -1.626512
  H      0.780417   -1.363866   -2.722711
  H      1.853915    0.050202   -2.725661
  H      2.274813    1.681039    1.804545
  H      0.943499    2.860503    1.746614
  H      0.965039    0.323062    3.468042
  H      1.282714    1.959428    4.068084
  H     -0.318827    1.545055    3.436129
  H     -5.227382   -0.696222   -0.941280
  H     -3.650976   -1.146204   -1.662563
  H     -4.183297    0.560174   -1.670031
  H     -3.162969   -1.203434    2.510068
  H     -2.085544   -0.453913    3.727819
  H     -1.394883   -1.421570    2.388771

 Total Charge           Charge          ....    0
 Multiplicity           Mult            ....    1
 Number of Electrons    NEL             ....  174
 Basis Dimension        Dim             ....  510

ORBITAL ENERGIES
----------------

  NO   OCC          E(Eh)            E(eV)
   0   2.0000     -88.577936     -2410.3282
   1   2.0000     -88.529614     -2409.0133
   2   2.0000     -76.920549     -2093.1146
   3   2.0000     -19.010087      -517.2908
   4   2.0000     -19.005944      -517.1780
   5   2.0000     -18.997993      -516.9617
   6   2.0000     -18.993068      -516.8277
   7   2.0000     -18.952615      -515.7269
   8   2.0000     -18.946692      -515.5657
   9   2.0000     -10.173315      -276.8300
  10   2.0000     -10.172809      -276.8162
  11   2.0000     -10.096036      -274.7271
  12   2.0000     -10.086947      -274.4798
  13   2.0000     -10.085951      -274.4527
  14   2.0000     -10.085008      -274.4270
  15   2.0000     -10.080971      -274.3172
  16   2.0000     -10.060901      -273.7710
  17   2.0000     -10.019713      -272.6503
  18   2.0000     -10.018488      -272.6169
  19   2.0000      -7.872270      -214.2154
  20   2.0000      -7.824658      -212.9198
  21   2.0000      -6.598896      -179.5651
  22   2.0000      -5.819095      -158.3456
  23   2.0000      -5.816281      -158.2690
  24   2.0000      -5.809280      -158.0785
  25   2.0000      -5.772422      -157.0756
  26   2.0000      -5.764928      -156.8717
  27   2.0000      -5.764501      -156.8600
  28   2.0000      -4.744548      -129.1057
  29   2.0000      -4.743904      -129.0882
  30   2.0000      -4.742515      -129.0504
  31   2.0000      -1.090751       -29.6808
  32   2.0000      -1.085659       -29.5423
  33   2.0000      -1.054100       -28.6835
  34   2.0000      -1.010596       -27.4997
  35   2.0000      -1.000632       -27.2286
  36   2.0000      -0.994296       -27.0562
  37   2.0000      -0.813378       -22.1331
  38   2.0000      -0.754318       -20.5260
  39   2.0000      -0.738809       -20.1040
  40   2.0000      -0.732517       -19.9328
  41   2.0000      -0.696406       -18.9502
  42   2.0000      -0.670044       -18.2328
  43   2.0000      -0.660190       -17.9647
  44   2.0000      -0.650036       -17.6884
  45   2.0000      -0.624817       -17.0021
  46   2.0000      -0.590347       -16.0641
  47   2.0000      -0.541943       -14.7470
  48   2.0000      -0.535378       -14.5684
  49   2.0000      -0.525207       -14.2916
  50   2.0000      -0.504163       -13.7190
  51   2.0000      -0.491841       -13.3837
  52   2.0000      -0.486503       -13.2384
  53   2.0000      -0.468795       -12.7566
  54   2.0000      -0.466360       -12.6903
  55   2.0000      -0.455252       -12.3880
  56   2.0000      -0.450365       -12.2551
  57   2.0000      -0.446634       -12.1535
  58   2.0000      -0.444499       -12.0954
  59   2.0000      -0.427295       -11.6273
  60   2.0000      -0.422741       -11.5034
  61   2.0000      -0.411179       -11.1887
  62   2.0000      -0.403220       -10.9722
  63   2.0000      -0.403191       -10.9714
  64   2.0000      -0.393431       -10.7058
  65   2.0000      -0.377660       -10.2767
  66   2.0000      -0.369533       -10.0555
  67   2.0000      -0.364957        -9.9310
  68   2.0000      -0.359761        -9.7896
  69   2.0000      -0.352226        -9.5846
  70   2.0000      -0.349931        -9.5221
  71   2.0000      -0.342319        -9.3150
  72   2.0000      -0.335216        -9.1217
  73   2.0000      -0.329587        -8.9685
  74   2.0000      -0.325426        -8.8553
  75   2.0000      -0.316114        -8.6019
  76   2.0000      -0.313349        -8.5267
  77   2.0000      -0.308428        -8.3927
  78   2.0000      -0.288705        -7.8561
  79   2.0000      -0.285814        -7.7774
  80   2.0000      -0.279876        -7.6158
  81   2.0000      -0.278694        -7.5836
  82   2.0000      -0.269598        -7.3361
  83   2.0000      -0.260423        -7.0865
  84   2.0000      -0.235863        -6.4182
  85   2.0000      -0.229447        -6.2436
  86   2.0000      -0.224525        -6.1096
  87   0.0000      -0.048873        -1.3299
  88   0.0000      -0.028227        -0.7681
  89   0.0000      -0.025561        -0.6956
  90   0.0000       0.003279         0.0892
  91   0.0000       0.009906         0.2696

MULLIKEN ATOMIC CHARGES
-----------------------
   0 C :   -0.493943
   1 C :   -0.139560
   2 O :   -0.172714
   3 C :    0.431815
   4 O :   -0.454984
   5 C :   -0.499983
   6 C :    0.043073
   7 H :    0.271111
   8 C :    0.224263
   9 O :   -0.456676
  10 O :   -0.127590
  11 C :   -0.132334
  12 C :   -0.515705
  13 S :   -0.223631
  14 P :    0.805464
  15 S :   -0.501825
  16 O :   -0.373600
  17 C :   -0.305939
  18 O :   -0.350295
  19 C :   -0.305302
  20 H :    0.167173
  21 H :    0.169566
  22 H :    0.172174
  23 H :    0.175496
  24 H :    0.177226
  25 H :    0.226448
  26 H :    0.236412
  27 H :    0.175410
  28 H :    0.178057
  29 H :    0.171255
  30 H :    0.170410
  31 H :    0.171101
  32 H :    0.179210
  33 H :    0.174933
  34 H :    0.176360
  35 H :    0.185908
  36 H :    0.186883
  37 H :    0.184332
Sum of atomic charges:    0.0000000

LOEWDIN ATOMIC CHARGES
----------------------
   0 C :   -0.390594
   1 C :    0.037549
   2 O :   -0.573271
   3 C :    0.376912
   4 O :   -0.472931
   5 C :   -0.197726
   6 C :   -0.196167
   7 H :    0.216811
   8 C :    0.343206
   9 O :   -0.473119
  10 O :   -0.624212
  11 C :    0.042676
  12 C :   -0.386618
  13 S :    0.217926
  14 P :    0.400768
  15 S :   -0.124077
  16 O :   -0.698313
  17 C :   -0.056132
  18 O :   -0.674249
  19 C :   -0.046998
  20 H :    0.162570
  21 H :    0.163236
  22 H :    0.168876
  23 H :    0.191408
  24 H :    0.190901
  25 H :    0.205311
  26 H :    0.216034
  27 H :    0.192932
  28 H :    0.187210
  29 H :    0.165244
  30 H :    0.168232
  31 H :    0.169204
  32 H :    0.188588
  33 H :    0.176016
  34 H :    0.177201
  35 H :    0.183221
  36 H :    0.192273
  37 H :    0.180105

  Mayer bond orders larger than 0.100000
B(  0-C ,  1-C ) :   0.9381 B(  0-C , 20-H ) :   0.9691 B(  0-C , 21-H ) :   0.9688
B(  0-C , 22-H ) :   0.9589 B(  1-C ,  2-O ) :   0.7825 B(  1-C , 23-H ) :   0.9624
B(  1-C , 24-H ) :   0.9516 B(  2-O ,  3-C ) :   1.1473 B(  3-C ,  4-O ) :   1.7421
B(  3-C ,  5-C ) :   0.9491 B(  4-O ,  8-C ) :   0.1238 B(  5-C ,  6-C ) :   0.8867
B(  5-C , 25-H ) :   0.9629 B(  5-C , 26-H ) :   0.9216 B(  6-C ,  7-H ) :   0.9114
B(  6-C ,  8-C ) :   0.8179 B(  6-C , 13-S ) :   0.8610 B(  8-C ,  9-O ) :   1.7982
B(  8-C , 10-O ) :   1.1806 B( 10-O , 11-C ) :   0.7738 B( 11-C , 12-C ) :   0.9329
B( 11-C , 27-H ) :   0.9524 B( 11-C , 28-H ) :   0.9379 B( 12-C , 29-H ) :   0.9730
B( 12-C , 30-H ) :   0.9598 B( 12-C , 31-H ) :   0.9595 B( 13-S , 14-P ) :   0.9995
B( 14-P , 15-S ) :   1.7687 B( 14-P , 16-O ) :   1.0407 B( 14-P , 18-O ) :   1.1609
B( 16-O , 17-C ) :   0.8241 B( 17-C , 32-H ) :   0.9574 B( 17-C , 33-H ) :   0.9499
B( 17-C , 34-H ) :   0.9553 B( 18-O , 19-C ) :   0.7780 B( 19-C , 35-H ) :   0.9505
B( 19-C , 36-H ) :   0.9533 B( 19-C , 37-H ) :   0.9494

Dispersion correction           -0.017617280
FINAL SINGLE POINT ENERGY     -1981.470378500046

DIPOLE MOMENT
-------------

Method             : SCF
Type of density    : Electron Density
Multiplicity       :   1
Irrep              :   0
Energy             : -1981.4902308283158163 Eh
Relativity type    :
Basis              : AO
                                X                 Y                 Z
Electronic contribution:    -13.756287747       6.368154184      -5.887573621
Nuclear contribution   :     13.785079072      -9.205796399       5.882301040
                        -----------------------------------------
Total Dipole Moment    :      0.028791326      -2.837642216      -0.005272580
                        -----------------------------------------
Magnitude (a.u.)       :      2.837793172
Magnitude (Debye)      :      7.213097008

Rotational constants in cm-1:             0.015647             0.006226             0.005622
Rotational constants in MHz :           469.095791           186.659734           168.556901

                             ****ORCA TERMINATED NORMALLY****
TOTAL RUN TIME: 0 days 0 hours 2 minutes 2 seconds 725 msec
