                         Program Version 6.0.0  -   RELEASE  -
|  1> ! r2scan-3c def2/J RI DEFGRID2 scfconv6 printgap
|  2> %output
|  3>     printlevel normal
|  4> end
|  5> * xyz 0 1
|  6> C 4.5677451859 -1.6472786689 -0.8460933091
|  7> C 4.6446958607 -0.2149254005 -0.3581784448
|  8> O 3.5106098031 0.1510746079 0.4457198171
|  9> P 2.0424462621 0.2821717547 -0.1529664867
| 10> S 1.9683912756 1.0332472068 -1.9661777076
| 11> O 1.3198184947 1.0868355917 1.0083732814
| 12> C 1.3223863909 2.5290651814 1.0541722479
| 13> C 2.7172108266 3.1053598159 1.1677123455
| 14> S 1.2369206821 -1.6426587415 0.1416753325
| 15> C 0.0899360935 -1.7395692612 -1.2750225291
| 16> S -1.6178645782 -2.0815150809 -0.7840998709
| 17> P -2.0631212027 -0.2556639704 0.1465305284
| 18> S -1.4784265643 1.4074515166 -0.7285210576
| 19> O -1.4476512421 -0.5351754085 1.578190564
| 20> C -1.4438294668 0.4570036976 2.6252145561
| 21> C -2.61533597 0.2506526684 3.5630880491
| 22> O -3.6256052007 -0.3087284576 0.4310779089
| 23> C -4.5992828139 0.1637647119 -0.5167453753
| 24> C -4.6450950679 -0.6960779758 -1.762773726
| 25> H 4.3906138406 -2.3222132588 -0.0126191781
| 26> H 3.75416888 -1.7518022408 -1.5625501344
| 27> H 5.5013098886 -1.9100342239 -1.3331326733
| 28> H 4.702399629 0.4746809781 -1.2065496124
| 29> H 5.495868587 -0.0605421313 0.3062832131
| 30> H 0.8157926536 2.9001786155 0.1566557131
| 31> H 0.7192727012 2.7611794582 1.9333760197
| 32> H 2.6469806401 4.1784153629 1.3165829677
| 33> H 3.242537579 2.6540439637 2.005504635
| 34> H 3.2759578833 2.9124965029 0.2526783371
| 35> H 0.3892125346 -2.5797023432 -1.8963505712
| 36> H 0.1419384209 -0.8003127109 -1.8329252157
| 37> H -0.4884692082 0.3167354783 3.1356559023
| 38> H -1.4688958541 1.4514811471 2.166233171
| 39> H -2.5889897041 -0.7565129036 3.9691384366
| 40> H -2.5527388754 0.9689903995 4.3745760953
| 41> H -3.5529370503 0.3897241843 3.0307054436
| 42> H -5.5400172034 0.125889435 0.0340639409
| 43> H -4.3568659218 1.2003590179 -0.7724141583
| 44> H -3.7194560293 -0.5850336833 -2.326246881
| 45> H -4.7676789173 -1.7425300421 -1.4953506313
| 46> H -5.475779125 -0.3812248807 -2.3862249023
| 47> *
| 48>
| 49>                          ****END OF INPUT****

CARTESIAN COORDINATES (ANGSTROEM)
---------------------------------
  C      4.567745   -1.647279   -0.846093
  C      4.644696   -0.214925   -0.358178
  O      3.510610    0.151075    0.445720
  P      2.042446    0.282172   -0.152966
  S      1.968391    1.033247   -1.966178
  O      1.319818    1.086836    1.008373
  C      1.322386    2.529065    1.054172
  C      2.717211    3.105360    1.167712
  S      1.236921   -1.642659    0.141675
  C      0.089936   -1.739569   -1.275023
  S     -1.617865   -2.081515   -0.784100
  P     -2.063121   -0.255664    0.146531
  S     -1.478427    1.407452   -0.728521
  O     -1.447651   -0.535175    1.578191
  C     -1.443829    0.457004    2.625215
  C     -2.615336    0.250653    3.563088
  O     -3.625605   -0.308728    0.431078
  C     -4.599283    0.163765   -0.516745
  C     -4.645095   -0.696078   -1.762774
  H      4.390614   -2.322213   -0.012619
  H      3.754169   -1.751802   -1.562550
  H      5.501310   -1.910034   -1.333133
  H      4.702400    0.474681   -1.206550
  H      5.495869   -0.060542    0.306283
  H      0.815793    2.900179    0.156656
  H      0.719273    2.761179    1.933376
  H      2.646981    4.178415    1.316583
  H      3.242538    2.654044    2.005505
  H      3.275958    2.912497    0.252678
  H      0.389213   -2.579702   -1.896351
  H      0.141938   -0.800313   -1.832925
  H     -0.488469    0.316735    3.135656
  H     -1.468896    1.451481    2.166233
  H     -2.588990   -0.756513    3.969138
  H     -2.552739    0.968990    4.374576
  H     -3.552937    0.389724    3.030705
  H     -5.540017    0.125889    0.034064
  H     -4.356866    1.200359   -0.772414
  H     -3.719456   -0.585034   -2.326247
  H     -4.767679   -1.742530   -1.495351
  H     -5.475779   -0.381225   -2.386225

 Total Charge           Charge          ....    0
 Multiplicity           Mult            ....    1
 Number of Electrons    NEL             ....  202
 Basis Dimension        Dim             ....  539

ORBITAL ENERGIES
----------------

  NO   OCC          E(Eh)            E(eV)
   0   2.0000     -88.576313     -2410.2840
   1   2.0000     -88.570980     -2410.1389
   2   2.0000     -88.516307     -2408.6512
   3   2.0000     -88.514090     -2408.5908
   4   2.0000     -76.910912     -2092.8523
   5   2.0000     -76.909641     -2092.8177
   6   2.0000     -18.992254      -516.8055
   7   2.0000     -18.987236      -516.6690
   8   2.0000     -18.983628      -516.5708
   9   2.0000     -18.983328      -516.5626
  10   2.0000     -10.105614      -274.9877
  11   2.0000     -10.097594      -274.7695
  12   2.0000     -10.095099      -274.7016
  13   2.0000     -10.093360      -274.6543
  14   2.0000     -10.091044      -274.5913
  15   2.0000     -10.028263      -272.8829
  16   2.0000     -10.027061      -272.8502
  17   2.0000     -10.025492      -272.8075
  18   2.0000     -10.024141      -272.7707
  19   2.0000      -7.870992      -214.1806
  20   2.0000      -7.865506      -214.0313
  21   2.0000      -7.811022      -212.5487
  22   2.0000      -7.808831      -212.4891
  23   2.0000      -6.589424      -179.3073
  24   2.0000      -6.588065      -179.2704
  25   2.0000      -5.818050      -158.3172
  26   2.0000      -5.814671      -158.2252
  27   2.0000      -5.812380      -158.1629
  28   2.0000      -5.809475      -158.0839
  29   2.0000      -5.808017      -158.0442
  30   2.0000      -5.802449      -157.8927
  31   2.0000      -5.758664      -156.7012
  32   2.0000      -5.756464      -156.6413
  33   2.0000      -5.751522      -156.5069
  34   2.0000      -5.750819      -156.4877
  35   2.0000      -5.749251      -156.4451
  36   2.0000      -5.748724      -156.4307
  37   2.0000      -4.735008      -128.8461
  38   2.0000      -4.734367      -128.8287
  39   2.0000      -4.733369      -128.8015
  40   2.0000      -4.733038      -128.7925
  41   2.0000      -4.732851      -128.7874
  42   2.0000      -4.732118      -128.7675
  43   2.0000      -1.047469       -28.5031
  44   2.0000      -1.044471       -28.4215
  45   2.0000      -1.007809       -27.4239
  46   2.0000      -1.004499       -27.3338
  47   2.0000      -0.799153       -21.7460
  48   2.0000      -0.755305       -20.5529
  49   2.0000      -0.745070       -20.2744
  50   2.0000      -0.730737       -19.8844
  51   2.0000      -0.727607       -19.7992
  52   2.0000      -0.710273       -19.3275
  53   2.0000      -0.684114       -18.6157
  54   2.0000      -0.662236       -18.0204
  55   2.0000      -0.634037       -17.2530
  56   2.0000      -0.622463       -16.9381
  57   2.0000      -0.604058       -16.4372
  58   2.0000      -0.601101       -16.3568
  59   2.0000      -0.588341       -16.0096
  60   2.0000      -0.520472       -14.1628
  61   2.0000      -0.512274       -13.9397
  62   2.0000      -0.491191       -13.3660
  63   2.0000      -0.486025       -13.2254
  64   2.0000      -0.469958       -12.7882
  65   2.0000      -0.463513       -12.6128
  66   2.0000      -0.454369       -12.3640
  67   2.0000      -0.452850       -12.3227
  68   2.0000      -0.444476       -12.0948
  69   2.0000      -0.429848       -11.6968
  70   2.0000      -0.428488       -11.6598
  71   2.0000      -0.409539       -11.1441
  72   2.0000      -0.406346       -11.0572
  73   2.0000      -0.401595       -10.9280
  74   2.0000      -0.395117       -10.7517
  75   2.0000      -0.393701       -10.7131
  76   2.0000      -0.386367       -10.5136
  77   2.0000      -0.369871       -10.0647
  78   2.0000      -0.366674        -9.9777
  79   2.0000      -0.364799        -9.9267
  80   2.0000      -0.359413        -9.7801
  81   2.0000      -0.357525        -9.7287
  82   2.0000      -0.351653        -9.5690
  83   2.0000      -0.350964        -9.5502
  84   2.0000      -0.346459        -9.4276
  85   2.0000      -0.323131        -8.7929
  86   2.0000      -0.320815        -8.7298
  87   2.0000      -0.309702        -8.4274
  88   2.0000      -0.305284        -8.3072
  89   2.0000      -0.297078        -8.0839
  90   2.0000      -0.295301        -8.0355
  91   2.0000      -0.289195        -7.8694
  92   2.0000      -0.281252        -7.6533
  93   2.0000      -0.276100        -7.5131
  94   2.0000      -0.273932        -7.4541
  95   2.0000      -0.245845        -6.6898
  96   2.0000      -0.230218        -6.2646
  97   2.0000      -0.227424        -6.1885
  98   2.0000      -0.215440        -5.8624
  99   2.0000      -0.206954        -5.6315
 100   2.0000      -0.199821        -5.4374
 101   0.0000      -0.041043        -1.1168
 102   0.0000      -0.030906        -0.8410
 103   0.0000      -0.010013        -0.2725
 104   0.0000       0.015530         0.4226
 105   0.0000       0.023287         0.6337

MULLIKEN ATOMIC CHARGES
-----------------------
   0 C :   -0.444024
   1 C :   -0.155207
   2 O :   -0.299030
   3 P :    0.656936
   4 S :   -0.466573
   5 O :   -0.270366
   6 C :   -0.154616
   7 C :   -0.455101
   8 S :   -0.110724
   9 C :   -0.235597
  10 S :   -0.100842
  11 P :    0.699182
  12 S :   -0.448254
  13 O :   -0.277282
  14 C :   -0.156808
  15 C :   -0.465639
  16 O :   -0.312127
  17 C :   -0.154546
  18 C :   -0.462439
  19 H :    0.155714
  20 H :    0.171993
  21 H :    0.146415
  22 H :    0.171528
  23 H :    0.146946
  24 H :    0.185941
  25 H :    0.145624
  26 H :    0.146527
  27 H :    0.156123
  28 H :    0.171109
  29 H :    0.192992
  30 H :    0.216364
  31 H :    0.166696
  32 H :    0.168704
  33 H :    0.157339
  34 H :    0.144409
  35 H :    0.161102
  36 H :    0.146447
  37 H :    0.175284
  38 H :    0.181026
  39 H :    0.156340
  40 H :    0.148435
Sum of atomic charges:    0.0000000

LOEWDIN ATOMIC CHARGES
----------------------
   0 C :   -0.407920
   1 C :    0.017971
   2 O :   -0.670165
   3 P :    0.375719
   4 S :   -0.127491
   5 O :   -0.673914
   6 C :    0.008869
   7 C :   -0.401320
   8 S :    0.183392
   9 C :   -0.412304
  10 S :    0.171530
  11 P :    0.374574
  12 S :   -0.102214
  13 O :   -0.668685
  14 C :    0.017806
  15 C :   -0.393577
  16 O :   -0.666182
  17 C :    0.018044
  18 C :   -0.407348
  19 H :    0.160805
  20 H :    0.163788
  21 H :    0.157993
  22 H :    0.179286
  23 H :    0.178749
  24 H :    0.184859
  25 H :    0.178535
  26 H :    0.158934
  27 H :    0.161276
  28 H :    0.165913
  29 H :    0.180115
  30 H :    0.201522
  31 H :    0.183347
  32 H :    0.179750
  33 H :    0.161321
  34 H :    0.157649
  35 H :    0.163777
  36 H :    0.178681
  37 H :    0.180580
  38 H :    0.166609
  39 H :    0.159933
  40 H :    0.159795

  Mayer bond orders larger than 0.100000
B(  0-C ,  1-C ) :   0.9222 B(  0-C , 19-H ) :   0.9673 B(  0-C , 20-H ) :   0.9660
B(  0-C , 21-H ) :   0.9596 B(  1-C ,  2-O ) :   0.8216 B(  1-C , 22-H ) :   0.9670
B(  1-C , 23-H ) :   0.9589 B(  2-O ,  3-P ) :   1.0533 B(  3-P ,  4-S ) :   1.7407
B(  3-P ,  5-O ) :   1.1588 B(  3-P ,  8-S ) :   1.1390 B(  5-O ,  6-C ) :   0.7966
B(  6-C ,  7-C ) :   0.9131 B(  6-C , 24-H ) :   0.9613 B(  6-C , 25-H ) :   0.9592
B(  7-C , 26-H ) :   0.9586 B(  7-C , 27-H ) :   0.9719 B(  7-C , 28-H ) :   0.9624
B(  8-S ,  9-C ) :   0.8948 B(  9-C , 10-S ) :   0.9191 B(  9-C , 29-H ) :   0.9124
B(  9-C , 30-H ) :   0.9034 B( 10-S , 11-P ) :   1.1143 B( 11-P , 12-S ) :   1.7719
B( 11-P , 13-O ) :   1.1610 B( 11-P , 16-O ) :   1.0396 B( 13-O , 14-C ) :   0.7518
B( 14-C , 15-C ) :   0.9375 B( 14-C , 31-H ) :   0.9616 B( 14-C , 32-H ) :   0.9639
B( 15-C , 33-H ) :   0.9768 B( 15-C , 34-H ) :   0.9671 B( 15-C , 35-H ) :   0.9664
B( 16-O , 17-C ) :   0.8201 B( 17-C , 18-C ) :   0.9175 B( 17-C , 36-H ) :   0.9588
B( 17-C , 37-H ) :   0.9657 B( 18-C , 38-H ) :   0.9617 B( 18-C , 39-H ) :   0.9687
B( 18-C , 40-H ) :   0.9583

Dispersion correction           -0.022330819
FINAL SINGLE POINT ENERGY     -2932.459063265647

DIPOLE MOMENT
-------------

Method             : SCF
Type of density    : Electron Density
Multiplicity       :   1
Irrep              :   0
Energy             : -2932.4834426227657787 Eh
Relativity type    :
Basis              : AO
                                X                 Y                 Z
Electronic contribution:     -0.655450981      -7.112506619      -6.716162768
Nuclear contribution   :      0.541061253       7.003304108       7.524944292
                        -----------------------------------------
Total Dipole Moment    :     -0.114389727      -0.109202511       0.808781524
                        -----------------------------------------
Magnitude (a.u.)       :      0.824098145
Magnitude (Debye)      :      2.094691016

Rotational constants in cm-1:             0.012666             0.005397             0.004899
Rotational constants in MHz :           379.716980           161.790282           146.861379

                             ****ORCA TERMINATED NORMALLY****
TOTAL RUN TIME: 0 days 0 hours 1 minutes 21 seconds 193 msec
