                         Program Version 6.0.0  -   RELEASE  -
|  1> ! r2scan-3c def2/J RI DEFGRID2 scfconv6 printgap
|  2> %output
|  3>     printlevel normal
|  4> end
|  5> %cpcm
|  6>     smd true
|  7>     smdsolvent "water"
|  8> end
|  9> * xyz 0 1
| 10> C 4.5677451859 -1.6472786689 -0.8460933091
| 11> C 4.6446958607 -0.2149254005 -0.3581784448
| 12> O 3.5106098031 0.1510746079 0.4457198171
| 13> P 2.0424462621 0.2821717547 -0.1529664867
| 14> S 1.9683912756 1.0332472068 -1.9661777076
| 15> O 1.3198184947 1.0868355917 1.0083732814
| 16> C 1.3223863909 2.5290651814 1.0541722479
| 17> C 2.7172108266 3.1053598159 1.1677123455
| 18> S 1.2369206821 -1.6426587415 0.1416753325
| 19> C 0.0899360935 -1.7395692612 -1.2750225291
| 20> S -1.6178645782 -2.0815150809 -0.7840998709
| 21> P -2.0631212027 -0.2556639704 0.1465305284
| 22> S -1.4784265643 1.4074515166 -0.7285210576
| 23> O -1.4476512421 -0.5351754085 1.578190564
| 24> C -1.4438294668 0.4570036976 2.6252145561
| 25> C -2.61533597 0.2506526684 3.5630880491
| 26> O -3.6256052007 -0.3087284576 0.4310779089
| 27> C -4.5992828139 0.1637647119 -0.5167453753
| 28> C -4.6450950679 -0.6960779758 -1.762773726
| 29> H 4.3906138406 -2.3222132588 -0.0126191781
| 30> H 3.75416888 -1.7518022408 -1.5625501344
| 31> H 5.5013098886 -1.9100342239 -1.3331326733
| 32> H 4.702399629 0.4746809781 -1.2065496124
| 33> H 5.495868587 -0.0605421313 0.3062832131
| 34> H 0.8157926536 2.9001786155 0.1566557131
| 35> H 0.7192727012 2.7611794582 1.9333760197
| 36> H 2.6469806401 4.1784153629 1.3165829677
| 37> H 3.242537579 2.6540439637 2.005504635
| 38> H 3.2759578833 2.9124965029 0.2526783371
| 39> H 0.3892125346 -2.5797023432 -1.8963505712
| 40> H 0.1419384209 -0.8003127109 -1.8329252157
| 41> H -0.4884692082 0.3167354783 3.1356559023
| 42> H -1.4688958541 1.4514811471 2.166233171
| 43> H -2.5889897041 -0.7565129036 3.9691384366
| 44> H -2.5527388754 0.9689903995 4.3745760953
| 45> H -3.5529370503 0.3897241843 3.0307054436
| 46> H -5.5400172034 0.125889435 0.0340639409
| 47> H -4.3568659218 1.2003590179 -0.7724141583
| 48> H -3.7194560293 -0.5850336833 -2.326246881
| 49> H -4.7676789173 -1.7425300421 -1.4953506313
| 50> H -5.475779125 -0.3812248807 -2.3862249023
| 51> *
| 52>
| 53>                          ****END OF INPUT****

CARTESIAN COORDINATES (ANGSTROEM)
---------------------------------
  C      4.567745   -1.647279   -0.846093
  C      4.644696   -0.214925   -0.358178
  O      3.510610    0.151075    0.445720
  P      2.042446    0.282172   -0.152966
  S      1.968391    1.033247   -1.966178
  O      1.319818    1.086836    1.008373
  C      1.322386    2.529065    1.054172
  C      2.717211    3.105360    1.167712
  S      1.236921   -1.642659    0.141675
  C      0.089936   -1.739569   -1.275023
  S     -1.617865   -2.081515   -0.784100
  P     -2.063121   -0.255664    0.146531
  S     -1.478427    1.407452   -0.728521
  O     -1.447651   -0.535175    1.578191
  C     -1.443829    0.457004    2.625215
  C     -2.615336    0.250653    3.563088
  O     -3.625605   -0.308728    0.431078
  C     -4.599283    0.163765   -0.516745
  C     -4.645095   -0.696078   -1.762774
  H      4.390614   -2.322213   -0.012619
  H      3.754169   -1.751802   -1.562550
  H      5.501310   -1.910034   -1.333133
  H      4.702400    0.474681   -1.206550
  H      5.495869   -0.060542    0.306283
  H      0.815793    2.900179    0.156656
  H      0.719273    2.761179    1.933376
  H      2.646981    4.178415    1.316583
  H      3.242538    2.654044    2.005505
  H      3.275958    2.912497    0.252678
  H      0.389213   -2.579702   -1.896351
  H      0.141938   -0.800313   -1.832925
  H     -0.488469    0.316735    3.135656
  H     -1.468896    1.451481    2.166233
  H     -2.588990   -0.756513    3.969138
  H     -2.552739    0.968990    4.374576
  H     -3.552937    0.389724    3.030705
  H     -5.540017    0.125889    0.034064
  H     -4.356866    1.200359   -0.772414
  H     -3.719456   -0.585034   -2.326247
  H     -4.767679   -1.742530   -1.495351
  H     -5.475779   -0.381225   -2.386225

 Total Charge           Charge          ....    0
 Multiplicity           Mult            ....    1
 Number of Electrons    NEL             ....  202
 Basis Dimension        Dim             ....  539

ORBITAL ENERGIES
----------------

  NO   OCC          E(Eh)            E(eV)
   0   2.0000     -88.581293     -2410.4195
   1   2.0000     -88.576702     -2410.2946
   2   2.0000     -88.525585     -2408.9036
   3   2.0000     -88.521844     -2408.8018
   4   2.0000     -76.916916     -2093.0157
   5   2.0000     -76.916829     -2093.0133
   6   2.0000     -18.994642      -516.8705
   7   2.0000     -18.991770      -516.7923
   8   2.0000     -18.989430      -516.7287
   9   2.0000     -18.989111      -516.7200
  10   2.0000     -10.105898      -274.9955
  11   2.0000     -10.088946      -274.5342
  12   2.0000     -10.087948      -274.5070
  13   2.0000     -10.087567      -274.4966
  14   2.0000     -10.086441      -274.4660
  15   2.0000     -10.018738      -272.6237
  16   2.0000     -10.017428      -272.5881
  17   2.0000     -10.017295      -272.5845
  18   2.0000     -10.017196      -272.5818
  19   2.0000      -7.875935      -214.3151
  20   2.0000      -7.871253      -214.1877
  21   2.0000      -7.820618      -212.8098
  22   2.0000      -7.816857      -212.7075
  23   2.0000      -6.595398      -179.4699
  24   2.0000      -6.595392      -179.4698
  25   2.0000      -5.822966      -158.4510
  26   2.0000      -5.819584      -158.3589
  27   2.0000      -5.818113      -158.3189
  28   2.0000      -5.815229      -158.2404
  29   2.0000      -5.813031      -158.1806
  30   2.0000      -5.808216      -158.0496
  31   2.0000      -5.768201      -156.9607
  32   2.0000      -5.764442      -156.8584
  33   2.0000      -5.761108      -156.7677
  34   2.0000      -5.760426      -156.7492
  35   2.0000      -5.757289      -156.6638
  36   2.0000      -5.756733      -156.6487
  37   2.0000      -4.740929      -129.0072
  38   2.0000      -4.740656      -128.9998
  39   2.0000      -4.740351      -128.9915
  40   2.0000      -4.740177      -128.9868
  41   2.0000      -4.739515      -128.9688
  42   2.0000      -4.739079      -128.9569
  43   2.0000      -1.051141       -28.6030
  44   2.0000      -1.049193       -28.5500
  45   2.0000      -1.011334       -27.5198
  46   2.0000      -1.008691       -27.4479
  47   2.0000      -0.802355       -21.8332
  48   2.0000      -0.754970       -20.5438
  49   2.0000      -0.741384       -20.1741
  50   2.0000      -0.723672       -19.6921
  51   2.0000      -0.722159       -19.6509
  52   2.0000      -0.710429       -19.3318
  53   2.0000      -0.688547       -18.7363
  54   2.0000      -0.669486       -18.2176
  55   2.0000      -0.635077       -17.2813
  56   2.0000      -0.620783       -16.8924
  57   2.0000      -0.599161       -16.3040
  58   2.0000      -0.597370       -16.2553
  59   2.0000      -0.588259       -16.0073
  60   2.0000      -0.518613       -14.1122
  61   2.0000      -0.511271       -13.9124
  62   2.0000      -0.489296       -13.3144
  63   2.0000      -0.485517       -13.2116
  64   2.0000      -0.471115       -12.8197
  65   2.0000      -0.464352       -12.6356
  66   2.0000      -0.452498       -12.3131
  67   2.0000      -0.448876       -12.2145
  68   2.0000      -0.442793       -12.0490
  69   2.0000      -0.427978       -11.6459
  70   2.0000      -0.425331       -11.5739
  71   2.0000      -0.407762       -11.0958
  72   2.0000      -0.407330       -11.0840
  73   2.0000      -0.401773       -10.9328
  74   2.0000      -0.394385       -10.7318
  75   2.0000      -0.391915       -10.6645
  76   2.0000      -0.383934       -10.4474
  77   2.0000      -0.364407        -9.9160
  78   2.0000      -0.363702        -9.8968
  79   2.0000      -0.360470        -9.8089
  80   2.0000      -0.353211        -9.6114
  81   2.0000      -0.351949        -9.5770
  82   2.0000      -0.348723        -9.4892
  83   2.0000      -0.345609        -9.4045
  84   2.0000      -0.344256        -9.3677
  85   2.0000      -0.323158        -8.7936
  86   2.0000      -0.320056        -8.7092
  87   2.0000      -0.305379        -8.3098
  88   2.0000      -0.302711        -8.2372
  89   2.0000      -0.299160        -8.1406
  90   2.0000      -0.295774        -8.0484
  91   2.0000      -0.290247        -7.8980
  92   2.0000      -0.283284        -7.7085
  93   2.0000      -0.278062        -7.5665
  94   2.0000      -0.276463        -7.5229
  95   2.0000      -0.251389        -6.8406
  96   2.0000      -0.238266        -6.4835
  97   2.0000      -0.235966        -6.4210
  98   2.0000      -0.224001        -6.0954
  99   2.0000      -0.214901        -5.8478
 100   2.0000      -0.209059        -5.6888
 101   0.0000      -0.046439        -1.2637
 102   0.0000      -0.038017        -1.0345
 103   0.0000      -0.014291        -0.3889
 104   0.0000       0.010057         0.2737
 105   0.0000       0.017373         0.4727

MULLIKEN ATOMIC CHARGES
-----------------------
   0 C :   -0.478048
   1 C :   -0.157089
   2 O :   -0.325428
   3 P :    0.702992
   4 S :   -0.519451
   5 O :   -0.298266
   6 C :   -0.153916
   7 C :   -0.495410
   8 S :   -0.128061
   9 C :   -0.231961
  10 S :   -0.114015
  11 P :    0.725542
  12 S :   -0.496753
  13 O :   -0.315287
  14 C :   -0.135143
  15 C :   -0.513747
  16 O :   -0.333261
  17 C :   -0.153200
  18 C :   -0.495490
  19 H :    0.166079
  20 H :    0.171307
  21 H :    0.171253
  22 H :    0.176926
  23 H :    0.173757
  24 H :    0.182023
  25 H :    0.179335
  26 H :    0.171650
  27 H :    0.168820
  28 H :    0.170896
  29 H :    0.235879
  30 H :    0.211699
  31 H :    0.180891
  32 H :    0.178227
  33 H :    0.168382
  34 H :    0.169833
  35 H :    0.167748
  36 H :    0.174567
  37 H :    0.178461
  38 H :    0.174197
  39 H :    0.170569
  40 H :    0.173494
Sum of atomic charges:    0.0000000

LOEWDIN ATOMIC CHARGES
----------------------
   0 C :   -0.410632
   1 C :    0.023228
   2 O :   -0.681632
   3 P :    0.381384
   4 S :   -0.159246
   5 O :   -0.687192
   6 C :    0.012330
   7 C :   -0.404009
   8 S :    0.176238
   9 C :   -0.405124
  10 S :    0.168280
  11 P :    0.377298
  12 S :   -0.129921
  13 O :   -0.689900
  14 C :    0.023017
  15 C :   -0.396598
  16 O :   -0.675433
  17 C :    0.023587
  18 C :   -0.410266
  19 H :    0.163169
  20 H :    0.161006
  21 H :    0.167076
  22 H :    0.181042
  23 H :    0.190021
  24 H :    0.183097
  25 H :    0.191156
  26 H :    0.168307
  27 H :    0.164482
  28 H :    0.163343
  29 H :    0.197115
  30 H :    0.199557
  31 H :    0.189084
  32 H :    0.184414
  33 H :    0.163510
  34 H :    0.167823
  35 H :    0.164221
  36 H :    0.190502
  37 H :    0.181442
  38 H :    0.161705
  39 H :    0.163672
  40 H :    0.168850

  Mayer bond orders larger than 0.100000
B(  0-C ,  1-C ) :   0.9100 B(  0-C , 19-H ) :   0.9652 B(  0-C , 20-H ) :   0.9660
B(  0-C , 21-H ) :   0.9544 B(  1-C ,  2-O ) :   0.8088 B(  1-C , 22-H ) :   0.9653
B(  1-C , 23-H ) :   0.9492 B(  2-O ,  3-P ) :   1.0637 B(  3-P ,  4-S ) :   1.6903
B(  3-P ,  5-O ) :   1.1621 B(  3-P ,  8-S ) :   1.1514 B(  5-O ,  6-C ) :   0.7818
B(  6-C ,  7-C ) :   0.9039 B(  6-C , 24-H ) :   0.9599 B(  6-C , 25-H ) :   0.9482
B(  7-C , 26-H ) :   0.9526 B(  7-C , 27-H ) :   0.9701 B(  7-C , 28-H ) :   0.9623
B(  8-S ,  9-C ) :   0.8870 B(  9-C , 10-S ) :   0.9118 B(  9-C , 29-H ) :   0.8965
B(  9-C , 30-H ) :   0.9079 B( 10-S , 11-P ) :   1.1271 B( 11-P , 12-S ) :   1.7321
B( 11-P , 13-O ) :   1.1616 B( 11-P , 16-O ) :   1.0508 B( 13-O , 14-C ) :   0.7439
B( 14-C , 15-C ) :   0.9319 B( 14-C , 31-H ) :   0.9522 B( 14-C , 32-H ) :   0.9541
B( 15-C , 33-H ) :   0.9748 B( 15-C , 34-H ) :   0.9602 B( 15-C , 35-H ) :   0.9661
B( 16-O , 17-C ) :   0.8084 B( 17-C , 18-C ) :   0.9041 B( 17-C , 36-H ) :   0.9493
B( 17-C , 37-H ) :   0.9648 B( 18-C , 38-H ) :   0.9635 B( 18-C , 39-H ) :   0.9657
B( 18-C , 40-H ) :   0.9529

Dispersion correction           -0.022330819
FINAL SINGLE POINT ENERGY     -2932.467500476864

DIPOLE MOMENT
-------------

Method             : SCF
Type of density    : Electron Density
Multiplicity       :   1
Irrep              :   0
Energy             : -2932.4918798339826935 Eh
Relativity type    :
Basis              : AO
                                X                 Y                 Z
Electronic contribution:     -0.657094212      -7.125160918      -6.494207206
Nuclear contribution   :      0.541061253       7.003304108       7.524944292
                        -----------------------------------------
Total Dipole Moment    :     -0.116032959      -0.121856810       1.030737086
                        -----------------------------------------
Magnitude (a.u.)       :      1.044380999
Magnitude (Debye)      :      2.654605534

Rotational constants in cm-1:             0.012666             0.005397             0.004899
Rotational constants in MHz :           379.716980           161.790282           146.861379

                             ****ORCA TERMINATED NORMALLY****
TOTAL RUN TIME: 0 days 0 hours 1 minutes 50 seconds 877 msec
