                         Program Version 6.0.0  -   RELEASE  -
|  1> ! r2scan-3c def2/J RI DEFGRID2 scfconv6 printgap
|  2> %output
|  3>     printlevel normal
|  4> end
|  5> * xyz 0 1
|  6> C 3.1467162599 1.9075719897 2.1848427705
|  7> C 2.3168342593 1.9236736418 0.9188449172
|  8> O 1.4755149538 0.7554360963 0.8019696242
|  9> P 2.0026036576 -0.7357920422 0.7485857069
| 10> S 2.3804023093 -1.6416716464 2.4434322515
| 11> O 3.2409676314 -0.6093821368 -0.2507630617
| 12> C 4.2519227212 -1.6283253109 -0.324241605
| 13> C 3.7526113884 -2.8676943216 -1.0388915616
| 14> S 0.4267597406 -1.6286097919 -0.3424424341
| 15> C 0.4520251081 -0.6236758908 -1.8561678191
| 16> S -0.2045804627 1.0633093325 -1.6614185602
| 17> P -1.9698908795 0.5703716438 -0.6309196914
| 18> S -2.9460606438 -1.0196053137 -1.2464028423
| 19> O -2.7964682164 1.924691718 -0.6926475505
| 20> C -3.5310379119 2.3084671224 -1.873914748
| 21> C -4.5474135443 3.3577967568 -1.4715236692
| 22> O -1.4809413649 0.583395188 0.8759367736
| 23> C -2.1264338029 -0.1977286807 1.8977856345
| 24> C -3.4803541249 0.3760786483 2.2564683712
| 25> H 3.7125689975 2.8310807315 2.2572763846
| 26> H 2.5055651218 1.8079711482 3.057647057
| 27> H 3.837483221 1.0652120007 2.1699461643
| 28> H 2.9516888791 1.9788969718 0.0319888655
| 29> H 1.6024555989 2.7488856789 0.9133670975
| 30> H 5.0717680215 -1.1518158711 -0.8634240749
| 31> H 4.5670828454 -1.8769469909 0.6942583802
| 32> H 4.5621688708 -3.5861836276 -1.1169902975
| 33> H 2.9368888219 -3.3175839557 -0.4735502908
| 34> H 3.3959785169 -2.6208678419 -2.0354656199
| 35> H -0.1678315704 -1.1683050516 -2.5665251774
| 36> H 1.4717132593 -0.5169304853 -2.217848916
| 37> H -2.8191634717 2.7014077583 -2.6046831736
| 38> H -4.0144660366 1.4168700262 -2.2874112861
| 39> H -4.0427461086 4.2092429382 -1.0244284024
| 40> H -5.0906844974 3.6824686693 -2.3528022098
| 41> H -5.2478345902 2.9455531794 -0.750724739
| 42> H -2.2203502202 -1.2299876463 1.5420306294
| 43> H -1.4292222909 -0.1661300936 2.7373541924
| 44> H -3.3810424332 1.4198533002 2.5422024319
| 45> H -4.1450637618 0.3061850782 1.3959535523
| 46> H -3.9053861933 -0.1890483884 3.0799345142
| 47> *
| 48>
| 49>                          ****END OF INPUT****

CARTESIAN COORDINATES (ANGSTROEM)
---------------------------------
  C      3.146716    1.907572    2.184843
  C      2.316834    1.923674    0.918845
  O      1.475515    0.755436    0.801970
  P      2.002604   -0.735792    0.748586
  S      2.380402   -1.641672    2.443432
  O      3.240968   -0.609382   -0.250763
  C      4.251923   -1.628325   -0.324242
  C      3.752611   -2.867694   -1.038892
  S      0.426760   -1.628610   -0.342442
  C      0.452025   -0.623676   -1.856168
  S     -0.204580    1.063309   -1.661419
  P     -1.969891    0.570372   -0.630920
  S     -2.946061   -1.019605   -1.246403
  O     -2.796468    1.924692   -0.692648
  C     -3.531038    2.308467   -1.873915
  C     -4.547414    3.357797   -1.471524
  O     -1.480941    0.583395    0.875937
  C     -2.126434   -0.197729    1.897786
  C     -3.480354    0.376079    2.256468
  H      3.712569    2.831081    2.257276
  H      2.505565    1.807971    3.057647
  H      3.837483    1.065212    2.169946
  H      2.951689    1.978897    0.031989
  H      1.602456    2.748886    0.913367
  H      5.071768   -1.151816   -0.863424
  H      4.567083   -1.876947    0.694258
  H      4.562169   -3.586184   -1.116990
  H      2.936889   -3.317584   -0.473550
  H      3.395979   -2.620868   -2.035466
  H     -0.167832   -1.168305   -2.566525
  H      1.471713   -0.516930   -2.217849
  H     -2.819163    2.701408   -2.604683
  H     -4.014466    1.416870   -2.287411
  H     -4.042746    4.209243   -1.024428
  H     -5.090684    3.682469   -2.352802
  H     -5.247835    2.945553   -0.750725
  H     -2.220350   -1.229988    1.542031
  H     -1.429222   -0.166130    2.737354
  H     -3.381042    1.419853    2.542202
  H     -4.145064    0.306185    1.395954
  H     -3.905386   -0.189048    3.079935

 Total Charge           Charge          ....    0
 Multiplicity           Mult            ....    1
 Number of Electrons    NEL             ....  202
 Basis Dimension        Dim             ....  539

ORBITAL ENERGIES
----------------

  NO   OCC          E(Eh)            E(eV)
   0   2.0000     -88.574204     -2410.2266
   1   2.0000     -88.573534     -2410.2084
   2   2.0000     -88.518433     -2408.7090
   3   2.0000     -88.518317     -2408.7059
   4   2.0000     -76.913321     -2092.9179
   5   2.0000     -76.911952     -2092.8806
   6   2.0000     -18.996472      -516.9203
   7   2.0000     -18.991376      -516.7816
   8   2.0000     -18.985502      -516.6218
   9   2.0000     -18.983518      -516.5678
  10   2.0000     -10.110699      -275.1261
  11   2.0000     -10.100964      -274.8612
  12   2.0000     -10.099827      -274.8303
  13   2.0000     -10.098205      -274.7861
  14   2.0000     -10.088776      -274.5296
  15   2.0000     -10.033359      -273.0216
  16   2.0000     -10.031316      -272.9660
  17   2.0000     -10.028241      -272.8823
  18   2.0000     -10.022367      -272.7225
  19   2.0000      -7.868213      -214.1050
  20   2.0000      -7.868209      -214.1049
  21   2.0000      -7.813083      -212.6048
  22   2.0000      -7.813031      -212.6034
  23   2.0000      -6.591395      -179.3610
  24   2.0000      -6.590412      -179.3342
  25   2.0000      -5.815610      -158.2508
  26   2.0000      -5.815149      -158.2383
  27   2.0000      -5.812073      -158.1545
  28   2.0000      -5.811630      -158.1425
  29   2.0000      -5.805278      -157.9696
  30   2.0000      -5.805187      -157.9672
  31   2.0000      -5.760713      -156.7570
  32   2.0000      -5.760647      -156.7552
  33   2.0000      -5.753368      -156.5571
  34   2.0000      -5.753346      -156.5565
  35   2.0000      -5.753160      -156.5514
  36   2.0000      -5.753030      -156.5479
  37   2.0000      -4.737338      -128.9095
  38   2.0000      -4.736251      -128.8799
  39   2.0000      -4.735738      -128.8660
  40   2.0000      -4.735388      -128.8564
  41   2.0000      -4.734866      -128.8423
  42   2.0000      -4.734280      -128.8263
  43   2.0000      -1.051214       -28.6050
  44   2.0000      -1.046699       -28.4821
  45   2.0000      -1.009808       -27.4783
  46   2.0000      -1.007086       -27.4042
  47   2.0000      -0.800909       -21.7939
  48   2.0000      -0.758351       -20.6358
  49   2.0000      -0.748311       -20.3626
  50   2.0000      -0.734084       -19.9754
  51   2.0000      -0.728043       -19.8111
  52   2.0000      -0.709828       -19.3154
  53   2.0000      -0.687176       -18.6990
  54   2.0000      -0.667351       -18.1595
  55   2.0000      -0.627638       -17.0789
  56   2.0000      -0.622958       -16.9516
  57   2.0000      -0.611316       -16.6347
  58   2.0000      -0.599385       -16.3101
  59   2.0000      -0.593122       -16.1397
  60   2.0000      -0.527368       -14.3504
  61   2.0000      -0.521998       -14.2043
  62   2.0000      -0.493676       -13.4336
  63   2.0000      -0.490382       -13.3440
  64   2.0000      -0.476191       -12.9578
  65   2.0000      -0.463327       -12.6078
  66   2.0000      -0.457034       -12.4365
  67   2.0000      -0.449499       -12.2315
  68   2.0000      -0.442317       -12.0361
  69   2.0000      -0.433432       -11.7943
  70   2.0000      -0.429068       -11.6755
  71   2.0000      -0.419211       -11.4073
  72   2.0000      -0.408650       -11.1199
  73   2.0000      -0.404002       -10.9935
  74   2.0000      -0.396119       -10.7790
  75   2.0000      -0.386689       -10.5223
  76   2.0000      -0.384346       -10.4586
  77   2.0000      -0.372341       -10.1319
  78   2.0000      -0.369680       -10.0595
  79   2.0000      -0.366256        -9.9663
  80   2.0000      -0.359580        -9.7847
  81   2.0000      -0.356922        -9.7123
  82   2.0000      -0.355647        -9.6776
  83   2.0000      -0.351610        -9.5678
  84   2.0000      -0.346479        -9.4282
  85   2.0000      -0.337662        -9.1882
  86   2.0000      -0.325669        -8.8619
  87   2.0000      -0.315529        -8.5860
  88   2.0000      -0.309487        -8.4216
  89   2.0000      -0.306686        -8.3454
  90   2.0000      -0.293811        -7.9950
  91   2.0000      -0.292909        -7.9705
  92   2.0000      -0.281435        -7.6582
  93   2.0000      -0.277461        -7.5501
  94   2.0000      -0.272705        -7.4207
  95   2.0000      -0.243266        -6.6196
  96   2.0000      -0.231984        -6.3126
  97   2.0000      -0.218913        -5.9569
  98   2.0000      -0.217904        -5.9295
  99   2.0000      -0.211599        -5.7579
 100   2.0000      -0.209462        -5.6997
 101   0.0000      -0.045528        -1.2389
 102   0.0000      -0.017566        -0.4780
 103   0.0000      -0.004367        -0.1188
 104   0.0000       0.001457         0.0396
 105   0.0000       0.008565         0.2331

MULLIKEN ATOMIC CHARGES
-----------------------
   0 C :   -0.444435
   1 C :   -0.142070
   2 O :   -0.241675
   3 P :    0.671184
   4 S :   -0.451182
   5 O :   -0.316011
   6 C :   -0.161783
   7 C :   -0.435423
   8 S :   -0.123920
   9 C :   -0.245955
  10 S :   -0.132564
  11 P :    0.700906
  12 S :   -0.477682
  13 O :   -0.289127
  14 C :   -0.155657
  15 C :   -0.439650
  16 O :   -0.272313
  17 C :   -0.148056
  18 C :   -0.451459
  19 H :    0.145417
  20 H :    0.163818
  21 H :    0.163684
  22 H :    0.155155
  23 H :    0.157063
  24 H :    0.146953
  25 H :    0.173249
  26 H :    0.148254
  27 H :    0.178304
  28 H :    0.145118
  29 H :    0.208531
  30 H :    0.185449
  31 H :    0.150187
  32 H :    0.171950
  33 H :    0.153234
  34 H :    0.146666
  35 H :    0.155918
  36 H :    0.176631
  37 H :    0.163577
  38 H :    0.153712
  39 H :    0.166568
  40 H :    0.147436
Sum of atomic charges:   -0.0000000

LOEWDIN ATOMIC CHARGES
----------------------
   0 C :   -0.400210
   1 C :    0.027276
   2 O :   -0.681258
   3 P :    0.369926
   4 S :   -0.113322
   5 O :   -0.685528
   6 C :    0.017188
   7 C :   -0.402277
   8 S :    0.192726
   9 C :   -0.409863
  10 S :    0.179489
  11 P :    0.368109
  12 S :   -0.128826
  13 O :   -0.663136
  14 C :    0.018539
  15 C :   -0.385995
  16 O :   -0.665816
  17 C :    0.018612
  18 C :   -0.399796
  19 H :    0.157507
  20 H :    0.164854
  21 H :    0.164038
  22 H :    0.174019
  23 H :    0.183868
  24 H :    0.177554
  25 H :    0.181842
  26 H :    0.160307
  27 H :    0.168671
  28 H :    0.155435
  29 H :    0.189888
  30 H :    0.184420
  31 H :    0.170999
  32 H :    0.180956
  33 H :    0.159717
  34 H :    0.159807
  35 H :    0.160594
  36 H :    0.182437
  37 H :    0.184316
  38 H :    0.159333
  39 H :    0.164003
  40 H :    0.159600

  Mayer bond orders larger than 0.100000
B(  0-C ,  1-C ) :   0.9350 B(  0-C , 19-H ) :   0.9639 B(  0-C , 20-H ) :   0.9678
B(  0-C , 21-H ) :   0.9575 B(  1-C ,  2-O ) :   0.7801 B(  1-C , 22-H ) :   0.9715
B(  1-C , 23-H ) :   0.9577 B(  2-O ,  3-P ) :   1.1269 B(  3-P ,  4-S ) :   1.8318
B(  3-P ,  5-O ) :   1.0056 B(  3-P ,  8-S ) :   1.0394 B(  5-O ,  6-C ) :   0.8119
B(  6-C ,  7-C ) :   0.9358 B(  6-C , 24-H ) :   0.9598 B(  6-C , 25-H ) :   0.9590
B(  7-C , 26-H ) :   0.9604 B(  7-C , 27-H ) :   0.9592 B(  7-C , 28-H ) :   0.9712
B(  8-S ,  9-C ) :   0.8997 B(  9-C , 10-S ) :   0.9205 B(  9-C , 29-H ) :   0.9164
B(  9-C , 30-H ) :   0.9199 B( 10-S , 11-P ) :   1.0710 B( 11-P , 12-S ) :   1.7401
B( 11-P , 13-O ) :   1.0936 B( 11-P , 16-O ) :   1.1760 B( 13-O , 14-C ) :   0.7774
B( 14-C , 15-C ) :   0.9579 B( 14-C , 31-H ) :   0.9466 B( 14-C , 32-H ) :   0.9514
B( 15-C , 33-H ) :   0.9717 B( 15-C , 34-H ) :   0.9645 B( 15-C , 35-H ) :   0.9711
B( 16-O , 17-C ) :   0.7851 B( 17-C , 18-C ) :   0.9241 B( 17-C , 36-H ) :   0.9621
B( 17-C , 37-H ) :   0.9583 B( 18-C , 38-H ) :   0.9733 B( 18-C , 39-H ) :   0.9617
B( 18-C , 40-H ) :   0.9633

Dispersion correction           -0.021628216
FINAL SINGLE POINT ENERGY     -2932.459253784152

DIPOLE MOMENT
-------------

Method             : SCF
Type of density    : Electron Density
Multiplicity       :   1
Irrep              :   0
Energy             : -2932.4839221931956672 Eh
Relativity type    :
Basis              : AO
                                X                 Y                 Z
Electronic contribution:      0.528075016      -9.545466741      -2.702738923
Nuclear contribution   :      0.129416161      10.872310612       1.925626574
                        -----------------------------------------
Total Dipole Moment    :      0.657491178       1.326843870      -0.777112349
                        -----------------------------------------
Magnitude (a.u.)       :      1.672337558
Magnitude (Debye)      :      4.250744260

Rotational constants in cm-1:             0.013183             0.004819             0.004675
Rotational constants in MHz :           395.225649           144.481080           140.163218

                             ****ORCA TERMINATED NORMALLY****
TOTAL RUN TIME: 0 days 0 hours 1 minutes 23 seconds 642 msec
