                         Program Version 6.0.0  -   RELEASE  -
|  1> ! r2scan-3c def2/J RI DEFGRID2 scfconv6 printgap
|  2> %output
|  3>     printlevel normal
|  4> end
|  5> %cpcm
|  6>     smd true
|  7>     smdsolvent "water"
|  8> end
|  9> * xyz 0 1
| 10> C 3.1467162599 1.9075719897 2.1848427705
| 11> C 2.3168342593 1.9236736418 0.9188449172
| 12> O 1.4755149538 0.7554360963 0.8019696242
| 13> P 2.0026036576 -0.7357920422 0.7485857069
| 14> S 2.3804023093 -1.6416716464 2.4434322515
| 15> O 3.2409676314 -0.6093821368 -0.2507630617
| 16> C 4.2519227212 -1.6283253109 -0.324241605
| 17> C 3.7526113884 -2.8676943216 -1.0388915616
| 18> S 0.4267597406 -1.6286097919 -0.3424424341
| 19> C 0.4520251081 -0.6236758908 -1.8561678191
| 20> S -0.2045804627 1.0633093325 -1.6614185602
| 21> P -1.9698908795 0.5703716438 -0.6309196914
| 22> S -2.9460606438 -1.0196053137 -1.2464028423
| 23> O -2.7964682164 1.924691718 -0.6926475505
| 24> C -3.5310379119 2.3084671224 -1.873914748
| 25> C -4.5474135443 3.3577967568 -1.4715236692
| 26> O -1.4809413649 0.583395188 0.8759367736
| 27> C -2.1264338029 -0.1977286807 1.8977856345
| 28> C -3.4803541249 0.3760786483 2.2564683712
| 29> H 3.7125689975 2.8310807315 2.2572763846
| 30> H 2.5055651218 1.8079711482 3.057647057
| 31> H 3.837483221 1.0652120007 2.1699461643
| 32> H 2.9516888791 1.9788969718 0.0319888655
| 33> H 1.6024555989 2.7488856789 0.9133670975
| 34> H 5.0717680215 -1.1518158711 -0.8634240749
| 35> H 4.5670828454 -1.8769469909 0.6942583802
| 36> H 4.5621688708 -3.5861836276 -1.1169902975
| 37> H 2.9368888219 -3.3175839557 -0.4735502908
| 38> H 3.3959785169 -2.6208678419 -2.0354656199
| 39> H -0.1678315704 -1.1683050516 -2.5665251774
| 40> H 1.4717132593 -0.5169304853 -2.217848916
| 41> H -2.8191634717 2.7014077583 -2.6046831736
| 42> H -4.0144660366 1.4168700262 -2.2874112861
| 43> H -4.0427461086 4.2092429382 -1.0244284024
| 44> H -5.0906844974 3.6824686693 -2.3528022098
| 45> H -5.2478345902 2.9455531794 -0.750724739
| 46> H -2.2203502202 -1.2299876463 1.5420306294
| 47> H -1.4292222909 -0.1661300936 2.7373541924
| 48> H -3.3810424332 1.4198533002 2.5422024319
| 49> H -4.1450637618 0.3061850782 1.3959535523
| 50> H -3.9053861933 -0.1890483884 3.0799345142
| 51> *
| 52>
| 53>                          ****END OF INPUT****

CARTESIAN COORDINATES (ANGSTROEM)
---------------------------------
  C      3.146716    1.907572    2.184843
  C      2.316834    1.923674    0.918845
  O      1.475515    0.755436    0.801970
  P      2.002604   -0.735792    0.748586
  S      2.380402   -1.641672    2.443432
  O      3.240968   -0.609382   -0.250763
  C      4.251923   -1.628325   -0.324242
  C      3.752611   -2.867694   -1.038892
  S      0.426760   -1.628610   -0.342442
  C      0.452025   -0.623676   -1.856168
  S     -0.204580    1.063309   -1.661419
  P     -1.969891    0.570372   -0.630920
  S     -2.946061   -1.019605   -1.246403
  O     -2.796468    1.924692   -0.692648
  C     -3.531038    2.308467   -1.873915
  C     -4.547414    3.357797   -1.471524
  O     -1.480941    0.583395    0.875937
  C     -2.126434   -0.197729    1.897786
  C     -3.480354    0.376079    2.256468
  H      3.712569    2.831081    2.257276
  H      2.505565    1.807971    3.057647
  H      3.837483    1.065212    2.169946
  H      2.951689    1.978897    0.031989
  H      1.602456    2.748886    0.913367
  H      5.071768   -1.151816   -0.863424
  H      4.567083   -1.876947    0.694258
  H      4.562169   -3.586184   -1.116990
  H      2.936889   -3.317584   -0.473550
  H      3.395979   -2.620868   -2.035466
  H     -0.167832   -1.168305   -2.566525
  H      1.471713   -0.516930   -2.217849
  H     -2.819163    2.701408   -2.604683
  H     -4.014466    1.416870   -2.287411
  H     -4.042746    4.209243   -1.024428
  H     -5.090684    3.682469   -2.352802
  H     -5.247835    2.945553   -0.750725
  H     -2.220350   -1.229988    1.542031
  H     -1.429222   -0.166130    2.737354
  H     -3.381042    1.419853    2.542202
  H     -4.145064    0.306185    1.395954
  H     -3.905386   -0.189048    3.079935

 Total Charge           Charge          ....    0
 Multiplicity           Mult            ....    1
 Number of Electrons    NEL             ....  202
 Basis Dimension        Dim             ....  539

ORBITAL ENERGIES
----------------

  NO   OCC          E(Eh)            E(eV)
   0   2.0000     -88.577527     -2410.3171
   1   2.0000     -88.576417     -2410.2868
   2   2.0000     -88.527240     -2408.9487
   3   2.0000     -88.526769     -2408.9359
   4   2.0000     -76.918447     -2093.0574
   5   2.0000     -76.918215     -2093.0510
   6   2.0000     -18.994919      -516.8780
   7   2.0000     -18.994399      -516.8639
   8   2.0000     -18.991400      -516.7823
   9   2.0000     -18.988269      -516.6971
  10   2.0000     -10.106385      -275.0087
  11   2.0000     -10.089901      -274.5602
  12   2.0000     -10.089802      -274.5575
  13   2.0000     -10.088532      -274.5229
  14   2.0000     -10.088366      -274.5184
  15   2.0000     -10.019576      -272.6465
  16   2.0000     -10.018277      -272.6112
  17   2.0000     -10.018001      -272.6037
  18   2.0000     -10.017961      -272.6026
  19   2.0000      -7.871677      -214.1992
  20   2.0000      -7.870990      -214.1805
  21   2.0000      -7.822302      -212.8556
  22   2.0000      -7.821786      -212.8416
  23   2.0000      -6.596984      -179.5131
  24   2.0000      -6.596311      -179.4947
  25   2.0000      -5.819013      -158.3434
  26   2.0000      -5.817913      -158.3135
  27   2.0000      -5.815074      -158.2362
  28   2.0000      -5.814846      -158.2300
  29   2.0000      -5.808818      -158.0660
  30   2.0000      -5.808018      -158.0442
  31   2.0000      -5.769817      -157.0047
  32   2.0000      -5.769336      -156.9916
  33   2.0000      -5.762562      -156.8073
  34   2.0000      -5.762416      -156.8033
  35   2.0000      -5.762091      -156.7945
  36   2.0000      -5.761824      -156.7872
  37   2.0000      -4.742293      -129.0443
  38   2.0000      -4.742137      -129.0401
  39   2.0000      -4.741980      -129.0358
  40   2.0000      -4.741171      -129.0138
  41   2.0000      -4.740867      -129.0055
  42   2.0000      -4.739933      -128.9801
  43   2.0000      -1.052350       -28.6359
  44   2.0000      -1.050392       -28.5826
  45   2.0000      -1.012566       -27.5533
  46   2.0000      -1.009016       -27.4567
  47   2.0000      -0.801052       -21.7977
  48   2.0000      -0.756047       -20.5731
  49   2.0000      -0.742493       -20.2043
  50   2.0000      -0.723774       -19.6949
  51   2.0000      -0.723350       -19.6834
  52   2.0000      -0.708887       -19.2898
  53   2.0000      -0.691256       -18.8100
  54   2.0000      -0.673593       -18.3294
  55   2.0000      -0.627218       -17.0675
  56   2.0000      -0.619324       -16.8527
  57   2.0000      -0.603949       -16.4343
  58   2.0000      -0.595148       -16.1948
  59   2.0000      -0.590183       -16.0597
  60   2.0000      -0.525492       -14.2994
  61   2.0000      -0.516386       -14.0516
  62   2.0000      -0.494310       -13.4508
  63   2.0000      -0.485830       -13.2201
  64   2.0000      -0.473897       -12.8954
  65   2.0000      -0.460929       -12.5425
  66   2.0000      -0.451964       -12.2986
  67   2.0000      -0.446237       -12.1427
  68   2.0000      -0.436389       -11.8748
  69   2.0000      -0.430540       -11.7156
  70   2.0000      -0.427785       -11.6406
  71   2.0000      -0.413867       -11.2619
  72   2.0000      -0.407260       -11.0821
  73   2.0000      -0.400225       -10.8907
  74   2.0000      -0.395942       -10.7741
  75   2.0000      -0.383530       -10.4364
  76   2.0000      -0.379691       -10.3319
  77   2.0000      -0.366187        -9.9645
  78   2.0000      -0.362765        -9.8713
  79   2.0000      -0.358894        -9.7660
  80   2.0000      -0.353382        -9.6160
  81   2.0000      -0.350208        -9.5296
  82   2.0000      -0.349601        -9.5131
  83   2.0000      -0.346849        -9.4382
  84   2.0000      -0.341910        -9.3039
  85   2.0000      -0.335270        -9.1232
  86   2.0000      -0.322954        -8.7880
  87   2.0000      -0.313020        -8.5177
  88   2.0000      -0.305578        -8.3152
  89   2.0000      -0.302328        -8.2268
  90   2.0000      -0.296200        -8.0600
  91   2.0000      -0.289801        -7.8859
  92   2.0000      -0.283598        -7.7171
  93   2.0000      -0.277402        -7.5485
  94   2.0000      -0.274452        -7.4682
  95   2.0000      -0.248301        -6.7566
  96   2.0000      -0.237538        -6.4637
  97   2.0000      -0.228588        -6.2202
  98   2.0000      -0.227658        -6.1949
  99   2.0000      -0.218222        -5.9381
 100   2.0000      -0.217656        -5.9227
 101   0.0000      -0.048783        -1.3275
 102   0.0000      -0.023239        -0.6324
 103   0.0000      -0.008675        -0.2361
 104   0.0000      -0.002193        -0.0597
 105   0.0000       0.005778         0.1572

MULLIKEN ATOMIC CHARGES
-----------------------
   0 C :   -0.492988
   1 C :   -0.136373
   2 O :   -0.271804
   3 P :    0.711147
   4 S :   -0.520265
   5 O :   -0.325074
   6 C :   -0.154090
   7 C :   -0.472234
   8 S :   -0.156414
   9 C :   -0.252506
  10 S :   -0.131404
  11 P :    0.726856
  12 S :   -0.528063
  13 O :   -0.317496
  14 C :   -0.146342
  15 C :   -0.482781
  16 O :   -0.300189
  17 C :   -0.144880
  18 C :   -0.493048
  19 H :    0.171601
  20 H :    0.170749
  21 H :    0.167945
  22 H :    0.176121
  23 H :    0.175688
  24 H :    0.174479
  25 H :    0.173802
  26 H :    0.170640
  27 H :    0.165812
  28 H :    0.168909
  29 H :    0.233198
  30 H :    0.226424
  31 H :    0.171200
  32 H :    0.172539
  33 H :    0.165877
  34 H :    0.169536
  35 H :    0.166131
  36 H :    0.179104
  37 H :    0.179192
  38 H :    0.169388
  39 H :    0.167759
  40 H :    0.171853
Sum of atomic charges:   -0.0000000

LOEWDIN ATOMIC CHARGES
----------------------
   0 C :   -0.403983
   1 C :    0.033158
   2 O :   -0.696908
   3 P :    0.375960
   4 S :   -0.159789
   5 O :   -0.681910
   6 C :    0.024497
   7 C :   -0.406141
   8 S :    0.176291
   9 C :   -0.397361
  10 S :    0.184126
  11 P :    0.370889
  12 S :   -0.160870
  13 O :   -0.677847
  14 C :    0.023565
  15 C :   -0.389586
  16 O :   -0.685627
  17 C :    0.019496
  18 C :   -0.402571
  19 H :    0.167858
  20 H :    0.163497
  21 H :    0.162796
  22 H :    0.182738
  23 H :    0.191212
  24 H :    0.189751
  25 H :    0.181510
  26 H :    0.167967
  27 H :    0.161786
  28 H :    0.162903
  29 H :    0.198575
  30 H :    0.200438
  31 H :    0.179500
  32 H :    0.181654
  33 H :    0.163217
  34 H :    0.168917
  35 H :    0.162604
  36 H :    0.182582
  37 H :    0.190229
  38 H :    0.163774
  39 H :    0.162472
  40 H :    0.168629

  Mayer bond orders larger than 0.100000
B(  0-C ,  1-C ) :   0.9160 B(  0-C , 19-H ) :   0.9569 B(  0-C , 20-H ) :   0.9697
B(  0-C , 21-H ) :   0.9585 B(  1-C ,  2-O ) :   0.7688 B(  1-C , 22-H ) :   0.9629
B(  1-C , 23-H ) :   0.9505 B(  2-O ,  3-P ) :   1.1408 B(  3-P ,  4-S ) :   1.7716
B(  3-P ,  5-O ) :   1.0285 B(  3-P ,  8-S ) :   1.0510 B(  5-O ,  6-C ) :   0.7978
B(  6-C ,  7-C ) :   0.9255 B(  6-C , 24-H ) :   0.9498 B(  6-C , 25-H ) :   0.9595
B(  7-C , 26-H ) :   0.9561 B(  7-C , 27-H ) :   0.9622 B(  7-C , 28-H ) :   0.9669
B(  8-S ,  9-C ) :   0.8963 B(  9-C , 10-S ) :   0.9131 B(  9-C , 29-H ) :   0.9073
B(  9-C , 30-H ) :   0.9075 B( 10-S , 11-P ) :   1.1005 B( 11-P , 12-S ) :   1.6957
B( 11-P , 13-O ) :   1.0983 B( 11-P , 16-O ) :   1.1708 B( 13-O , 14-C ) :   0.7704
B( 14-C , 15-C ) :   0.9535 B( 14-C , 31-H ) :   0.9373 B( 14-C , 32-H ) :   0.9479
B( 15-C , 33-H ) :   0.9689 B( 15-C , 34-H ) :   0.9582 B( 15-C , 35-H ) :   0.9691
B( 16-O , 17-C ) :   0.7717 B( 17-C , 18-C ) :   0.9187 B( 17-C , 36-H ) :   0.9577
B( 17-C , 37-H ) :   0.9503 B( 18-C , 38-H ) :   0.9714 B( 18-C , 39-H ) :   0.9609
B( 18-C , 40-H ) :   0.9573

Dispersion correction           -0.021628216
FINAL SINGLE POINT ENERGY     -2932.470007169067

DIPOLE MOMENT
-------------

Method             : SCF
Type of density    : Electron Density
Multiplicity       :   1
Irrep              :   0
Energy             : -2932.4946755781106731 Eh
Relativity type    :
Basis              : AO
                                X                 Y                 Z
Electronic contribution:      0.949395881      -9.092107432      -3.311464678
Nuclear contribution   :      0.129416161      10.872310612       1.925626574
                        -----------------------------------------
Total Dipole Moment    :      1.078812042       1.780203180      -1.385838104
                        -----------------------------------------
Magnitude (a.u.)       :      2.500701109
Magnitude (Debye)      :      6.356277076

Rotational constants in cm-1:             0.013183             0.004819             0.004675
Rotational constants in MHz :           395.225649           144.481080           140.163218

                             ****ORCA TERMINATED NORMALLY****
TOTAL RUN TIME: 0 days 0 hours 1 minutes 57 seconds 798 msec
