                         Program Version 6.0.0  -   RELEASE  -
|  1> ! pbe def2-sv(p) def2/J RI DEFGRID1 loosescf d4 GCP(DFT/SV(P)) printgap
|  2> %output
|  3>     printlevel normal
|  4> end
|  5> * xyz 0 1
|  6> C 5.0819522867 -2.3849766261 -1.4456588898
|  7> C 4.0883401205 -1.2463528912 -1.5594625699
|  8> O 3.0779073465 -1.4365432434 -0.5491524439
|  9> P 2.1748264605 -0.2393748064 -0.0310030274
| 10> S 3.1347732209 1.4130003319 0.4234270417
| 11> O 1.3640982601 -0.9267213081 1.138187964
| 12> C 1.7842599921 -0.8226427404 2.5163547829
| 13> C 3.0686425005 -1.5839755718 2.7635234521
| 14> S 0.6970422213 -0.0606489822 -1.5362591057
| 15> C 0.0406315876 1.5294523552 -0.964649373
| 16> S -0.8788158892 1.3885495041 0.5817153852
| 17> P -2.5678222307 0.385341504 -0.264127948
| 18> S -3.0756333795 0.9636723155 -2.0613844474
| 19> O -3.6429366341 0.4684538219 0.9030818014
| 20> C -4.0318621474 1.6685895929 1.5990608624
| 21> C -4.4693150611 2.7751167361 0.6629808181
| 22> O -2.2499639642 -1.1566556358 -0.279900933
| 23> C -1.9135945266 -1.9220554261 0.9046925323
| 24> C -1.1054207844 -3.1255924915 0.4665297947
| 25> H 5.5657723839 -2.3655321487 -0.4732680005
| 26> H 4.5703002546 -3.3352845408 -1.5663133422
| 27> H 5.8334850848 -2.2796937063 -2.221158007
| 28> H 3.5966034578 -1.2406072284 -2.5359523434
| 29> H 4.569027475 -0.2757672108 -1.3956464663
| 30> H 1.9053661735 0.2369729527 2.7626460861
| 31> H 0.9490586112 -1.2413330991 3.0790019088
| 32> H 3.8814676111 -1.1232631206 2.2032139594
| 33> H 3.3086894822 -1.5537917701 3.8216671575
| 34> H 2.9620269883 -2.6167828576 2.4431947739
| 35> H -0.6259323118 1.8935592163 -1.7475414163
| 36> H 0.8657670535 2.218990515 -0.7845100297
| 37> H -4.8523621063 1.337955761 2.2382644672
| 38> H -3.1875050933 1.9931232797 2.2135042525
| 39> H -3.6313160313 3.1014262192 0.0485830835
| 40> H -5.2600805579 2.4247334719 0.0039031208
| 41> H -4.8310149535 3.6172726546 1.2440479669
| 42> H -1.3434620031 -1.2827128985 1.5853545925
| 43> H -2.8505162761 -2.2158258347 1.3815520279
| 44> H -0.1638981743 -2.8062794545 0.0257907817
| 45> H -0.9027405362 -3.7530107351 1.3284809689
| 46> H -1.6613867131 -3.6944041908 -0.2731971135
| 47> *
| 48>
| 49>                          ****END OF INPUT****

CARTESIAN COORDINATES (ANGSTROEM)
---------------------------------
  C      5.081952   -2.384977   -1.445659
  C      4.088340   -1.246353   -1.559463
  O      3.077907   -1.436543   -0.549152
  P      2.174826   -0.239375   -0.031003
  S      3.134773    1.413000    0.423427
  O      1.364098   -0.926721    1.138188
  C      1.784260   -0.822643    2.516355
  C      3.068643   -1.583976    2.763523
  S      0.697042   -0.060649   -1.536259
  C      0.040632    1.529452   -0.964649
  S     -0.878816    1.388550    0.581715
  P     -2.567822    0.385342   -0.264128
  S     -3.075633    0.963672   -2.061384
  O     -3.642937    0.468454    0.903082
  C     -4.031862    1.668590    1.599061
  C     -4.469315    2.775117    0.662981
  O     -2.249964   -1.156656   -0.279901
  C     -1.913595   -1.922055    0.904693
  C     -1.105421   -3.125592    0.466530
  H      5.565772   -2.365532   -0.473268
  H      4.570300   -3.335285   -1.566313
  H      5.833485   -2.279694   -2.221158
  H      3.596603   -1.240607   -2.535952
  H      4.569027   -0.275767   -1.395646
  H      1.905366    0.236973    2.762646
  H      0.949059   -1.241333    3.079002
  H      3.881468   -1.123263    2.203214
  H      3.308689   -1.553792    3.821667
  H      2.962027   -2.616783    2.443195
  H     -0.625932    1.893559   -1.747541
  H      0.865767    2.218991   -0.784510
  H     -4.852362    1.337956    2.238264
  H     -3.187505    1.993123    2.213504
  H     -3.631316    3.101426    0.048583
  H     -5.260081    2.424733    0.003903
  H     -4.831015    3.617273    1.244048
  H     -1.343462   -1.282713    1.585355
  H     -2.850516   -2.215826    1.381552
  H     -0.163898   -2.806279    0.025791
  H     -0.902741   -3.753011    1.328481
  H     -1.661387   -3.694404   -0.273197

 Total Charge           Charge          ....    0
 Multiplicity           Mult            ....    1
 Number of Electrons    NEL             ....  202
 Basis Dimension        Dim             ....  334

ORBITAL ENERGIES
----------------

  NO   OCC          E(Eh)            E(eV)
   0   2.0000     -88.042609     -2395.7612
   1   2.0000     -88.042218     -2395.7505
   2   2.0000     -87.992770     -2394.4050
   3   2.0000     -87.980981     -2394.0842
   4   2.0000     -76.430400     -2079.7769
   5   2.0000     -76.424383     -2079.6132
   6   2.0000     -18.799395      -511.5575
   7   2.0000     -18.798069      -511.5215
   8   2.0000     -18.795197      -511.4433
   9   2.0000     -18.786672      -511.2113
  10   2.0000      -9.959460      -271.0107
  11   2.0000      -9.957972      -270.9702
  12   2.0000      -9.957322      -270.9525
  13   2.0000      -9.951452      -270.7928
  14   2.0000      -9.950073      -270.7553
  15   2.0000      -9.892243      -269.1816
  16   2.0000      -9.889357      -269.1031
  17   2.0000      -9.883027      -268.9308
  18   2.0000      -9.880581      -268.8643
  19   2.0000      -7.687477      -209.1869
  20   2.0000      -7.687346      -209.1833
  21   2.0000      -7.637655      -207.8312
  22   2.0000      -7.626364      -207.5239
  23   2.0000      -6.428162      -174.9192
  24   2.0000      -6.421593      -174.7404
  25   2.0000      -5.715268      -155.5203
  26   2.0000      -5.714974      -155.5123
  27   2.0000      -5.712151      -155.4355
  28   2.0000      -5.711871      -155.4279
  29   2.0000      -5.704622      -155.2307
  30   2.0000      -5.704351      -155.2233
  31   2.0000      -5.666424      -154.1912
  32   2.0000      -5.658292      -153.9700
  33   2.0000      -5.657973      -153.9613
  34   2.0000      -5.655459      -153.8929
  35   2.0000      -5.646878      -153.6594
  36   2.0000      -5.646396      -153.6463
  37   2.0000      -4.650612      -126.5496
  38   2.0000      -4.649927      -126.5310
  39   2.0000      -4.648648      -126.4962
  40   2.0000      -4.644453      -126.3820
  41   2.0000      -4.643603      -126.3589
  42   2.0000      -4.641618      -126.3048
  43   2.0000      -0.994037       -27.0491
  44   2.0000      -0.987049       -26.8590
  45   2.0000      -0.953187       -25.9375
  46   2.0000      -0.942379       -25.6434
  47   2.0000      -0.765288       -20.8245
  48   2.0000      -0.724473       -19.7139
  49   2.0000      -0.712266       -19.3817
  50   2.0000      -0.694107       -18.8876
  51   2.0000      -0.688758       -18.7421
  52   2.0000      -0.676242       -18.4015
  53   2.0000      -0.650484       -17.7006
  54   2.0000      -0.638352       -17.3704
  55   2.0000      -0.603714       -16.4279
  56   2.0000      -0.588918       -16.0253
  57   2.0000      -0.571217       -15.5436
  58   2.0000      -0.568467       -15.4688
  59   2.0000      -0.564314       -15.3558
  60   2.0000      -0.510953       -13.9037
  61   2.0000      -0.502521       -13.6743
  62   2.0000      -0.483779       -13.1643
  63   2.0000      -0.473520       -12.8851
  64   2.0000      -0.461303       -12.5527
  65   2.0000      -0.450590       -12.2612
  66   2.0000      -0.441382       -12.0106
  67   2.0000      -0.436592       -11.8803
  68   2.0000      -0.429191       -11.6789
  69   2.0000      -0.417364       -11.3571
  70   2.0000      -0.413025       -11.2390
  71   2.0000      -0.403103       -10.9690
  72   2.0000      -0.391624       -10.6566
  73   2.0000      -0.385550       -10.4914
  74   2.0000      -0.382939       -10.4203
  75   2.0000      -0.377209       -10.2644
  76   2.0000      -0.363825        -9.9002
  77   2.0000      -0.361061        -9.8250
  78   2.0000      -0.353246        -9.6123
  79   2.0000      -0.351193        -9.5564
  80   2.0000      -0.349344        -9.5061
  81   2.0000      -0.346828        -9.4377
  82   2.0000      -0.344219        -9.3667
  83   2.0000      -0.337594        -9.1864
  84   2.0000      -0.336144        -9.1469
  85   2.0000      -0.322779        -8.7833
  86   2.0000      -0.314132        -8.5480
  87   2.0000      -0.304955        -8.2983
  88   2.0000      -0.296951        -8.0805
  89   2.0000      -0.292512        -7.9597
  90   2.0000      -0.291647        -7.9361
  91   2.0000      -0.281212        -7.6522
  92   2.0000      -0.273903        -7.4533
  93   2.0000      -0.267701        -7.2845
  94   2.0000      -0.256935        -6.9915
  95   2.0000      -0.235989        -6.4216
  96   2.0000      -0.221056        -6.0152
  97   2.0000      -0.214534        -5.8378
  98   2.0000      -0.205428        -5.5900
  99   2.0000      -0.199327        -5.4240
 100   2.0000      -0.196373        -5.3436
 101   0.0000      -0.044942        -1.2229
 102   0.0000      -0.023596        -0.6421
 103   0.0000      -0.004056        -0.1104
 104   0.0000       0.000434         0.0118
 105   0.0000       0.013087         0.3561

MULLIKEN ATOMIC CHARGES
-----------------------
   0 C :   -0.282670
   1 C :   -0.014256
   2 O :   -0.378659
   3 P :    0.615252
   4 S :   -0.334893
   5 O :   -0.360345
   6 C :   -0.007543
   7 C :   -0.306465
   8 S :   -0.062654
   9 C :   -0.374710
  10 S :   -0.109319
  11 P :    0.600120
  12 S :   -0.309334
  13 O :   -0.384379
  14 C :   -0.010753
  15 C :   -0.307884
  16 O :   -0.350251
  17 C :   -0.013304
  18 C :   -0.283217
  19 H :    0.119344
  20 H :    0.118597
  21 H :    0.114583
  22 H :    0.107678
  23 H :    0.108523
  24 H :    0.115061
  25 H :    0.105386
  26 H :    0.125113
  27 H :    0.113720
  28 H :    0.117243
  29 H :    0.195929
  30 H :    0.193970
  31 H :    0.108570
  32 H :    0.112132
  33 H :    0.125906
  34 H :    0.127572
  35 H :    0.111189
  36 H :    0.106098
  37 H :    0.103711
  38 H :    0.127471
  39 H :    0.099947
  40 H :    0.117521
Sum of atomic charges:    0.0000000

LOEWDIN ATOMIC CHARGES
----------------------
   0 C :   -0.350223
   1 C :   -0.119602
   2 O :   -0.245890
   3 P :    0.570970
   4 S :   -0.322861
   5 O :   -0.232321
   6 C :   -0.116889
   7 C :   -0.365075
   8 S :    0.094016
   9 C :   -0.488240
  10 S :    0.064211
  11 P :    0.568503
  12 S :   -0.306087
  13 O :   -0.247982
  14 C :   -0.114245
  15 C :   -0.368808
  16 O :   -0.232066
  17 C :   -0.114161
  18 C :   -0.353343
  19 H :    0.127736
  20 H :    0.127860
  21 H :    0.132223
  22 H :    0.113020
  23 H :    0.109267
  24 H :    0.112368
  25 H :    0.115547
  26 H :    0.122567
  27 H :    0.131466
  28 H :    0.126592
  29 H :    0.128718
  30 H :    0.128221
  31 H :    0.120951
  32 H :    0.107925
  33 H :    0.121770
  34 H :    0.130892
  35 H :    0.130035
  36 H :    0.102702
  37 H :    0.113141
  38 H :    0.123331
  39 H :    0.125473
  40 H :    0.128289

  Mayer bond orders larger than 0.100000
B(  0-C ,  1-C ) :   1.1613 B(  0-C , 19-H ) :   0.9514 B(  0-C , 20-H ) :   0.9502
B(  0-C , 21-H ) :   0.9414 B(  1-C ,  2-O ) :   0.9011 B(  1-C , 22-H ) :   0.9298
B(  1-C , 23-H ) :   0.9095 B(  2-O ,  3-P ) :   1.1069 B(  3-P ,  4-S ) :   1.5953
B(  3-P ,  5-O ) :   1.1162 B(  3-P ,  8-S ) :   0.9719 B(  4-S ,  8-S ) :   0.1089
B(  5-O ,  6-C ) :   0.8997 B(  6-C ,  7-C ) :   1.1663 B(  6-C , 24-H ) :   0.9156
B(  6-C , 25-H ) :   0.9300 B(  7-C , 26-H ) :   0.9334 B(  7-C , 27-H ) :   0.9382
B(  7-C , 28-H ) :   0.9461 B(  8-S ,  9-C ) :   1.0047 B(  9-C , 10-S ) :   1.0075
B(  9-C , 29-H ) :   0.8677 B(  9-C , 30-H ) :   0.8727 B( 10-S , 11-P ) :   0.9341
B( 10-S , 12-S ) :   0.1096 B( 11-P , 12-S ) :   1.6471 B( 11-P , 13-O ) :   1.0852
B( 11-P , 16-O ) :   1.1442 B( 13-O , 14-C ) :   0.9137 B( 14-C , 15-C ) :   1.1675
B( 14-C , 31-H ) :   0.9334 B( 14-C , 32-H ) :   0.9267 B( 15-C , 33-H ) :   0.9319
B( 15-C , 34-H ) :   0.9431 B( 15-C , 35-H ) :   0.9348 B( 16-O , 17-C ) :   0.8866
B( 17-C , 18-C ) :   1.1687 B( 17-C , 36-H ) :   0.9089 B( 17-C , 37-H ) :   0.9321
B( 18-C , 38-H ) :   0.9394 B( 18-C , 39-H ) :   0.9411 B( 18-C , 40-H ) :   0.9478

Dispersion correction           -0.065034465
FINAL SINGLE POINT ENERGY     -2929.523635091444

DIPOLE MOMENT
-------------

Method             : SCF
Type of density    : Electron Density
Multiplicity       :   1
Irrep              :   0
Energy             : -2929.6437865076013622 Eh
Relativity type    :
Basis              : AO
                                X                 Y                 Z
Electronic contribution:     -7.971865572      11.659711232     -11.453757790
Nuclear contribution   :      8.492813948     -12.441797417      12.910957111
                        -----------------------------------------
Total Dipole Moment    :      0.520948377      -0.782086185       1.457199320
                        -----------------------------------------
Magnitude (a.u.)       :      1.733919223
Magnitude (Debye)      :      4.407272412

Rotational constants in cm-1:             0.013505             0.004575             0.004492
Rotational constants in MHz :           404.860082           137.148732           134.655636

                             ****ORCA TERMINATED NORMALLY****
TOTAL RUN TIME: 0 days 0 hours 0 minutes 21 seconds 390 msec
