                         Program Version 6.0.1  -  RELEASE   -
|  1> ! r2scan-3c def2/J RI DEFGRID2 scfconv6 printgap
|  2> %output
|  3>     printlevel normal
|  4> end
|  5> * xyz 0 1
|  6> C 4.3288774611 -3.7081507551 -1.0091764111
|  7> C 2.8131739011 -3.7221804791 -0.8898695262
|  8> O 2.3318668562 -2.5094287583 -0.2776936135
|  9> C 2.1374692383 -1.45556486 -1.0436652585
| 10> O 2.2883366963 -1.4356261348 -2.2450932134
| 11> C 1.6871408384 -0.2571382246 -0.2298818144
| 12> C 0.6363567995 0.5282371383 -1.0016096162
| 13> H 1.000234035 0.7040770246 -2.0209642537
| 14> C 0.277136553 1.8668327568 -0.3866621845
| 15> O -0.8524370737 2.3162052187 -0.4211443264
| 16> O 1.3084862897 2.4749771563 0.1279561412
| 17> C 1.084529533 3.748908553 0.7698800047
| 18> C 2.3388106012 4.109494234 1.5391138188
| 19> S -0.9034369323 -0.4204648599 -1.2341968299
| 20> P -1.8969706976 0.0202650082 0.5981360514
| 21> S -0.819039219 0.5064594709 2.1570188503
| 22> O -3.1110273827 0.9970683912 0.3551406172
| 23> C -4.0061377675 0.8723659506 -0.766248856
| 24> O -2.7067225876 -1.3512468294 0.8084394744
| 25> C -2.0324688622 -2.5639683726 1.156060008
| 26> H 4.666330344 -4.6614350339 -1.4022647175
| 27> H 4.6436544763 -2.9167064068 -1.6854724022
| 28> H 4.779384116 -3.5423638192 -0.0344486985
| 29> H 2.4743457317 -4.5152433783 -0.2234767729
| 30> H 2.3477908783 -3.8228664994 -1.8744732192
| 31> H 2.5524665068 0.3888916936 -0.0646077953
| 32> H 1.3137750574 -0.5887595469 0.7398905071
| 33> H 0.8534751462 4.4843176904 -0.0062632663
| 34> H 0.2147951838 3.6482689408 1.4268723815
| 35> H 2.533721785 3.3610957592 2.301411098
| 36> H 3.1880379281 4.1603617454 0.8646860969
| 37> H 2.1990129151 5.074437958 2.0144804796
| 38> H -4.7676551482 1.6303488664 -0.6030108833
| 39> H -4.4440891575 -0.1240461609 -0.7869202762
| 40> H -3.4628262152 1.068371202 -1.6904221294
| 41> H -1.4527732709 -2.9240676306 0.3059346739
| 42> H -2.8164977662 -3.2714098708 1.4130988119
| 43> H -1.3754818452 -2.394961937 2.0108709875
| 44> *
| 45>
| 46>                          ****END OF INPUT****

CARTESIAN COORDINATES (ANGSTROEM)
---------------------------------
  C      4.328877   -3.708151   -1.009176
  C      2.813174   -3.722180   -0.889870
  O      2.331867   -2.509429   -0.277694
  C      2.137469   -1.455565   -1.043665
  O      2.288337   -1.435626   -2.245093
  C      1.687141   -0.257138   -0.229882
  C      0.636357    0.528237   -1.001610
  H      1.000234    0.704077   -2.020964
  C      0.277137    1.866833   -0.386662
  O     -0.852437    2.316205   -0.421144
  O      1.308486    2.474977    0.127956
  C      1.084530    3.748909    0.769880
  C      2.338811    4.109494    1.539114
  S     -0.903437   -0.420465   -1.234197
  P     -1.896971    0.020265    0.598136
  S     -0.819039    0.506459    2.157019
  O     -3.111027    0.997068    0.355141
  C     -4.006138    0.872366   -0.766249
  O     -2.706723   -1.351247    0.808439
  C     -2.032469   -2.563968    1.156060
  H      4.666330   -4.661435   -1.402265
  H      4.643654   -2.916706   -1.685472
  H      4.779384   -3.542364   -0.034449
  H      2.474346   -4.515243   -0.223477
  H      2.347791   -3.822866   -1.874473
  H      2.552467    0.388892   -0.064608
  H      1.313775   -0.588760    0.739891
  H      0.853475    4.484318   -0.006263
  H      0.214795    3.648269    1.426872
  H      2.533722    3.361096    2.301411
  H      3.188038    4.160362    0.864686
  H      2.199013    5.074438    2.014480
  H     -4.767655    1.630349   -0.603011
  H     -4.444089   -0.124046   -0.786920
  H     -3.462826    1.068371   -1.690422
  H     -1.452773   -2.924068    0.305935
  H     -2.816498   -3.271410    1.413099
  H     -1.375482   -2.394962    2.010871

 Total Charge           Charge          ....    0
 Multiplicity           Mult            ....    1
 Number of Electrons    NEL             ....  174
 Basis Dimension        Dim             ....  510

ORBITAL ENERGIES
----------------

  NO   OCC          E(Eh)            E(eV)
   0   2.0000     -88.572698     -2410.1857
   1   2.0000     -88.513344     -2408.5705
   2   2.0000     -76.910010     -2092.8278
   3   2.0000     -19.010544      -517.3032
   4   2.0000     -19.005522      -517.1666
   5   2.0000     -18.984332      -516.5899
   6   2.0000     -18.984039      -516.5820
   7   2.0000     -18.936792      -515.2963
   8   2.0000     -18.934727      -515.2401
   9   2.0000     -10.166680      -276.6494
  10   2.0000     -10.161101      -276.4976
  11   2.0000     -10.097241      -274.7599
  12   2.0000     -10.097003      -274.7534
  13   2.0000     -10.096195      -274.7314
  14   2.0000     -10.089163      -274.5401
  15   2.0000     -10.086043      -274.4552
  16   2.0000     -10.052357      -273.5385
  17   2.0000     -10.034100      -273.0417
  18   2.0000     -10.033506      -273.0256
  19   2.0000      -7.866836      -214.0675
  20   2.0000      -7.808493      -212.4799
  21   2.0000      -6.587949      -179.2672
  22   2.0000      -5.813860      -158.2032
  23   2.0000      -5.810648      -158.1158
  24   2.0000      -5.803872      -157.9314
  25   2.0000      -5.756369      -156.6388
  26   2.0000      -5.748780      -156.4323
  27   2.0000      -5.748188      -156.4162
  28   2.0000      -4.733612      -128.8081
  29   2.0000      -4.733090      -128.7939
  30   2.0000      -4.731484      -128.7502
  31   2.0000      -1.088984       -29.6328
  32   2.0000      -1.081659       -29.4334
  33   2.0000      -1.042820       -28.3766
  34   2.0000      -1.000863       -27.2349
  35   2.0000      -0.987680       -26.8761
  36   2.0000      -0.986580       -26.8462
  37   2.0000      -0.809195       -22.0193
  38   2.0000      -0.755974       -20.5711
  39   2.0000      -0.750719       -20.4281
  40   2.0000      -0.727230       -19.7889
  41   2.0000      -0.695162       -18.9163
  42   2.0000      -0.669025       -18.2051
  43   2.0000      -0.660197       -17.9649
  44   2.0000      -0.650490       -17.7007
  45   2.0000      -0.628075       -17.0908
  46   2.0000      -0.595191       -16.1960
  47   2.0000      -0.543740       -14.7959
  48   2.0000      -0.532640       -14.4939
  49   2.0000      -0.525917       -14.3109
  50   2.0000      -0.503403       -13.6983
  51   2.0000      -0.487059       -13.2536
  52   2.0000      -0.476023       -12.9533
  53   2.0000      -0.470683       -12.8079
  54   2.0000      -0.461227       -12.5506
  55   2.0000      -0.454614       -12.3707
  56   2.0000      -0.444464       -12.0945
  57   2.0000      -0.442736       -12.0474
  58   2.0000      -0.435392       -11.8476
  59   2.0000      -0.426383       -11.6025
  60   2.0000      -0.419752       -11.4220
  61   2.0000      -0.412886       -11.2352
  62   2.0000      -0.407324       -11.0839
  63   2.0000      -0.405424       -11.0321
  64   2.0000      -0.395716       -10.7680
  65   2.0000      -0.381509       -10.3814
  66   2.0000      -0.377238       -10.2652
  67   2.0000      -0.374357       -10.1868
  68   2.0000      -0.359825        -9.7913
  69   2.0000      -0.357511        -9.7284
  70   2.0000      -0.349938        -9.5223
  71   2.0000      -0.343793        -9.3551
  72   2.0000      -0.335965        -9.1421
  73   2.0000      -0.324280        -8.8241
  74   2.0000      -0.321122        -8.7382
  75   2.0000      -0.314436        -8.5562
  76   2.0000      -0.312675        -8.5083
  77   2.0000      -0.306236        -8.3331
  78   2.0000      -0.286405        -7.7935
  79   2.0000      -0.280353        -7.6288
  80   2.0000      -0.276915        -7.5353
  81   2.0000      -0.270753        -7.3676
  82   2.0000      -0.253158        -6.8888
  83   2.0000      -0.245573        -6.6824
  84   2.0000      -0.232808        -6.3350
  85   2.0000      -0.211489        -5.7549
  86   2.0000      -0.210173        -5.7191
  87   0.0000      -0.043237        -1.1765
  88   0.0000      -0.028606        -0.7784
  89   0.0000      -0.013547        -0.3686
  90   0.0000       0.004804         0.1307
  91   0.0000       0.022975         0.6252

MULLIKEN ATOMIC CHARGES
-----------------------
   0 C :   -0.471889
   1 C :   -0.137988
   2 O :   -0.172614
   3 C :    0.401631
   4 O :   -0.437425
   5 C :   -0.431656
   6 C :    0.019893
   7 H :    0.215687
   8 C :    0.265491
   9 O :   -0.388452
  10 O :   -0.132936
  11 C :   -0.148865
  12 C :   -0.452405
  13 S :   -0.169171
  14 P :    0.779347
  15 S :   -0.463342
  16 O :   -0.297645
  17 C :   -0.300133
  18 O :   -0.354947
  19 C :   -0.302605
  20 H :    0.148857
  21 H :    0.173316
  22 H :    0.154088
  23 H :    0.150140
  24 H :    0.169632
  25 H :    0.198246
  26 H :    0.213745
  27 H :    0.151568
  28 H :    0.182353
  29 H :    0.160847
  30 H :    0.151394
  31 H :    0.150254
  32 H :    0.155128
  33 H :    0.163916
  34 H :    0.174397
  35 H :    0.156668
  36 H :    0.150599
  37 H :    0.174880
Sum of atomic charges:   -0.0000000

LOEWDIN ATOMIC CHARGES
----------------------
   0 C :   -0.388974
   1 C :    0.029472
   2 O :   -0.580751
   3 C :    0.350930
   4 O :   -0.441971
   5 C :   -0.210775
   6 C :   -0.191835
   7 H :    0.216946
   8 C :    0.336148
   9 O :   -0.453748
  10 O :   -0.582152
  11 C :    0.038709
  12 C :   -0.384709
  13 S :    0.216390
  14 P :    0.411981
  15 S :   -0.076170
  16 O :   -0.638564
  17 C :   -0.050193
  18 O :   -0.688416
  19 C :   -0.065372
  20 H :    0.160055
  21 H :    0.165341
  22 H :    0.158247
  23 H :    0.179043
  24 H :    0.188559
  25 H :    0.200744
  26 H :    0.199766
  27 H :    0.177711
  28 H :    0.192964
  29 H :    0.162314
  30 H :    0.158863
  31 H :    0.161482
  32 H :    0.181049
  33 H :    0.170912
  34 H :    0.176106
  35 H :    0.168046
  36 H :    0.176181
  37 H :    0.175674

  Mayer bond orders larger than 0.100000
B(  0-C ,  1-C ) :   0.9374 B(  0-C , 20-H ) :   0.9640 B(  0-C , 21-H ) :   0.9712
B(  0-C , 22-H ) :   0.9731 B(  1-C ,  2-O ) :   0.8097 B(  1-C , 23-H ) :   0.9611
B(  1-C , 24-H ) :   0.9683 B(  2-O ,  3-C ) :   1.0782 B(  3-C ,  4-O ) :   1.8212
B(  3-C ,  5-C ) :   0.9336 B(  5-C ,  6-C ) :   0.9331 B(  5-C , 25-H ) :   0.9340
B(  5-C , 26-H ) :   0.9458 B(  6-C ,  7-H ) :   0.8985 B(  6-C ,  8-C ) :   0.9285
B(  6-C , 13-S ) :   0.8371 B(  8-C ,  9-O ) :   1.7806 B(  8-C , 10-O ) :   1.1823
B( 10-O , 11-C ) :   0.7793 B( 11-C , 12-C ) :   0.9434 B( 11-C , 27-H ) :   0.9453
B( 11-C , 28-H ) :   0.9543 B( 12-C , 29-H ) :   0.9741 B( 12-C , 30-H ) :   0.9720
B( 12-C , 31-H ) :   0.9666 B( 13-S , 14-P ) :   0.9941 B( 14-P , 15-S ) :   1.7492
B( 14-P , 16-O ) :   1.1997 B( 14-P , 18-O ) :   1.0128 B( 16-O , 17-C ) :   0.7968
B( 17-C , 32-H ) :   0.9648 B( 17-C , 33-H ) :   0.9640 B( 17-C , 34-H ) :   0.9567
B( 18-O , 19-C ) :   0.8369 B( 19-C , 35-H ) :   0.9545 B( 19-C , 36-H ) :   0.9685
B( 19-C , 37-H ) :   0.9590

Dispersion correction           -0.017055336
FINAL SINGLE POINT ENERGY     -1981.452110296215

DIPOLE MOMENT
-------------

Method             : SCF
Type of density    : Electron Density
Multiplicity       :   1
Irrep              :   0
Energy             : -1981.4724726932381600 Eh
Relativity type    :
Basis              : AO
                                X                 Y                 Z
Electronic contribution:    -14.678729638       3.495334371      -0.259990126
Nuclear contribution   :     15.288255888      -3.992741889       0.056947882
                        -----------------------------------------
Total Dipole Moment    :      0.609526250      -0.497407518      -0.203042244
                        -----------------------------------------
Magnitude (a.u.)       :      0.812503933
Magnitude (Debye)      :      2.065220872

Rotational constants in cm-1:             0.011022             0.007452             0.005453
Rotational constants in MHz :           330.417989           223.413211           163.487498

                             ****ORCA TERMINATED NORMALLY****
TOTAL RUN TIME: 0 days 0 hours 1 minutes 18 seconds 462 msec
