                         Program Version 6.0.1  -  RELEASE   -
|  1> ! r2scan-3c def2/J RI DEFGRID2 scfconv6 printgap
|  2> %output
|  3>     printlevel normal
|  4> end
|  5> %cpcm
|  6>     smd true
|  7>     smdsolvent "water"
|  8> end
|  9> * xyz 0 1
| 10> C 4.3288774611 -3.7081507551 -1.0091764111
| 11> C 2.8131739011 -3.7221804791 -0.8898695262
| 12> O 2.3318668562 -2.5094287583 -0.2776936135
| 13> C 2.1374692383 -1.45556486 -1.0436652585
| 14> O 2.2883366963 -1.4356261348 -2.2450932134
| 15> C 1.6871408384 -0.2571382246 -0.2298818144
| 16> C 0.6363567995 0.5282371383 -1.0016096162
| 17> H 1.000234035 0.7040770246 -2.0209642537
| 18> C 0.277136553 1.8668327568 -0.3866621845
| 19> O -0.8524370737 2.3162052187 -0.4211443264
| 20> O 1.3084862897 2.4749771563 0.1279561412
| 21> C 1.084529533 3.748908553 0.7698800047
| 22> C 2.3388106012 4.109494234 1.5391138188
| 23> S -0.9034369323 -0.4204648599 -1.2341968299
| 24> P -1.8969706976 0.0202650082 0.5981360514
| 25> S -0.819039219 0.5064594709 2.1570188503
| 26> O -3.1110273827 0.9970683912 0.3551406172
| 27> C -4.0061377675 0.8723659506 -0.766248856
| 28> O -2.7067225876 -1.3512468294 0.8084394744
| 29> C -2.0324688622 -2.5639683726 1.156060008
| 30> H 4.666330344 -4.6614350339 -1.4022647175
| 31> H 4.6436544763 -2.9167064068 -1.6854724022
| 32> H 4.779384116 -3.5423638192 -0.0344486985
| 33> H 2.4743457317 -4.5152433783 -0.2234767729
| 34> H 2.3477908783 -3.8228664994 -1.8744732192
| 35> H 2.5524665068 0.3888916936 -0.0646077953
| 36> H 1.3137750574 -0.5887595469 0.7398905071
| 37> H 0.8534751462 4.4843176904 -0.0062632663
| 38> H 0.2147951838 3.6482689408 1.4268723815
| 39> H 2.533721785 3.3610957592 2.301411098
| 40> H 3.1880379281 4.1603617454 0.8646860969
| 41> H 2.1990129151 5.074437958 2.0144804796
| 42> H -4.7676551482 1.6303488664 -0.6030108833
| 43> H -4.4440891575 -0.1240461609 -0.7869202762
| 44> H -3.4628262152 1.068371202 -1.6904221294
| 45> H -1.4527732709 -2.9240676306 0.3059346739
| 46> H -2.8164977662 -3.2714098708 1.4130988119
| 47> H -1.3754818452 -2.394961937 2.0108709875
| 48> *
| 49>
| 50>                          ****END OF INPUT****

CARTESIAN COORDINATES (ANGSTROEM)
---------------------------------
  C      4.328877   -3.708151   -1.009176
  C      2.813174   -3.722180   -0.889870
  O      2.331867   -2.509429   -0.277694
  C      2.137469   -1.455565   -1.043665
  O      2.288337   -1.435626   -2.245093
  C      1.687141   -0.257138   -0.229882
  C      0.636357    0.528237   -1.001610
  H      1.000234    0.704077   -2.020964
  C      0.277137    1.866833   -0.386662
  O     -0.852437    2.316205   -0.421144
  O      1.308486    2.474977    0.127956
  C      1.084530    3.748909    0.769880
  C      2.338811    4.109494    1.539114
  S     -0.903437   -0.420465   -1.234197
  P     -1.896971    0.020265    0.598136
  S     -0.819039    0.506459    2.157019
  O     -3.111027    0.997068    0.355141
  C     -4.006138    0.872366   -0.766249
  O     -2.706723   -1.351247    0.808439
  C     -2.032469   -2.563968    1.156060
  H      4.666330   -4.661435   -1.402265
  H      4.643654   -2.916706   -1.685472
  H      4.779384   -3.542364   -0.034449
  H      2.474346   -4.515243   -0.223477
  H      2.347791   -3.822866   -1.874473
  H      2.552467    0.388892   -0.064608
  H      1.313775   -0.588760    0.739891
  H      0.853475    4.484318   -0.006263
  H      0.214795    3.648269    1.426872
  H      2.533722    3.361096    2.301411
  H      3.188038    4.160362    0.864686
  H      2.199013    5.074438    2.014480
  H     -4.767655    1.630349   -0.603011
  H     -4.444089   -0.124046   -0.786920
  H     -3.462826    1.068371   -1.690422
  H     -1.452773   -2.924068    0.305935
  H     -2.816498   -3.271410    1.413099
  H     -1.375482   -2.394962    2.010871

 Total Charge           Charge          ....    0
 Multiplicity           Mult            ....    1
 Number of Electrons    NEL             ....  174
 Basis Dimension        Dim             ....  510

ORBITAL ENERGIES
----------------

  NO   OCC          E(Eh)            E(eV)
   0   2.0000     -88.580636     -2410.4016
   1   2.0000     -88.528015     -2408.9697
   2   2.0000     -76.921664     -2093.1449
   3   2.0000     -19.015404      -517.4354
   4   2.0000     -19.009271      -517.2686
   5   2.0000     -18.996576      -516.9231
   6   2.0000     -18.991566      -516.7868
   7   2.0000     -18.949690      -515.6473
   8   2.0000     -18.949397      -515.6393
   9   2.0000     -10.178208      -276.9631
  10   2.0000     -10.170670      -276.7580
  11   2.0000     -10.100189      -274.8401
  12   2.0000     -10.089362      -274.5455
  13   2.0000     -10.086059      -274.4556
  14   2.0000     -10.084659      -274.4175
  15   2.0000     -10.080130      -274.2943
  16   2.0000     -10.053213      -273.5618
  17   2.0000     -10.020482      -272.6712
  18   2.0000     -10.019431      -272.6426
  19   2.0000      -7.874789      -214.2839
  20   2.0000      -7.823412      -212.8859
  21   2.0000      -6.599736      -179.5879
  22   2.0000      -5.821818      -158.4197
  23   2.0000      -5.818617      -158.3326
  24   2.0000      -5.811807      -158.1473
  25   2.0000      -5.771200      -157.0423
  26   2.0000      -5.763741      -156.8394
  27   2.0000      -5.763100      -156.8219
  28   2.0000      -4.745359      -129.1278
  29   2.0000      -4.744830      -129.1134
  30   2.0000      -4.743357      -129.0733
  31   2.0000      -1.095732       -29.8164
  32   2.0000      -1.086847       -29.5746
  33   2.0000      -1.052817       -28.6486
  34   2.0000      -1.009710       -27.4756
  35   2.0000      -1.000514       -27.2254
  36   2.0000      -0.997077       -27.1318
  37   2.0000      -0.813441       -22.1348
  38   2.0000      -0.749821       -20.4037
  39   2.0000      -0.748097       -20.3567
  40   2.0000      -0.730020       -19.8649
  41   2.0000      -0.696654       -18.9569
  42   2.0000      -0.668357       -18.1869
  43   2.0000      -0.662581       -18.0297
  44   2.0000      -0.654435       -17.8081
  45   2.0000      -0.622086       -16.9278
  46   2.0000      -0.593197       -16.1417
  47   2.0000      -0.543631       -14.7929
  48   2.0000      -0.533526       -14.5180
  49   2.0000      -0.524144       -14.2627
  50   2.0000      -0.507863       -13.8196
  51   2.0000      -0.491338       -13.3700
  52   2.0000      -0.478336       -13.0162
  53   2.0000      -0.474477       -12.9112
  54   2.0000      -0.466440       -12.6925
  55   2.0000      -0.461058       -12.5460
  56   2.0000      -0.450280       -12.2528
  57   2.0000      -0.447561       -12.1788
  58   2.0000      -0.441727       -12.0200
  59   2.0000      -0.427121       -11.6226
  60   2.0000      -0.418174       -11.3791
  61   2.0000      -0.411441       -11.1959
  62   2.0000      -0.408582       -11.1181
  63   2.0000      -0.403597       -10.9824
  64   2.0000      -0.395195       -10.7538
  65   2.0000      -0.380886       -10.3644
  66   2.0000      -0.370033       -10.0691
  67   2.0000      -0.367953       -10.0125
  68   2.0000      -0.360887        -9.8202
  69   2.0000      -0.355060        -9.6617
  70   2.0000      -0.347895        -9.4667
  71   2.0000      -0.341225        -9.2852
  72   2.0000      -0.335425        -9.1274
  73   2.0000      -0.326341        -8.8802
  74   2.0000      -0.322190        -8.7672
  75   2.0000      -0.315956        -8.5976
  76   2.0000      -0.312376        -8.5002
  77   2.0000      -0.308438        -8.3930
  78   2.0000      -0.292441        -7.9577
  79   2.0000      -0.285458        -7.7677
  80   2.0000      -0.284069        -7.7299
  81   2.0000      -0.277348        -7.5470
  82   2.0000      -0.266822        -7.2606
  83   2.0000      -0.258381        -7.0309
  84   2.0000      -0.244118        -6.6428
  85   2.0000      -0.226445        -6.1619
  86   2.0000      -0.224976        -6.1219
  87   0.0000      -0.052551        -1.4300
  88   0.0000      -0.039216        -1.0671
  89   0.0000      -0.021949        -0.5973
  90   0.0000      -0.001694        -0.0461
  91   0.0000       0.013613         0.3704

MULLIKEN ATOMIC CHARGES
-----------------------
   0 C :   -0.497284
   1 C :   -0.141208
   2 O :   -0.188069
   3 C :    0.425381
   4 O :   -0.500358
   5 C :   -0.433534
   6 C :    0.024115
   7 H :    0.246491
   8 C :    0.282854
   9 O :   -0.447137
  10 O :   -0.141023
  11 C :   -0.145522
  12 C :   -0.493039
  13 S :   -0.177222
  14 P :    0.782695
  15 S :   -0.495857
  16 O :   -0.347020
  17 C :   -0.305702
  18 O :   -0.385797
  19 C :   -0.308637
  20 H :    0.172010
  21 H :    0.170827
  22 H :    0.166963
  23 H :    0.177186
  24 H :    0.175014
  25 H :    0.230659
  26 H :    0.212492
  27 H :    0.178266
  28 H :    0.176480
  29 H :    0.168278
  30 H :    0.166881
  31 H :    0.172365
  32 H :    0.182258
  33 H :    0.185423
  34 H :    0.180963
  35 H :    0.173133
  36 H :    0.179102
  37 H :    0.177573
Sum of atomic charges:   -0.0000000

LOEWDIN ATOMIC CHARGES
----------------------
   0 C :   -0.391280
   1 C :    0.035587
   2 O :   -0.582913
   3 C :    0.360560
   4 O :   -0.486710
   5 C :   -0.206611
   6 C :   -0.187990
   7 H :    0.228832
   8 C :    0.344911
   9 O :   -0.499636
  10 O :   -0.577746
  11 C :    0.042114
  12 C :   -0.386742
  13 S :    0.217571
  14 P :    0.408166
  15 S :   -0.103562
  16 O :   -0.669991
  17 C :   -0.043844
  18 O :   -0.701254
  19 C :   -0.059244
  20 H :    0.168637
  21 H :    0.163043
  22 H :    0.162803
  23 H :    0.190841
  24 H :    0.190742
  25 H :    0.214018
  26 H :    0.199835
  27 H :    0.187383
  28 H :    0.190578
  29 H :    0.163766
  30 H :    0.164183
  31 H :    0.170039
  32 H :    0.192138
  33 H :    0.181025
  34 H :    0.180067
  35 H :    0.175234
  36 H :    0.188398
  37 H :    0.177052

  Mayer bond orders larger than 0.100000
B(  0-C ,  1-C ) :   0.9355 B(  0-C , 20-H ) :   0.9590 B(  0-C , 21-H ) :   0.9688
B(  0-C , 22-H ) :   0.9692 B(  1-C ,  2-O ) :   0.7918 B(  1-C , 23-H ) :   0.9514
B(  1-C , 24-H ) :   0.9630 B(  2-O ,  3-C ) :   1.0973 B(  3-C ,  4-O ) :   1.7775
B(  3-C ,  5-C ) :   0.9498 B(  5-C ,  6-C ) :   0.9263 B(  5-C , 25-H ) :   0.9183
B(  5-C , 26-H ) :   0.9434 B(  6-C ,  7-H ) :   0.8737 B(  6-C ,  8-C ) :   0.9518
B(  6-C , 13-S ) :   0.8164 B(  8-C ,  9-O ) :   1.7411 B(  8-C , 10-O ) :   1.2001
B( 10-O , 11-C ) :   0.7656 B( 11-C , 12-C ) :   0.9431 B( 11-C , 27-H ) :   0.9371
B( 11-C , 28-H ) :   0.9502 B( 12-C , 29-H ) :   0.9722 B( 12-C , 30-H ) :   0.9680
B( 12-C , 31-H ) :   0.9607 B( 13-S , 14-P ) :   1.0090 B( 14-P , 15-S ) :   1.7543
B( 14-P , 16-O ) :   1.1882 B( 14-P , 18-O ) :   1.0158 B( 16-O , 17-C ) :   0.7909
B( 17-C , 32-H ) :   0.9541 B( 17-C , 33-H ) :   0.9539 B( 17-C , 34-H ) :   0.9483
B( 18-O , 19-C ) :   0.8285 B( 19-C , 35-H ) :   0.9481 B( 19-C , 36-H ) :   0.9581
B( 19-C , 37-H ) :   0.9547

Dispersion correction           -0.017055336
FINAL SINGLE POINT ENERGY     -1981.465890767300

DIPOLE MOMENT
-------------

Method             : SCF
Type of density    : Electron Density
Multiplicity       :   1
Irrep              :   0
Energy             : -1981.4862531643236707 Eh
Relativity type    :
Basis              : AO
                                X                 Y                 Z
Electronic contribution:    -14.293285261       3.134389189      -0.372489965
Nuclear contribution   :     15.288255888      -3.992741889       0.056947882
                        -----------------------------------------
Total Dipole Moment    :      0.994970626      -0.858352700      -0.315542083
                        -----------------------------------------
Magnitude (a.u.)       :      1.351407678
Magnitude (Debye)      :      3.435005333

Rotational constants in cm-1:             0.011022             0.007452             0.005453
Rotational constants in MHz :           330.417989           223.413211           163.487498

                             ****ORCA TERMINATED NORMALLY****
TOTAL RUN TIME: 0 days 0 hours 1 minutes 44 seconds 354 msec
