                         Program Version 6.0.0  -   RELEASE  -
|  1> ! pbe def2-sv(p) def2/J RI DEFGRID1 loosescf d4 GCP(DFT/SV(P)) printgap
|  2> %output
|  3>     printlevel normal
|  4> end
|  5> * xyz 0 1
|  6> C 3.1240919491 1.4782206139 2.993244005
|  7> C 1.7629150667 0.9385322798 2.6095997857
|  8> O 1.6121494669 0.8984993811 1.1763177033
|  9> P 2.3209043674 -0.1980724741 0.2766920969
| 10> S 2.7056625678 -1.8779669682 1.2203579319
| 11> O 3.5462222342 0.6371786057 -0.2885293282
| 12> C 4.2817073637 0.3438212109 -1.4897759842
| 13> C 4.756431159 -1.0930407318 -1.5559124741
| 14> S 0.9946823767 -0.3283050928 -1.3733346573
| 15> C -0.1293749229 -1.5224025889 -0.6022551553
| 16> S -1.1741589683 -0.7798178468 0.6701843388
| 17> P -2.4552858823 0.2811073138 -0.6721314955
| 18> S -2.8130519996 -0.6065738337 -2.3783248325
| 19> O -1.8070445403 1.6977745215 -0.9063152493
| 20> C -1.1510586202 2.55858233 0.0554078907
| 21> C -1.9464304642 2.7454008995 1.3289731897
| 22> O -3.7459049744 0.6146446811 0.1923243696
| 23> C -4.871394868 -0.2768493204 0.2744299265
| 24> C -4.5396761583 -1.558860985 1.010655045
| 25> H 3.1947298052 1.5506159605 4.0738159435
| 26> H 3.8987577323 0.8037924433 2.6295350079
| 27> H 3.2788673559 2.4584699679 2.5508035217
| 28> H 0.9538936525 1.5875934756 2.9463350712
| 29> H 1.6172281933 -0.071664978 3.0054408779
| 30> H 3.6422988351 0.579575848 -2.3453759833
| 31> H 5.1214306605 1.0402694934 -1.452988693
| 32> H 3.9037943182 -1.7684009378 -1.6186100227
| 33> H 5.3772701245 -1.2274377924 -2.4359127055
| 34> H 5.3315510383 -1.345059323 -0.6679540376
| 35> H 0.4537841342 -2.3080824196 -0.120326453
| 36> H -0.7589039031 -1.919119767 -1.3996720475
| 37> H -0.1635378289 2.1395742406 0.2666107041
| 38> H -1.0381728442 3.4962900792 -0.4913060671
| 39> H -2.0249206886 1.802637446 1.8676381279
| 40> H -1.4410602608 3.4733000362 1.9567050357
| 41> H -2.9468991821 3.1024235428 1.0990262113
| 42> H -5.6262051285 0.3069628319 0.8030547208
| 43> H -5.2139439285 -0.4956283508 -0.7418274429
| 44> H -3.8404452229 -2.1547478441 0.4260402697
| 45> H -4.0916440946 -1.3381082049 1.9761380372
| 46> H -5.4493348197 -2.1320867376 1.1580414024
| 47> *
| 48>
| 49>                          ****END OF INPUT****

CARTESIAN COORDINATES (ANGSTROEM)
---------------------------------
  C      3.124092    1.478221    2.993244
  C      1.762915    0.938532    2.609600
  O      1.612149    0.898499    1.176318
  P      2.320904   -0.198072    0.276692
  S      2.705663   -1.877967    1.220358
  O      3.546222    0.637179   -0.288529
  C      4.281707    0.343821   -1.489776
  C      4.756431   -1.093041   -1.555912
  S      0.994682   -0.328305   -1.373335
  C     -0.129375   -1.522403   -0.602255
  S     -1.174159   -0.779818    0.670184
  P     -2.455286    0.281107   -0.672131
  S     -2.813052   -0.606574   -2.378325
  O     -1.807045    1.697775   -0.906315
  C     -1.151059    2.558582    0.055408
  C     -1.946430    2.745401    1.328973
  O     -3.745905    0.614645    0.192324
  C     -4.871395   -0.276849    0.274430
  C     -4.539676   -1.558861    1.010655
  H      3.194730    1.550616    4.073816
  H      3.898758    0.803792    2.629535
  H      3.278867    2.458470    2.550804
  H      0.953894    1.587593    2.946335
  H      1.617228   -0.071665    3.005441
  H      3.642299    0.579576   -2.345376
  H      5.121431    1.040269   -1.452989
  H      3.903794   -1.768401   -1.618610
  H      5.377270   -1.227438   -2.435913
  H      5.331551   -1.345059   -0.667954
  H      0.453784   -2.308082   -0.120326
  H     -0.758904   -1.919120   -1.399672
  H     -0.163538    2.139574    0.266611
  H     -1.038173    3.496290   -0.491306
  H     -2.024921    1.802637    1.867638
  H     -1.441060    3.473300    1.956705
  H     -2.946899    3.102424    1.099026
  H     -5.626205    0.306963    0.803055
  H     -5.213944   -0.495628   -0.741827
  H     -3.840445   -2.154748    0.426040
  H     -4.091644   -1.338108    1.976138
  H     -5.449335   -2.132087    1.158041

 Total Charge           Charge          ....    0
 Multiplicity           Mult            ....    1
 Number of Electrons    NEL             ....  202
 Basis Dimension        Dim             ....  334

ORBITAL ENERGIES
----------------

  NO   OCC          E(Eh)            E(eV)
   0   2.0000     -88.046101     -2395.8562
   1   2.0000     -88.043047     -2395.7731
   2   2.0000     -87.992332     -2394.3931
   3   2.0000     -87.983167     -2394.1437
   4   2.0000     -76.431801     -2079.8150
   5   2.0000     -76.425971     -2079.6564
   6   2.0000     -18.798320      -511.5283
   7   2.0000     -18.794974      -511.4373
   8   2.0000     -18.794038      -511.4118
   9   2.0000     -18.787812      -511.2424
  10   2.0000      -9.962261      -271.0869
  11   2.0000      -9.954253      -270.8690
  12   2.0000      -9.952814      -270.8298
  13   2.0000      -9.952749      -270.8281
  14   2.0000      -9.949841      -270.7489
  15   2.0000      -9.887067      -269.0408
  16   2.0000      -9.886635      -269.0290
  17   2.0000      -9.886525      -269.0260
  18   2.0000      -9.883778      -268.9513
  19   2.0000      -7.691040      -209.2838
  20   2.0000      -7.687698      -209.1929
  21   2.0000      -7.637197      -207.8187
  22   2.0000      -7.628487      -207.5817
  23   2.0000      -6.429139      -174.9458
  24   2.0000      -6.423194      -174.7840
  25   2.0000      -5.718739      -155.6148
  26   2.0000      -5.715656      -155.5309
  27   2.0000      -5.715391      -155.5237
  28   2.0000      -5.712323      -155.4402
  29   2.0000      -5.708115      -155.3257
  30   2.0000      -5.704801      -155.2355
  31   2.0000      -5.666048      -154.1810
  32   2.0000      -5.657910      -153.9596
  33   2.0000      -5.657441      -153.9468
  34   2.0000      -5.657360      -153.9446
  35   2.0000      -5.649043      -153.7183
  36   2.0000      -5.648615      -153.7066
  37   2.0000      -4.651630      -126.5773
  38   2.0000      -4.651062      -126.5618
  39   2.0000      -4.649535      -126.5203
  40   2.0000      -4.645966      -126.4232
  41   2.0000      -4.644985      -126.3965
  42   2.0000      -4.643512      -126.3564
  43   2.0000      -0.992197       -26.9990
  44   2.0000      -0.985456       -26.8156
  45   2.0000      -0.951063       -25.8797
  46   2.0000      -0.943691       -25.6791
  47   2.0000      -0.766199       -20.8493
  48   2.0000      -0.722837       -19.6694
  49   2.0000      -0.711131       -19.3508
  50   2.0000      -0.691265       -18.8103
  51   2.0000      -0.689775       -18.7697
  52   2.0000      -0.678827       -18.4718
  53   2.0000      -0.654011       -17.7965
  54   2.0000      -0.638982       -17.3876
  55   2.0000      -0.603065       -16.4102
  56   2.0000      -0.596917       -16.2429
  57   2.0000      -0.578221       -15.7342
  58   2.0000      -0.575329       -15.6555
  59   2.0000      -0.562594       -15.3090
  60   2.0000      -0.501462       -13.6455
  61   2.0000      -0.489785       -13.3277
  62   2.0000      -0.474849       -12.9213
  63   2.0000      -0.469727       -12.7819
  64   2.0000      -0.464046       -12.6273
  65   2.0000      -0.445338       -12.1183
  66   2.0000      -0.442556       -12.0426
  67   2.0000      -0.441493       -12.0136
  68   2.0000      -0.431244       -11.7347
  69   2.0000      -0.422290       -11.4911
  70   2.0000      -0.414751       -11.2859
  71   2.0000      -0.397754       -10.8234
  72   2.0000      -0.395105       -10.7513
  73   2.0000      -0.390172       -10.6171
  74   2.0000      -0.381270       -10.3749
  75   2.0000      -0.377301       -10.2669
  76   2.0000      -0.369730       -10.0609
  77   2.0000      -0.363516        -9.8918
  78   2.0000      -0.352758        -9.5990
  79   2.0000      -0.351259        -9.5582
  80   2.0000      -0.350392        -9.5346
  81   2.0000      -0.347113        -9.4454
  82   2.0000      -0.345681        -9.4064
  83   2.0000      -0.343036        -9.3345
  84   2.0000      -0.336311        -9.1515
  85   2.0000      -0.322053        -8.7635
  86   2.0000      -0.311870        -8.4864
  87   2.0000      -0.300435        -8.1752
  88   2.0000      -0.293371        -7.9830
  89   2.0000      -0.291786        -7.9399
  90   2.0000      -0.291009        -7.9188
  91   2.0000      -0.281125        -7.6498
  92   2.0000      -0.269456        -7.3323
  93   2.0000      -0.263679        -7.1751
  94   2.0000      -0.260555        -7.0901
  95   2.0000      -0.236930        -6.4472
  96   2.0000      -0.219313        -5.9678
  97   2.0000      -0.212587        -5.7848
  98   2.0000      -0.205929        -5.6036
  99   2.0000      -0.201983        -5.4962
 100   2.0000      -0.199752        -5.4355
 101   0.0000      -0.046454        -1.2641
 102   0.0000      -0.027393        -0.7454
 103   0.0000      -0.007912        -0.2153
 104   0.0000      -0.001450        -0.0395
 105   0.0000       0.013863         0.3772

MULLIKEN ATOMIC CHARGES
-----------------------
   0 C :   -0.301102
   1 C :   -0.008562
   2 O :   -0.357321
   3 P :    0.612687
   4 S :   -0.329160
   5 O :   -0.373036
   6 C :   -0.012111
   7 C :   -0.312744
   8 S :   -0.077354
   9 C :   -0.369159
  10 S :   -0.099079
  11 P :    0.605418
  12 S :   -0.319992
  13 O :   -0.355650
  14 C :   -0.025597
  15 C :   -0.316274
  16 O :   -0.376028
  17 C :   -0.002089
  18 C :   -0.314697
  19 H :    0.112531
  20 H :    0.123748
  21 H :    0.114455
  22 H :    0.102868
  23 H :    0.115269
  24 H :    0.117782
  25 H :    0.110973
  26 H :    0.127475
  27 H :    0.114111
  28 H :    0.126724
  29 H :    0.193787
  30 H :    0.196205
  31 H :    0.141788
  32 H :    0.105722
  33 H :    0.119047
  34 H :    0.111930
  35 H :    0.122367
  36 H :    0.104343
  37 H :    0.114723
  38 H :    0.127490
  39 H :    0.115082
  40 H :    0.113430
Sum of atomic charges:   -0.0000000

LOEWDIN ATOMIC CHARGES
----------------------
   0 C :   -0.362302
   1 C :   -0.120637
   2 O :   -0.234621
   3 P :    0.574894
   4 S :   -0.313517
   5 O :   -0.243205
   6 C :   -0.113065
   7 C :   -0.369842
   8 S :    0.089577
   9 C :   -0.488949
  10 S :    0.076691
  11 P :    0.574904
  12 S :   -0.314392
  13 O :   -0.232836
  14 C :   -0.118805
  15 C :   -0.367673
  16 O :   -0.242498
  17 C :   -0.117534
  18 C :   -0.370190
  19 H :    0.130641
  20 H :    0.124110
  21 H :    0.125506
  22 H :    0.115535
  23 H :    0.109633
  24 H :    0.112013
  25 H :    0.122369
  26 H :    0.121994
  27 H :    0.131406
  28 H :    0.129633
  29 H :    0.128178
  30 H :    0.128639
  31 H :    0.112560
  32 H :    0.121610
  33 H :    0.115991
  34 H :    0.129246
  35 H :    0.127831
  36 H :    0.118395
  37 H :    0.113124
  38 H :    0.121479
  39 H :    0.122794
  40 H :    0.131314

  Mayer bond orders larger than 0.100000
B(  0-C ,  1-C ) :   1.1638 B(  0-C , 19-H ) :   0.9400 B(  0-C , 20-H ) :   0.9367
B(  0-C , 21-H ) :   0.9470 B(  1-C ,  2-O ) :   0.8970 B(  1-C , 22-H ) :   0.9312
B(  1-C , 23-H ) :   0.9101 B(  2-O ,  3-P ) :   1.1064 B(  3-P ,  4-S ) :   1.5943
B(  3-P ,  5-O ) :   1.1177 B(  3-P ,  8-S ) :   0.9564 B(  4-S ,  8-S ) :   0.1096
B(  5-O ,  6-C ) :   0.9109 B(  6-C ,  7-C ) :   1.1644 B(  6-C , 24-H ) :   0.9284
B(  6-C , 25-H ) :   0.9341 B(  7-C , 26-H ) :   0.9329 B(  7-C , 27-H ) :   0.9347
B(  7-C , 28-H ) :   0.9425 B(  8-S ,  9-C ) :   1.0039 B(  9-C , 10-S ) :   1.0096
B(  9-C , 29-H ) :   0.8683 B(  9-C , 30-H ) :   0.8662 B( 10-S , 11-P ) :   0.9329
B( 10-S , 12-S ) :   0.1080 B( 11-P , 12-S ) :   1.6192 B( 11-P , 13-O ) :   1.1568
B( 11-P , 16-O ) :   1.0922 B( 13-O , 14-C ) :   0.8923 B( 14-C , 15-C ) :   1.1728
B( 14-C , 31-H ) :   0.9005 B( 14-C , 32-H ) :   0.9329 B( 15-C , 33-H ) :   0.9370
B( 15-C , 34-H ) :   0.9348 B( 15-C , 35-H ) :   0.9417 B( 16-O , 17-C ) :   0.9062
B( 17-C , 18-C ) :   1.1653 B( 17-C , 36-H ) :   0.9340 B( 17-C , 37-H ) :   0.9161
B( 18-C , 38-H ) :   0.9349 B( 18-C , 39-H ) :   0.9450 B( 18-C , 40-H ) :   0.9374

Dispersion correction           -0.066369758
FINAL SINGLE POINT ENERGY     -2929.520463499563

DIPOLE MOMENT
-------------

Method             : SCF
Type of density    : Electron Density
Multiplicity       :   1
Irrep              :   0
Energy             : -2929.6402922633419621 Eh
Relativity type    :
Basis              : AO
                                X                 Y                 Z
Electronic contribution:     -3.678117796      -6.257100197     -12.122529992
Nuclear contribution   :      4.042717279       7.199235696      13.061220478
                        -----------------------------------------
Total Dipole Moment    :      0.364599483       0.942135499       0.938690486
                        -----------------------------------------
Magnitude (a.u.)       :      1.379018458
Magnitude (Debye)      :      3.505186360

Rotational constants in cm-1:             0.013144             0.004827             0.004459
Rotational constants in MHz :           394.051743           144.708841           133.678290

                             ****ORCA TERMINATED NORMALLY****
TOTAL RUN TIME: 0 days 0 hours 0 minutes 21 seconds 596 msec
