                         Program Version 6.0.0  -   RELEASE  -
|  1> ! pbe def2-sv(p) def2/J RI DEFGRID1 loosescf d4 GCP(DFT/SV(P)) printgap
|  2> %output
|  3>     printlevel normal
|  4> end
|  5> * xyz 0 1
|  6> C 5.3939341687 -0.4005663345 -1.0923134018
|  7> C 4.4274377614 -1.1304323764 -0.179297265
|  8> O 3.5814320703 -0.2082112528 0.5322956212
|  9> P 2.1688292143 0.2785211522 -0.0173713562
| 10> S 2.1682672484 1.1666111785 -1.7701350157
| 11> O 1.6835190874 1.1213553244 1.2282766309
| 12> C 1.7980027715 2.5554001192 1.2777785527
| 13> C 3.24486466 2.991940058 1.3568955306
| 14> S 1.0132213129 -1.4812796878 0.1320706901
| 15> C 0.0252364447 -1.3700448525 -1.406737077
| 16> S -1.7024861408 -1.8009529793 -1.14421421
| 17> P -2.3732289574 -0.0382339109 -0.1356763906
| 18> S -1.1867626249 1.5163660172 -0.2167720267
| 19> O -2.827765105 -0.5641753448 1.2978340765
| 20> C -1.9854087693 -1.2454316974 2.2433273145
| 21> C -1.1219938387 -0.2805617528 3.0310230659
| 22> O -3.7509800613 0.312886284 -0.8026661632
| 23> C -4.8346907 -0.6410148407 -0.9519128764
| 24> C -5.8475770442 -0.4822955758 0.1631106271
| 25> H 4.8496060212 0.1478241029 -1.8580226818
| 26> H 5.9925426398 0.3012327692 -0.5183370508
| 27> H 6.0476550946 -1.1224685268 -1.5709551168
| 28> H 4.9567079943 -1.6726901866 0.6066001781
| 29> H 3.8037465381 -1.8289759553 -0.7454534015
| 30> H 1.302994429 2.9734049097 0.3945594295
| 31> H 1.2351160386 2.8328712647 2.1699457737
| 32> H 3.7636805827 2.7058800664 0.4423620438
| 33> H 3.2912283267 4.0705992093 1.4678952917
| 34> H 3.7328670152 2.5148492378 2.2026673762
| 35> H 0.4075616702 -2.0978870565 -2.1177738861
| 36> H 0.1083731903 -0.3524886266 -1.7970286054
| 37> H -2.6902961734 -1.7645329436 2.8955676292
| 38> H -1.3680443854 -1.9786456786 1.7140380244
| 39> H -1.7412285064 0.4751230971 3.5071048792
| 40> H -0.5726498141 -0.8295266431 3.789042473
| 41> H -0.409478424 0.2182835697 2.3765853736
| 42> H -5.2717358932 -0.4032252863 -1.9232106095
| 43> H -4.4170596778 -1.6511835846 -0.9735952388
| 44> H -6.2225721129 0.5373134595 0.1816326573
| 45> H -6.6734636416 -1.1653779594 -0.0088696321
| 46> H -5.3909807241 -0.703545101 1.1236950754
| 47> *
| 48>
| 49>                          ****END OF INPUT****

CARTESIAN COORDINATES (ANGSTROEM)
---------------------------------
  C      5.393934   -0.400566   -1.092313
  C      4.427438   -1.130432   -0.179297
  O      3.581432   -0.208211    0.532296
  P      2.168829    0.278521   -0.017371
  S      2.168267    1.166611   -1.770135
  O      1.683519    1.121355    1.228277
  C      1.798003    2.555400    1.277779
  C      3.244865    2.991940    1.356896
  S      1.013221   -1.481280    0.132071
  C      0.025236   -1.370045   -1.406737
  S     -1.702486   -1.800953   -1.144214
  P     -2.373229   -0.038234   -0.135676
  S     -1.186763    1.516366   -0.216772
  O     -2.827765   -0.564175    1.297834
  C     -1.985409   -1.245432    2.243327
  C     -1.121994   -0.280562    3.031023
  O     -3.750980    0.312886   -0.802666
  C     -4.834691   -0.641015   -0.951913
  C     -5.847577   -0.482296    0.163111
  H      4.849606    0.147824   -1.858023
  H      5.992543    0.301233   -0.518337
  H      6.047655   -1.122469   -1.570955
  H      4.956708   -1.672690    0.606600
  H      3.803747   -1.828976   -0.745453
  H      1.302994    2.973405    0.394559
  H      1.235116    2.832871    2.169946
  H      3.763681    2.705880    0.442362
  H      3.291228    4.070599    1.467895
  H      3.732867    2.514849    2.202667
  H      0.407562   -2.097887   -2.117774
  H      0.108373   -0.352489   -1.797029
  H     -2.690296   -1.764533    2.895568
  H     -1.368044   -1.978646    1.714038
  H     -1.741229    0.475123    3.507105
  H     -0.572650   -0.829527    3.789042
  H     -0.409478    0.218284    2.376585
  H     -5.271736   -0.403225   -1.923211
  H     -4.417060   -1.651184   -0.973595
  H     -6.222572    0.537313    0.181633
  H     -6.673464   -1.165378   -0.008870
  H     -5.390981   -0.703545    1.123695

 Total Charge           Charge          ....    0
 Multiplicity           Mult            ....    1
 Number of Electrons    NEL             ....  202
 Basis Dimension        Dim             ....  334

ORBITAL ENERGIES
----------------

  NO   OCC          E(Eh)            E(eV)
   0   2.0000     -88.045415     -2395.8375
   1   2.0000     -88.043380     -2395.7822
   2   2.0000     -87.986892     -2394.2451
   3   2.0000     -87.980570     -2394.0730
   4   2.0000     -76.425700     -2079.6490
   5   2.0000     -76.424258     -2079.6098
   6   2.0000     -18.791353      -511.3387
   7   2.0000     -18.790530      -511.3163
   8   2.0000     -18.789214      -511.2805
   9   2.0000     -18.786580      -511.2088
  10   2.0000      -9.959758      -271.0188
  11   2.0000      -9.954653      -270.8799
  12   2.0000      -9.952875      -270.8315
  13   2.0000      -9.949893      -270.7503
  14   2.0000      -9.945875      -270.6410
  15   2.0000      -9.887889      -269.0631
  16   2.0000      -9.879758      -268.8419
  17   2.0000      -9.878725      -268.8138
  18   2.0000      -9.873526      -268.6723
  19   2.0000      -7.690387      -209.2661
  20   2.0000      -7.688171      -209.2058
  21   2.0000      -7.631725      -207.6698
  22   2.0000      -7.625424      -207.4983
  23   2.0000      -6.422980      -174.7782
  24   2.0000      -6.421652      -174.7420
  25   2.0000      -5.718312      -155.6032
  26   2.0000      -5.715995      -155.5401
  27   2.0000      -5.714686      -155.5045
  28   2.0000      -5.712687      -155.4501
  29   2.0000      -5.707563      -155.3107
  30   2.0000      -5.705195      -155.2463
  31   2.0000      -5.660609      -154.0330
  32   2.0000      -5.654533      -153.8677
  33   2.0000      -5.652438      -153.8107
  34   2.0000      -5.651827      -153.7940
  35   2.0000      -5.645983      -153.6350
  36   2.0000      -5.645440      -153.6202
  37   2.0000      -4.645205      -126.4025
  38   2.0000      -4.644777      -126.3908
  39   2.0000      -4.644353      -126.3793
  40   2.0000      -4.643777      -126.3636
  41   2.0000      -4.643625      -126.3595
  42   2.0000      -4.641811      -126.3101
  43   2.0000      -0.987306       -26.8660
  44   2.0000      -0.984884       -26.8001
  45   2.0000      -0.943482       -25.6735
  46   2.0000      -0.942222       -25.6392
  47   2.0000      -0.761643       -20.7254
  48   2.0000      -0.720655       -19.6100
  49   2.0000      -0.709738       -19.3130
  50   2.0000      -0.687523       -18.7085
  51   2.0000      -0.683002       -18.5854
  52   2.0000      -0.673553       -18.3283
  53   2.0000      -0.649030       -17.6610
  54   2.0000      -0.636592       -17.3225
  55   2.0000      -0.596877       -16.2418
  56   2.0000      -0.584478       -15.9044
  57   2.0000      -0.574974       -15.6458
  58   2.0000      -0.568563       -15.4714
  59   2.0000      -0.562982       -15.3195
  60   2.0000      -0.505152       -13.7459
  61   2.0000      -0.495019       -13.4701
  62   2.0000      -0.476643       -12.9701
  63   2.0000      -0.471325       -12.8254
  64   2.0000      -0.448419       -12.2021
  65   2.0000      -0.447242       -12.1701
  66   2.0000      -0.438728       -11.9384
  67   2.0000      -0.436618       -11.8810
  68   2.0000      -0.427915       -11.6442
  69   2.0000      -0.410922       -11.1817
  70   2.0000      -0.405955       -11.0466
  71   2.0000      -0.400080       -10.8867
  72   2.0000      -0.396131       -10.7793
  73   2.0000      -0.386195       -10.5089
  74   2.0000      -0.384967       -10.4755
  75   2.0000      -0.370755       -10.0888
  76   2.0000      -0.361245        -9.8300
  77   2.0000      -0.356520        -9.7014
  78   2.0000      -0.351241        -9.5577
  79   2.0000      -0.348053        -9.4710
  80   2.0000      -0.343536        -9.3481
  81   2.0000      -0.341262        -9.2862
  82   2.0000      -0.336767        -9.1639
  83   2.0000      -0.332680        -9.0527
  84   2.0000      -0.331058        -9.0085
  85   2.0000      -0.318078        -8.6553
  86   2.0000      -0.312395        -8.5007
  87   2.0000      -0.295088        -8.0297
  88   2.0000      -0.291826        -7.9410
  89   2.0000      -0.287803        -7.8315
  90   2.0000      -0.283170        -7.7054
  91   2.0000      -0.277361        -7.5474
  92   2.0000      -0.271909        -7.3990
  93   2.0000      -0.264685        -7.2024
  94   2.0000      -0.257128        -6.9968
  95   2.0000      -0.237609        -6.4657
  96   2.0000      -0.221669        -6.0319
  97   2.0000      -0.211768        -5.7625
  98   2.0000      -0.201878        -5.4934
  99   2.0000      -0.195245        -5.3129
 100   2.0000      -0.188490        -5.1291
 101   0.0000      -0.045117        -1.2277
 102   0.0000      -0.034371        -0.9353
 103   0.0000      -0.010474        -0.2850
 104   0.0000       0.009330         0.2539
 105   0.0000       0.015434         0.4200

MULLIKEN ATOMIC CHARGES
-----------------------
   0 C :   -0.295097
   1 C :   -0.006186
   2 O :   -0.369874
   3 P :    0.622951
   4 S :   -0.316667
   5 O :   -0.356248
   6 C :   -0.007160
   7 C :   -0.301903
   8 S :   -0.112502
   9 C :   -0.329668
  10 S :   -0.134649
  11 P :    0.601209
  12 S :   -0.302377
  13 O :   -0.377230
  14 C :   -0.011177
  15 C :   -0.323739
  16 O :   -0.351450
  17 C :   -0.020700
  18 C :   -0.287874
  19 H :    0.129058
  20 H :    0.113426
  21 H :    0.105903
  22 H :    0.105961
  23 H :    0.094507
  24 H :    0.124253
  25 H :    0.105944
  26 H :    0.123711
  27 H :    0.111272
  28 H :    0.114064
  29 H :    0.179033
  30 H :    0.214887
  31 H :    0.099466
  32 H :    0.107908
  33 H :    0.109713
  34 H :    0.103508
  35 H :    0.158896
  36 H :    0.114972
  37 H :    0.107835
  38 H :    0.122504
  39 H :    0.109490
  40 H :    0.124030
Sum of atomic charges:    0.0000000

LOEWDIN ATOMIC CHARGES
----------------------
   0 C :   -0.365111
   1 C :   -0.117402
   2 O :   -0.245624
   3 P :    0.573594
   4 S :   -0.300879
   5 O :   -0.229532
   6 C :   -0.116750
   7 C :   -0.365725
   8 S :    0.077245
   9 C :   -0.476650
  10 S :    0.061690
  11 P :    0.561123
  12 S :   -0.286640
  13 O :   -0.245539
  14 C :   -0.119325
  15 C :   -0.370614
  16 O :   -0.233818
  17 C :   -0.112256
  18 C :   -0.358764
  19 H :    0.123384
  20 H :    0.125192
  21 H :    0.127872
  22 H :    0.118302
  23 H :    0.102762
  24 H :    0.110950
  25 H :    0.119472
  26 H :    0.121551
  27 H :    0.130421
  28 H :    0.125330
  29 H :    0.134794
  30 H :    0.125807
  31 H :    0.115152
  32 H :    0.097401
  33 H :    0.124510
  34 H :    0.127825
  35 H :    0.124904
  36 H :    0.123612
  37 H :    0.104428
  38 H :    0.130528
  39 H :    0.129279
  40 H :    0.127503

  Mayer bond orders larger than 0.100000
B(  0-C ,  1-C ) :   1.1651 B(  0-C , 19-H ) :   0.9303 B(  0-C , 20-H ) :   0.9468
B(  0-C , 21-H ) :   0.9396 B(  1-C ,  2-O ) :   0.9122 B(  1-C , 22-H ) :   0.9368
B(  1-C , 23-H ) :   0.9134 B(  2-O ,  3-P ) :   1.1028 B(  3-P ,  4-S ) :   1.6011
B(  3-P ,  5-O ) :   1.1332 B(  3-P ,  8-S ) :   0.9556 B(  4-S ,  8-S ) :   0.1168
B(  5-O ,  6-C ) :   0.8963 B(  6-C ,  7-C ) :   1.1628 B(  6-C , 24-H ) :   0.9149
B(  6-C , 25-H ) :   0.9340 B(  7-C , 26-H ) :   0.9333 B(  7-C , 27-H ) :   0.9390
B(  7-C , 28-H ) :   0.9454 B(  8-S ,  9-C ) :   0.9824 B(  9-C , 10-S ) :   1.0168
B(  9-C , 29-H ) :   0.9094 B(  9-C , 30-H ) :   0.8469 B( 10-S , 11-P ) :   0.9289
B( 10-S , 12-S ) :   0.1114 B( 11-P , 12-S ) :   1.6759 B( 11-P , 13-O ) :   1.0772
B( 11-P , 16-O ) :   1.1454 B( 13-O , 14-C ) :   0.9133 B( 14-C , 15-C ) :   1.1666
B( 14-C , 31-H ) :   0.9343 B( 14-C , 32-H ) :   0.9064 B( 15-C , 33-H ) :   0.9451
B( 15-C , 34-H ) :   0.9384 B( 15-C , 35-H ) :   0.9203 B( 16-O , 17-C ) :   0.8932
B( 17-C , 18-C ) :   1.1655 B( 17-C , 36-H ) :   0.9356 B( 17-C , 37-H ) :   0.9161
B( 18-C , 38-H ) :   0.9466 B( 18-C , 39-H ) :   0.9394 B( 18-C , 40-H ) :   0.9413

Dispersion correction           -0.066293835
FINAL SINGLE POINT ENERGY     -2929.519921759379

DIPOLE MOMENT
-------------

Method             : SCF
Type of density    : Electron Density
Multiplicity       :   1
Irrep              :   0
Energy             : -2929.6391244025685410 Eh
Relativity type    :
Basis              : AO
                                X                 Y                 Z
Electronic contribution:     -4.750662686      -2.085866881     -10.216639477
Nuclear contribution   :      4.596555347       0.944668752      10.913148618
                        -----------------------------------------
Total Dipole Moment    :     -0.154107339      -1.141198129       0.696509141
                        -----------------------------------------
Magnitude (a.u.)       :      1.345810992
Magnitude (Debye)      :      3.420779687

Rotational constants in cm-1:             0.014701             0.004646             0.004408
Rotational constants in MHz :           440.711872           139.279462           132.156186

                             ****ORCA TERMINATED NORMALLY****
TOTAL RUN TIME: 0 days 0 hours 0 minutes 21 seconds 447 msec
