                         Program Version 6.0.1  -  RELEASE   -
|  1> ! pbe def2-sv(p) def2/J RI DEFGRID1 loosescf d4 GCP(DFT/SV(P)) printgap
|  2> %output
|  3>     printlevel normal
|  4> end
|  5> * xyz 0 1
|  6> C 4.0614439219 -0.203195989 -2.3283013962
|  7> C 3.6867357264 -1.6737455457 -2.2393777854
|  8> O 2.4760072946 -1.8321501165 -1.4773393356
|  9> C 2.5664359059 -2.1530251113 -0.1980713819
| 10> O 3.5943101978 -2.4298984223 0.3757176234
| 11> C 1.1943360424 -2.2166280806 0.4526680848
| 12> C 0.3983715456 -0.9575035385 0.135406951
| 13> H 0.2553670428 -0.8643573134 -0.9497313548
| 14> C 1.1444226233 0.2886089413 0.5756657844
| 15> O 2.3500326384 0.3755351721 0.5368321198
| 16> O 0.3275580386 1.2496817992 0.950032594
| 17> C 0.8828635833 2.5178276042 1.3545278731
| 18> C 1.1843492718 2.519046746 2.8433817499
| 19> S -1.2597893304 -1.0326993366 0.8882939989
| 20> P -2.1376860971 0.6018407557 -0.161077527
| 21> S -1.2882829143 1.121768012 -1.8472549168
| 22> O -3.6542554313 0.1080480685 -0.3176522114
| 23> C -3.9987098085 -0.9734875417 -1.1896359741
| 24> O -2.3478841795 1.8079479769 0.835242516
| 25> C -3.0122744174 1.6441451263 2.1039638003
| 26> H 3.267446273 0.3571522534 -2.8156821722
| 27> H 4.2059784491 0.1996770427 -1.3279110193
| 28> H 4.9799982235 -0.0957170242 -2.8952362903
| 29> H 4.4793796344 -2.2511230579 -1.7552990905
| 30> H 3.4584617069 -2.0868888193 -3.2227893864
| 31> H 1.3303010566 -2.3343700568 1.5278339857
| 32> H 0.6667831173 -3.0874604285 0.060964897
| 33> H 1.7874816708 2.6983514405 0.7677396079
| 34> H 0.1113779507 3.2438822166 1.0949585169
| 35> H 0.2888250711 2.2787737778 3.4098234879
| 36> H 1.9562650457 1.7864976474 3.0689633496
| 37> H 1.5377862866 3.5030859069 3.1325085714
| 38> H -3.6561406943 -1.9163537637 -0.7636297862
| 39> H -3.5493280409 -0.8218301663 -2.172351474
| 40> H -5.0831189216 -0.9572533036 -1.2625663482
| 41> H -2.5244921605 0.8581261588 2.6806801338
| 42> H -4.0590431099 1.3933567282 1.9447062359
| 43> H -2.917122268 2.6057266766 2.6016609737
| 44> *
| 45>
| 46>                          ****END OF INPUT****

CARTESIAN COORDINATES (ANGSTROEM)
---------------------------------
  C      4.061444   -0.203196   -2.328301
  C      3.686736   -1.673746   -2.239378
  O      2.476007   -1.832150   -1.477339
  C      2.566436   -2.153025   -0.198071
  O      3.594310   -2.429898    0.375718
  C      1.194336   -2.216628    0.452668
  C      0.398372   -0.957504    0.135407
  H      0.255367   -0.864357   -0.949731
  C      1.144423    0.288609    0.575666
  O      2.350033    0.375535    0.536832
  O      0.327558    1.249682    0.950033
  C      0.882864    2.517828    1.354528
  C      1.184349    2.519047    2.843382
  S     -1.259789   -1.032699    0.888294
  P     -2.137686    0.601841   -0.161078
  S     -1.288283    1.121768   -1.847255
  O     -3.654255    0.108048   -0.317652
  C     -3.998710   -0.973488   -1.189636
  O     -2.347884    1.807948    0.835243
  C     -3.012274    1.644145    2.103964
  H      3.267446    0.357152   -2.815682
  H      4.205978    0.199677   -1.327911
  H      4.979998   -0.095717   -2.895236
  H      4.479380   -2.251123   -1.755299
  H      3.458462   -2.086889   -3.222789
  H      1.330301   -2.334370    1.527834
  H      0.666783   -3.087460    0.060965
  H      1.787482    2.698351    0.767740
  H      0.111378    3.243882    1.094959
  H      0.288825    2.278774    3.409823
  H      1.956265    1.786498    3.068963
  H      1.537786    3.503086    3.132509
  H     -3.656141   -1.916354   -0.763630
  H     -3.549328   -0.821830   -2.172351
  H     -5.083119   -0.957253   -1.262566
  H     -2.524492    0.858126    2.680680
  H     -4.059043    1.393357    1.944706
  H     -2.917122    2.605727    2.601661

 Total Charge           Charge          ....    0
 Multiplicity           Mult            ....    1
 Number of Electrons    NEL             ....  174
 Basis Dimension        Dim             ....  316

ORBITAL ENERGIES
----------------

  NO   OCC          E(Eh)            E(eV)
   0   2.0000     -88.045360     -2395.8360
   1   2.0000     -87.986957     -2394.2468
   2   2.0000     -76.430670     -2079.7843
   3   2.0000     -18.816410      -512.0205
   4   2.0000     -18.800541      -511.5887
   5   2.0000     -18.796135      -511.4688
   6   2.0000     -18.793266      -511.3908
   7   2.0000     -18.749247      -510.1929
   8   2.0000     -18.726095      -509.5630
   9   2.0000     -10.022040      -272.7136
  10   2.0000     -10.004507      -272.2365
  11   2.0000      -9.956914      -270.9414
  12   2.0000      -9.952619      -270.8245
  13   2.0000      -9.948051      -270.7002
  14   2.0000      -9.947503      -270.6853
  15   2.0000      -9.937849      -270.4226
  16   2.0000      -9.912166      -269.7238
  17   2.0000      -9.892956      -269.2010
  18   2.0000      -9.874040      -268.6863
  19   2.0000      -7.689984      -209.2551
  20   2.0000      -7.632202      -207.6828
  21   2.0000      -6.427578      -174.9033
  22   2.0000      -5.717673      -155.5858
  23   2.0000      -5.714685      -155.5045
  24   2.0000      -5.707073      -155.2974
  25   2.0000      -5.661345      -154.0530
  26   2.0000      -5.652701      -153.8178
  27   2.0000      -5.652214      -153.8046
  28   2.0000      -4.650344      -126.5423
  29   2.0000      -4.649470      -126.5185
  30   2.0000      -4.647872      -126.4750
  31   2.0000      -1.023987       -27.8641
  32   2.0000      -1.000103       -27.2142
  33   2.0000      -0.992810       -27.0157
  34   2.0000      -0.947946       -25.7949
  35   2.0000      -0.929770       -25.3003
  36   2.0000      -0.904831       -24.6217
  37   2.0000      -0.769794       -20.9471
  38   2.0000      -0.713075       -19.4038
  39   2.0000      -0.707312       -19.2469
  40   2.0000      -0.691041       -18.8042
  41   2.0000      -0.659821       -17.9547
  42   2.0000      -0.641798       -17.4642
  43   2.0000      -0.626317       -17.0430
  44   2.0000      -0.619870       -16.8675
  45   2.0000      -0.588129       -16.0038
  46   2.0000      -0.570079       -15.5126
  47   2.0000      -0.520883       -14.1739
  48   2.0000      -0.504754       -13.7350
  49   2.0000      -0.493724       -13.4349
  50   2.0000      -0.482720       -13.1355
  51   2.0000      -0.478704       -13.0262
  52   2.0000      -0.466653       -12.6983
  53   2.0000      -0.445298       -12.1172
  54   2.0000      -0.439157       -11.9501
  55   2.0000      -0.436187       -11.8693
  56   2.0000      -0.427932       -11.6446
  57   2.0000      -0.421079       -11.4581
  58   2.0000      -0.415418       -11.3041
  59   2.0000      -0.407572       -11.0906
  60   2.0000      -0.407101       -11.0778
  61   2.0000      -0.401433       -10.9236
  62   2.0000      -0.395044       -10.7497
  63   2.0000      -0.379396       -10.3239
  64   2.0000      -0.371737       -10.1155
  65   2.0000      -0.370472       -10.0811
  66   2.0000      -0.359153        -9.7730
  67   2.0000      -0.354095        -9.6354
  68   2.0000      -0.346115        -9.4183
  69   2.0000      -0.341508        -9.2929
  70   2.0000      -0.333986        -9.0882
  71   2.0000      -0.328362        -8.9352
  72   2.0000      -0.319513        -8.6944
  73   2.0000      -0.317759        -8.6467
  74   2.0000      -0.311360        -8.4725
  75   2.0000      -0.302722        -8.2375
  76   2.0000      -0.299316        -8.1448
  77   2.0000      -0.284544        -7.7428
  78   2.0000      -0.276137        -7.5141
  79   2.0000      -0.274365        -7.4658
  80   2.0000      -0.264820        -7.2061
  81   2.0000      -0.250681        -6.8214
  82   2.0000      -0.247928        -6.7465
  83   2.0000      -0.217723        -5.9246
  84   2.0000      -0.212966        -5.7951
  85   2.0000      -0.206960        -5.6317
  86   2.0000      -0.203191        -5.5291
  87   0.0000      -0.046802        -1.2735
  88   0.0000      -0.033220        -0.9039
  89   0.0000      -0.011563        -0.3147
  90   0.0000       0.006565         0.1786
  91   0.0000       0.013632         0.3710

MULLIKEN ATOMIC CHARGES
-----------------------
   0 C :   -0.304020
   1 C :   -0.016803
   2 O :   -0.247591
   3 C :    0.113104
   4 O :   -0.189221
   5 C :   -0.045827
   6 C :   -0.363346
   7 H :    0.175614
   8 C :    0.243220
   9 O :   -0.186299
  10 O :   -0.226246
  11 C :   -0.007334
  12 C :   -0.308256
  13 S :   -0.102967
  14 P :    0.625527
  15 S :   -0.317787
  16 O :   -0.390639
  17 C :   -0.099924
  18 O :   -0.364386
  19 C :   -0.111228
  20 H :    0.113051
  21 H :    0.138714
  22 H :    0.105756
  23 H :    0.109846
  24 H :    0.099342
  25 H :    0.106399
  26 H :    0.121836
  27 H :    0.114285
  28 H :    0.113566
  29 H :    0.112787
  30 H :    0.129096
  31 H :    0.117027
  32 H :    0.114594
  33 H :    0.119358
  34 H :    0.126051
  35 H :    0.122746
  36 H :    0.129079
  37 H :    0.130878
Sum of atomic charges:    0.0000000

LOEWDIN ATOMIC CHARGES
----------------------
   0 C :   -0.356900
   1 C :   -0.110372
   2 O :   -0.066167
   3 C :    0.030133
   4 O :   -0.158910
   5 C :   -0.239190
   6 C :   -0.282568
   7 H :    0.145183
   8 C :    0.030580
   9 O :   -0.140913
  10 O :   -0.050720
  11 C :   -0.107298
  12 C :   -0.354390
  13 S :    0.085076
  14 P :    0.579432
  15 S :   -0.311525
  16 O :   -0.261658
  17 C :   -0.216409
  18 O :   -0.236520
  19 C :   -0.211291
  20 H :    0.124469
  21 H :    0.134348
  22 H :    0.126589
  23 H :    0.119701
  24 H :    0.115237
  25 H :    0.138077
  26 H :    0.146009
  27 H :    0.122879
  28 H :    0.122083
  29 H :    0.123206
  30 H :    0.131867
  31 H :    0.132842
  32 H :    0.108391
  33 H :    0.112554
  34 H :    0.122873
  35 H :    0.109943
  36 H :    0.118393
  37 H :    0.124966

  Mayer bond orders larger than 0.100000
B(  0-C ,  1-C ) :   1.1779 B(  0-C , 20-H ) :   0.9497 B(  0-C , 21-H ) :   0.9390
B(  0-C , 22-H ) :   0.9432 B(  1-C ,  2-O ) :   0.9153 B(  1-C , 23-H ) :   0.9083
B(  1-C , 24-H ) :   0.9376 B(  2-O ,  3-C ) :   1.1937 B(  3-C ,  4-O ) :   2.0854
B(  3-C ,  5-C ) :   1.0185 B(  5-C ,  6-C ) :   1.0587 B(  5-C , 25-H ) :   0.9067
B(  5-C , 26-H ) :   0.8859 B(  6-C ,  7-H ) :   0.8220 B(  6-C ,  8-C ) :   0.8863
B(  6-C , 13-S ) :   1.0212 B(  8-C ,  9-O ) :   2.0081 B(  8-C , 10-O ) :   1.2514
B( 10-O , 11-C ) :   0.8955 B( 11-C , 12-C ) :   1.1760 B( 11-C , 27-H ) :   0.9166
B( 11-C , 28-H ) :   0.9295 B( 12-C , 29-H ) :   0.9486 B( 12-C , 30-H ) :   0.9457
B( 12-C , 31-H ) :   0.9442 B( 13-S , 14-P ) :   0.9463 B( 13-S , 15-S ) :   0.1152
B( 14-P , 15-S ) :   1.6405 B( 14-P , 16-O ) :   1.0681 B( 14-P , 18-O ) :   1.1160
B( 16-O , 17-C ) :   0.9318 B( 17-C , 32-H ) :   0.9462 B( 17-C , 33-H ) :   0.9359
B( 17-C , 34-H ) :   0.9585 B( 18-O , 19-C ) :   0.9174 B( 19-C , 35-H ) :   0.9360
B( 19-C , 36-H ) :   0.9476 B( 19-C , 37-H ) :   0.9586

Dispersion correction           -0.052193898
FINAL SINGLE POINT ENERGY     -1979.021512646745

DIPOLE MOMENT
-------------

Method             : SCF
Type of density    : Electron Density
Multiplicity       :   1
Irrep              :   0
Energy             : -1979.1528277652014367 Eh
Relativity type    :
Basis              : AO
                                X                 Y                 Z
Electronic contribution:     -9.451266780      -3.442200860      -2.515894361
Nuclear contribution   :      8.156546012       3.679470800       3.116505968
                        -----------------------------------------
Total Dipole Moment    :     -1.294720768       0.237269940       0.600611608
                        -----------------------------------------
Magnitude (a.u.)       :      1.446835580
Magnitude (Debye)      :      3.677563783

Rotational constants in cm-1:             0.014369             0.006672             0.005832
Rotational constants in MHz :           430.783357           200.007556           174.829706

                             ****ORCA TERMINATED NORMALLY****
TOTAL RUN TIME: 0 days 0 hours 0 minutes 39 seconds 607 msec
