                         Program Version 6.0.0  -   RELEASE  -
|  1> ! pbe def2-sv(p) def2/J RI DEFGRID1 loosescf d4 GCP(DFT/SV(P)) printgap
|  2> %output
|  3>     printlevel normal
|  4> end
|  5> * xyz 0 1
|  6> C 2.2237510206 2.7296798122 -0.0929587985
|  7> C 3.0822810102 2.07954824 0.9712157383
|  8> O 3.3027278088 0.6843531402 0.6974391541
|  9> P 2.1181840285 -0.3721842706 0.7158711841
| 10> S 0.7748644508 -0.1037564046 2.1253752146
| 11> O 2.8954703462 -1.7558093072 0.7294400681
| 12> C 4.0236593216 -2.0618209888 1.5787599898
| 13> C 3.6948879751 -1.9326704567 3.051288567
| 14> S 1.3905864888 -0.4536374963 -1.2673215732
| 15> C 0.1166231264 -1.7216755676 -0.9653905169
| 16> S -1.3921822331 -1.4607149708 -1.9378804108
| 17> P -2.3407023692 0.0377851442 -0.7891560381
| 18> S -4.1474145986 0.540205195 -1.3480792025
| 19> O -1.3113917066 1.2556250039 -0.6946819646
| 20> C -1.3831994538 2.3536200012 -1.6210255998
| 21> C -0.8941563494 1.9614643472 -3.0006894566
| 22> O -2.2087286334 -0.6338585518 0.6412068956
| 23> C -3.072191438 -0.2638576995 1.7354845501
| 24> C -2.8132997426 1.14976648 2.2093757513
| 25> H 2.6524049122 2.5652417483 -1.0784378387
| 26> H 1.2250113259 2.2947739933 -0.0672305322
| 27> H 2.1528585286 3.7954929784 0.0992876413
| 28> H 2.6084482987 2.1689911499 1.9542024682
| 29> H 4.0868179307 2.5035898249 1.0007510637
| 30> H 4.2683137986 -3.0912830248 1.3119870949
| 31> H 4.8465602621 -1.3995249145 1.3022368093
| 32> H 4.5504612542 -2.2473667401 3.6405576017
| 33> H 3.4569137764 -0.897990831 3.2951130565
| 34> H 2.8367686988 -2.5510254444 3.3050389473
| 35> H -0.1356496006 -1.7194962337 0.0951104395
| 36> H 0.5021920044 -2.6870645097 -1.2826826652
| 37> H -2.4222183047 2.6967803438 -1.6662891965
| 38> H -0.7571844936 3.1264921129 -1.1734361441
| 39> H -1.5636660455 1.2174540698 -3.4321633839
| 40> H -0.8834431806 2.8385392932 -3.6393718746
| 41> H 0.1068427358 1.5400935251 -2.9448361287
| 42> H -4.1098415141 -0.3810814198 1.4070790876
| 43> H -2.8370168399 -0.9961650302 2.5090701811
| 44> H -3.0818695623 1.8578815603 1.4266462361
| 45> H -3.4148385195 1.3486974942 3.0904828071
| 46> H -1.760569863 1.270339606 2.4548624699
| 47> *
| 48>
| 49>                          ****END OF INPUT****

CARTESIAN COORDINATES (ANGSTROEM)
---------------------------------
  C      2.223751    2.729680   -0.092959
  C      3.082281    2.079548    0.971216
  O      3.302728    0.684353    0.697439
  P      2.118184   -0.372184    0.715871
  S      0.774864   -0.103756    2.125375
  O      2.895470   -1.755809    0.729440
  C      4.023659   -2.061821    1.578760
  C      3.694888   -1.932670    3.051289
  S      1.390586   -0.453637   -1.267322
  C      0.116623   -1.721676   -0.965391
  S     -1.392182   -1.460715   -1.937880
  P     -2.340702    0.037785   -0.789156
  S     -4.147415    0.540205   -1.348079
  O     -1.311392    1.255625   -0.694682
  C     -1.383199    2.353620   -1.621026
  C     -0.894156    1.961464   -3.000689
  O     -2.208729   -0.633859    0.641207
  C     -3.072191   -0.263858    1.735485
  C     -2.813300    1.149766    2.209376
  H      2.652405    2.565242   -1.078438
  H      1.225011    2.294774   -0.067231
  H      2.152859    3.795493    0.099288
  H      2.608448    2.168991    1.954202
  H      4.086818    2.503590    1.000751
  H      4.268314   -3.091283    1.311987
  H      4.846560   -1.399525    1.302237
  H      4.550461   -2.247367    3.640558
  H      3.456914   -0.897991    3.295113
  H      2.836769   -2.551025    3.305039
  H     -0.135650   -1.719496    0.095110
  H      0.502192   -2.687065   -1.282683
  H     -2.422218    2.696780   -1.666289
  H     -0.757184    3.126492   -1.173436
  H     -1.563666    1.217454   -3.432163
  H     -0.883443    2.838539   -3.639372
  H      0.106843    1.540094   -2.944836
  H     -4.109842   -0.381081    1.407079
  H     -2.837017   -0.996165    2.509070
  H     -3.081870    1.857882    1.426646
  H     -3.414839    1.348697    3.090483
  H     -1.760570    1.270340    2.454862

 Total Charge           Charge          ....    0
 Multiplicity           Mult            ....    1
 Number of Electrons    NEL             ....  202
 Basis Dimension        Dim             ....  334

ORBITAL ENERGIES
----------------

  NO   OCC          E(Eh)            E(eV)
   0   2.0000     -88.041918     -2395.7424
   1   2.0000     -88.040595     -2395.7064
   2   2.0000     -87.990155     -2394.3339
   3   2.0000     -87.985218     -2394.1995
   4   2.0000     -76.431573     -2079.8088
   5   2.0000     -76.422364     -2079.5583
   6   2.0000     -18.805057      -511.7116
   7   2.0000     -18.791846      -511.3521
   8   2.0000     -18.786595      -511.2092
   9   2.0000     -18.785230      -511.1721
  10   2.0000      -9.961233      -271.0589
  11   2.0000      -9.959212      -271.0039
  12   2.0000      -9.955284      -270.8971
  13   2.0000      -9.946411      -270.6556
  14   2.0000      -9.945175      -270.6220
  15   2.0000      -9.891627      -269.1649
  16   2.0000      -9.887113      -269.0420
  17   2.0000      -9.877744      -268.7871
  18   2.0000      -9.874208      -268.6909
  19   2.0000      -7.687293      -209.1819
  20   2.0000      -7.685919      -209.1445
  21   2.0000      -7.634954      -207.7577
  22   2.0000      -7.630392      -207.6335
  23   2.0000      -6.428881      -174.9388
  24   2.0000      -6.420225      -174.7032
  25   2.0000      -5.715575      -155.5287
  26   2.0000      -5.713935      -155.4841
  27   2.0000      -5.711560      -155.4195
  28   2.0000      -5.710713      -155.3964
  29   2.0000      -5.704068      -155.2156
  30   2.0000      -5.702410      -155.1705
  31   2.0000      -5.663683      -154.1167
  32   2.0000      -5.659334      -153.9983
  33   2.0000      -5.655813      -153.9025
  34   2.0000      -5.655072      -153.8823
  35   2.0000      -5.651075      -153.7736
  36   2.0000      -5.650468      -153.7570
  37   2.0000      -4.652056      -126.5889
  38   2.0000      -4.650381      -126.5433
  39   2.0000      -4.649074      -126.5077
  40   2.0000      -4.642515      -126.3293
  41   2.0000      -4.642157      -126.3195
  42   2.0000      -4.640776      -126.2819
  43   2.0000      -0.994538       -27.0628
  44   2.0000      -0.980518       -26.6812
  45   2.0000      -0.950547       -25.8657
  46   2.0000      -0.940525       -25.5930
  47   2.0000      -0.761961       -20.7340
  48   2.0000      -0.723914       -19.6987
  49   2.0000      -0.706097       -19.2139
  50   2.0000      -0.694720       -18.9043
  51   2.0000      -0.680917       -18.5287
  52   2.0000      -0.674111       -18.3435
  53   2.0000      -0.655342       -17.8328
  54   2.0000      -0.638306       -17.3692
  55   2.0000      -0.601345       -16.3634
  56   2.0000      -0.592425       -16.1207
  57   2.0000      -0.583745       -15.8845
  58   2.0000      -0.565726       -15.3942
  59   2.0000      -0.558751       -15.2044
  60   2.0000      -0.502606       -13.6766
  61   2.0000      -0.487752       -13.2724
  62   2.0000      -0.476664       -12.9707
  63   2.0000      -0.467594       -12.7239
  64   2.0000      -0.460056       -12.5188
  65   2.0000      -0.449489       -12.2312
  66   2.0000      -0.438987       -11.9454
  67   2.0000      -0.435021       -11.8375
  68   2.0000      -0.425223       -11.5709
  69   2.0000      -0.419875       -11.4254
  70   2.0000      -0.413205       -11.2439
  71   2.0000      -0.406626       -11.0648
  72   2.0000      -0.396002       -10.7758
  73   2.0000      -0.387404       -10.5418
  74   2.0000      -0.385562       -10.4917
  75   2.0000      -0.375093       -10.2068
  76   2.0000      -0.364526        -9.9193
  77   2.0000      -0.359407        -9.7800
  78   2.0000      -0.352368        -9.5884
  79   2.0000      -0.348422        -9.4810
  80   2.0000      -0.347340        -9.4516
  81   2.0000      -0.342307        -9.3146
  82   2.0000      -0.340869        -9.2755
  83   2.0000      -0.335616        -9.1326
  84   2.0000      -0.325109        -8.8467
  85   2.0000      -0.320896        -8.7320
  86   2.0000      -0.316446        -8.6109
  87   2.0000      -0.301263        -8.1978
  88   2.0000      -0.294815        -8.0223
  89   2.0000      -0.290403        -7.9023
  90   2.0000      -0.282554        -7.6887
  91   2.0000      -0.281547        -7.6613
  92   2.0000      -0.268694        -7.3115
  93   2.0000      -0.264674        -7.2022
  94   2.0000      -0.261142        -7.1060
  95   2.0000      -0.226583        -6.1656
  96   2.0000      -0.218867        -5.9557
  97   2.0000      -0.211424        -5.7531
  98   2.0000      -0.207106        -5.6356
  99   2.0000      -0.200967        -5.4686
 100   2.0000      -0.195973        -5.3327
 101   0.0000      -0.042533        -1.1574
 102   0.0000      -0.027503        -0.7484
 103   0.0000      -0.021014        -0.5718
 104   0.0000       0.002210         0.0601
 105   0.0000       0.016542         0.4501

MULLIKEN ATOMIC CHARGES
-----------------------
   0 C :   -0.368963
   1 C :    0.006262
   2 O :   -0.380592
   3 P :    0.608824
   4 S :   -0.316349
   5 O :   -0.378677
   6 C :    0.001150
   7 C :   -0.314306
   8 S :   -0.078711
   9 C :   -0.361045
  10 S :   -0.076774
  11 P :    0.623088
  12 S :   -0.323069
  13 O :   -0.369578
  14 C :   -0.014206
  15 C :   -0.316509
  16 O :   -0.374604
  17 C :    0.003462
  18 C :   -0.318392
  19 H :    0.122170
  20 H :    0.165884
  21 H :    0.117577
  22 H :    0.111408
  23 H :    0.106719
  24 H :    0.108138
  25 H :    0.109334
  26 H :    0.110664
  27 H :    0.125764
  28 H :    0.124583
  29 H :    0.208181
  30 H :    0.187741
  31 H :    0.113631
  32 H :    0.106280
  33 H :    0.122450
  34 H :    0.108270
  35 H :    0.127239
  36 H :    0.110816
  37 H :    0.104751
  38 H :    0.117429
  39 H :    0.107135
  40 H :    0.132824
Sum of atomic charges:   -0.0000000

LOEWDIN ATOMIC CHARGES
----------------------
   0 C :   -0.376293
   1 C :   -0.117173
   2 O :   -0.242693
   3 P :    0.575710
   4 S :   -0.306013
   5 O :   -0.252962
   6 C :   -0.108779
   7 C :   -0.367775
   8 S :    0.087269
   9 C :   -0.476192
  10 S :    0.093779
  11 P :    0.574764
  12 S :   -0.318014
  13 O :   -0.241488
  14 C :   -0.123859
  15 C :   -0.370404
  16 O :   -0.238718
  17 C :   -0.113913
  18 C :   -0.368915
  19 H :    0.125748
  20 H :    0.127981
  21 H :    0.133012
  22 H :    0.111893
  23 H :    0.119277
  24 H :    0.121099
  25 H :    0.113558
  26 H :    0.129347
  27 H :    0.121037
  28 H :    0.129819
  29 H :    0.128807
  30 H :    0.137926
  31 H :    0.107688
  32 H :    0.114066
  33 H :    0.120877
  34 H :    0.128816
  35 H :    0.118421
  36 H :    0.110342
  37 H :    0.119585
  38 H :    0.120368
  39 H :    0.128435
  40 H :    0.123567

  Mayer bond orders larger than 0.100000
B(  0-C ,  1-C ) :   1.1649 B(  0-C , 19-H ) :   0.9430 B(  0-C , 20-H ) :   0.9158
B(  0-C , 21-H ) :   0.9364 B(  1-C ,  2-O ) :   0.9019 B(  1-C , 22-H ) :   0.9155
B(  1-C , 23-H ) :   0.9320 B(  2-O ,  3-P ) :   1.0922 B(  3-P ,  4-S ) :   1.6122
B(  3-P ,  5-O ) :   1.1048 B(  3-P ,  8-S ) :   0.9671 B(  4-S ,  8-S ) :   0.1193
B(  5-O ,  6-C ) :   0.9099 B(  6-C ,  7-C ) :   1.1665 B(  6-C , 24-H ) :   0.9355
B(  6-C , 25-H ) :   0.9310 B(  7-C , 26-H ) :   0.9354 B(  7-C , 27-H ) :   0.9364
B(  7-C , 28-H ) :   0.9447 B(  8-S ,  9-C ) :   0.9775 B(  9-C , 10-S ) :   1.0020
B(  9-C , 29-H ) :   0.8576 B(  9-C , 30-H ) :   0.9095 B( 10-S , 11-P ) :   0.9643
B( 11-P , 12-S ) :   1.6341 B( 11-P , 13-O ) :   1.0848 B( 11-P , 16-O ) :   1.1123
B( 13-O , 14-C ) :   0.9024 B( 14-C , 15-C ) :   1.1683 B( 14-C , 31-H ) :   0.9119
B( 14-C , 32-H ) :   0.9248 B( 15-C , 33-H ) :   0.9357 B( 15-C , 34-H ) :   0.9384
B( 15-C , 35-H ) :   0.9383 B( 16-O , 17-C ) :   0.8998 B( 17-C , 18-C ) :   1.1657
B( 17-C , 36-H ) :   0.9198 B( 17-C , 37-H ) :   0.9333 B( 18-C , 38-H ) :   0.9358
B( 18-C , 39-H ) :   0.9377 B( 18-C , 40-H ) :   0.9362

Dispersion correction           -0.066801382
FINAL SINGLE POINT ENERGY     -2929.515915391941

DIPOLE MOMENT
-------------

Method             : SCF
Type of density    : Electron Density
Multiplicity       :   1
Irrep              :   0
Energy             : -2929.6364117353837173 Eh
Relativity type    :
Basis              : AO
                                X                 Y                 Z
Electronic contribution:    -10.006026803     -12.320771540     -10.346692747
Nuclear contribution   :     11.901277428      12.768846278      11.046379640
                        -----------------------------------------
Total Dipole Moment    :      1.895250624       0.448074738       0.699686893
                        -----------------------------------------
Magnitude (a.u.)       :      2.069373733
Magnitude (Debye)      :      5.259930016

Rotational constants in cm-1:             0.012451             0.005163             0.004957
Rotational constants in MHz :           373.285870           154.772558           148.611199

                             ****ORCA TERMINATED NORMALLY****
TOTAL RUN TIME: 0 days 0 hours 0 minutes 21 seconds 917 msec
