                         Program Version 6.0.0  -   RELEASE  -
|  1> ! r2scan-3c def2/J RI DEFGRID2 scfconv6 printgap
|  2> %output
|  3>     printlevel normal
|  4> end
|  5> * xyz 0 1
|  6> C 2.9617604707 1.5517404584 2.9647004979
|  7> C 1.6358119696 0.9247567632 2.589796352
|  8> O 1.4749659082 0.8675653079 1.1572744525
|  9> P 2.3025747938 -0.1496748726 0.2650974649
| 10> S 2.8086503417 -1.8026960239 1.1983733571
| 11> O 3.4679228569 0.7964780507 -0.2522184198
| 12> C 4.2678837762 0.5825952782 -1.4289714552
| 13> C 4.8642687259 -0.8081392215 -1.494876217
| 14> S 1.0517853438 -0.3690597815 -1.4306480219
| 15> C 0.0596728552 -1.7279678892 -0.7615962101
| 16> S -1.0457454836 -1.2007022241 0.5681220428
| 17> P -2.254698255 0.0888443102 -0.6382621701
| 18> S -2.5401140505 -0.5148480017 -2.4738654417
| 19> O -1.6075851209 1.5208604272 -0.5652136917
| 20> C -1.4318856117 2.2494885419 0.6753801895
| 21> C -2.5337120636 3.273734955 0.8478582197
| 22> O -3.5599470545 0.2488061321 0.2514557367
| 23> C -4.5004886876 -0.837195835 0.3915923497
| 24> C -5.7822884162 -0.2692685277 0.9658977465
| 25> H 3.0535116227 2.5366927665 2.5150911088
| 26> H 3.0308872609 1.6359046056 4.044577333
| 27> H 3.7763127048 0.9249044471 2.603085008
| 28> H 0.7910129894 1.523807934 2.9313185546
| 29> H 1.5580411969 -0.0911036598 2.9908190605
| 30> H 3.6416361413 0.7765051316 -2.3045839281
| 31> H 5.0440512184 1.3464300863 -1.3533374847
| 32> H 5.4258224224 -1.0248872221 -0.5891319204
| 33> H 4.0743943796 -1.5513324182 -1.5980562376
| 34> H 5.5258054557 -0.8758700135 -2.3525889655
| 35> H 0.7170955658 -2.4894627718 -0.340738858
| 36> H -0.5317511877 -2.1173766789 -1.5900017363
| 37> H -1.4187864651 1.5357123582 1.503995203
| 38> H -0.4516842706 2.7210715658 0.5800205255
| 39> H -2.3464496948 3.8500538411 1.7485008373
| 40> H -2.556507169 3.941760952 -0.0086468736
| 41> H -3.496786157 2.7771368443 0.9310555648
| 42> H -4.6639110954 -1.2839227943 -0.5944542216
| 43> H -4.0600693277 -1.5858781601 1.055594125
| 44> H -6.5021720695 -1.071744866 1.0880629591
| 45> H -5.5875585248 0.1883691529 1.9314447914
| 46> H -6.1925502545 0.4798830012 0.2945644991
| 47> *
| 48>
| 49>                          ****END OF INPUT****

CARTESIAN COORDINATES (ANGSTROEM)
---------------------------------
  C      2.961760    1.551740    2.964700
  C      1.635812    0.924757    2.589796
  O      1.474966    0.867565    1.157274
  P      2.302575   -0.149675    0.265097
  S      2.808650   -1.802696    1.198373
  O      3.467923    0.796478   -0.252218
  C      4.267884    0.582595   -1.428971
  C      4.864269   -0.808139   -1.494876
  S      1.051785   -0.369060   -1.430648
  C      0.059673   -1.727968   -0.761596
  S     -1.045745   -1.200702    0.568122
  P     -2.254698    0.088844   -0.638262
  S     -2.540114   -0.514848   -2.473865
  O     -1.607585    1.520860   -0.565214
  C     -1.431886    2.249489    0.675380
  C     -2.533712    3.273735    0.847858
  O     -3.559947    0.248806    0.251456
  C     -4.500489   -0.837196    0.391592
  C     -5.782288   -0.269269    0.965898
  H      3.053512    2.536693    2.515091
  H      3.030887    1.635905    4.044577
  H      3.776313    0.924904    2.603085
  H      0.791013    1.523808    2.931319
  H      1.558041   -0.091104    2.990819
  H      3.641636    0.776505   -2.304584
  H      5.044051    1.346430   -1.353337
  H      5.425822   -1.024887   -0.589132
  H      4.074394   -1.551332   -1.598056
  H      5.525805   -0.875870   -2.352589
  H      0.717096   -2.489463   -0.340739
  H     -0.531751   -2.117377   -1.590002
  H     -1.418786    1.535712    1.503995
  H     -0.451684    2.721072    0.580021
  H     -2.346450    3.850054    1.748501
  H     -2.556507    3.941761   -0.008647
  H     -3.496786    2.777137    0.931056
  H     -4.663911   -1.283923   -0.594454
  H     -4.060069   -1.585878    1.055594
  H     -6.502172   -1.071745    1.088063
  H     -5.587559    0.188369    1.931445
  H     -6.192550    0.479883    0.294564

 Total Charge           Charge          ....    0
 Multiplicity           Mult            ....    1
 Number of Electrons    NEL             ....  202
 Basis Dimension        Dim             ....  539

ORBITAL ENERGIES
----------------

  NO   OCC          E(Eh)            E(eV)
   0   2.0000     -88.575598     -2410.2646
   1   2.0000     -88.572608     -2410.1832
   2   2.0000     -88.519666     -2408.7426
   3   2.0000     -88.518499     -2408.7108
   4   2.0000     -76.914875     -2092.9602
   5   2.0000     -76.912804     -2092.9038
   6   2.0000     -18.995856      -516.9035
   7   2.0000     -18.993818      -516.8481
   8   2.0000     -18.990522      -516.7584
   9   2.0000     -18.989264      -516.7241
  10   2.0000     -10.104911      -274.9686
  11   2.0000     -10.102392      -274.9001
  12   2.0000     -10.101515      -274.8762
  13   2.0000     -10.101108      -274.8651
  14   2.0000     -10.097895      -274.7777
  15   2.0000     -10.036413      -273.1047
  16   2.0000     -10.031435      -272.9692
  17   2.0000     -10.029403      -272.9139
  18   2.0000     -10.028203      -272.8813
  19   2.0000      -7.869746      -214.1467
  20   2.0000      -7.866818      -214.0670
  21   2.0000      -7.814556      -212.6449
  22   2.0000      -7.813320      -212.6112
  23   2.0000      -6.593224      -179.4107
  24   2.0000      -6.591393      -179.3609
  25   2.0000      -5.816594      -158.2776
  26   2.0000      -5.813599      -158.1961
  27   2.0000      -5.813572      -158.1953
  28   2.0000      -5.810681      -158.1167
  29   2.0000      -5.806949      -158.0151
  30   2.0000      -5.804062      -157.9365
  31   2.0000      -5.762203      -156.7975
  32   2.0000      -5.761032      -156.7657
  33   2.0000      -5.754921      -156.5994
  34   2.0000      -5.754461      -156.5869
  35   2.0000      -5.753526      -156.5614
  36   2.0000      -5.753314      -156.5556
  37   2.0000      -4.738755      -128.9481
  38   2.0000      -4.738300      -128.9357
  39   2.0000      -4.737229      -128.9066
  40   2.0000      -4.736791      -128.8946
  41   2.0000      -4.736386      -128.8836
  42   2.0000      -4.734749      -128.8391
  43   2.0000      -1.053044       -28.6548
  44   2.0000      -1.050616       -28.5887
  45   2.0000      -1.011901       -27.5352
  46   2.0000      -1.011258       -27.5177
  47   2.0000      -0.801335       -21.8054
  48   2.0000      -0.759788       -20.6749
  49   2.0000      -0.751244       -20.4424
  50   2.0000      -0.738272       -20.0894
  51   2.0000      -0.732743       -19.9390
  52   2.0000      -0.710401       -19.3310
  53   2.0000      -0.685080       -18.6420
  54   2.0000      -0.669242       -18.2110
  55   2.0000      -0.629993       -17.1430
  56   2.0000      -0.620823       -16.8934
  57   2.0000      -0.608058       -16.5461
  58   2.0000      -0.604986       -16.4625
  59   2.0000      -0.595716       -16.2103
  60   2.0000      -0.535875       -14.5819
  61   2.0000      -0.519270       -14.1301
  62   2.0000      -0.501685       -13.6515
  63   2.0000      -0.490002       -13.3336
  64   2.0000      -0.478611       -13.0237
  65   2.0000      -0.464687       -12.6448
  66   2.0000      -0.459678       -12.5085
  67   2.0000      -0.456081       -12.4106
  68   2.0000      -0.448931       -12.2160
  69   2.0000      -0.437134       -11.8950
  70   2.0000      -0.425241       -11.5714
  71   2.0000      -0.412803       -11.2329
  72   2.0000      -0.407403       -11.0860
  73   2.0000      -0.400877       -10.9084
  74   2.0000      -0.397951       -10.8288
  75   2.0000      -0.393414       -10.7053
  76   2.0000      -0.384534       -10.4637
  77   2.0000      -0.375280       -10.2119
  78   2.0000      -0.369215       -10.0469
  79   2.0000      -0.365817        -9.9544
  80   2.0000      -0.362436        -9.8624
  81   2.0000      -0.361069        -9.8252
  82   2.0000      -0.360215        -9.8019
  83   2.0000      -0.357802        -9.7363
  84   2.0000      -0.350118        -9.5272
  85   2.0000      -0.335397        -9.1266
  86   2.0000      -0.325112        -8.8468
  87   2.0000      -0.318524        -8.6675
  88   2.0000      -0.313689        -8.5359
  89   2.0000      -0.309402        -8.4193
  90   2.0000      -0.303944        -8.2707
  91   2.0000      -0.292505        -7.9595
  92   2.0000      -0.288085        -7.8392
  93   2.0000      -0.279278        -7.5995
  94   2.0000      -0.270091        -7.3495
  95   2.0000      -0.246069        -6.6959
  96   2.0000      -0.230420        -6.2701
  97   2.0000      -0.224672        -6.1136
  98   2.0000      -0.216799        -5.8994
  99   2.0000      -0.213152        -5.8002
 100   2.0000      -0.211472        -5.7545
 101   0.0000      -0.045956        -1.2505
 102   0.0000      -0.024264        -0.6603
 103   0.0000      -0.003407        -0.0927
 104   0.0000       0.002512         0.0684
 105   0.0000       0.014386         0.3915

MULLIKEN ATOMIC CHARGES
-----------------------
   0 C :   -0.438513
   1 C :   -0.156914
   2 O :   -0.256054
   3 P :    0.635182
   4 S :   -0.472420
   5 O :   -0.275958
   6 C :   -0.159512
   7 C :   -0.424024
   8 S :   -0.118128
   9 C :   -0.237689
  10 S :   -0.182410
  11 P :    0.667870
  12 S :   -0.446997
  13 O :   -0.256984
  14 C :   -0.108178
  15 C :   -0.484601
  16 O :   -0.283002
  17 C :   -0.152840
  18 C :   -0.442798
  19 H :    0.153532
  20 H :    0.147049
  21 H :    0.170268
  22 H :    0.143917
  23 H :    0.179303
  24 H :    0.155574
  25 H :    0.149924
  26 H :    0.164561
  27 H :    0.169867
  28 H :    0.147792
  29 H :    0.212064
  30 H :    0.218069
  31 H :    0.156008
  32 H :    0.170689
  33 H :    0.144570
  34 H :    0.160228
  35 H :    0.166718
  36 H :    0.171180
  37 H :    0.153826
  38 H :    0.148235
  39 H :    0.150868
  40 H :    0.159729
Sum of atomic charges:    0.0000000

LOEWDIN ATOMIC CHARGES
----------------------
   0 C :   -0.398316
   1 C :    0.012162
   2 O :   -0.679372
   3 P :    0.382682
   4 S :   -0.134231
   5 O :   -0.659188
   6 C :    0.025161
   7 C :   -0.407027
   8 S :    0.174498
   9 C :   -0.424578
  10 S :    0.136375
  11 P :    0.376695
  12 S :   -0.101888
  13 O :   -0.644191
  14 C :    0.020226
  15 C :   -0.392242
  16 O :   -0.677691
  17 C :    0.019353
  18 C :   -0.386465
  19 H :    0.159343
  20 H :    0.159257
  21 H :    0.166907
  22 H :    0.175858
  23 H :    0.182759
  24 H :    0.173028
  25 H :    0.181613
  26 H :    0.165174
  27 H :    0.166456
  28 H :    0.158576
  29 H :    0.191964
  30 H :    0.191510
  31 H :    0.175568
  32 H :    0.187174
  33 H :    0.158109
  34 H :    0.162815
  35 H :    0.166135
  36 H :    0.181624
  37 H :    0.172929
  38 H :    0.160996
  39 H :    0.158351
  40 H :    0.161890

  Mayer bond orders larger than 0.100000
B(  0-C ,  1-C ) :   0.9252 B(  0-C , 19-H ) :   0.9726 B(  0-C , 20-H ) :   0.9641
B(  0-C , 21-H ) :   0.9593 B(  1-C ,  2-O ) :   0.7796 B(  1-C , 22-H ) :   0.9613
B(  1-C , 23-H ) :   0.9601 B(  2-O ,  3-P ) :   1.1230 B(  3-P ,  4-S ) :   1.7596
B(  3-P ,  5-O ) :   1.0932 B(  3-P ,  8-S ) :   1.0817 B(  5-O ,  6-C ) :   0.8041
B(  6-C ,  7-C ) :   0.9368 B(  6-C , 24-H ) :   0.9646 B(  6-C , 25-H ) :   0.9585
B(  7-C , 26-H ) :   0.9661 B(  7-C , 27-H ) :   0.9536 B(  7-C , 28-H ) :   0.9611
B(  8-S ,  9-C ) :   0.9209 B(  9-C , 10-S ) :   0.9130 B(  9-C , 29-H ) :   0.9051
B(  9-C , 30-H ) :   0.9074 B( 10-S , 11-P ) :   0.9798 B( 11-P , 12-S ) :   1.8318
B( 11-P , 13-O ) :   1.1624 B( 11-P , 16-O ) :   1.0475 B( 13-O , 14-C ) :   0.7303
B( 14-C , 15-C ) :   0.9309 B( 14-C , 31-H ) :   0.9697 B( 14-C , 32-H ) :   0.9541
B( 15-C , 33-H ) :   0.9660 B( 15-C , 34-H ) :   0.9737 B( 15-C , 35-H ) :   0.9691
B( 16-O , 17-C ) :   0.7878 B( 17-C , 18-C ) :   0.9545 B( 17-C , 36-H ) :   0.9502
B( 17-C , 37-H ) :   0.9413 B( 18-C , 38-H ) :   0.9632 B( 18-C , 39-H ) :   0.9720
B( 18-C , 40-H ) :   0.9714

Dispersion correction           -0.021304652
FINAL SINGLE POINT ENERGY     -2932.461914448106

DIPOLE MOMENT
-------------

Method             : SCF
Type of density    : Electron Density
Multiplicity       :   1
Irrep              :   0
Energy             : -2932.4869943856388090 Eh
Relativity type    :
Basis              : AO
                                X                 Y                 Z
Electronic contribution:      1.112818990     -10.690056219     -11.964526796
Nuclear contribution   :     -1.151390704      11.613381435      13.056809370
                        -----------------------------------------
Total Dipole Moment    :     -0.038571713       0.923325216       1.092282574
                        -----------------------------------------
Magnitude (a.u.)       :      1.430768484
Magnitude (Debye)      :      3.636724471

Rotational constants in cm-1:             0.013068             0.004769             0.004356
Rotational constants in MHz :           391.763199           142.969563           130.591883

                             ****ORCA TERMINATED NORMALLY****
TOTAL RUN TIME: 0 days 0 hours 1 minutes 18 seconds 772 msec
