                         Program Version 6.0.0  -   RELEASE  -
|  1> ! r2scan-3c def2/J RI DEFGRID2 scfconv6 printgap
|  2> %output
|  3>     printlevel normal
|  4> end
|  5> %cpcm
|  6>     smd true
|  7>     smdsolvent "water"
|  8> end
|  9> * xyz 0 1
| 10> C 2.9617604707 1.5517404584 2.9647004979
| 11> C 1.6358119696 0.9247567632 2.589796352
| 12> O 1.4749659082 0.8675653079 1.1572744525
| 13> P 2.3025747938 -0.1496748726 0.2650974649
| 14> S 2.8086503417 -1.8026960239 1.1983733571
| 15> O 3.4679228569 0.7964780507 -0.2522184198
| 16> C 4.2678837762 0.5825952782 -1.4289714552
| 17> C 4.8642687259 -0.8081392215 -1.494876217
| 18> S 1.0517853438 -0.3690597815 -1.4306480219
| 19> C 0.0596728552 -1.7279678892 -0.7615962101
| 20> S -1.0457454836 -1.2007022241 0.5681220428
| 21> P -2.254698255 0.0888443102 -0.6382621701
| 22> S -2.5401140505 -0.5148480017 -2.4738654417
| 23> O -1.6075851209 1.5208604272 -0.5652136917
| 24> C -1.4318856117 2.2494885419 0.6753801895
| 25> C -2.5337120636 3.273734955 0.8478582197
| 26> O -3.5599470545 0.2488061321 0.2514557367
| 27> C -4.5004886876 -0.837195835 0.3915923497
| 28> C -5.7822884162 -0.2692685277 0.9658977465
| 29> H 3.0535116227 2.5366927665 2.5150911088
| 30> H 3.0308872609 1.6359046056 4.044577333
| 31> H 3.7763127048 0.9249044471 2.603085008
| 32> H 0.7910129894 1.523807934 2.9313185546
| 33> H 1.5580411969 -0.0911036598 2.9908190605
| 34> H 3.6416361413 0.7765051316 -2.3045839281
| 35> H 5.0440512184 1.3464300863 -1.3533374847
| 36> H 5.4258224224 -1.0248872221 -0.5891319204
| 37> H 4.0743943796 -1.5513324182 -1.5980562376
| 38> H 5.5258054557 -0.8758700135 -2.3525889655
| 39> H 0.7170955658 -2.4894627718 -0.340738858
| 40> H -0.5317511877 -2.1173766789 -1.5900017363
| 41> H -1.4187864651 1.5357123582 1.503995203
| 42> H -0.4516842706 2.7210715658 0.5800205255
| 43> H -2.3464496948 3.8500538411 1.7485008373
| 44> H -2.556507169 3.941760952 -0.0086468736
| 45> H -3.496786157 2.7771368443 0.9310555648
| 46> H -4.6639110954 -1.2839227943 -0.5944542216
| 47> H -4.0600693277 -1.5858781601 1.055594125
| 48> H -6.5021720695 -1.071744866 1.0880629591
| 49> H -5.5875585248 0.1883691529 1.9314447914
| 50> H -6.1925502545 0.4798830012 0.2945644991
| 51> *
| 52>
| 53>                          ****END OF INPUT****

CARTESIAN COORDINATES (ANGSTROEM)
---------------------------------
  C      2.961760    1.551740    2.964700
  C      1.635812    0.924757    2.589796
  O      1.474966    0.867565    1.157274
  P      2.302575   -0.149675    0.265097
  S      2.808650   -1.802696    1.198373
  O      3.467923    0.796478   -0.252218
  C      4.267884    0.582595   -1.428971
  C      4.864269   -0.808139   -1.494876
  S      1.051785   -0.369060   -1.430648
  C      0.059673   -1.727968   -0.761596
  S     -1.045745   -1.200702    0.568122
  P     -2.254698    0.088844   -0.638262
  S     -2.540114   -0.514848   -2.473865
  O     -1.607585    1.520860   -0.565214
  C     -1.431886    2.249489    0.675380
  C     -2.533712    3.273735    0.847858
  O     -3.559947    0.248806    0.251456
  C     -4.500489   -0.837196    0.391592
  C     -5.782288   -0.269269    0.965898
  H      3.053512    2.536693    2.515091
  H      3.030887    1.635905    4.044577
  H      3.776313    0.924904    2.603085
  H      0.791013    1.523808    2.931319
  H      1.558041   -0.091104    2.990819
  H      3.641636    0.776505   -2.304584
  H      5.044051    1.346430   -1.353337
  H      5.425822   -1.024887   -0.589132
  H      4.074394   -1.551332   -1.598056
  H      5.525805   -0.875870   -2.352589
  H      0.717096   -2.489463   -0.340739
  H     -0.531751   -2.117377   -1.590002
  H     -1.418786    1.535712    1.503995
  H     -0.451684    2.721072    0.580021
  H     -2.346450    3.850054    1.748501
  H     -2.556507    3.941761   -0.008647
  H     -3.496786    2.777137    0.931056
  H     -4.663911   -1.283923   -0.594454
  H     -4.060069   -1.585878    1.055594
  H     -6.502172   -1.071745    1.088063
  H     -5.587559    0.188369    1.931445
  H     -6.192550    0.479883    0.294564

 Total Charge           Charge          ....    0
 Multiplicity           Mult            ....    1
 Number of Electrons    NEL             ....  202
 Basis Dimension        Dim             ....  539

ORBITAL ENERGIES
----------------

  NO   OCC          E(Eh)            E(eV)
   0   2.0000     -88.580773     -2410.4054
   1   2.0000     -88.577329     -2410.3117
   2   2.0000     -88.530503     -2409.0375
   3   2.0000     -88.526401     -2408.9258
   4   2.0000     -76.920346     -2093.1090
   5   2.0000     -76.919530     -2093.0868
   6   2.0000     -18.996976      -516.9340
   7   2.0000     -18.996057      -516.9090
   8   2.0000     -18.995523      -516.8944
   9   2.0000     -18.990786      -516.7655
  10   2.0000     -10.103912      -274.9414
  11   2.0000     -10.093394      -274.6552
  12   2.0000     -10.092337      -274.6265
  13   2.0000     -10.091352      -274.5996
  14   2.0000     -10.087672      -274.4995
  15   2.0000     -10.020137      -272.6618
  16   2.0000     -10.018751      -272.6241
  17   2.0000     -10.018654      -272.6214
  18   2.0000     -10.018149      -272.6077
  19   2.0000      -7.875002      -214.2897
  20   2.0000      -7.871523      -214.1950
  21   2.0000      -7.825686      -212.9478
  22   2.0000      -7.821576      -212.8359
  23   2.0000      -6.598960      -179.5668
  24   2.0000      -6.597925      -179.5387
  25   2.0000      -5.821814      -158.4196
  26   2.0000      -5.818816      -158.3380
  27   2.0000      -5.818307      -158.3242
  28   2.0000      -5.815410      -158.2454
  29   2.0000      -5.812257      -158.1595
  30   2.0000      -5.808744      -158.0640
  31   2.0000      -5.773276      -157.0988
  32   2.0000      -5.769171      -156.9871
  33   2.0000      -5.765863      -156.8971
  34   2.0000      -5.765763      -156.8944
  35   2.0000      -5.761943      -156.7904
  36   2.0000      -5.761479      -156.7778
  37   2.0000      -4.744721      -129.1104
  38   2.0000      -4.743921      -129.0887
  39   2.0000      -4.743412      -129.0748
  40   2.0000      -4.742989      -129.0633
  41   2.0000      -4.742464      -129.0490
  42   2.0000      -4.741580      -129.0250
  43   2.0000      -1.056020       -28.7358
  44   2.0000      -1.051892       -28.6234
  45   2.0000      -1.014284       -27.6001
  46   2.0000      -1.011764       -27.5315
  47   2.0000      -0.804917       -21.9029
  48   2.0000      -0.756319       -20.5805
  49   2.0000      -0.745029       -20.2733
  50   2.0000      -0.727929       -19.8080
  51   2.0000      -0.723788       -19.6953
  52   2.0000      -0.710130       -19.3236
  53   2.0000      -0.688969       -18.7478
  54   2.0000      -0.675799       -18.3894
  55   2.0000      -0.628121       -17.0920
  56   2.0000      -0.616750       -16.7826
  57   2.0000      -0.602185       -16.3863
  58   2.0000      -0.597918       -16.2702
  59   2.0000      -0.593156       -16.1406
  60   2.0000      -0.532891       -14.5007
  61   2.0000      -0.514853       -14.0099
  62   2.0000      -0.498316       -13.5599
  63   2.0000      -0.485212       -13.2033
  64   2.0000      -0.478084       -13.0093
  65   2.0000      -0.459971       -12.5164
  66   2.0000      -0.455529       -12.3956
  67   2.0000      -0.449568       -12.2334
  68   2.0000      -0.443879       -12.0786
  69   2.0000      -0.433986       -11.8094
  70   2.0000      -0.423487       -11.5237
  71   2.0000      -0.408849       -11.1254
  72   2.0000      -0.402373       -10.9491
  73   2.0000      -0.397979       -10.8296
  74   2.0000      -0.395063       -10.7502
  75   2.0000      -0.390204       -10.6180
  76   2.0000      -0.384183       -10.4541
  77   2.0000      -0.368263       -10.0210
  78   2.0000      -0.362538        -9.8652
  79   2.0000      -0.356959        -9.7133
  80   2.0000      -0.354505        -9.6466
  81   2.0000      -0.353483        -9.6187
  82   2.0000      -0.351807        -9.5732
  83   2.0000      -0.349931        -9.5221
  84   2.0000      -0.346635        -9.4324
  85   2.0000      -0.330947        -9.0055
  86   2.0000      -0.322327        -8.7710
  87   2.0000      -0.315090        -8.5740
  88   2.0000      -0.309387        -8.4189
  89   2.0000      -0.305034        -8.3004
  90   2.0000      -0.299229        -8.1424
  91   2.0000      -0.291136        -7.9222
  92   2.0000      -0.287823        -7.8321
  93   2.0000      -0.278999        -7.5920
  94   2.0000      -0.272186        -7.4066
  95   2.0000      -0.251291        -6.8380
  96   2.0000      -0.238457        -6.4888
  97   2.0000      -0.234923        -6.3926
  98   2.0000      -0.225602        -6.1389
  99   2.0000      -0.221470        -6.0265
 100   2.0000      -0.221304        -6.0220
 101   0.0000      -0.052176        -1.4198
 102   0.0000      -0.031655        -0.8614
 103   0.0000      -0.008065        -0.2195
 104   0.0000      -0.002966        -0.0807
 105   0.0000       0.013121         0.3570

MULLIKEN ATOMIC CHARGES
-----------------------
   0 C :   -0.483348
   1 C :   -0.149511
   2 O :   -0.282200
   3 P :    0.675405
   4 S :   -0.518064
   5 O :   -0.305455
   6 C :   -0.159033
   7 C :   -0.464067
   8 S :   -0.141124
   9 C :   -0.243505
  10 S :   -0.183335
  11 P :    0.676880
  12 S :   -0.501008
  13 O :   -0.291277
  14 C :   -0.092322
  15 C :   -0.529245
  16 O :   -0.299141
  17 C :   -0.140039
  18 C :   -0.482074
  19 H :    0.170016
  20 H :    0.172052
  21 H :    0.166572
  22 H :    0.179458
  23 H :    0.177683
  24 H :    0.173597
  25 H :    0.177074
  26 H :    0.170868
  27 H :    0.166349
  28 H :    0.173676
  29 H :    0.231023
  30 H :    0.235898
  31 H :    0.176877
  32 H :    0.182732
  33 H :    0.171874
  34 H :    0.169391
  35 H :    0.170463
  36 H :    0.172763
  37 H :    0.170734
  38 H :    0.169866
  39 H :    0.166450
  40 H :    0.167048
Sum of atomic charges:    0.0000000

LOEWDIN ATOMIC CHARGES
----------------------
   0 C :   -0.402265
   1 C :    0.017913
   2 O :   -0.688922
   3 P :    0.387832
   4 S :   -0.162223
   5 O :   -0.671192
   6 C :    0.030940
   7 C :   -0.410505
   8 S :    0.161748
   9 C :   -0.419723
  10 S :    0.140011
  11 P :    0.378154
  12 S :   -0.144590
  13 O :   -0.668346
  14 C :    0.027375
  15 C :   -0.393932
  16 O :   -0.681880
  17 C :    0.024715
  18 C :   -0.389064
  19 H :    0.163568
  20 H :    0.168557
  21 H :    0.162649
  22 H :    0.190076
  23 H :    0.182234
  24 H :    0.179813
  25 H :    0.193142
  26 H :    0.164428
  27 H :    0.161965
  28 H :    0.168287
  29 H :    0.197644
  30 H :    0.196681
  31 H :    0.184163
  32 H :    0.192778
  33 H :    0.169363
  34 H :    0.164460
  35 H :    0.165899
  36 H :    0.181973
  37 H :    0.180084
  38 H :    0.169380
  39 H :    0.163411
  40 H :    0.163402

  Mayer bond orders larger than 0.100000
B(  0-C ,  1-C ) :   0.9116 B(  0-C , 19-H ) :   0.9719 B(  0-C , 20-H ) :   0.9579
B(  0-C , 21-H ) :   0.9601 B(  1-C ,  2-O ) :   0.7674 B(  1-C , 22-H ) :   0.9511
B(  1-C , 23-H ) :   0.9571 B(  2-O ,  3-P ) :   1.1319 B(  3-P ,  4-S ) :   1.7203
B(  3-P ,  5-O ) :   1.1027 B(  3-P ,  8-S ) :   1.0875 B(  5-O ,  6-C ) :   0.7948
B(  6-C ,  7-C ) :   0.9189 B(  6-C , 24-H ) :   0.9595 B(  6-C , 25-H ) :   0.9484
B(  7-C , 26-H ) :   0.9668 B(  7-C , 27-H ) :   0.9562 B(  7-C , 28-H ) :   0.9552
B(  8-S ,  9-C ) :   0.9077 B(  9-C , 10-S ) :   0.9018 B(  9-C , 29-H ) :   0.9017
B(  9-C , 30-H ) :   0.9025 B( 10-S , 11-P ) :   0.9937 B( 11-P , 12-S ) :   1.8086
B( 11-P , 13-O ) :   1.1681 B( 11-P , 16-O ) :   1.0621 B( 13-O , 14-C ) :   0.7186
B( 14-C , 15-C ) :   0.9275 B( 14-C , 31-H ) :   0.9559 B( 14-C , 32-H ) :   0.9450
B( 15-C , 33-H ) :   0.9587 B( 15-C , 34-H ) :   0.9724 B( 15-C , 35-H ) :   0.9682
B( 16-O , 17-C ) :   0.7783 B( 17-C , 18-C ) :   0.9545 B( 17-C , 36-H ) :   0.9475
B( 17-C , 37-H ) :   0.9322 B( 18-C , 38-H ) :   0.9576 B( 18-C , 39-H ) :   0.9681
B( 18-C , 40-H ) :   0.9691

Dispersion correction           -0.021304652
FINAL SINGLE POINT ENERGY     -2932.472011376307

DIPOLE MOMENT
-------------

Method             : SCF
Type of density    : Electron Density
Multiplicity       :   1
Irrep              :   0
Energy             : -2932.4970913138399737 Eh
Relativity type    :
Basis              : AO
                                X                 Y                 Z
Electronic contribution:      1.108655464     -10.498705661     -11.418683461
Nuclear contribution   :     -1.151390704      11.613381435      13.056809370
                        -----------------------------------------
Total Dipole Moment    :     -0.042735240       1.114675774       1.638125909
                        -----------------------------------------
Magnitude (a.u.)       :      1.981863990
Magnitude (Debye)      :      5.037497927

Rotational constants in cm-1:             0.013068             0.004769             0.004356
Rotational constants in MHz :           391.763199           142.969563           130.591883

                             ****ORCA TERMINATED NORMALLY****
TOTAL RUN TIME: 0 days 0 hours 1 minutes 49 seconds 501 msec
