                         Program Version 6.0.1  -  RELEASE   -
|  1> ! pbe def2-sv(p) def2/J RI DEFGRID1 loosescf d4 GCP(DFT/SV(P)) printgap
|  2> %output
|  3>     printlevel normal
|  4> end
|  5> * xyz 0 1
|  6> C 4.1415186459 -2.3392364465 1.3119961912
|  7> C 2.8178384385 -1.6026741089 1.2885049497
|  8> O 2.574954816 -1.1728653739 -0.0671396028
|  9> C 1.5584790841 -0.3941216852 -0.3043668615
| 10> O 0.8042495146 0.0423048757 0.5552662672
| 11> C 1.3948237175 -0.0382880465 -1.7601397583
| 12> C 0.2335724623 0.936928895 -1.8873433547
| 13> H 0.211080431 1.3878510227 -2.8827154438
| 14> C 0.3163825917 2.0471556829 -0.846459542
| 15> O -0.6333179569 2.4874825305 -0.2426382159
| 16> O 1.55116645 2.5037679915 -0.7611481638
| 17> C 1.8469020309 3.5355982793 0.2027322376
| 18> C 2.547026014 2.9329451518 1.40996476
| 19> S -1.4023264252 0.1339653721 -1.7769661997
| 20> P -1.7071875724 -0.7375898926 0.1319331348
| 21> S -0.7948831837 -2.3966412164 0.6789085393
| 22> O -1.9349765408 0.388182803 1.2191137572
| 23> C -1.2341730689 0.526645811 2.4514767053
| 24> O -3.2679213902 -1.0372362166 -0.0869854484
| 25> C -3.7208575405 -2.0801014332 -0.9542187544
| 26> H 4.3418796713 -2.6793039794 2.3223121554
| 27> H 4.0976847943 -3.1969516873 0.6482313664
| 28> H 4.9423198279 -1.6816692274 0.9876942173
| 29> H 2.8276334319 -0.7190930119 1.9344699046
| 30> H 1.9866629118 -2.2472682886 1.5916516675
| 31> H 1.2086289001 -0.9455056548 -2.3371415524
| 32> H 2.320667824 0.415277386 -2.1170642028
| 33> H 2.4945648779 4.2382537803 -0.3230544074
| 34> H 0.9108040537 4.022718996 0.4891844831
| 35> H 1.9159345646 2.1688520589 1.8611370405
| 36> H 3.4876274597 2.478776797 1.1106902004
| 37> H 2.7394764076 3.7102068743 2.1418752394
| 38> H -1.9867446549 0.7210606021 3.2128226017
| 39> H -0.5474081039 1.3674269789 2.3652291952
| 40> H -0.6803721517 -0.3849911446 2.6832903443
| 41> H -3.6338386752 -1.7676533905 -1.9946377117
| 42> H -4.7620939622 -2.2479225358 -0.6903633097
| 43> H -3.1360699922 -2.9870617727 -0.7859877829
| 44> *
| 45>
| 46>                          ****END OF INPUT****

CARTESIAN COORDINATES (ANGSTROEM)
---------------------------------
  C      4.141519   -2.339236    1.311996
  C      2.817838   -1.602674    1.288505
  O      2.574955   -1.172865   -0.067140
  C      1.558479   -0.394122   -0.304367
  O      0.804250    0.042305    0.555266
  C      1.394824   -0.038288   -1.760140
  C      0.233572    0.936929   -1.887343
  H      0.211080    1.387851   -2.882715
  C      0.316383    2.047156   -0.846460
  O     -0.633318    2.487483   -0.242638
  O      1.551166    2.503768   -0.761148
  C      1.846902    3.535598    0.202732
  C      2.547026    2.932945    1.409965
  S     -1.402326    0.133965   -1.776966
  P     -1.707188   -0.737590    0.131933
  S     -0.794883   -2.396641    0.678909
  O     -1.934977    0.388183    1.219114
  C     -1.234173    0.526646    2.451477
  O     -3.267921   -1.037236   -0.086985
  C     -3.720858   -2.080101   -0.954219
  H      4.341880   -2.679304    2.322312
  H      4.097685   -3.196952    0.648231
  H      4.942320   -1.681669    0.987694
  H      2.827633   -0.719093    1.934470
  H      1.986663   -2.247268    1.591652
  H      1.208629   -0.945506   -2.337142
  H      2.320668    0.415277   -2.117064
  H      2.494565    4.238254   -0.323054
  H      0.910804    4.022719    0.489184
  H      1.915935    2.168852    1.861137
  H      3.487627    2.478777    1.110690
  H      2.739476    3.710207    2.141875
  H     -1.986745    0.721061    3.212823
  H     -0.547408    1.367427    2.365229
  H     -0.680372   -0.384991    2.683290
  H     -3.633839   -1.767653   -1.994638
  H     -4.762094   -2.247923   -0.690363
  H     -3.136070   -2.987062   -0.785988

 Total Charge           Charge          ....    0
 Multiplicity           Mult            ....    1
 Number of Electrons    NEL             ....  174
 Basis Dimension        Dim             ....  316

ORBITAL ENERGIES
----------------

  NO   OCC          E(Eh)            E(eV)
   0   2.0000     -88.029990     -2395.4178
   1   2.0000     -87.967542     -2393.7185
   2   2.0000     -76.415867     -2079.3815
   3   2.0000     -18.817042      -512.0377
   4   2.0000     -18.807764      -511.7853
   5   2.0000     -18.775636      -510.9110
   6   2.0000     -18.771856      -510.8082
   7   2.0000     -18.757990      -510.4309
   8   2.0000     -18.733653      -509.7686
   9   2.0000     -10.025830      -272.8167
  10   2.0000     -10.015120      -272.5253
  11   2.0000      -9.952536      -270.8223
  12   2.0000      -9.951854      -270.8037
  13   2.0000      -9.950743      -270.7735
  14   2.0000      -9.929220      -270.1878
  15   2.0000      -9.927761      -270.1481
  16   2.0000      -9.919148      -269.9137
  17   2.0000      -9.893288      -269.2101
  18   2.0000      -9.892801      -269.1968
  19   2.0000      -7.674901      -208.8447
  20   2.0000      -7.612782      -207.1543
  21   2.0000      -6.411863      -174.4757
  22   2.0000      -5.703362      -155.1964
  23   2.0000      -5.699178      -155.0825
  24   2.0000      -5.691480      -154.8730
  25   2.0000      -5.641783      -153.5207
  26   2.0000      -5.633471      -153.2945
  27   2.0000      -5.632699      -153.2735
  28   2.0000      -4.634333      -126.1066
  29   2.0000      -4.634126      -126.1010
  30   2.0000      -4.632265      -126.0503
  31   2.0000      -1.027825       -27.9685
  32   2.0000      -1.013305       -27.5734
  33   2.0000      -0.969052       -26.3692
  34   2.0000      -0.933324       -25.3970
  35   2.0000      -0.924841       -25.1662
  36   2.0000      -0.915842       -24.9213
  37   2.0000      -0.765306       -20.8250
  38   2.0000      -0.720425       -19.6038
  39   2.0000      -0.707565       -19.2538
  40   2.0000      -0.687674       -18.7125
  41   2.0000      -0.656328       -17.8596
  42   2.0000      -0.623447       -16.9648
  43   2.0000      -0.616087       -16.7646
  44   2.0000      -0.609104       -16.5746
  45   2.0000      -0.594173       -16.1683
  46   2.0000      -0.565655       -15.3922
  47   2.0000      -0.518696       -14.1144
  48   2.0000      -0.509721       -13.8702
  49   2.0000      -0.494903       -13.4670
  50   2.0000      -0.488158       -13.2835
  51   2.0000      -0.465301       -12.6615
  52   2.0000      -0.459266       -12.4973
  53   2.0000      -0.453424       -12.3383
  54   2.0000      -0.439525       -11.9601
  55   2.0000      -0.428726       -11.6662
  56   2.0000      -0.421110       -11.4590
  57   2.0000      -0.416000       -11.3199
  58   2.0000      -0.410861       -11.1801
  59   2.0000      -0.407109       -11.0780
  60   2.0000      -0.398351       -10.8397
  61   2.0000      -0.389698       -10.6042
  62   2.0000      -0.387883       -10.5548
  63   2.0000      -0.385087       -10.4788
  64   2.0000      -0.381111       -10.3706
  65   2.0000      -0.363926        -9.9029
  66   2.0000      -0.363325        -9.8866
  67   2.0000      -0.361479        -9.8363
  68   2.0000      -0.351321        -9.5599
  69   2.0000      -0.341355        -9.2887
  70   2.0000      -0.337547        -9.1851
  71   2.0000      -0.332894        -9.0585
  72   2.0000      -0.323695        -8.8082
  73   2.0000      -0.310398        -8.4464
  74   2.0000      -0.301604        -8.2071
  75   2.0000      -0.298513        -8.1229
  76   2.0000      -0.287140        -7.8135
  77   2.0000      -0.276648        -7.5280
  78   2.0000      -0.271951        -7.4002
  79   2.0000      -0.262683        -7.1480
  80   2.0000      -0.250404        -6.8139
  81   2.0000      -0.246717        -6.7135
  82   2.0000      -0.240416        -6.5420
  83   2.0000      -0.225472        -6.1354
  84   2.0000      -0.215647        -5.8681
  85   2.0000      -0.185699        -5.0531
  86   2.0000      -0.180070        -4.9000
  87   0.0000      -0.048283        -1.3139
  88   0.0000      -0.024550        -0.6680
  89   0.0000      -0.022575        -0.6143
  90   0.0000      -0.005160        -0.1404
  91   0.0000       0.023979         0.6525

MULLIKEN ATOMIC CHARGES
-----------------------
   0 C :   -0.274199
   1 C :   -0.046620
   2 O :   -0.208044
   3 C :    0.144422
   4 O :   -0.237274
   5 C :   -0.053770
   6 C :   -0.300812
   7 H :    0.146008
   8 C :    0.189326
   9 O :   -0.165251
  10 O :   -0.250790
  11 C :   -0.015646
  12 C :   -0.326404
  13 S :   -0.091958
  14 P :    0.639253
  15 S :   -0.372750
  16 O :   -0.348770
  17 C :   -0.095034
  18 O :   -0.373780
  19 C :   -0.103548
  20 H :    0.114561
  21 H :    0.121043
  22 H :    0.112004
  23 H :    0.107560
  24 H :    0.132214
  25 H :    0.137069
  26 H :    0.125855
  27 H :    0.103967
  28 H :    0.117853
  29 H :    0.149087
  30 H :    0.110062
  31 H :    0.114346
  32 H :    0.115298
  33 H :    0.124632
  34 H :    0.112821
  35 H :    0.113475
  36 H :    0.121289
  37 H :    0.112509
Sum of atomic charges:   -0.0000000

LOEWDIN ATOMIC CHARGES
----------------------
   0 C :   -0.350256
   1 C :   -0.108709
   2 O :   -0.033732
   3 C :    0.041734
   4 O :   -0.162993
   5 C :   -0.253268
   6 C :   -0.264032
   7 H :    0.152187
   8 C :    0.008123
   9 O :   -0.149172
  10 O :   -0.067644
  11 C :   -0.108907
  12 C :   -0.358903
  13 S :    0.113021
  14 P :    0.581690
  15 S :   -0.347821
  16 O :   -0.219627
  17 C :   -0.207853
  18 O :   -0.256111
  19 C :   -0.220585
  20 H :    0.132747
  21 H :    0.129816
  22 H :    0.124831
  23 H :    0.115516
  24 H :    0.121264
  25 H :    0.150103
  26 H :    0.148928
  27 H :    0.117576
  28 H :    0.123154
  29 H :    0.130065
  30 H :    0.122382
  31 H :    0.130942
  32 H :    0.116247
  33 H :    0.110835
  34 H :    0.105979
  35 H :    0.106040
  36 H :    0.120503
  37 H :    0.105928

  Mayer bond orders larger than 0.100000
B(  0-C ,  1-C ) :   1.1552 B(  0-C , 20-H ) :   0.9433 B(  0-C , 21-H ) :   0.9485
B(  0-C , 22-H ) :   0.9507 B(  1-C ,  2-O ) :   0.8891 B(  1-C , 23-H ) :   0.9276
B(  1-C , 24-H ) :   0.9189 B(  2-O ,  3-C ) :   1.2998 B(  3-C ,  4-O ) :   1.8380
B(  3-C ,  5-C ) :   1.0191 B(  5-C ,  6-C ) :   1.0298 B(  5-C , 25-H ) :   0.8834
B(  5-C , 26-H ) :   0.8717 B(  6-C ,  7-H ) :   0.8650 B(  6-C ,  8-C ) :   0.8657
B(  6-C , 13-S ) :   1.0595 B(  8-C ,  9-O ) :   2.1093 B(  8-C , 10-O ) :   1.2102
B( 10-O , 11-C ) :   0.9119 B( 11-C , 12-C ) :   1.1772 B( 11-C , 27-H ) :   0.9372
B( 11-C , 28-H ) :   0.9064 B( 12-C , 29-H ) :   0.9300 B( 12-C , 30-H ) :   0.9483
B( 12-C , 31-H ) :   0.9420 B( 13-S , 14-P ) :   0.9614 B( 13-S , 15-S ) :   0.1138
B( 14-P , 15-S ) :   1.5559 B( 14-P , 16-O ) :   1.1504 B( 14-P , 18-O ) :   1.0736
B( 16-O , 17-C ) :   0.9307 B( 17-C , 32-H ) :   0.9524 B( 17-C , 33-H ) :   0.9465
B( 17-C , 34-H ) :   0.9318 B( 18-O , 19-C ) :   0.9438 B( 19-C , 35-H ) :   0.9477
B( 19-C , 36-H ) :   0.9596 B( 19-C , 37-H ) :   0.9284

Dispersion correction           -0.055027348
FINAL SINGLE POINT ENERGY     -1979.006197583998

DIPOLE MOMENT
-------------

Method             : SCF
Type of density    : Electron Density
Multiplicity       :   1
Irrep              :   0
Energy             : -1979.1365728927426062 Eh
Relativity type    :
Basis              : AO
                                X                 Y                 Z
Electronic contribution:    -17.325290562      -1.872203670      -9.614574687
Nuclear contribution   :     19.155438862       2.322908438       9.508916097
                        -----------------------------------------
Total Dipole Moment    :      1.830148300       0.450704769      -0.105658590
                        -----------------------------------------
Magnitude (a.u.)       :      1.887787416
Magnitude (Debye)      :      4.798374277

Rotational constants in cm-1:             0.012424             0.008788             0.006851
Rotational constants in MHz :           372.473694           263.452365           205.401546

                             ****ORCA TERMINATED NORMALLY****
TOTAL RUN TIME: 0 days 0 hours 0 minutes 35 seconds 37 msec
