                         Program Version 6.0.0  -   RELEASE  -
|  1> ! pbe def2-sv(p) def2/J RI DEFGRID1 loosescf d4 GCP(DFT/SV(P)) printgap
|  2> %output
|  3>     printlevel normal
|  4> end
|  5> * xyz 0 1
|  6> C 4.8426240196 -2.5521540315 -1.6203041245
|  7> C 3.9181274043 -2.0292726301 -0.5415955847
|  8> O 3.8876921837 -0.5793591026 -0.6468579747
|  9> P 2.6841490929 0.2803671279 -0.1207627588
| 10> S 2.9403713846 2.1993836843 -0.3909963738
| 11> O 2.6100598434 -0.18763891 1.4007217448
| 12> C 1.7632877801 0.4320669512 2.3885248574
| 13> C 0.6213285095 -0.4943747192 2.7583538506
| 14> S 0.9805777297 -0.5757641251 -1.107727763
| 15> C 0.0701556387 0.9527286181 -1.4125124306
| 16> S -0.8916010791 1.5094036181 0.0173901557
| 17> P -2.4993925838 0.1670483461 -0.2752709177
| 18> S -3.1887078248 0.0253721671 -2.0987809311
| 19> O -3.6226815691 0.6165530027 0.7437403082
| 20> C -3.4387408806 0.6446753807 2.1823302867
| 21> C -3.0631140323 2.0342904914 2.655162306
| 22> O -1.8400061369 -1.1677955132 0.3131557933
| 23> C -2.2243225432 -2.4765830008 -0.1477558505
| 24> C -3.5818001475 -2.8720197915 0.3964493395
| 25> H 4.9107715917 -3.6321531464 -1.5390218518
| 26> H 4.4596706701 -2.2890606105 -2.6023722708
| 27> H 5.8316510445 -2.1184363017 -1.5038262924
| 28> H 4.2797477218 -2.2777392539 0.457557901
| 29> H 2.9006546164 -2.4097171959 -0.668102219
| 30> H 2.41374966 0.6169174173 3.2457978422
| 31> H 1.3974205502 1.3894196635 2.0032165095
| 32> H -0.0155922981 -0.6781337501 1.8965861053
| 33> H 1.0132896741 -1.4433555598 3.1127686182
| 34> H 0.0334864412 -0.0306339404 3.5441250727
| 35> H -0.6094620533 0.7640778513 -2.2444913027
| 36> H 0.776677494 1.7504611862 -1.6456306576
| 37> H -4.4091693071 0.342458327 2.5797418167
| 38> H -2.6776076685 -0.0886337985 2.4577858862
| 39> H -3.805275588 2.7544278365 2.3219652738
| 40> H -3.0211334652 2.0405392781 3.7398219299
| 41> H -2.0929350288 2.3265609514 2.2583591795
| 42> H -2.2315349385 -2.4726421947 -1.2419782209
| 43> H -1.4299174077 -3.1308680155 0.2130713176
| 44> H -3.5777740284 -2.8518579007 1.4830493287
| 45> H -4.3387725693 -2.1783473492 0.0305266894
| 46> H -3.8286505419 -3.8726742831 0.0561913906
| 47> *
| 48>
| 49>                          ****END OF INPUT****

CARTESIAN COORDINATES (ANGSTROEM)
---------------------------------
  C      4.842624   -2.552154   -1.620304
  C      3.918127   -2.029273   -0.541596
  O      3.887692   -0.579359   -0.646858
  P      2.684149    0.280367   -0.120763
  S      2.940371    2.199384   -0.390996
  O      2.610060   -0.187639    1.400722
  C      1.763288    0.432067    2.388525
  C      0.621329   -0.494375    2.758354
  S      0.980578   -0.575764   -1.107728
  C      0.070156    0.952729   -1.412512
  S     -0.891601    1.509404    0.017390
  P     -2.499393    0.167048   -0.275271
  S     -3.188708    0.025372   -2.098781
  O     -3.622682    0.616553    0.743740
  C     -3.438741    0.644675    2.182330
  C     -3.063114    2.034290    2.655162
  O     -1.840006   -1.167796    0.313156
  C     -2.224323   -2.476583   -0.147756
  C     -3.581800   -2.872020    0.396449
  H      4.910772   -3.632153   -1.539022
  H      4.459671   -2.289061   -2.602372
  H      5.831651   -2.118436   -1.503826
  H      4.279748   -2.277739    0.457558
  H      2.900655   -2.409717   -0.668102
  H      2.413750    0.616917    3.245798
  H      1.397421    1.389420    2.003217
  H     -0.015592   -0.678134    1.896586
  H      1.013290   -1.443356    3.112769
  H      0.033486   -0.030634    3.544125
  H     -0.609462    0.764078   -2.244491
  H      0.776677    1.750461   -1.645631
  H     -4.409169    0.342458    2.579742
  H     -2.677608   -0.088634    2.457786
  H     -3.805276    2.754428    2.321965
  H     -3.021133    2.040539    3.739822
  H     -2.092935    2.326561    2.258359
  H     -2.231535   -2.472642   -1.241978
  H     -1.429917   -3.130868    0.213071
  H     -3.577774   -2.851858    1.483049
  H     -4.338773   -2.178347    0.030527
  H     -3.828651   -3.872674    0.056191

 Total Charge           Charge          ....    0
 Multiplicity           Mult            ....    1
 Number of Electrons    NEL             ....  202
 Basis Dimension        Dim             ....  334

ORBITAL ENERGIES
----------------

  NO   OCC          E(Eh)            E(eV)
   0   2.0000     -88.045212     -2395.8320
   1   2.0000     -88.041024     -2395.7181
   2   2.0000     -87.989822     -2394.3248
   3   2.0000     -87.988498     -2394.2887
   4   2.0000     -76.430216     -2079.7719
   5   2.0000     -76.427013     -2079.6848
   6   2.0000     -18.801435      -511.6130
   7   2.0000     -18.797408      -511.5035
   8   2.0000     -18.795347      -511.4474
   9   2.0000     -18.789956      -511.3007
  10   2.0000      -9.966161      -271.1930
  11   2.0000      -9.963193      -271.1123
  12   2.0000      -9.955372      -270.8994
  13   2.0000      -9.951786      -270.8019
  14   2.0000      -9.951428      -270.7921
  15   2.0000      -9.896145      -269.2878
  16   2.0000      -9.892787      -269.1964
  17   2.0000      -9.890689      -269.1393
  18   2.0000      -9.883474      -268.9430
  19   2.0000      -7.690137      -209.2593
  20   2.0000      -7.685888      -209.1436
  21   2.0000      -7.635050      -207.7603
  22   2.0000      -7.633731      -207.7244
  23   2.0000      -6.428179      -174.9196
  24   2.0000      -6.424721      -174.8255
  25   2.0000      -5.717877      -155.5913
  26   2.0000      -5.714810      -155.5079
  27   2.0000      -5.713707      -155.4779
  28   2.0000      -5.710462      -155.3896
  29   2.0000      -5.707100      -155.2981
  30   2.0000      -5.702901      -155.1838
  31   2.0000      -5.664138      -154.1290
  32   2.0000      -5.662732      -154.0908
  33   2.0000      -5.655644      -153.8979
  34   2.0000      -5.655011      -153.8807
  35   2.0000      -5.654291      -153.8611
  36   2.0000      -5.653828      -153.8485
  37   2.0000      -4.651224      -126.5662
  38   2.0000      -4.649523      -126.5199
  39   2.0000      -4.648571      -126.4940
  40   2.0000      -4.647452      -126.4636
  41   2.0000      -4.646369      -126.4341
  42   2.0000      -4.645120      -126.4001
  43   2.0000      -0.992391       -27.0043
  44   2.0000      -0.989875       -26.9359
  45   2.0000      -0.951664       -25.8961
  46   2.0000      -0.944671       -25.7058
  47   2.0000      -0.765026       -20.8174
  48   2.0000      -0.727099       -19.7854
  49   2.0000      -0.717188       -19.5157
  50   2.0000      -0.698453       -19.0059
  51   2.0000      -0.691377       -18.8133
  52   2.0000      -0.678190       -18.4545
  53   2.0000      -0.652443       -17.7539
  54   2.0000      -0.639917       -17.4130
  55   2.0000      -0.599135       -16.3033
  56   2.0000      -0.587951       -15.9990
  57   2.0000      -0.586405       -15.9569
  58   2.0000      -0.576413       -15.6850
  59   2.0000      -0.561105       -15.2684
  60   2.0000      -0.511917       -13.9300
  61   2.0000      -0.504224       -13.7206
  62   2.0000      -0.485940       -13.2231
  63   2.0000      -0.483337       -13.1523
  64   2.0000      -0.463435       -12.6107
  65   2.0000      -0.453451       -12.3390
  66   2.0000      -0.445577       -12.1248
  67   2.0000      -0.438381       -11.9290
  68   2.0000      -0.431495       -11.7416
  69   2.0000      -0.420387       -11.4393
  70   2.0000      -0.407869       -11.0987
  71   2.0000      -0.405389       -11.0312
  72   2.0000      -0.399032       -10.8582
  73   2.0000      -0.382825       -10.4172
  74   2.0000      -0.378860       -10.3093
  75   2.0000      -0.377733       -10.2786
  76   2.0000      -0.368846       -10.0368
  77   2.0000      -0.363983        -9.9045
  78   2.0000      -0.361371        -9.8334
  79   2.0000      -0.360609        -9.8127
  80   2.0000      -0.352926        -9.6036
  81   2.0000      -0.351821        -9.5735
  82   2.0000      -0.346498        -9.4287
  83   2.0000      -0.342649        -9.3240
  84   2.0000      -0.335784        -9.1372
  85   2.0000      -0.325184        -8.8487
  86   2.0000      -0.320541        -8.7224
  87   2.0000      -0.309919        -8.4333
  88   2.0000      -0.304001        -8.2723
  89   2.0000      -0.294065        -8.0019
  90   2.0000      -0.286306        -7.7908
  91   2.0000      -0.277401        -7.5485
  92   2.0000      -0.277248        -7.5443
  93   2.0000      -0.276171        -7.5150
  94   2.0000      -0.257586        -7.0093
  95   2.0000      -0.234564        -6.3828
  96   2.0000      -0.219272        -5.9667
  97   2.0000      -0.213756        -5.8166
  98   2.0000      -0.206149        -5.6096
  99   2.0000      -0.203537        -5.5385
 100   2.0000      -0.202047        -5.4980
 101   0.0000      -0.046150        -1.2558
 102   0.0000      -0.028526        -0.7762
 103   0.0000      -0.010645        -0.2897
 104   0.0000       0.001569         0.0427
 105   0.0000       0.007289         0.1984

MULLIKEN ATOMIC CHARGES
-----------------------
   0 C :   -0.277825
   1 C :   -0.020467
   2 O :   -0.359436
   3 P :    0.601002
   4 S :   -0.302117
   5 O :   -0.384508
   6 C :   -0.000224
   7 C :   -0.335324
   8 S :   -0.122643
   9 C :   -0.343032
  10 S :   -0.103095
  11 P :    0.620110
  12 S :   -0.305755
  13 O :   -0.364722
  14 C :   -0.039579
  15 C :   -0.302306
  16 O :   -0.379987
  17 C :   -0.001649
  18 C :   -0.314407
  19 H :    0.111612
  20 H :    0.123547
  21 H :    0.125555
  22 H :    0.112815
  23 H :    0.110975
  24 H :    0.104773
  25 H :    0.105350
  26 H :    0.159740
  27 H :    0.105282
  28 H :    0.103450
  29 H :    0.188143
  30 H :    0.199343
  31 H :    0.113984
  32 H :    0.117942
  33 H :    0.127855
  34 H :    0.113837
  35 H :    0.138379
  36 H :    0.113219
  37 H :    0.103074
  38 H :    0.111568
  39 H :    0.129785
  40 H :    0.115734
Sum of atomic charges:    0.0000000

LOEWDIN ATOMIC CHARGES
----------------------
   0 C :   -0.349713
   1 C :   -0.111291
   2 O :   -0.237314
   3 P :    0.568549
   4 S :   -0.297851
   5 O :   -0.253395
   6 C :   -0.116072
   7 C :   -0.371970
   8 S :    0.057612
   9 C :   -0.487046
  10 S :    0.093079
  11 P :    0.572496
  12 S :   -0.304356
  13 O :   -0.239514
  14 C :   -0.117129
  15 C :   -0.361152
  16 O :   -0.247701
  17 C :   -0.121834
  18 C :   -0.364771
  19 H :    0.130786
  20 H :    0.131172
  21 H :    0.132025
  22 H :    0.118115
  23 H :    0.104944
  24 H :    0.117690
  25 H :    0.101791
  26 H :    0.120459
  27 H :    0.122256
  28 H :    0.124488
  29 H :    0.128735
  30 H :    0.129674
  31 H :    0.123130
  32 H :    0.111588
  33 H :    0.133008
  34 H :    0.132167
  35 H :    0.119588
  36 H :    0.110167
  37 H :    0.116862
  38 H :    0.122108
  39 H :    0.126138
  40 H :    0.132483

  Mayer bond orders larger than 0.100000
B(  0-C ,  1-C ) :   1.1636 B(  0-C , 19-H ) :   0.9403 B(  0-C , 20-H ) :   0.9493
B(  0-C , 21-H ) :   0.9488 B(  1-C ,  2-O ) :   0.8892 B(  1-C , 22-H ) :   0.9304
B(  1-C , 23-H ) :   0.9149 B(  2-O ,  3-P ) :   1.1485 B(  3-P ,  4-S ) :   1.6536
B(  3-P ,  5-O ) :   1.0821 B(  3-P ,  8-S ) :   0.9359 B(  4-S ,  8-S ) :   0.1140
B(  5-O ,  6-C ) :   0.9051 B(  6-C ,  7-C ) :   1.1628 B(  6-C , 24-H ) :   0.9352
B(  6-C , 25-H ) :   0.9029 B(  7-C , 26-H ) :   0.9160 B(  7-C , 27-H ) :   0.9441
B(  7-C , 28-H ) :   0.9379 B(  8-S ,  9-C ) :   1.0190 B(  9-C , 10-S ) :   0.9981
B(  9-C , 29-H ) :   0.8652 B(  9-C , 30-H ) :   0.8612 B( 10-S , 11-P ) :   0.9650
B( 10-S , 12-S ) :   0.1002 B( 11-P , 12-S ) :   1.6351 B( 11-P , 13-O ) :   1.1300
B( 11-P , 16-O ) :   1.0598 B( 13-O , 14-C ) :   0.8965 B( 14-C , 15-C ) :   1.1707
B( 14-C , 31-H ) :   0.9327 B( 14-C , 32-H ) :   0.9116 B( 15-C , 33-H ) :   0.9451
B( 15-C , 34-H ) :   0.9378 B( 15-C , 35-H ) :   0.9321 B( 16-O , 17-C ) :   0.9013
B( 17-C , 18-C ) :   1.1620 B( 17-C , 36-H ) :   0.9115 B( 17-C , 37-H ) :   0.9328
B( 18-C , 38-H ) :   0.9472 B( 18-C , 39-H ) :   0.9359 B( 18-C , 40-H ) :   0.9402

Dispersion correction           -0.064395825
FINAL SINGLE POINT ENERGY     -2929.518793864945

DIPOLE MOMENT
-------------

Method             : SCF
Type of density    : Electron Density
Multiplicity       :   1
Irrep              :   0
Energy             : -2929.6402415291627221 Eh
Relativity type    :
Basis              : AO
                                X                 Y                 Z
Electronic contribution:      3.722601647      15.185203969     -15.613656467
Nuclear contribution   :     -3.917250864     -16.918771547      17.329318310
                        -----------------------------------------
Total Dipole Moment    :     -0.194649217      -1.733567578       1.715661843
                        -----------------------------------------
Magnitude (a.u.)       :      2.446761212
Magnitude (Debye)      :      6.219172754

Rotational constants in cm-1:             0.011763             0.004822             0.004483
Rotational constants in MHz :           352.631358           144.572831           134.384162

                             ****ORCA TERMINATED NORMALLY****
TOTAL RUN TIME: 0 days 0 hours 0 minutes 21 seconds 333 msec
