                         Program Version 6.0.0  -   RELEASE  -
|  1> ! pbe def2-sv(p) def2/J RI DEFGRID1 loosescf d4 GCP(DFT/SV(P)) printgap
|  2> %output
|  3>     printlevel normal
|  4> end
|  5> * xyz 0 1
|  6> C 3.7485602638 -0.6162986625 1.8880366022
|  7> C 4.2408746687 -0.7308906259 0.460348304
|  8> O 3.6422096848 0.2482778311 -0.4249130381
|  9> P 2.0893730723 0.4090314197 -0.7191607336
| 10> S 1.8585670351 1.4146747098 -2.3814014834
| 11> O 1.4418245139 1.0728235358 0.5831467976
| 12> C 1.6075469 2.4819844061 0.8292588658
| 13> C 1.0153833462 2.7817185315 2.1897792143
| 14> S 1.3259518316 -1.5387277271 -0.6247589857
| 15> C -0.0394957709 -1.3986593669 -1.8248501507
| 16> S -1.6427416327 -1.7725986879 -1.0943678097
| 17> P -1.7970644091 -0.0638746537 0.1743576411
| 18> S -1.4369070386 1.623154364 -0.7589892836
| 19> O -0.8921186387 -0.2641396468 1.4424403089
| 20> C -1.1663470382 -1.1400733263 2.567444382
| 21> C -1.1503030388 -2.6055382777 2.1873002695
| 22> O -3.2595901665 -0.2116199335 0.7713200573
| 23> C -4.426107286 -0.0127830054 -0.0530359408
| 24> C -5.6203948014 0.1488644047 0.8651485452
| 25> H 2.6802511911 -0.8193401728 1.934015119
| 26> H 4.2736029852 -1.3426564033 2.50049516
| 27> H 3.9368510259 0.3819775669 2.2759157842
| 28> H 4.0329057338 -1.7245339016 0.0559122268
| 29> H 5.307589992 -0.51483661 0.381725957
| 30> H 2.6743712227 2.7242514777 0.7830958691
| 31> H 1.0878347442 3.0312509922 0.0366751286
| 32> H -0.0368256275 2.5086547395 2.1925333218
| 33> H 1.531160483 2.212850157 2.9578064617
| 34> H 1.1116356248 3.8429946313 2.3939390606
| 35> H 0.1210155934 -2.1396252939 -2.6039010893
| 36> H -0.0368965253 -0.3857771169 -2.2386312626
| 37> H -0.3613944914 -0.8982197712 3.2634757369
| 38> H -2.1283900069 -0.8533970167 2.9945655402
| 39> H -0.2318718629 -2.8517891061 1.6587428092
| 40> H -1.2112643671 -3.2017688202 3.092494251
| 41> H -1.9976032457 -2.8451084812 1.5489177274
| 42> H -4.2681694389 0.8772311981 -0.6709503853
| 43> H -4.5350423751 -0.8844236152 -0.7035700093
| 44> H -6.5128689786 0.2897557837 0.2645396186
| 45> H -5.7381535604 -0.737373858 1.4815709117
| 46> H -5.4826428244 1.0128680929 1.5091603348
| 47> *
| 48>
| 49>                          ****END OF INPUT****

CARTESIAN COORDINATES (ANGSTROEM)
---------------------------------
  C      3.748560   -0.616299    1.888037
  C      4.240875   -0.730891    0.460348
  O      3.642210    0.248278   -0.424913
  P      2.089373    0.409031   -0.719161
  S      1.858567    1.414675   -2.381401
  O      1.441825    1.072824    0.583147
  C      1.607547    2.481984    0.829259
  C      1.015383    2.781719    2.189779
  S      1.325952   -1.538728   -0.624759
  C     -0.039496   -1.398659   -1.824850
  S     -1.642742   -1.772599   -1.094368
  P     -1.797064   -0.063875    0.174358
  S     -1.436907    1.623154   -0.758989
  O     -0.892119   -0.264140    1.442440
  C     -1.166347   -1.140073    2.567444
  C     -1.150303   -2.605538    2.187300
  O     -3.259590   -0.211620    0.771320
  C     -4.426107   -0.012783   -0.053036
  C     -5.620395    0.148864    0.865149
  H      2.680251   -0.819340    1.934015
  H      4.273603   -1.342656    2.500495
  H      3.936851    0.381978    2.275916
  H      4.032906   -1.724534    0.055912
  H      5.307590   -0.514837    0.381726
  H      2.674371    2.724251    0.783096
  H      1.087835    3.031251    0.036675
  H     -0.036826    2.508655    2.192533
  H      1.531160    2.212850    2.957806
  H      1.111636    3.842995    2.393939
  H      0.121016   -2.139625   -2.603901
  H     -0.036897   -0.385777   -2.238631
  H     -0.361394   -0.898220    3.263476
  H     -2.128390   -0.853397    2.994566
  H     -0.231872   -2.851789    1.658743
  H     -1.211264   -3.201769    3.092494
  H     -1.997603   -2.845108    1.548918
  H     -4.268169    0.877231   -0.670950
  H     -4.535042   -0.884424   -0.703570
  H     -6.512869    0.289756    0.264540
  H     -5.738154   -0.737374    1.481571
  H     -5.482643    1.012868    1.509160

 Total Charge           Charge          ....    0
 Multiplicity           Mult            ....    1
 Number of Electrons    NEL             ....  202
 Basis Dimension        Dim             ....  334

ORBITAL ENERGIES
----------------

  NO   OCC          E(Eh)            E(eV)
   0   2.0000     -88.043170     -2395.7764
   1   2.0000     -88.042241     -2395.7512
   2   2.0000     -87.978736     -2394.0231
   3   2.0000     -87.970556     -2393.8005
   4   2.0000     -76.425255     -2079.6369
   5   2.0000     -76.415722     -2079.3775
   6   2.0000     -18.798162      -511.5240
   7   2.0000     -18.791187      -511.3342
   8   2.0000     -18.786938      -511.2186
   9   2.0000     -18.775152      -510.8979
  10   2.0000      -9.958978      -270.9976
  11   2.0000      -9.957099      -270.9464
  12   2.0000      -9.956901      -270.9410
  13   2.0000      -9.954859      -270.8855
  14   2.0000      -9.937193      -270.4048
  15   2.0000      -9.892330      -269.1840
  16   2.0000      -9.891464      -269.1604
  17   2.0000      -9.888137      -269.0699
  18   2.0000      -9.875149      -268.7165
  19   2.0000      -7.688414      -209.2124
  20   2.0000      -7.687401      -209.1848
  21   2.0000      -7.623625      -207.4494
  22   2.0000      -7.615954      -207.2406
  23   2.0000      -6.422539      -174.7662
  24   2.0000      -6.413790      -174.5281
  25   2.0000      -5.716208      -155.5459
  26   2.0000      -5.715222      -155.5191
  27   2.0000      -5.712931      -155.4567
  28   2.0000      -5.711879      -155.4281
  29   2.0000      -5.705354      -155.2506
  30   2.0000      -5.704461      -155.2263
  31   2.0000      -5.652655      -153.8166
  32   2.0000      -5.645173      -153.6130
  33   2.0000      -5.644296      -153.5891
  34   2.0000      -5.643615      -153.5706
  35   2.0000      -5.636913      -153.3882
  36   2.0000      -5.635402      -153.3471
  37   2.0000      -4.645630      -126.4140
  38   2.0000      -4.644262      -126.3768
  39   2.0000      -4.642549      -126.3302
  40   2.0000      -4.636655      -126.1698
  41   2.0000      -4.635354      -126.1344
  42   2.0000      -4.634119      -126.1008
  43   2.0000      -0.991416       -26.9778
  44   2.0000      -0.974721       -26.5235
  45   2.0000      -0.947107       -25.7721
  46   2.0000      -0.933361       -25.3981
  47   2.0000      -0.763399       -20.7732
  48   2.0000      -0.721885       -19.6435
  49   2.0000      -0.710612       -19.3367
  50   2.0000      -0.695755       -18.9325
  51   2.0000      -0.689113       -18.7517
  52   2.0000      -0.672520       -18.3002
  53   2.0000      -0.645371       -17.5614
  54   2.0000      -0.628476       -17.1017
  55   2.0000      -0.593641       -16.1538
  56   2.0000      -0.585463       -15.9313
  57   2.0000      -0.576739       -15.6939
  58   2.0000      -0.572058       -15.5665
  59   2.0000      -0.554029       -15.0759
  60   2.0000      -0.509055       -13.8521
  61   2.0000      -0.495009       -13.4699
  62   2.0000      -0.477004       -12.9799
  63   2.0000      -0.473638       -12.8883
  64   2.0000      -0.450299       -12.2533
  65   2.0000      -0.448246       -12.1974
  66   2.0000      -0.446307       -12.1446
  67   2.0000      -0.434493       -11.8232
  68   2.0000      -0.428737       -11.6665
  69   2.0000      -0.419178       -11.4064
  70   2.0000      -0.404295       -11.0014
  71   2.0000      -0.400642       -10.9020
  72   2.0000      -0.400000       -10.8846
  73   2.0000      -0.380903       -10.3649
  74   2.0000      -0.375972       -10.2307
  75   2.0000      -0.368823       -10.0362
  76   2.0000      -0.357880        -9.7384
  77   2.0000      -0.355254        -9.6669
  78   2.0000      -0.353927        -9.6308
  79   2.0000      -0.352367        -9.5884
  80   2.0000      -0.349447        -9.5089
  81   2.0000      -0.343838        -9.3563
  82   2.0000      -0.342958        -9.3324
  83   2.0000      -0.337644        -9.1878
  84   2.0000      -0.328562        -8.9406
  85   2.0000      -0.323225        -8.7954
  86   2.0000      -0.309832        -8.4310
  87   2.0000      -0.306715        -8.3461
  88   2.0000      -0.302687        -8.2365
  89   2.0000      -0.293795        -7.9946
  90   2.0000      -0.276623        -7.5273
  91   2.0000      -0.272443        -7.4136
  92   2.0000      -0.265021        -7.2116
  93   2.0000      -0.259728        -7.0676
  94   2.0000      -0.252933        -6.8827
  95   2.0000      -0.233900        -6.3648
  96   2.0000      -0.219783        -5.9806
  97   2.0000      -0.207149        -5.6368
  98   2.0000      -0.196681        -5.3520
  99   2.0000      -0.186714        -5.0807
 100   2.0000      -0.176898        -4.8136
 101   0.0000      -0.044480        -1.2104
 102   0.0000      -0.030117        -0.8195
 103   0.0000      -0.008120        -0.2210
 104   0.0000       0.009891         0.2692
 105   0.0000       0.018863         0.5133

MULLIKEN ATOMIC CHARGES
-----------------------
   0 C :   -0.326566
   1 C :   -0.016745
   2 O :   -0.376586
   3 P :    0.610232
   4 S :   -0.305679
   5 O :   -0.369537
   6 C :   -0.010034
   7 C :   -0.278769
   8 S :   -0.120523
   9 C :   -0.343438
  10 S :   -0.116065
  11 P :    0.606026
  12 S :   -0.294229
  13 O :   -0.344546
  14 C :    0.003121
  15 C :   -0.321095
  16 O :   -0.389418
  17 C :   -0.013329
  18 C :   -0.281337
  19 H :    0.136204
  20 H :    0.113060
  21 H :    0.122993
  22 H :    0.116235
  23 H :    0.113577
  24 H :    0.094316
  25 H :    0.118776
  26 H :    0.121526
  27 H :    0.101003
  28 H :    0.104990
  29 H :    0.184791
  30 H :    0.212325
  31 H :    0.109597
  32 H :    0.110428
  33 H :    0.129917
  34 H :    0.110975
  35 H :    0.121747
  36 H :    0.109168
  37 H :    0.106544
  38 H :    0.114914
  39 H :    0.113655
  40 H :    0.121774
Sum of atomic charges:    0.0000000

LOEWDIN ATOMIC CHARGES
----------------------
   0 C :   -0.369340
   1 C :   -0.117228
   2 O :   -0.249374
   3 P :    0.565290
   4 S :   -0.305932
   5 O :   -0.244901
   6 C :   -0.122646
   7 C :   -0.352145
   8 S :    0.077216
   9 C :   -0.475181
  10 S :    0.066404
  11 P :    0.563050
  12 S :   -0.291178
  13 O :   -0.223775
  14 C :   -0.106543
  15 C :   -0.371415
  16 O :   -0.252146
  17 C :   -0.120186
  18 C :   -0.350537
  19 H :    0.121825
  20 H :    0.130956
  21 H :    0.127474
  22 H :    0.108925
  23 H :    0.123597
  24 H :    0.103217
  25 H :    0.111641
  26 H :    0.126865
  27 H :    0.118170
  28 H :    0.127643
  29 H :    0.138783
  30 H :    0.128052
  31 H :    0.120555
  32 H :    0.114370
  33 H :    0.122732
  34 H :    0.129893
  35 H :    0.117600
  36 H :    0.111470
  37 H :    0.109526
  38 H :    0.132481
  39 H :    0.125275
  40 H :    0.129519

  Mayer bond orders larger than 0.100000
B(  0-C ,  1-C ) :   1.1613 B(  0-C , 19-H ) :   0.9348 B(  0-C , 20-H ) :   0.9356
B(  0-C , 21-H ) :   0.9434 B(  1-C ,  2-O ) :   0.9150 B(  1-C , 22-H ) :   0.9202
B(  1-C , 23-H ) :   0.9355 B(  2-O ,  3-P ) :   1.1020 B(  3-P ,  4-S ) :   1.6481
B(  3-P ,  5-O ) :   1.0938 B(  3-P ,  8-S ) :   0.9670 B(  4-S ,  8-S ) :   0.1092
B(  5-O ,  6-C ) :   0.8961 B(  6-C ,  7-C ) :   1.1620 B(  6-C , 24-H ) :   0.9236
B(  6-C , 25-H ) :   0.9123 B(  7-C , 26-H ) :   0.9424 B(  7-C , 27-H ) :   0.9513
B(  7-C , 28-H ) :   0.9420 B(  8-S ,  9-C ) :   0.9959 B(  9-C , 10-S ) :   1.0129
B(  9-C , 29-H ) :   0.9112 B(  9-C , 30-H ) :   0.8415 B( 10-S , 11-P ) :   0.9307
B( 10-S , 12-S ) :   0.1064 B( 11-P , 12-S ) :   1.6620 B( 11-P , 13-O ) :   1.1442
B( 11-P , 16-O ) :   1.0715 B( 13-O , 14-C ) :   0.8966 B( 14-C , 15-C ) :   1.1720
B( 14-C , 31-H ) :   0.9318 B( 14-C , 32-H ) :   0.9277 B( 15-C , 33-H ) :   0.9380
B( 15-C , 34-H ) :   0.9351 B( 15-C , 35-H ) :   0.9390 B( 16-O , 17-C ) :   0.9018
B( 17-C , 18-C ) :   1.1598 B( 17-C , 36-H ) :   0.9092 B( 17-C , 37-H ) :   0.9290
B( 18-C , 38-H ) :   0.9416 B( 18-C , 39-H ) :   0.9512 B( 18-C , 40-H ) :   0.9508

Dispersion correction           -0.068026670
FINAL SINGLE POINT ENERGY     -2929.510409242539

DIPOLE MOMENT
-------------

Method             : SCF
Type of density    : Electron Density
Multiplicity       :   1
Irrep              :   0
Energy             : -2929.6289513651827292 Eh
Relativity type    :
Basis              : AO
                                X                 Y                 Z
Electronic contribution:      5.179266943       1.189064892     -22.316133661
Nuclear contribution   :     -5.676703383      -2.461721407      24.218696897
                        -----------------------------------------
Total Dipole Moment    :     -0.497436440      -1.272656515       1.902563236
                        -----------------------------------------
Magnitude (a.u.)       :      2.342401436
Magnitude (Debye)      :      5.953911284

Rotational constants in cm-1:             0.012054             0.005590             0.005458
Rotational constants in MHz :           361.369163           167.572920           163.623255

                             ****ORCA TERMINATED NORMALLY****
TOTAL RUN TIME: 0 days 0 hours 0 minutes 22 seconds 858 msec
