                         Program Version 6.0.0  -   RELEASE  -
|  1> ! pbe def2-sv(p) def2/J RI DEFGRID1 loosescf d4 GCP(DFT/SV(P)) printgap
|  2> %output
|  3>     printlevel normal
|  4> end
|  5> * xyz 0 1
|  6> C 2.6099123572 0.3391803169 -3.1427378547
|  7> C 2.3599114178 -0.9254960112 -2.3470781524
|  8> O 3.0350874532 -0.8961552663 -1.077800569
|  9> P 2.5368683892 -0.1561886822 0.2376516788
| 10> S 2.453464992 1.7983902942 0.2776520887
| 11> O 3.6247170661 -0.6372203244 1.2713678031
| 12> C 3.9202269678 -2.0324557066 1.5410955459
| 13> C 3.4078677167 -2.4167309782 2.9150786271
| 14> S 0.7496361071 -1.2008942628 0.7262765767
| 15> C -0.0942178657 0.1394930409 1.6344923283
| 16> S -1.8866779632 0.0074698325 1.5345482279
| 17> P -2.2169102592 0.7310116905 -0.4513397967
| 18> S -0.6627809097 0.9370006273 -1.6222699221
| 19> O -2.9563096044 2.1106415204 -0.2660674003
| 20> C -3.922211068 2.4463456284 0.7597748805
| 21> C -5.0627120974 1.4556964312 0.8420004187
| 22> O -3.3590447908 -0.2011872925 -1.0454210229
| 23> C -3.0757799718 -1.4277454523 -1.739167847
| 24> C -2.6090392934 -2.5230993127 -0.8009597555
| 25> H 2.1839589654 0.2278855261 -4.1344025547
| 26> H 2.1344842178 1.1886067868 -2.6551692716
| 27> H 3.676672669 0.5306849441 -3.2226449968
| 28> H 2.7820172434 -1.7996970963 -2.8463240412
| 29> H 1.2886426476 -1.069112006 -2.184717122
| 30> H 3.4737873186 -2.6523901637 0.7608968422
| 31> H 5.0076018414 -2.1020924374 1.4875000309
| 32> H 3.7958706523 -1.7284544951 3.6608459997
| 33> H 2.3212637016 -2.3899057175 2.93864802
| 34> H 3.7414598866 -3.4229060164 3.1479667374
| 35> H 0.2440180105 1.091391232 1.2158378874
| 36> H 0.1526890874 0.0651232602 2.6907447618
| 37> H -3.3943824923 2.5114268216 1.7147606235
| 38> H -4.2662880344 3.4372911773 0.4595591112
| 39> H -4.6934314873 0.4864078734 1.172198005
| 40> H -5.7942222915 1.8178531464 1.5577972165
| 41> H -5.5344654649 1.3420344766 -0.130349338
| 42> H -4.024978634 -1.6835936605 -2.2123202191
| 43> H -2.3216697145 -1.2252432103 -2.5068455845
| 44> H -1.6272877923 -2.2845382595 -0.3936016274
| 45> H -3.3102611089 -2.6402865561 0.020919559
| 46> H -2.5399567623 -3.4565831543 -1.3499799834
| 47> *
| 48>
| 49>                          ****END OF INPUT****

CARTESIAN COORDINATES (ANGSTROEM)
---------------------------------
  C      2.609912    0.339180   -3.142738
  C      2.359911   -0.925496   -2.347078
  O      3.035087   -0.896155   -1.077801
  P      2.536868   -0.156189    0.237652
  S      2.453465    1.798390    0.277652
  O      3.624717   -0.637220    1.271368
  C      3.920227   -2.032456    1.541096
  C      3.407868   -2.416731    2.915079
  S      0.749636   -1.200894    0.726277
  C     -0.094218    0.139493    1.634492
  S     -1.886678    0.007470    1.534548
  P     -2.216910    0.731012   -0.451340
  S     -0.662781    0.937001   -1.622270
  O     -2.956310    2.110642   -0.266067
  C     -3.922211    2.446346    0.759775
  C     -5.062712    1.455696    0.842000
  O     -3.359045   -0.201187   -1.045421
  C     -3.075780   -1.427745   -1.739168
  C     -2.609039   -2.523099   -0.800960
  H      2.183959    0.227886   -4.134403
  H      2.134484    1.188607   -2.655169
  H      3.676673    0.530685   -3.222645
  H      2.782017   -1.799697   -2.846324
  H      1.288643   -1.069112   -2.184717
  H      3.473787   -2.652390    0.760897
  H      5.007602   -2.102092    1.487500
  H      3.795871   -1.728454    3.660846
  H      2.321264   -2.389906    2.938648
  H      3.741460   -3.422906    3.147967
  H      0.244018    1.091391    1.215838
  H      0.152689    0.065123    2.690745
  H     -3.394382    2.511427    1.714761
  H     -4.266288    3.437291    0.459559
  H     -4.693431    0.486408    1.172198
  H     -5.794222    1.817853    1.557797
  H     -5.534465    1.342034   -0.130349
  H     -4.024979   -1.683594   -2.212320
  H     -2.321670   -1.225243   -2.506846
  H     -1.627288   -2.284538   -0.393602
  H     -3.310261   -2.640287    0.020920
  H     -2.539957   -3.456583   -1.349980

 Total Charge           Charge          ....    0
 Multiplicity           Mult            ....    1
 Number of Electrons    NEL             ....  202
 Basis Dimension        Dim             ....  334

ORBITAL ENERGIES
----------------

  NO   OCC          E(Eh)            E(eV)
   0   2.0000     -88.049991     -2395.9621
   1   2.0000     -88.040680     -2395.7087
   2   2.0000     -87.983651     -2394.1569
   3   2.0000     -87.978716     -2394.0226
   4   2.0000     -76.427051     -2079.6858
   5   2.0000     -76.421354     -2079.5308
   6   2.0000     -18.791949      -511.3549
   7   2.0000     -18.791473      -511.3420
   8   2.0000     -18.789431      -511.2864
   9   2.0000     -18.783624      -511.1284
  10   2.0000      -9.958765      -270.9918
  11   2.0000      -9.954704      -270.8813
  12   2.0000      -9.953430      -270.8466
  13   2.0000      -9.952978      -270.8343
  14   2.0000      -9.947539      -270.6863
  15   2.0000      -9.891789      -269.1693
  16   2.0000      -9.884876      -268.9812
  17   2.0000      -9.884018      -268.9578
  18   2.0000      -9.872664      -268.6488
  19   2.0000      -7.694527      -209.3787
  20   2.0000      -7.684937      -209.1178
  21   2.0000      -7.628566      -207.5838
  22   2.0000      -7.623888      -207.4565
  23   2.0000      -6.424416      -174.8172
  24   2.0000      -6.418684      -174.6613
  25   2.0000      -5.722343      -155.7129
  26   2.0000      -5.718908      -155.6194
  27   2.0000      -5.712742      -155.4516
  28   2.0000      -5.711762      -155.4249
  29   2.0000      -5.709568      -155.3652
  30   2.0000      -5.701971      -155.1585
  31   2.0000      -5.657585      -153.9507
  32   2.0000      -5.652977      -153.8253
  33   2.0000      -5.648985      -153.7167
  34   2.0000      -5.648786      -153.7113
  35   2.0000      -5.644483      -153.5942
  36   2.0000      -5.643848      -153.5769
  37   2.0000      -4.647100      -126.4540
  38   2.0000      -4.646253      -126.4310
  39   2.0000      -4.644745      -126.3899
  40   2.0000      -4.641398      -126.2989
  41   2.0000      -4.640630      -126.2780
  42   2.0000      -4.638888      -126.2306
  43   2.0000      -0.987212       -26.8634
  44   2.0000      -0.983179       -26.7537
  45   2.0000      -0.946048       -25.7433
  46   2.0000      -0.938597       -25.5405
  47   2.0000      -0.762378       -20.7454
  48   2.0000      -0.720347       -19.6016
  49   2.0000      -0.711904       -19.3719
  50   2.0000      -0.692131       -18.8338
  51   2.0000      -0.684629       -18.6297
  52   2.0000      -0.676644       -18.4124
  53   2.0000      -0.650346       -17.6968
  54   2.0000      -0.633717       -17.2443
  55   2.0000      -0.598924       -16.2975
  56   2.0000      -0.583361       -15.8741
  57   2.0000      -0.577640       -15.7184
  58   2.0000      -0.571623       -15.5546
  59   2.0000      -0.562345       -15.3022
  60   2.0000      -0.502157       -13.6644
  61   2.0000      -0.494935       -13.4679
  62   2.0000      -0.473977       -12.8976
  63   2.0000      -0.471842       -12.8395
  64   2.0000      -0.453909       -12.3515
  65   2.0000      -0.445142       -12.1129
  66   2.0000      -0.442101       -12.0302
  67   2.0000      -0.436911       -11.8889
  68   2.0000      -0.434182       -11.8147
  69   2.0000      -0.417690       -11.3659
  70   2.0000      -0.410576       -11.1724
  71   2.0000      -0.400816       -10.9067
  72   2.0000      -0.396660       -10.7937
  73   2.0000      -0.382902       -10.4193
  74   2.0000      -0.382431       -10.4065
  75   2.0000      -0.369472       -10.0539
  76   2.0000      -0.359517        -9.7830
  77   2.0000      -0.356637        -9.7046
  78   2.0000      -0.355489        -9.6734
  79   2.0000      -0.351452        -9.5635
  80   2.0000      -0.347865        -9.4659
  81   2.0000      -0.345712        -9.4073
  82   2.0000      -0.343834        -9.3562
  83   2.0000      -0.337191        -9.1754
  84   2.0000      -0.326568        -8.8864
  85   2.0000      -0.314650        -8.5621
  86   2.0000      -0.310747        -8.4558
  87   2.0000      -0.296220        -8.0606
  88   2.0000      -0.292705        -7.9649
  89   2.0000      -0.291908        -7.9432
  90   2.0000      -0.288471        -7.8497
  91   2.0000      -0.274740        -7.4761
  92   2.0000      -0.271637        -7.3916
  93   2.0000      -0.263225        -7.1627
  94   2.0000      -0.258439        -7.0325
  95   2.0000      -0.237826        -6.4716
  96   2.0000      -0.222045        -6.0422
  97   2.0000      -0.209715        -5.7066
  98   2.0000      -0.196706        -5.3526
  99   2.0000      -0.192021        -5.2252
 100   2.0000      -0.186611        -5.0779
 101   0.0000      -0.046595        -1.2679
 102   0.0000      -0.032530        -0.8852
 103   0.0000      -0.015951        -0.4341
 104   0.0000       0.003123         0.0850
 105   0.0000       0.018311         0.4983

MULLIKEN ATOMIC CHARGES
-----------------------
   0 C :   -0.307095
   1 C :   -0.018980
   2 O :   -0.378134
   3 P :    0.611823
   4 S :   -0.291702
   5 O :   -0.358081
   6 C :   -0.008108
   7 C :   -0.288134
   8 S :   -0.127186
   9 C :   -0.326256
  10 S :   -0.131820
  11 P :    0.600262
  12 S :   -0.299007
  13 O :   -0.356536
  14 C :   -0.003924
  15 C :   -0.314559
  16 O :   -0.372280
  17 C :   -0.000646
  18 C :   -0.328658
  19 H :    0.106758
  20 H :    0.146030
  21 H :    0.113675
  22 H :    0.098926
  23 H :    0.120593
  24 H :    0.100403
  25 H :    0.110800
  26 H :    0.119435
  27 H :    0.116012
  28 H :    0.107411
  29 H :    0.205111
  30 H :    0.180166
  31 H :    0.112488
  32 H :    0.114291
  33 H :    0.123331
  34 H :    0.116193
  35 H :    0.126609
  36 H :    0.103972
  37 H :    0.108169
  38 H :    0.144926
  39 H :    0.113869
  40 H :    0.109853
Sum of atomic charges:   -0.0000000

LOEWDIN ATOMIC CHARGES
----------------------
   0 C :   -0.364792
   1 C :   -0.118800
   2 O :   -0.242706
   3 P :    0.563962
   4 S :   -0.286080
   5 O :   -0.240870
   6 C :   -0.113505
   7 C :   -0.360856
   8 S :    0.062797
   9 C :   -0.478378
  10 S :    0.075676
  11 P :    0.568483
  12 S :   -0.287786
  13 O :   -0.234999
  14 C :   -0.114306
  15 C :   -0.366811
  16 O :   -0.242933
  17 C :   -0.117921
  18 C :   -0.372394
  19 H :    0.129059
  20 H :    0.125836
  21 H :    0.126011
  22 H :    0.115218
  23 H :    0.104622
  24 H :    0.106224
  25 H :    0.121679
  26 H :    0.128645
  27 H :    0.118439
  28 H :    0.128566
  29 H :    0.123791
  30 H :    0.134235
  31 H :    0.110407
  32 H :    0.124678
  33 H :    0.116846
  34 H :    0.132645
  35 H :    0.130790
  36 H :    0.118126
  37 H :    0.109013
  38 H :    0.113789
  39 H :    0.123655
  40 H :    0.129946

  Mayer bond orders larger than 0.100000
B(  0-C ,  1-C ) :   1.1719 B(  0-C , 19-H ) :   0.9384 B(  0-C , 20-H ) :   0.9301
B(  0-C , 21-H ) :   0.9464 B(  1-C ,  2-O ) :   0.9054 B(  1-C , 22-H ) :   0.9348
B(  1-C , 23-H ) :   0.9101 B(  2-O ,  3-P ) :   1.1005 B(  3-P ,  4-S ) :   1.6582
B(  3-P ,  5-O ) :   1.1314 B(  3-P ,  8-S ) :   0.9346 B(  4-S ,  8-S ) :   0.1163
B(  4-S , 29-H ) :   0.1089 B(  5-O ,  6-C ) :   0.8941 B(  6-C ,  7-C ) :   1.1630
B(  6-C , 24-H ) :   0.9180 B(  6-C , 25-H ) :   0.9349 B(  7-C , 26-H ) :   0.9466
B(  7-C , 27-H ) :   0.9380 B(  7-C , 28-H ) :   0.9403 B(  8-S ,  9-C ) :   0.9886
B(  9-C , 10-S ) :   1.0080 B(  9-C , 29-H ) :   0.8490 B(  9-C , 30-H ) :   0.9087
B( 10-S , 11-P ) :   0.9251 B( 10-S , 12-S ) :   0.1126 B( 11-P , 12-S ) :   1.6533
B( 11-P , 13-O ) :   1.1480 B( 11-P , 16-O ) :   1.0896 B( 13-O , 14-C ) :   0.9026
B( 14-C , 15-C ) :   1.1693 B( 14-C , 31-H ) :   0.9216 B( 14-C , 32-H ) :   0.9334
B( 15-C , 33-H ) :   0.9376 B( 15-C , 34-H ) :   0.9349 B( 15-C , 35-H ) :   0.9422
B( 16-O , 17-C ) :   0.9106 B( 17-C , 18-C ) :   1.1651 B( 17-C , 36-H ) :   0.9342
B( 17-C , 37-H ) :   0.9123 B( 18-C , 38-H ) :   0.9264 B( 18-C , 39-H ) :   0.9445
B( 18-C , 40-H ) :   0.9375

Dispersion correction           -0.065506925
FINAL SINGLE POINT ENERGY     -2929.512945739269

DIPOLE MOMENT
-------------

Method             : SCF
Type of density    : Electron Density
Multiplicity       :   1
Irrep              :   0
Energy             : -2929.6320549228739765 Eh
Relativity type    :
Basis              : AO
                                X                 Y                 Z
Electronic contribution:      5.523339986      11.915085000       1.003072727
Nuclear contribution   :     -6.589655862     -13.458256101      -0.610827619
                        -----------------------------------------
Total Dipole Moment    :     -1.066315876      -1.543171102       0.392245107
                        -----------------------------------------
Magnitude (a.u.)       :      1.916314906
Magnitude (Debye)      :      4.870885396

Rotational constants in cm-1:             0.012406             0.004825             0.004571
Rotational constants in MHz :           371.912175           144.657156           137.035132

                             ****ORCA TERMINATED NORMALLY****
TOTAL RUN TIME: 0 days 0 hours 0 minutes 21 seconds 8 msec
