                         Program Version 6.0.0  -   RELEASE  -
|  1> ! pbe def2-sv(p) def2/J RI DEFGRID1 loosescf d4 GCP(DFT/SV(P)) printgap
|  2> %output
|  3>     printlevel normal
|  4> end
|  5> * xyz 0 1
|  6> C 5.5088573258 0.9442048239 1.2659804869
|  7> C 4.3666822028 0.1275902944 1.8347135112
|  8> O 3.9224463103 -0.8706247291 0.8804495445
|  9> P 2.6876656017 -0.6808416363 -0.0736624246
| 10> S 2.411835167 -2.2940937337 -1.1449884457
| 11> O 3.0624189825 0.6735551866 -0.8264083214
| 12> C 2.1633123355 1.4500968563 -1.634698862
| 13> C 1.8378770707 0.7772078419 -2.9523694442
| 14> S 1.0725244175 -0.1393252233 1.2279791674
| 15> C -0.236433059 -1.1051794532 0.4440817786
| 16> S -1.0767031648 -0.213932353 -0.9039595249
| 17> P -2.7986114375 0.3802763424 0.1986857686
| 18> S -4.1203637256 1.4600653663 -0.7580792343
| 19> O -2.2230750248 0.9887824888 1.5473411856
| 20> C -2.074622632 2.4092942352 1.7258042515
| 21> C -0.9566886955 2.9766529399 0.8743122157
| 22> O -3.3329031452 -0.9769157436 0.8373811355
| 23> C -4.3426195554 -1.7654191159 0.1845973584
| 24> C -3.8263796568 -2.4309331254 -1.0761709014
| 25> H 5.1792513098 1.4998855146 0.3925360827
| 26> H 5.8604916543 1.6383098319 2.0229069053
| 27> H 6.3242951806 0.2880796797 0.974269452
| 28> H 3.5184554089 0.7609309277 2.1074713438
| 29> H 4.6861278367 -0.4512585108 2.7030737255
| 30> H 1.2486397608 1.6410843664 -1.0655673521
| 31> H 2.6994159773 2.3879238971 -1.7910995324
| 32> H 2.752076016 0.5215896369 -3.4816760385
| 33> H 1.2655874526 -0.1334277495 -2.7843723293
| 34> H 1.2446243006 1.4520809596 -3.5607638446
| 35> H -0.9625123279 -1.3530854081 1.2140000356
| 36> H 0.2109366995 -1.9988097852 0.0039778182
| 37> H -3.0264226235 2.8906853093 1.4795819245
| 38> H -1.8656979812 2.5185957947 2.790619678
| 39> H -0.8528353141 4.0371807844 1.0795587617
| 40> H -0.0206061434 2.4723363903 1.1015241711
| 41> H -1.1941982356 2.8426157889 -0.1813031016
| 42> H -4.6312059957 -2.4990974891 0.9387598521
| 43> H -5.1935016657 -1.1167727808 -0.0467486817
| 44> H -2.9392912994 -3.022723648 -0.8629048916
| 45> H -4.5981566874 -3.0785034416 -1.4798939437
| 46> H -3.5760900413 -1.6758758174 -1.8210895384
| 47> *
| 48>
| 49>                          ****END OF INPUT****

CARTESIAN COORDINATES (ANGSTROEM)
---------------------------------
  C      5.508857    0.944205    1.265980
  C      4.366682    0.127590    1.834714
  O      3.922446   -0.870625    0.880450
  P      2.687666   -0.680842   -0.073662
  S      2.411835   -2.294094   -1.144988
  O      3.062419    0.673555   -0.826408
  C      2.163312    1.450097   -1.634699
  C      1.837877    0.777208   -2.952369
  S      1.072524   -0.139325    1.227979
  C     -0.236433   -1.105179    0.444082
  S     -1.076703   -0.213932   -0.903960
  P     -2.798611    0.380276    0.198686
  S     -4.120364    1.460065   -0.758079
  O     -2.223075    0.988782    1.547341
  C     -2.074623    2.409294    1.725804
  C     -0.956689    2.976653    0.874312
  O     -3.332903   -0.976916    0.837381
  C     -4.342620   -1.765419    0.184597
  C     -3.826380   -2.430933   -1.076171
  H      5.179251    1.499886    0.392536
  H      5.860492    1.638310    2.022907
  H      6.324295    0.288080    0.974269
  H      3.518455    0.760931    2.107471
  H      4.686128   -0.451259    2.703074
  H      1.248640    1.641084   -1.065567
  H      2.699416    2.387924   -1.791100
  H      2.752076    0.521590   -3.481676
  H      1.265587   -0.133428   -2.784372
  H      1.244624    1.452081   -3.560764
  H     -0.962512   -1.353085    1.214000
  H      0.210937   -1.998810    0.003978
  H     -3.026423    2.890685    1.479582
  H     -1.865698    2.518596    2.790620
  H     -0.852835    4.037181    1.079559
  H     -0.020606    2.472336    1.101524
  H     -1.194198    2.842616   -0.181303
  H     -4.631206   -2.499097    0.938760
  H     -5.193502   -1.116773   -0.046749
  H     -2.939291   -3.022724   -0.862905
  H     -4.598157   -3.078503   -1.479894
  H     -3.576090   -1.675876   -1.821090

 Total Charge           Charge          ....    0
 Multiplicity           Mult            ....    1
 Number of Electrons    NEL             ....  202
 Basis Dimension        Dim             ....  334

ORBITAL ENERGIES
----------------

  NO   OCC          E(Eh)            E(eV)
   0   2.0000     -88.048230     -2395.9141
   1   2.0000     -88.046559     -2395.8687
   2   2.0000     -87.994083     -2394.4407
   3   2.0000     -87.991261     -2394.3639
   4   2.0000     -76.431321     -2079.8020
   5   2.0000     -76.430955     -2079.7920
   6   2.0000     -18.797387      -511.5029
   7   2.0000     -18.797284      -511.5001
   8   2.0000     -18.794203      -511.4163
   9   2.0000     -18.793801      -511.4053
  10   2.0000      -9.964692      -271.1531
  11   2.0000      -9.956851      -270.9397
  12   2.0000      -9.955846      -270.9124
  13   2.0000      -9.955009      -270.8896
  14   2.0000      -9.954595      -270.8783
  15   2.0000      -9.891835      -269.1705
  16   2.0000      -9.884892      -268.9816
  17   2.0000      -9.884575      -268.9730
  18   2.0000      -9.880500      -268.8621
  19   2.0000      -7.692902      -209.3345
  20   2.0000      -7.691098      -209.2854
  21   2.0000      -7.639194      -207.8730
  22   2.0000      -7.636407      -207.7972
  23   2.0000      -6.428820      -174.9371
  24   2.0000      -6.428400      -174.9257
  25   2.0000      -5.720636      -155.6664
  26   2.0000      -5.719155      -155.6261
  27   2.0000      -5.717411      -155.5787
  28   2.0000      -5.715501      -155.5267
  29   2.0000      -5.710087      -155.3794
  30   2.0000      -5.708092      -155.3251
  31   2.0000      -5.668172      -154.2388
  32   2.0000      -5.665513      -154.1665
  33   2.0000      -5.659723      -154.0089
  34   2.0000      -5.659409      -154.0004
  35   2.0000      -5.657052      -153.9362
  36   2.0000      -5.656314      -153.9161
  37   2.0000      -4.651517      -126.5742
  38   2.0000      -4.650701      -126.5520
  39   2.0000      -4.650634      -126.5502
  40   2.0000      -4.650614      -126.5496
  41   2.0000      -4.649062      -126.5074
  42   2.0000      -4.648760      -126.4992
  43   2.0000      -0.993306       -27.0292
  44   2.0000      -0.991767       -26.9874
  45   2.0000      -0.949692       -25.8424
  46   2.0000      -0.948628       -25.8135
  47   2.0000      -0.765392       -20.8274
  48   2.0000      -0.725915       -19.7531
  49   2.0000      -0.714678       -19.4474
  50   2.0000      -0.693134       -18.8611
  51   2.0000      -0.684912       -18.6374
  52   2.0000      -0.680855       -18.5270
  53   2.0000      -0.658230       -17.9113
  54   2.0000      -0.644258       -17.5312
  55   2.0000      -0.602241       -16.3878
  56   2.0000      -0.592790       -16.1306
  57   2.0000      -0.579856       -15.7787
  58   2.0000      -0.572297       -15.5730
  59   2.0000      -0.568310       -15.4645
  60   2.0000      -0.507608       -13.8127
  61   2.0000      -0.497883       -13.5481
  62   2.0000      -0.481411       -13.0999
  63   2.0000      -0.469612       -12.7788
  64   2.0000      -0.462332       -12.5807
  65   2.0000      -0.451361       -12.2822
  66   2.0000      -0.448734       -12.2107
  67   2.0000      -0.438819       -11.9409
  68   2.0000      -0.428750       -11.6669
  69   2.0000      -0.425046       -11.5661
  70   2.0000      -0.408968       -11.1286
  71   2.0000      -0.405388       -11.0312
  72   2.0000      -0.400182       -10.8895
  73   2.0000      -0.393734       -10.7141
  74   2.0000      -0.390076       -10.6145
  75   2.0000      -0.375199       -10.2097
  76   2.0000      -0.367480        -9.9996
  77   2.0000      -0.360979        -9.8227
  78   2.0000      -0.355880        -9.6840
  79   2.0000      -0.354081        -9.6350
  80   2.0000      -0.350361        -9.5338
  81   2.0000      -0.345046        -9.3892
  82   2.0000      -0.341201        -9.2846
  83   2.0000      -0.339673        -9.2430
  84   2.0000      -0.333932        -9.0868
  85   2.0000      -0.325877        -8.8676
  86   2.0000      -0.323656        -8.8071
  87   2.0000      -0.304620        -8.2891
  88   2.0000      -0.298207        -8.1146
  89   2.0000      -0.293859        -7.9963
  90   2.0000      -0.291489        -7.9318
  91   2.0000      -0.283001        -7.7009
  92   2.0000      -0.271848        -7.3974
  93   2.0000      -0.266957        -7.2643
  94   2.0000      -0.264167        -7.1883
  95   2.0000      -0.236760        -6.4426
  96   2.0000      -0.221935        -6.0392
  97   2.0000      -0.214096        -5.8258
  98   2.0000      -0.211182        -5.7466
  99   2.0000      -0.209586        -5.7031
 100   2.0000      -0.202975        -5.5232
 101   0.0000      -0.046965        -1.2780
 102   0.0000      -0.037971        -1.0332
 103   0.0000      -0.020994        -0.5713
 104   0.0000       0.000439         0.0119
 105   0.0000       0.006330         0.1723

MULLIKEN ATOMIC CHARGES
-----------------------
   0 C :   -0.288668
   1 C :   -0.018735
   2 O :   -0.353319
   3 P :    0.599128
   4 S :   -0.296370
   5 O :   -0.375542
   6 C :   -0.036386
   7 C :   -0.302582
   8 S :   -0.115833
   9 C :   -0.349865
  10 S :   -0.076536
  11 P :    0.575857
  12 S :   -0.312274
  13 O :   -0.370017
  14 C :    0.003300
  15 C :   -0.341625
  16 O :   -0.367539
  17 C :   -0.004812
  18 C :   -0.313444
  19 H :    0.124453
  20 H :    0.110791
  21 H :    0.123666
  22 H :    0.106745
  23 H :    0.116152
  24 H :    0.126502
  25 H :    0.104214
  26 H :    0.118333
  27 H :    0.131132
  28 H :    0.111146
  29 H :    0.197385
  30 H :    0.197260
  31 H :    0.112945
  32 H :    0.106727
  33 H :    0.109961
  34 H :    0.137298
  35 H :    0.128739
  36 H :    0.108039
  37 H :    0.113968
  38 H :    0.117730
  39 H :    0.114046
  40 H :    0.128029
Sum of atomic charges:   -0.0000000

LOEWDIN ATOMIC CHARGES
----------------------
   0 C :   -0.358551
   1 C :   -0.111174
   2 O :   -0.233904
   3 P :    0.566652
   4 S :   -0.288248
   5 O :   -0.244928
   6 C :   -0.122795
   7 C :   -0.366591
   8 S :    0.073087
   9 C :   -0.484660
  10 S :    0.090736
  11 P :    0.571880
  12 S :   -0.313258
  13 O :   -0.242753
  14 C :   -0.116347
  15 C :   -0.376162
  16 O :   -0.242057
  17 C :   -0.118454
  18 C :   -0.368002
  19 H :    0.127721
  20 H :    0.129997
  21 H :    0.131103
  22 H :    0.104601
  23 H :    0.124275
  24 H :    0.104376
  25 H :    0.118358
  26 H :    0.128032
  27 H :    0.116143
  28 H :    0.131147
  29 H :    0.136147
  30 H :    0.126438
  31 H :    0.110919
  32 H :    0.119942
  33 H :    0.130068
  34 H :    0.116156
  35 H :    0.120359
  36 H :    0.119833
  37 H :    0.111533
  38 H :    0.124962
  39 H :    0.131468
  40 H :    0.121952

  Mayer bond orders larger than 0.100000
B(  0-C ,  1-C ) :   1.1658 B(  0-C , 19-H ) :   0.9414 B(  0-C , 20-H ) :   0.9392
B(  0-C , 21-H ) :   0.9465 B(  1-C ,  2-O ) :   0.8914 B(  1-C , 22-H ) :   0.9167
B(  1-C , 23-H ) :   0.9353 B(  2-O ,  3-P ) :   1.1494 B(  3-P ,  4-S ) :   1.6529
B(  3-P ,  5-O ) :   1.0773 B(  3-P ,  8-S ) :   0.9363 B(  4-S ,  8-S ) :   0.1150
B(  4-S , 30-H ) :   0.1090 B(  5-O ,  6-C ) :   0.9120 B(  6-C ,  7-C ) :   1.1672
B(  6-C , 24-H ) :   0.9044 B(  6-C , 25-H ) :   0.9337 B(  7-C , 26-H ) :   0.9450
B(  7-C , 27-H ) :   0.9281 B(  7-C , 28-H ) :   0.9370 B(  8-S ,  9-C ) :   1.0121
B(  9-C , 10-S ) :   0.9761 B(  9-C , 29-H ) :   0.8843 B(  9-C , 30-H ) :   0.8534
B( 10-S , 11-P ) :   0.9789 B( 11-P , 12-S ) :   1.6344 B( 11-P , 13-O ) :   1.0972
B( 11-P , 16-O ) :   1.0880 B( 13-O , 14-C ) :   0.9081 B( 14-C , 15-C ) :   1.1631
B( 14-C , 31-H ) :   0.9169 B( 14-C , 32-H ) :   0.9335 B( 15-C , 33-H ) :   0.9352
B( 15-C , 34-H ) :   0.9270 B( 15-C , 35-H ) :   0.9335 B( 16-O , 17-C ) :   0.9088
B( 17-C , 18-C ) :   1.1630 B( 17-C , 36-H ) :   0.9343 B( 17-C , 37-H ) :   0.9162
B( 18-C , 38-H ) :   0.9460 B( 18-C , 39-H ) :   0.9381 B( 18-C , 40-H ) :   0.9361

Dispersion correction           -0.064403754
FINAL SINGLE POINT ENERGY     -2929.518673114647

DIPOLE MOMENT
-------------

Method             : SCF
Type of density    : Electron Density
Multiplicity       :   1
Irrep              :   0
Energy             : -2929.6404310746474948 Eh
Relativity type    :
Basis              : AO
                                X                 Y                 Z
Electronic contribution:     -5.455411510      -8.484597201       1.218623001
Nuclear contribution   :      5.920285396       9.327031683      -0.280504161
                        -----------------------------------------
Total Dipole Moment    :      0.464873886       0.842434482       0.938118840
                        -----------------------------------------
Magnitude (a.u.)       :      1.343826828
Magnitude (Debye)      :      3.415736344

Rotational constants in cm-1:             0.013173             0.004395             0.004057
Rotational constants in MHz :           394.916363           131.771713           121.622438

                             ****ORCA TERMINATED NORMALLY****
TOTAL RUN TIME: 0 days 0 hours 0 minutes 20 seconds 956 msec
