                         Program Version 6.0.0  -   RELEASE  -
|  1> ! pbe def2-sv(p) def2/J RI DEFGRID1 loosescf d4 GCP(DFT/SV(P)) printgap
|  2> %output
|  3>     printlevel normal
|  4> end
|  5> * xyz 0 1
|  6> C 3.5592671984 0.1676767385 -2.4258610454
|  7> C 2.1034979269 0.4905879386 -2.1697805735
|  8> O 1.5053275747 -0.4362994533 -1.2438473268
|  9> P 1.9497431354 -0.5199007355 0.2711502754
| 10> S 2.4946372201 1.1389325072 1.169234532
| 11> O 3.0551592206 -1.6616832017 0.1812652206
| 12> C 3.787950359 -2.1148725034 1.3366370538
| 13> C 5.1265916565 -1.4095850559 1.4376034008
| 14> S 0.3577767356 -1.5729732831 1.1547350522
| 15> C -0.5530690484 -0.225784652 1.9913755158
| 16> S -2.2727295321 -0.1334187788 1.4645304692
| 17> P -1.9273582905 0.6554790048 -0.4810475381
| 18> S -0.5505818025 2.0463517112 -0.5967574647
| 19> O -3.3751457239 1.0558661703 -0.9880208746
| 20> C -4.3459156099 1.8075075626 -0.2357006664
| 21> C -3.814472379 3.1402504524 0.2479876225
| 22> O -1.5389979775 -0.5278107964 -1.444679273
| 23> C -2.0883427125 -1.8705661598 -1.4694520803
| 24> C -3.6004977186 -1.9104227376 -1.5009107376
| 25> H 4.1334647412 0.31506689 -1.5117080626
| 26> H 3.6631064134 -0.8659220899 -2.7456570778
| 27> H 3.9434779339 0.8295422161 -3.1956630578
| 28> H 1.4925043944 0.3889624309 -3.0680962358
| 29> H 1.9884632479 1.5034428276 -1.7685351216
| 30> H 3.1884367742 -1.9444619556 2.2356456731
| 31> H 3.9130685931 -3.1879057265 1.1805531973
| 32> H 5.6787487014 -1.8103358865 2.281388499
| 33> H 5.6993367172 -1.5621177536 0.5271386281
| 34> H 4.9776855334 -0.3422109897 1.5866246872
| 35> H -0.0435715814 0.7200871821 1.7841485153
| 36> H -0.5697511711 -0.4402173132 3.0566752416
| 37> H -5.1684012311 1.9395915377 -0.9407234254
| 38> H -4.67238477 1.1936453228 0.6081644937
| 39> H -3.4321208077 3.7229163316 -0.5869964497
| 40> H -4.6118918826 3.6910294113 0.7362918653
| 41> H -3.0023756958 2.9881137541 0.9576081659
| 42> H -1.6556889432 -2.2924953974 -2.3780428129
| 43> H -1.7002466688 -2.406834993 -0.5983573438
| 44> H -4.0125435787 -1.5502109838 -0.5606321981
| 45> H -3.9781148543 -1.2959866329 -2.3140279199
| 46> H -3.9164441727 -2.9383538838 -1.6511666818
| 47> *
| 48>
| 49>                          ****END OF INPUT****

CARTESIAN COORDINATES (ANGSTROEM)
---------------------------------
  C      3.559267    0.167677   -2.425861
  C      2.103498    0.490588   -2.169781
  O      1.505328   -0.436299   -1.243847
  P      1.949743   -0.519901    0.271150
  S      2.494637    1.138933    1.169235
  O      3.055159   -1.661683    0.181265
  C      3.787950   -2.114873    1.336637
  C      5.126592   -1.409585    1.437603
  S      0.357777   -1.572973    1.154735
  C     -0.553069   -0.225785    1.991376
  S     -2.272730   -0.133419    1.464530
  P     -1.927358    0.655479   -0.481048
  S     -0.550582    2.046352   -0.596757
  O     -3.375146    1.055866   -0.988021
  C     -4.345916    1.807508   -0.235701
  C     -3.814472    3.140250    0.247988
  O     -1.538998   -0.527811   -1.444679
  C     -2.088343   -1.870566   -1.469452
  C     -3.600498   -1.910423   -1.500911
  H      4.133465    0.315067   -1.511708
  H      3.663106   -0.865922   -2.745657
  H      3.943478    0.829542   -3.195663
  H      1.492504    0.388962   -3.068096
  H      1.988463    1.503443   -1.768535
  H      3.188437   -1.944462    2.235646
  H      3.913069   -3.187906    1.180553
  H      5.678749   -1.810336    2.281388
  H      5.699337   -1.562118    0.527139
  H      4.977686   -0.342211    1.586625
  H     -0.043572    0.720087    1.784149
  H     -0.569751   -0.440217    3.056675
  H     -5.168401    1.939592   -0.940723
  H     -4.672385    1.193645    0.608164
  H     -3.432121    3.722916   -0.586996
  H     -4.611892    3.691029    0.736292
  H     -3.002376    2.988114    0.957608
  H     -1.655689   -2.292495   -2.378043
  H     -1.700247   -2.406835   -0.598357
  H     -4.012544   -1.550211   -0.560632
  H     -3.978115   -1.295987   -2.314028
  H     -3.916444   -2.938354   -1.651167

 Total Charge           Charge          ....    0
 Multiplicity           Mult            ....    1
 Number of Electrons    NEL             ....  202
 Basis Dimension        Dim             ....  334

ORBITAL ENERGIES
----------------

  NO   OCC          E(Eh)            E(eV)
   0   2.0000     -88.048137     -2395.9116
   1   2.0000     -88.042121     -2395.7479
   2   2.0000     -87.981746     -2394.1050
   3   2.0000     -87.975269     -2393.9288
   4   2.0000     -76.424037     -2079.6038
   5   2.0000     -76.420981     -2079.5206
   6   2.0000     -18.793380      -511.3939
   7   2.0000     -18.787882      -511.2443
   8   2.0000     -18.785942      -511.1915
   9   2.0000     -18.778930      -511.0007
  10   2.0000      -9.959440      -271.0102
  11   2.0000      -9.956225      -270.9227
  12   2.0000      -9.950995      -270.7803
  13   2.0000      -9.950856      -270.7766
  14   2.0000      -9.937780      -270.4207
  15   2.0000      -9.887064      -269.0407
  16   2.0000      -9.881969      -268.9021
  17   2.0000      -9.878579      -268.8098
  18   2.0000      -9.874795      -268.7068
  19   2.0000      -7.693078      -209.3393
  20   2.0000      -7.687189      -209.1791
  21   2.0000      -7.626659      -207.5319
  22   2.0000      -7.620227      -207.3569
  23   2.0000      -6.421035      -174.7253
  24   2.0000      -6.418507      -174.6565
  25   2.0000      -5.720800      -155.6709
  26   2.0000      -5.717365      -155.5774
  27   2.0000      -5.715016      -155.5135
  28   2.0000      -5.711607      -155.4207
  29   2.0000      -5.710471      -155.3898
  30   2.0000      -5.704242      -155.2203
  31   2.0000      -5.655511      -153.8943
  32   2.0000      -5.649368      -153.7271
  33   2.0000      -5.647442      -153.6747
  34   2.0000      -5.646734      -153.6554
  35   2.0000      -5.640822      -153.4946
  36   2.0000      -5.640157      -153.4765
  37   2.0000      -4.643748      -126.3628
  38   2.0000      -4.643333      -126.3515
  39   2.0000      -4.640929      -126.2861
  40   2.0000      -4.640800      -126.2826
  41   2.0000      -4.640189      -126.2660
  42   2.0000      -4.639321      -126.2423
  43   2.0000      -0.985064       -26.8049
  44   2.0000      -0.980126       -26.6706
  45   2.0000      -0.942401       -25.6440
  46   2.0000      -0.937172       -25.5017
  47   2.0000      -0.763680       -20.7808
  48   2.0000      -0.718892       -19.5620
  49   2.0000      -0.707679       -19.2569
  50   2.0000      -0.690426       -18.7874
  51   2.0000      -0.680964       -18.5300
  52   2.0000      -0.673164       -18.3177
  53   2.0000      -0.648728       -17.6528
  54   2.0000      -0.632855       -17.2209
  55   2.0000      -0.594029       -16.1643
  56   2.0000      -0.587121       -15.9764
  57   2.0000      -0.577389       -15.7116
  58   2.0000      -0.569463       -15.4959
  59   2.0000      -0.559414       -15.2224
  60   2.0000      -0.498588       -13.5673
  61   2.0000      -0.489798       -13.3281
  62   2.0000      -0.470152       -12.7935
  63   2.0000      -0.466073       -12.6825
  64   2.0000      -0.452719       -12.3191
  65   2.0000      -0.443133       -12.0583
  66   2.0000      -0.437106       -11.8943
  67   2.0000      -0.434060       -11.8114
  68   2.0000      -0.429249       -11.6805
  69   2.0000      -0.412583       -11.2269
  70   2.0000      -0.408089       -11.1047
  71   2.0000      -0.400548       -10.8995
  72   2.0000      -0.394985       -10.7481
  73   2.0000      -0.390325       -10.6213
  74   2.0000      -0.380973       -10.3668
  75   2.0000      -0.368385       -10.0243
  76   2.0000      -0.360637        -9.8134
  77   2.0000      -0.351538        -9.5658
  78   2.0000      -0.350159        -9.5283
  79   2.0000      -0.346984        -9.4419
  80   2.0000      -0.343573        -9.3491
  81   2.0000      -0.341818        -9.3013
  82   2.0000      -0.339324        -9.2335
  83   2.0000      -0.333043        -9.0626
  84   2.0000      -0.328894        -8.9497
  85   2.0000      -0.318340        -8.6625
  86   2.0000      -0.310359        -8.4453
  87   2.0000      -0.294952        -8.0261
  88   2.0000      -0.292919        -7.9707
  89   2.0000      -0.285414        -7.7665
  90   2.0000      -0.275999        -7.5103
  91   2.0000      -0.271772        -7.3953
  92   2.0000      -0.265646        -7.2286
  93   2.0000      -0.260918        -7.0999
  94   2.0000      -0.257295        -7.0013
  95   2.0000      -0.239404        -6.5145
  96   2.0000      -0.222993        -6.0679
  97   2.0000      -0.209449        -5.6994
  98   2.0000      -0.199535        -5.4296
  99   2.0000      -0.190391        -5.1808
 100   2.0000      -0.180727        -4.9178
 101   0.0000      -0.041140        -1.1195
 102   0.0000      -0.029776        -0.8102
 103   0.0000      -0.011202        -0.3048
 104   0.0000       0.013615         0.3705
 105   0.0000       0.022353         0.6083

MULLIKEN ATOMIC CHARGES
-----------------------
   0 C :   -0.305822
   1 C :   -0.001163
   2 O :   -0.351746
   3 P :    0.610783
   4 S :   -0.318087
   5 O :   -0.374517
   6 C :   -0.006314
   7 C :   -0.292667
   8 S :   -0.102283
   9 C :   -0.346294
  10 S :   -0.126837
  11 P :    0.591410
  12 S :   -0.298433
  13 O :   -0.372556
  14 C :   -0.014592
  15 C :   -0.305729
  16 O :   -0.348379
  17 C :    0.003323
  18 C :   -0.311272
  19 H :    0.123536
  20 H :    0.111798
  21 H :    0.108901
  22 H :    0.102768
  23 H :    0.122653
  24 H :    0.096692
  25 H :    0.104627
  26 H :    0.106129
  27 H :    0.113882
  28 H :    0.128395
  29 H :    0.213525
  30 H :    0.182307
  31 H :    0.109568
  32 H :    0.111051
  33 H :    0.127776
  34 H :    0.109823
  35 H :    0.127277
  36 H :    0.107851
  37 H :    0.113695
  38 H :    0.113280
  39 H :    0.122881
  40 H :    0.112759
Sum of atomic charges:    0.0000000

LOEWDIN ATOMIC CHARGES
----------------------
   0 C :   -0.366895
   1 C :   -0.117753
   2 O :   -0.229102
   3 P :    0.569670
   4 S :   -0.310304
   5 O :   -0.247293
   6 C :   -0.117449
   7 C :   -0.363620
   8 S :    0.082366
   9 C :   -0.477074
  10 S :    0.062455
  11 P :    0.564312
  12 S :   -0.290805
  13 O :   -0.241638
  14 C :   -0.114593
  15 C :   -0.368975
  16 O :   -0.229112
  17 C :   -0.113032
  18 C :   -0.367916
  19 H :    0.121136
  20 H :    0.123757
  21 H :    0.129144
  22 H :    0.119017
  23 H :    0.109247
  24 H :    0.105175
  25 H :    0.117326
  26 H :    0.127997
  27 H :    0.124809
  28 H :    0.124395
  29 H :    0.127474
  30 H :    0.136935
  31 H :    0.121531
  32 H :    0.106369
  33 H :    0.131189
  34 H :    0.129373
  35 H :    0.122036
  36 H :    0.122405
  37 H :    0.103080
  38 H :    0.115537
  39 H :    0.127887
  40 H :    0.130940

  Mayer bond orders larger than 0.100000
B(  0-C ,  1-C ) :   1.1575 B(  0-C , 19-H ) :   0.9343 B(  0-C , 20-H ) :   0.9448
B(  0-C , 21-H ) :   0.9387 B(  1-C ,  2-O ) :   0.9001 B(  1-C , 22-H ) :   0.9361
B(  1-C , 23-H ) :   0.9130 B(  2-O ,  3-P ) :   1.1560 B(  3-P ,  4-S ) :   1.6013
B(  3-P ,  5-O ) :   1.0956 B(  3-P ,  8-S ) :   0.9570 B(  4-S ,  8-S ) :   0.1153
B(  5-O ,  6-C ) :   0.9078 B(  6-C ,  7-C ) :   1.1678 B(  6-C , 24-H ) :   0.9129
B(  6-C , 25-H ) :   0.9360 B(  7-C , 26-H ) :   0.9399 B(  7-C , 27-H ) :   0.9459
B(  7-C , 28-H ) :   0.9309 B(  8-S ,  9-C ) :   0.9914 B(  9-C , 10-S ) :   1.0078
B(  9-C , 29-H ) :   0.8438 B(  9-C , 30-H ) :   0.9108 B( 10-S , 11-P ) :   0.9220
B( 10-S , 12-S ) :   0.1056 B( 11-P , 12-S ) :   1.6460 B( 11-P , 13-O ) :   1.0918
B( 11-P , 16-O ) :   1.1499 B( 13-O , 14-C ) :   0.9132 B( 14-C , 15-C ) :   1.1669
B( 14-C , 31-H ) :   0.9336 B( 14-C , 32-H ) :   0.9256 B( 15-C , 33-H ) :   0.9425
B( 15-C , 34-H ) :   0.9348 B( 15-C , 35-H ) :   0.9324 B( 16-O , 17-C ) :   0.9010
B( 17-C , 18-C ) :   1.1666 B( 17-C , 36-H ) :   0.9361 B( 17-C , 37-H ) :   0.9120
B( 18-C , 38-H ) :   0.9404 B( 18-C , 39-H ) :   0.9423 B( 18-C , 40-H ) :   0.9359

Dispersion correction           -0.068284718
FINAL SINGLE POINT ENERGY     -2929.516325683817

DIPOLE MOMENT
-------------

Method             : SCF
Type of density    : Electron Density
Multiplicity       :   1
Irrep              :   0
Energy             : -2929.6339837373202499 Eh
Relativity type    :
Basis              : AO
                                X                 Y                 Z
Electronic contribution:     -2.617807576       2.194601353       5.907342301
Nuclear contribution   :      1.770290412      -3.325062353      -5.928421820
                        -----------------------------------------
Total Dipole Moment    :     -0.847517164      -1.130461000      -0.021079519
                        -----------------------------------------
Magnitude (a.u.)       :      1.413036363
Magnitude (Debye)      :      3.591653000

Rotational constants in cm-1:             0.013808             0.005034             0.004904
Rotational constants in MHz :           413.942962           150.906865           147.012189

                             ****ORCA TERMINATED NORMALLY****
TOTAL RUN TIME: 0 days 0 hours 0 minutes 21 seconds 564 msec
