                         Program Version 6.0.0  -   RELEASE  -
|  1> ! pbe def2-sv(p) def2/J RI DEFGRID1 loosescf d4 GCP(DFT/SV(P)) printgap
|  2> %output
|  3>     printlevel normal
|  4> end
|  5> * xyz 0 1
|  6> C 2.699307035 -1.1004684414 -2.5990244289
|  7> C 2.860638946 0.2969514663 -2.0357579973
|  8> O 3.1952127707 0.2482240896 -0.6366841315
|  9> P 2.1762469346 0.4047156325 0.5661448568
| 10> S 1.1144225463 2.0520306297 0.647021946
| 11> O 3.1503019848 0.3623728831 1.807223561
| 12> C 4.3833944944 -0.3929587077 1.9006732432
| 13> C 4.1668381387 -1.8877997687 1.7972159735
| 14> S 1.0312816168 -1.3909109305 0.6266288175
| 15> C -0.3706646722 -0.779798457 1.6136671119
| 16> S -1.9821151571 -1.1997005429 0.9075262006
| 17> P -2.0757272569 0.2356592453 -0.6629667368
| 18> S -0.6988017685 0.1941685338 -2.0476683317
| 19> O -2.1540509769 1.6482476327 0.0310781303
| 20> C -3.2062648099 2.0743451187 0.9340732992
| 21> C -2.7345164947 2.0221210592 2.3741820013
| 22> O -3.5608300794 0.0351502374 -1.1989435485
| 23> C -3.8861313032 -0.9024379596 -2.2414159574
| 24> C -3.6517434101 -2.3372431728 -1.8166805894
| 25> H 3.5908025061 -1.6894889474 -2.4035032012
| 26> H 1.8373593905 -1.5909182692 -2.1527617912
| 27> H 2.538162805 -1.0292676124 -3.6695513085
| 28> H 1.9487001701 0.8839948958 -2.175460823
| 29> H 3.7012165757 0.8176209433 -2.4987019771
| 30> H 5.0572454254 -0.0401709715 1.1181074797
| 31> H 4.7707598577 -0.1092533163 2.8805273025
| 32> H 5.1153576998 -2.3916187463 1.9554286507
| 33> H 3.4543141759 -2.2234642056 2.545986086
| 34> H 3.7868322055 -2.1493134198 0.8115944352
| 35> H -0.2753237162 0.3068831834 1.6942636323
| 36> H -0.3415510898 -1.259312434 2.5883384435
| 37> H -3.4160746682 3.1004287092 0.6278087055
| 38> H -4.0880841054 1.45162215 0.773797769
| 39> H -2.6385163611 0.9943088506 2.7155033985
| 40> H -1.7706722455 2.5195456619 2.4617122095
| 41> H -3.4568601302 2.5354014455 3.0008543907
| 42> H -4.9399346492 -0.7063215083 -2.4441330373
| 43> H -3.2848461966 -0.6586662029 -3.1227522943
| 44> H -4.0258381832 -3.0037298758 -2.5870697144
| 45> H -2.5854669086 -2.5157156487 -1.6840633851
| 46> H -4.1615060954 -2.5440367289 -0.8789448998
| 47> *
| 48>
| 49>                          ****END OF INPUT****

CARTESIAN COORDINATES (ANGSTROEM)
---------------------------------
  C      2.699307   -1.100468   -2.599024
  C      2.860639    0.296951   -2.035758
  O      3.195213    0.248224   -0.636684
  P      2.176247    0.404716    0.566145
  S      1.114423    2.052031    0.647022
  O      3.150302    0.362373    1.807224
  C      4.383394   -0.392959    1.900673
  C      4.166838   -1.887800    1.797216
  S      1.031282   -1.390911    0.626629
  C     -0.370665   -0.779798    1.613667
  S     -1.982115   -1.199701    0.907526
  P     -2.075727    0.235659   -0.662967
  S     -0.698802    0.194169   -2.047668
  O     -2.154051    1.648248    0.031078
  C     -3.206265    2.074345    0.934073
  C     -2.734516    2.022121    2.374182
  O     -3.560830    0.035150   -1.198944
  C     -3.886131   -0.902438   -2.241416
  C     -3.651743   -2.337243   -1.816681
  H      3.590803   -1.689489   -2.403503
  H      1.837359   -1.590918   -2.152762
  H      2.538163   -1.029268   -3.669551
  H      1.948700    0.883995   -2.175461
  H      3.701217    0.817621   -2.498702
  H      5.057245   -0.040171    1.118107
  H      4.770760   -0.109253    2.880527
  H      5.115358   -2.391619    1.955429
  H      3.454314   -2.223464    2.545986
  H      3.786832   -2.149313    0.811594
  H     -0.275324    0.306883    1.694264
  H     -0.341551   -1.259312    2.588338
  H     -3.416075    3.100429    0.627809
  H     -4.088084    1.451622    0.773798
  H     -2.638516    0.994309    2.715503
  H     -1.770672    2.519546    2.461712
  H     -3.456860    2.535401    3.000854
  H     -4.939935   -0.706322   -2.444133
  H     -3.284846   -0.658666   -3.122752
  H     -4.025838   -3.003730   -2.587070
  H     -2.585467   -2.515716   -1.684063
  H     -4.161506   -2.544037   -0.878945

 Total Charge           Charge          ....    0
 Multiplicity           Mult            ....    1
 Number of Electrons    NEL             ....  202
 Basis Dimension        Dim             ....  334

ORBITAL ENERGIES
----------------

  NO   OCC          E(Eh)            E(eV)
   0   2.0000     -88.042538     -2395.7593
   1   2.0000     -88.035263     -2395.5613
   2   2.0000     -87.978707     -2394.0223
   3   2.0000     -87.973730     -2393.8869
   4   2.0000     -76.422877     -2079.5722
   5   2.0000     -76.419512     -2079.4806
   6   2.0000     -18.792293      -511.3643
   7   2.0000     -18.790824      -511.3243
   8   2.0000     -18.784976      -511.1652
   9   2.0000     -18.780244      -511.0364
  10   2.0000      -9.952275      -270.8152
  11   2.0000      -9.952192      -270.8129
  12   2.0000      -9.952179      -270.8125
  13   2.0000      -9.952065      -270.8094
  14   2.0000      -9.947304      -270.6799
  15   2.0000      -9.886238      -269.0182
  16   2.0000      -9.884144      -268.9612
  17   2.0000      -9.882071      -268.9048
  18   2.0000      -9.878578      -268.8098
  19   2.0000      -7.687441      -209.1859
  20   2.0000      -7.680017      -208.9839
  21   2.0000      -7.623836      -207.4551
  22   2.0000      -7.618931      -207.3217
  23   2.0000      -6.420165      -174.7016
  24   2.0000      -6.416906      -174.6129
  25   2.0000      -5.715136      -155.5168
  26   2.0000      -5.711967      -155.4305
  27   2.0000      -5.707861      -155.3188
  28   2.0000      -5.704646      -155.2313
  29   2.0000      -5.704600      -155.2301
  30   2.0000      -5.696947      -155.0218
  31   2.0000      -5.652829      -153.8213
  32   2.0000      -5.647984      -153.6895
  33   2.0000      -5.644339      -153.5903
  34   2.0000      -5.643962      -153.5800
  35   2.0000      -5.639846      -153.4680
  36   2.0000      -5.638609      -153.4343
  37   2.0000      -4.643181      -126.3474
  38   2.0000      -4.641906      -126.3127
  39   2.0000      -4.640307      -126.2692
  40   2.0000      -4.639989      -126.2605
  41   2.0000      -4.638514      -126.2204
  42   2.0000      -4.637048      -126.1805
  43   2.0000      -0.984309       -26.7844
  44   2.0000      -0.983278       -26.7563
  45   2.0000      -0.940972       -25.6051
  46   2.0000      -0.937647       -25.5147
  47   2.0000      -0.758197       -20.6316
  48   2.0000      -0.717486       -19.5238
  49   2.0000      -0.708711       -19.2850
  50   2.0000      -0.687711       -18.7136
  51   2.0000      -0.687289       -18.7021
  52   2.0000      -0.674992       -18.3675
  53   2.0000      -0.647430       -17.6175
  54   2.0000      -0.627639       -17.0789
  55   2.0000      -0.594122       -16.1669
  56   2.0000      -0.586387       -15.9564
  57   2.0000      -0.573858       -15.6155
  58   2.0000      -0.573436       -15.6040
  59   2.0000      -0.556201       -15.1350
  60   2.0000      -0.499055       -13.5800
  61   2.0000      -0.494244       -13.4491
  62   2.0000      -0.470217       -12.7953
  63   2.0000      -0.468708       -12.7542
  64   2.0000      -0.452120       -12.3028
  65   2.0000      -0.446038       -12.1373
  66   2.0000      -0.440929       -11.9983
  67   2.0000      -0.435212       -11.8427
  68   2.0000      -0.427581       -11.6351
  69   2.0000      -0.421467       -11.4687
  70   2.0000      -0.412930       -11.2364
  71   2.0000      -0.391025       -10.6403
  72   2.0000      -0.389463       -10.5978
  73   2.0000      -0.383492       -10.4353
  74   2.0000      -0.374549       -10.1920
  75   2.0000      -0.369707       -10.0602
  76   2.0000      -0.362310        -9.8590
  77   2.0000      -0.354202        -9.6383
  78   2.0000      -0.353076        -9.6077
  79   2.0000      -0.349432        -9.5085
  80   2.0000      -0.346574        -9.4308
  81   2.0000      -0.341877        -9.3029
  82   2.0000      -0.339556        -9.2398
  83   2.0000      -0.333915        -9.0863
  84   2.0000      -0.329206        -8.9581
  85   2.0000      -0.317342        -8.6353
  86   2.0000      -0.309985        -8.4351
  87   2.0000      -0.298078        -8.1111
  88   2.0000      -0.291014        -7.9189
  89   2.0000      -0.289763        -7.8849
  90   2.0000      -0.286189        -7.7876
  91   2.0000      -0.271565        -7.3896
  92   2.0000      -0.264499        -7.1974
  93   2.0000      -0.259327        -7.0566
  94   2.0000      -0.253407        -6.8955
  95   2.0000      -0.238084        -6.4786
  96   2.0000      -0.220979        -6.0131
  97   2.0000      -0.199989        -5.4420
  98   2.0000      -0.195070        -5.3081
  99   2.0000      -0.187166        -5.0931
 100   2.0000      -0.178725        -4.8634
 101   0.0000      -0.037197        -1.0122
 102   0.0000      -0.029125        -0.7925
 103   0.0000      -0.013237        -0.3602
 104   0.0000       0.004360         0.1187
 105   0.0000       0.020163         0.5487

MULLIKEN ATOMIC CHARGES
-----------------------
   0 C :   -0.312806
   1 C :   -0.012446
   2 O :   -0.385531
   3 P :    0.611585
   4 S :   -0.301081
   5 O :   -0.366042
   6 C :    0.006893
   7 C :   -0.318378
   8 S :   -0.101437
   9 C :   -0.359734
  10 S :   -0.113095
  11 P :    0.616787
  12 S :   -0.313481
  13 O :   -0.349514
  14 C :   -0.011566
  15 C :   -0.305136
  16 O :   -0.384241
  17 C :    0.001938
  18 C :   -0.325814
  19 H :    0.109276
  20 H :    0.141022
  21 H :    0.111893
  22 H :    0.133283
  23 H :    0.103649
  24 H :    0.108474
  25 H :    0.107616
  26 H :    0.111714
  27 H :    0.119861
  28 H :    0.125393
  29 H :    0.205008
  30 H :    0.180275
  31 H :    0.111523
  32 H :    0.107195
  33 H :    0.117873
  34 H :    0.137296
  35 H :    0.109443
  36 H :    0.104064
  37 H :    0.112617
  38 H :    0.114637
  39 H :    0.132558
  40 H :    0.118432
Sum of atomic charges:    0.0000000

LOEWDIN ATOMIC CHARGES
----------------------
   0 C :   -0.366069
   1 C :   -0.114763
   2 O :   -0.240087
   3 P :    0.568800
   4 S :   -0.301396
   5 O :   -0.246055
   6 C :   -0.109247
   7 C :   -0.368991
   8 S :    0.072461
   9 C :   -0.485772
  10 S :    0.072944
  11 P :    0.572648
  12 S :   -0.302597
  13 O :   -0.229788
  14 C :   -0.109946
  15 C :   -0.365244
  16 O :   -0.249709
  17 C :   -0.117204
  18 C :   -0.373332
  19 H :    0.121060
  20 H :    0.122550
  21 H :    0.132118
  22 H :    0.112286
  23 H :    0.118106
  24 H :    0.114006
  25 H :    0.121020
  26 H :    0.130089
  27 H :    0.125368
  28 H :    0.117111
  29 H :    0.121864
  30 H :    0.135208
  31 H :    0.123096
  32 H :    0.110494
  33 H :    0.117742
  34 H :    0.132954
  35 H :    0.129378
  36 H :    0.118174
  37 H :    0.112545
  38 H :    0.132119
  39 H :    0.123190
  40 H :    0.122871

  Mayer bond orders larger than 0.100000
B(  0-C ,  1-C ) :   1.1721 B(  0-C , 19-H ) :   0.9456 B(  0-C , 20-H ) :   0.9309
B(  0-C , 21-H ) :   0.9400 B(  1-C ,  2-O ) :   0.8941 B(  1-C , 22-H ) :   0.9034
B(  1-C , 23-H ) :   0.9338 B(  2-O ,  3-P ) :   1.0966 B(  3-P ,  4-S ) :   1.6487
B(  3-P ,  5-O ) :   1.1192 B(  3-P ,  8-S ) :   0.9431 B(  4-S ,  8-S ) :   0.1177
B(  4-S , 29-H ) :   0.1125 B(  5-O ,  6-C ) :   0.9077 B(  6-C ,  7-C ) :   1.1688
B(  6-C , 24-H ) :   0.9278 B(  6-C , 25-H ) :   0.9352 B(  7-C , 26-H ) :   0.9359
B(  7-C , 27-H ) :   0.9430 B(  7-C , 28-H ) :   0.9383 B(  8-S ,  9-C ) :   0.9982
B(  9-C , 10-S ) :   0.9914 B(  9-C , 29-H ) :   0.8384 B(  9-C , 30-H ) :   0.9111
B( 10-S , 11-P ) :   0.9454 B( 10-S , 12-S ) :   0.1129 B( 11-P , 12-S ) :   1.6511
B( 11-P , 13-O ) :   1.1409 B( 11-P , 16-O ) :   1.0811 B( 13-O , 14-C ) :   0.8973
B( 14-C , 15-C ) :   1.1694 B( 14-C , 31-H ) :   0.9347 B( 14-C , 32-H ) :   0.9189
B( 15-C , 33-H ) :   0.9343 B( 15-C , 34-H ) :   0.9361 B( 15-C , 35-H ) :   0.9384
B( 16-O , 17-C ) :   0.9064 B( 17-C , 18-C ) :   1.1652 B( 17-C , 36-H ) :   0.9338
B( 17-C , 37-H ) :   0.9167 B( 18-C , 38-H ) :   0.9371 B( 18-C , 39-H ) :   0.9324
B( 18-C , 40-H ) :   0.9427

Dispersion correction           -0.067259609
FINAL SINGLE POINT ENERGY     -2929.510534222026

DIPOLE MOMENT
-------------

Method             : SCF
Type of density    : Electron Density
Multiplicity       :   1
Irrep              :   0
Energy             : -2929.6286480590674728 Eh
Relativity type    :
Basis              : AO
                                X                 Y                 Z
Electronic contribution:     -0.940139121       8.271767084       0.623985931
Nuclear contribution   :      0.700637785      -9.254612853      -0.332943170
                        -----------------------------------------
Total Dipole Moment    :     -0.239501337      -0.982845769       0.291042761
                        -----------------------------------------
Magnitude (a.u.)       :      1.052640767
Magnitude (Debye)      :      2.675600196

Rotational constants in cm-1:             0.012284             0.005358             0.004868
Rotational constants in MHz :           368.251013           160.626389           145.937284

                             ****ORCA TERMINATED NORMALLY****
TOTAL RUN TIME: 0 days 0 hours 0 minutes 21 seconds 259 msec
