                         Program Version 6.0.0  -   RELEASE  -
|  1> ! pbe def2-sv(p) def2/J RI DEFGRID1 loosescf d4 GCP(DFT/SV(P)) printgap
|  2> %output
|  3>     printlevel normal
|  4> end
|  5> * xyz 0 1
|  6> C 0.973978183 1.4892523332 2.4312907895
|  7> C 2.3843440113 0.9367995459 2.463069433
|  8> O 2.9312385944 0.7843819286 1.1434407079
|  9> P 2.5045580578 -0.3996409797 0.1697441415
| 10> S 2.210164094 -2.1310086222 1.0504927506
| 11> O 3.6642085887 -0.37093834 -0.9086973308
| 12> C 4.8830533096 -1.1269242652 -0.7532025532
| 13> C 5.7446597749 -0.5941677488 0.3725720026
| 14> S 0.9655898254 0.3952638317 -1.0463766068
| 15> C -0.0921775318 -1.0779947434 -1.137947308
| 16> S -1.2143207313 -1.241027782 0.2793719354
| 17> P -2.5113702834 0.3199964871 -0.288462276
| 18> S -2.9212992564 0.500449085 -2.2023952872
| 19> O -1.7772002923 1.5326376997 0.4150747582
| 20> C -2.1171965052 2.9106244035 0.1380937594
| 21> C -1.182394377 3.4906003258 -0.9050164214
| 22> O -3.7977165873 0.1648720027 0.6344832206
| 23> C -4.9409182363 -0.6130859648 0.2390662728
| 24> C -4.633066031 -2.0961403675 0.2068487664
| 25> H 0.9421739021 2.4076491114 1.8505857789
| 26> H 0.2932275802 0.7681120474 1.9804332038
| 27> H 0.6434750367 1.692244423 3.4449137592
| 28> H 2.4061234832 -0.0368716167 2.964213327
| 29> H 3.0719462782 1.6247280526 2.9573728404
| 30> H 4.6190642012 -2.1742065586 -0.5744202936
| 31> H 5.3749466921 -1.0272233797 -1.7216123849
| 32> H 5.9125248496 0.4718306294 0.2438638739
| 33> H 5.2510831538 -0.7608501675 1.3288475884
| 34> H 6.6976614984 -1.1139788111 0.3723861949
| 35> H 0.5214753497 -1.976174555 -1.151315803
| 36> H -0.6823104572 -0.9818442067 -2.0493164792
| 37> H -3.1575879027 2.967622013 -0.1931520274
| 38> H -2.0103897906 3.4166988586 1.0988432643
| 39> H -0.1486184246 3.3629010872 -0.5959682367
| 40> H -1.3187043845 2.982586787 -1.8572059026
| 41> H -1.3961667509 4.546979865 -1.0316128486
| 42> H -5.694494014 -0.3728313854 0.9901355027
| 43> H -5.2707185761 -0.2671918739 -0.7460271738
| 44> H -4.2030001132 -2.413384048 1.1535646749
| 45> H -5.5474214432 -2.6502977893 0.0207723313
| 46> H -3.921296251 -2.3111621344 -0.5893178906
| 47> *
| 48>
| 49>                          ****END OF INPUT****

CARTESIAN COORDINATES (ANGSTROEM)
---------------------------------
  C      0.973978    1.489252    2.431291
  C      2.384344    0.936800    2.463069
  O      2.931239    0.784382    1.143441
  P      2.504558   -0.399641    0.169744
  S      2.210164   -2.131009    1.050493
  O      3.664209   -0.370938   -0.908697
  C      4.883053   -1.126924   -0.753203
  C      5.744660   -0.594168    0.372572
  S      0.965590    0.395264   -1.046377
  C     -0.092178   -1.077995   -1.137947
  S     -1.214321   -1.241028    0.279372
  P     -2.511370    0.319996   -0.288462
  S     -2.921299    0.500449   -2.202395
  O     -1.777200    1.532638    0.415075
  C     -2.117197    2.910624    0.138094
  C     -1.182394    3.490600   -0.905016
  O     -3.797717    0.164872    0.634483
  C     -4.940918   -0.613086    0.239066
  C     -4.633066   -2.096140    0.206849
  H      0.942174    2.407649    1.850586
  H      0.293228    0.768112    1.980433
  H      0.643475    1.692244    3.444914
  H      2.406123   -0.036872    2.964213
  H      3.071946    1.624728    2.957373
  H      4.619064   -2.174207   -0.574420
  H      5.374947   -1.027223   -1.721612
  H      5.912525    0.471831    0.243864
  H      5.251083   -0.760850    1.328848
  H      6.697661   -1.113979    0.372386
  H      0.521475   -1.976175   -1.151316
  H     -0.682310   -0.981844   -2.049316
  H     -3.157588    2.967622   -0.193152
  H     -2.010390    3.416699    1.098843
  H     -0.148618    3.362901   -0.595968
  H     -1.318704    2.982587   -1.857206
  H     -1.396167    4.546980   -1.031613
  H     -5.694494   -0.372831    0.990136
  H     -5.270719   -0.267192   -0.746027
  H     -4.203000   -2.413384    1.153565
  H     -5.547421   -2.650298    0.020772
  H     -3.921296   -2.311162   -0.589318

 Total Charge           Charge          ....    0
 Multiplicity           Mult            ....    1
 Number of Electrons    NEL             ....  202
 Basis Dimension        Dim             ....  334

ORBITAL ENERGIES
----------------

  NO   OCC          E(Eh)            E(eV)
   0   2.0000     -88.043279     -2395.7794
   1   2.0000     -88.040370     -2395.7003
   2   2.0000     -87.992793     -2394.4056
   3   2.0000     -87.989997     -2394.3295
   4   2.0000     -76.426817     -2079.6794
   5   2.0000     -76.426684     -2079.6758
   6   2.0000     -18.794075      -511.4128
   7   2.0000     -18.793108      -511.3865
   8   2.0000     -18.790123      -511.3052
   9   2.0000     -18.789153      -511.2788
  10   2.0000      -9.953705      -270.8541
  11   2.0000      -9.953679      -270.8534
  12   2.0000      -9.952518      -270.8218
  13   2.0000      -9.951676      -270.7989
  14   2.0000      -9.950267      -270.7605
  15   2.0000      -9.884366      -268.9673
  16   2.0000      -9.884075      -268.9594
  17   2.0000      -9.878985      -268.8208
  18   2.0000      -9.878272      -268.8014
  19   2.0000      -7.688086      -209.2035
  20   2.0000      -7.685594      -209.1357
  21   2.0000      -7.637636      -207.8306
  22   2.0000      -7.634881      -207.7557
  23   2.0000      -6.424683      -174.8245
  24   2.0000      -6.424519      -174.8201
  25   2.0000      -5.715875      -155.5369
  26   2.0000      -5.713468      -155.4714
  27   2.0000      -5.712772      -155.4524
  28   2.0000      -5.710268      -155.3843
  29   2.0000      -5.704966      -155.2400
  30   2.0000      -5.702323      -155.1681
  31   2.0000      -5.666397      -154.1905
  32   2.0000      -5.663617      -154.1149
  33   2.0000      -5.658330      -153.9710
  34   2.0000      -5.657927      -153.9600
  35   2.0000      -5.655623      -153.8973
  36   2.0000      -5.655124      -153.8838
  37   2.0000      -4.647057      -126.4528
  38   2.0000      -4.646946      -126.4498
  39   2.0000      -4.646409      -126.4352
  40   2.0000      -4.646159      -126.4284
  41   2.0000      -4.645417      -126.4082
  42   2.0000      -4.645068      -126.3987
  43   2.0000      -0.987616       -26.8744
  44   2.0000      -0.986454       -26.8428
  45   2.0000      -0.945760       -25.7354
  46   2.0000      -0.945505       -25.7285
  47   2.0000      -0.763990       -20.7892
  48   2.0000      -0.722332       -19.6557
  49   2.0000      -0.707319       -19.2471
  50   2.0000      -0.685983       -18.6665
  51   2.0000      -0.685429       -18.6515
  52   2.0000      -0.673956       -18.3393
  53   2.0000      -0.652403       -17.7528
  54   2.0000      -0.640412       -17.4265
  55   2.0000      -0.604265       -16.4429
  56   2.0000      -0.593580       -16.1521
  57   2.0000      -0.574552       -15.6343
  58   2.0000      -0.570851       -15.5336
  59   2.0000      -0.556098       -15.1322
  60   2.0000      -0.500978       -13.6323
  61   2.0000      -0.493489       -13.4285
  62   2.0000      -0.474129       -12.9017
  63   2.0000      -0.469856       -12.7854
  64   2.0000      -0.460132       -12.5208
  65   2.0000      -0.441842       -12.0231
  66   2.0000      -0.439549       -11.9607
  67   2.0000      -0.437689       -11.9101
  68   2.0000      -0.429672       -11.6920
  69   2.0000      -0.415505       -11.3065
  70   2.0000      -0.405232       -11.0269
  71   2.0000      -0.396640       -10.7931
  72   2.0000      -0.393402       -10.7050
  73   2.0000      -0.387904       -10.5554
  74   2.0000      -0.380167       -10.3449
  75   2.0000      -0.378082       -10.2881
  76   2.0000      -0.368366       -10.0237
  77   2.0000      -0.356784        -9.7086
  78   2.0000      -0.353002        -9.6057
  79   2.0000      -0.350141        -9.5278
  80   2.0000      -0.346888        -9.4393
  81   2.0000      -0.343676        -9.3519
  82   2.0000      -0.342121        -9.3096
  83   2.0000      -0.337996        -9.1973
  84   2.0000      -0.331984        -9.0337
  85   2.0000      -0.318019        -8.6537
  86   2.0000      -0.308170        -8.3857
  87   2.0000      -0.297754        -8.1023
  88   2.0000      -0.293718        -7.9925
  89   2.0000      -0.286745        -7.8027
  90   2.0000      -0.284619        -7.7449
  91   2.0000      -0.277941        -7.5632
  92   2.0000      -0.273125        -7.4321
  93   2.0000      -0.264852        -7.2070
  94   2.0000      -0.262365        -7.1393
  95   2.0000      -0.232205        -6.3186
  96   2.0000      -0.219311        -5.9678
  97   2.0000      -0.213700        -5.8151
  98   2.0000      -0.208270        -5.6673
  99   2.0000      -0.205694        -5.5972
 100   2.0000      -0.202286        -5.5045
 101   0.0000      -0.043668        -1.1883
 102   0.0000      -0.029617        -0.8059
 103   0.0000      -0.005507        -0.1498
 104   0.0000       0.003311         0.0901
 105   0.0000       0.013801         0.3755

MULLIKEN ATOMIC CHARGES
-----------------------
   0 C :   -0.336720
   1 C :   -0.005630
   2 O :   -0.372256
   3 P :    0.613467
   4 S :   -0.335586
   5 O :   -0.365826
   6 C :   -0.003029
   7 C :   -0.307315
   8 S :   -0.067349
   9 C :   -0.366696
  10 S :   -0.055946
  11 P :    0.607093
  12 S :   -0.340632
  13 O :   -0.357505
  14 C :    0.001943
  15 C :   -0.303382
  16 O :   -0.372707
  17 C :   -0.004806
  18 C :   -0.317301
  19 H :    0.116979
  20 H :    0.153231
  21 H :    0.107134
  22 H :    0.110079
  23 H :    0.102070
  24 H :    0.110270
  25 H :    0.106907
  26 H :    0.118446
  27 H :    0.121954
  28 H :    0.111956
  29 H :    0.190305
  30 H :    0.194419
  31 H :    0.102468
  32 H :    0.106763
  33 H :    0.126369
  34 H :    0.126812
  35 H :    0.106408
  36 H :    0.105474
  37 H :    0.111813
  38 H :    0.119685
  39 H :    0.113923
  40 H :    0.126717
Sum of atomic charges:   -0.0000000

LOEWDIN ATOMIC CHARGES
----------------------
   0 C :   -0.370391
   1 C :   -0.120214
   2 O :   -0.243220
   3 P :    0.572876
   4 S :   -0.317905
   5 O :   -0.244771
   6 C :   -0.116234
   7 C :   -0.364403
   8 S :    0.100504
   9 C :   -0.482595
  10 S :    0.108716
  11 P :    0.570091
  12 S :   -0.325639
  13 O :   -0.236655
  14 C :   -0.110589
  15 C :   -0.364117
  16 O :   -0.245731
  17 C :   -0.120020
  18 C :   -0.369208
  19 H :    0.122330
  20 H :    0.120489
  21 H :    0.129187
  22 H :    0.108758
  23 H :    0.116851
  24 H :    0.110448
  25 H :    0.119834
  26 H :    0.127221
  27 H :    0.122741
  28 H :    0.130230
  29 H :    0.130815
  30 H :    0.129086
  31 H :    0.109956
  32 H :    0.118641
  33 H :    0.123680
  34 H :    0.124367
  35 H :    0.127645
  36 H :    0.118800
  37 H :    0.110210
  38 H :    0.125457
  39 H :    0.131514
  40 H :    0.121247

  Mayer bond orders larger than 0.100000
B(  0-C ,  1-C ) :   1.1629 B(  0-C , 19-H ) :   0.9420 B(  0-C , 20-H ) :   0.9245
B(  0-C , 21-H ) :   0.9374 B(  1-C ,  2-O ) :   0.9087 B(  1-C , 22-H ) :   0.9129
B(  1-C , 23-H ) :   0.9331 B(  2-O ,  3-P ) :   1.1075 B(  3-P ,  4-S ) :   1.5900
B(  3-P ,  5-O ) :   1.1334 B(  3-P ,  8-S ) :   0.9654 B(  4-S ,  8-S ) :   0.1136
B(  5-O ,  6-C ) :   0.9118 B(  6-C ,  7-C ) :   1.1630 B(  6-C , 24-H ) :   0.9179
B(  6-C , 25-H ) :   0.9353 B(  7-C , 26-H ) :   0.9461 B(  7-C , 27-H ) :   0.9388
B(  7-C , 28-H ) :   0.9385 B(  8-S ,  9-C ) :   1.0060 B(  9-C , 10-S ) :   1.0049
B(  9-C , 29-H ) :   0.8841 B(  9-C , 30-H ) :   0.8715 B( 10-S , 11-P ) :   0.9663
B( 10-S , 12-S ) :   0.1088 B( 11-P , 12-S ) :   1.5813 B( 11-P , 13-O ) :   1.1357
B( 11-P , 16-O ) :   1.1121 B( 13-O , 14-C ) :   0.8899 B( 14-C , 15-C ) :   1.1709
B( 14-C , 31-H ) :   0.9167 B( 14-C , 32-H ) :   0.9332 B( 15-C , 33-H ) :   0.9426
B( 15-C , 34-H ) :   0.9344 B( 15-C , 35-H ) :   0.9391 B( 16-O , 17-C ) :   0.9086
B( 17-C , 18-C ) :   1.1645 B( 17-C , 36-H ) :   0.9336 B( 17-C , 37-H ) :   0.9149
B( 18-C , 38-H ) :   0.9452 B( 18-C , 39-H ) :   0.9381 B( 18-C , 40-H ) :   0.9353

Dispersion correction           -0.065320727
FINAL SINGLE POINT ENERGY     -2929.526211065768

DIPOLE MOMENT
-------------

Method             : SCF
Type of density    : Electron Density
Multiplicity       :   1
Irrep              :   0
Energy             : -2929.6453837767721780 Eh
Relativity type    :
Basis              : AO
                                X                 Y                 Z
Electronic contribution:     -2.177018408      -7.255020297      -6.922183113
Nuclear contribution   :      2.284644105       7.825215698       7.588432011
                        -----------------------------------------
Total Dipole Moment    :      0.107625697       0.570195401       0.666248898
                        -----------------------------------------
Magnitude (a.u.)       :      0.883512127
Magnitude (Debye)      :      2.245709358

Rotational constants in cm-1:             0.014097             0.004466             0.004198
Rotational constants in MHz :           422.622753           133.891217           125.840550

                             ****ORCA TERMINATED NORMALLY****
TOTAL RUN TIME: 0 days 0 hours 0 minutes 21 seconds 27 msec
