                         Program Version 6.0.0  -   RELEASE  -
|  1> ! pbe def2-sv(p) def2/J RI DEFGRID1 loosescf d4 GCP(DFT/SV(P)) printgap
|  2> %output
|  3>     printlevel normal
|  4> end
|  5> * xyz 0 1
|  6> C -1.3775312222 -0.0241975555 -0.4000406689
|  7> C -0.735219367 -1.1855756165 0.3533547014
|  8> C 0.7648387438 -1.221524134 0.0194056744
|  9> O 1.256388526 0.0354637127 -0.4190585979
| 10> C 0.7336837659 1.1087555229 0.3402169857
| 11> C -0.7777849238 1.292387877 0.103322307
| 12> H -2.458105816 -0.0239332613 -0.2607853082
| 13> H -1.1675162649 -0.1368408235 -1.4654724318
| 14> H -0.8805830348 -1.0400420301 1.4251596736
| 15> H -1.1933677385 -2.1330238044 0.0735331318
| 16> H 1.3452800038 -1.5526084202 0.8942458567
| 17> H 0.9680937805 -1.9004075824 -0.8113987288
| 18> H 0.9387146766 0.9295941553 1.4053553062
| 19> H 1.2970797356 1.9873959836 0.0225695508
| 20> H -1.2526645458 1.5878398344 1.0392100441
| 21> H -0.9526520663 2.0784150758 -0.630739005
| 22> *
| 23>
| 24>                          ****END OF INPUT****

CARTESIAN COORDINATES (ANGSTROEM)
---------------------------------
  C     -1.377531   -0.024198   -0.400041
  C     -0.735219   -1.185576    0.353355
  C      0.764839   -1.221524    0.019406
  O      1.256389    0.035464   -0.419059
  C      0.733684    1.108756    0.340217
  C     -0.777785    1.292388    0.103322
  H     -2.458106   -0.023933   -0.260785
  H     -1.167516   -0.136841   -1.465472
  H     -0.880583   -1.040042    1.425160
  H     -1.193368   -2.133024    0.073533
  H      1.345280   -1.552608    0.894246
  H      0.968094   -1.900408   -0.811399
  H      0.938715    0.929594    1.405355
  H      1.297080    1.987396    0.022570
  H     -1.252665    1.587840    1.039210
  H     -0.952652    2.078415   -0.630739

 Total Charge           Charge          ....    0
 Multiplicity           Mult            ....    1
 Number of Electrons    NEL             ....   48
 Basis Dimension        Dim             ....  104

ORBITAL ENERGIES
----------------

  NO   OCC          E(Eh)            E(eV)
   0   2.0000     -18.746397      -510.1154
   1   2.0000      -9.925850      -270.0961
   2   2.0000      -9.925337      -270.0821
   3   2.0000      -9.886103      -269.0145
   4   2.0000      -9.885977      -269.0111
   5   2.0000      -9.883056      -268.9316
   6   2.0000      -0.931069       -25.3357
   7   2.0000      -0.717207       -19.5162
   8   2.0000      -0.681075       -18.5330
   9   2.0000      -0.575820       -15.6689
  10   2.0000      -0.567935       -15.4543
  11   2.0000      -0.474851       -12.9213
  12   2.0000      -0.449521       -12.2321
  13   2.0000      -0.436531       -11.8786
  14   2.0000      -0.420581       -11.4446
  15   2.0000      -0.371748       -10.1158
  16   2.0000      -0.367532       -10.0010
  17   2.0000      -0.335935        -9.1412
  18   2.0000      -0.321425        -8.7464
  19   2.0000      -0.316513        -8.6127
  20   2.0000      -0.300001        -8.1635
  21   2.0000      -0.280830        -7.6418
  22   2.0000      -0.246504        -6.7077
  23   2.0000      -0.196928        -5.3587
  24   0.0000       0.028720         0.7815
  25   0.0000       0.055743         1.5169
  26   0.0000       0.069389         1.8882
  27   0.0000       0.082241         2.2379
  28   0.0000       0.093715         2.5501

MULLIKEN ATOMIC CHARGES
-----------------------
   0 C :   -0.164522
   1 C :   -0.227144
   2 C :    0.039422
   3 O :   -0.340394
   4 C :    0.013861
   5 C :   -0.171468
   6 H :    0.089493
   7 H :    0.096281
   8 H :    0.087463
   9 H :    0.094807
  10 H :    0.071254
  11 H :    0.087045
  12 H :    0.062792
  13 H :    0.092649
  14 H :    0.080808
  15 H :    0.087653
Sum of atomic charges:   -0.0000000

LOEWDIN ATOMIC CHARGES
----------------------
   0 C :   -0.225144
   1 C :   -0.252583
   2 C :   -0.110233
   3 O :   -0.177313
   4 C :   -0.112248
   5 C :   -0.249325
   6 H :    0.118520
   7 H :    0.120948
   8 H :    0.114656
   9 H :    0.123510
  10 H :    0.094771
  11 H :    0.110888
  12 H :    0.093035
  13 H :    0.113882
  14 H :    0.117246
  15 H :    0.119391

  Mayer bond orders larger than 0.100000
B(  0-C ,  1-C ) :   1.1259 B(  0-C ,  5-C ) :   1.1451 B(  0-C ,  6-H ) :   0.9248
B(  0-C ,  7-H ) :   0.9183 B(  1-C ,  2-C ) :   1.0907 B(  1-C ,  8-H ) :   0.9278
B(  1-C ,  9-H ) :   0.9196 B(  2-C ,  3-O ) :   1.0365 B(  2-C , 10-H ) :   0.9283
B(  2-C , 11-H ) :   0.9339 B(  3-O ,  4-C ) :   1.0574 B(  4-C ,  5-C ) :   1.1068
B(  4-C , 12-H ) :   0.9151 B(  4-C , 13-H ) :   0.9398 B(  5-C , 14-H ) :   0.9169
B(  5-C , 15-H ) :   0.9211

Dispersion correction           -0.012583271
FINAL SINGLE POINT ENERGY      -271.119308277799

DIPOLE MOMENT
-------------

Method             : SCF
Type of density    : Electron Density
Multiplicity       :   1
Irrep              :   0
Energy             :  -271.1814086614752455 Eh
Relativity type    :
Basis              : AO
                                X                 Y                 Z
Electronic contribution:      2.710817625       0.135775799      -1.292502343
Nuclear contribution   :     -3.129560155      -0.190494684       1.580853466
                        -----------------------------------------
Total Dipole Moment    :     -0.418742530      -0.054718885       0.288351124
                        -----------------------------------------
Magnitude (a.u.)       :      0.511356855
Magnitude (Debye)      :      1.299765832

Rotational constants in cm-1:             0.157178             0.149565             0.090622
Rotational constants in MHz :          4712.072382          4483.854842          2716.772291

                             ****ORCA TERMINATED NORMALLY****
TOTAL RUN TIME: 0 days 0 hours 0 minutes 22 seconds 539 msec
