                         Program Version 6.0.0  -   RELEASE  -
|  1> ! pbe def2-sv(p) def2/J RI DEFGRID1 loosescf d4 GCP(DFT/SV(P)) printgap
|  2> %output
|  3>     printlevel normal
|  4> end
|  5> * xyz 0 1
|  6> C 4.6773610409 -0.0986261107 -1.8711754925
|  7> C 4.5115483459 0.9708798863 -0.8114479416
|  8> O 3.6021273581 0.5740663702 0.2304622594
|  9> P 2.0476658331 0.3560258143 -0.019917134
| 10> S 1.1945477879 1.6442025558 -1.2255342601
| 11> O 1.4687840786 0.445466719 1.4470830155
| 12> C 2.0830009348 -0.1826956941 2.6091584821
| 13> C 1.3855220955 -1.4780044471 2.9723179414
| 14> S 1.9253514889 -1.6829344775 -0.6073098866
| 15> C 0.1902751853 -1.6959286452 -1.1070930861
| 16> S -0.959942708 -1.4739276084 0.2856454656
| 17> P -2.0364499294 0.2473944978 -0.345356944
| 18> S -2.0670363532 0.5525174874 -2.2761833656
| 19> O -1.5087051463 1.4689597662 0.4972382401
| 20> C -1.5261485523 1.4913367449 1.9462194127
| 21> C -2.714168853 2.2793421309 2.4563154847
| 22> O -3.4705849762 0.0160144335 0.307194999
| 23> C -4.4335114412 -0.90052491 -0.2497701944
| 24> C -4.4418517293 -2.2152019942 0.5061249952
| 25> H 4.9196411446 -1.0538138845 -1.4121745328
| 26> H 3.7555958495 -0.2047353702 -2.4411884322
| 27> H 5.4751806767 0.1903162509 -2.5478076054
| 28> H 4.1409895391 1.8995919587 -1.2560851253
| 29> H 5.4449769548 1.159613635 -0.2790836192
| 30> H 3.1416495047 -0.3438563682 2.4027335484
| 31> H 1.9717069575 0.5613792725 3.3995434212
| 32> H 1.5158781251 -2.2227554061 2.1915455477
| 33> H 1.8147954514 -1.8547366755 3.8953210544
| 34> H 0.3217902629 -1.3107250434 3.1159561227
| 35> H 0.0092238638 -2.6765270678 -1.5396720819
| 36> H 0.0020732958 -0.9034270944 -1.837035893
| 37> H -1.5433861812 0.4615069622 2.3138830479
| 38> H -0.5810419666 1.9642593746 2.2207543728
| 39> H -2.6609876976 2.337963806 3.538960997
| 40> H -2.6993916641 3.2829945403 2.0398230206
| 41> H -3.6412618662 1.7928697192 2.1653965814
| 42> H -5.3915680959 -0.3857298406 -0.1540751956
| 43> H -4.2093017444 -1.0448385461 -1.3115906668
| 44> H -4.6330093986 -2.0367275651 1.5603326444
| 45> H -5.2273190717 -2.8456775029 0.1021642111
| 46> H -3.4875827753 -2.7253297431 0.4040027635
| 47> *
| 48>
| 49>                          ****END OF INPUT****

CARTESIAN COORDINATES (ANGSTROEM)
---------------------------------
  C      4.677361   -0.098626   -1.871175
  C      4.511548    0.970880   -0.811448
  O      3.602127    0.574066    0.230462
  P      2.047666    0.356026   -0.019917
  S      1.194548    1.644203   -1.225534
  O      1.468784    0.445467    1.447083
  C      2.083001   -0.182696    2.609158
  C      1.385522   -1.478004    2.972318
  S      1.925351   -1.682934   -0.607310
  C      0.190275   -1.695929   -1.107093
  S     -0.959943   -1.473928    0.285645
  P     -2.036450    0.247394   -0.345357
  S     -2.067036    0.552517   -2.276183
  O     -1.508705    1.468960    0.497238
  C     -1.526149    1.491337    1.946219
  C     -2.714169    2.279342    2.456315
  O     -3.470585    0.016014    0.307195
  C     -4.433511   -0.900525   -0.249770
  C     -4.441852   -2.215202    0.506125
  H      4.919641   -1.053814   -1.412175
  H      3.755596   -0.204735   -2.441188
  H      5.475181    0.190316   -2.547808
  H      4.140990    1.899592   -1.256085
  H      5.444977    1.159614   -0.279084
  H      3.141650   -0.343856    2.402734
  H      1.971707    0.561379    3.399543
  H      1.515878   -2.222755    2.191546
  H      1.814795   -1.854737    3.895321
  H      0.321790   -1.310725    3.115956
  H      0.009224   -2.676527   -1.539672
  H      0.002073   -0.903427   -1.837036
  H     -1.543386    0.461507    2.313883
  H     -0.581042    1.964259    2.220754
  H     -2.660988    2.337964    3.538961
  H     -2.699392    3.282995    2.039823
  H     -3.641262    1.792870    2.165397
  H     -5.391568   -0.385730   -0.154075
  H     -4.209302   -1.044839   -1.311591
  H     -4.633009   -2.036728    1.560333
  H     -5.227319   -2.845678    0.102164
  H     -3.487583   -2.725330    0.404003

 Total Charge           Charge          ....    0
 Multiplicity           Mult            ....    1
 Number of Electrons    NEL             ....  202
 Basis Dimension        Dim             ....  334

ORBITAL ENERGIES
----------------

  NO   OCC          E(Eh)            E(eV)
   0   2.0000     -88.043280     -2395.7795
   1   2.0000     -88.039513     -2395.6769
   2   2.0000     -87.979435     -2394.0421
   3   2.0000     -87.977417     -2393.9872
   4   2.0000     -76.423890     -2079.5998
   5   2.0000     -76.420261     -2079.5010
   6   2.0000     -18.794173      -511.4155
   7   2.0000     -18.790320      -511.3106
   8   2.0000     -18.789468      -511.2874
   9   2.0000     -18.782888      -511.1084
  10   2.0000      -9.957542      -270.9585
  11   2.0000      -9.954087      -270.8645
  12   2.0000      -9.952697      -270.8267
  13   2.0000      -9.949488      -270.7393
  14   2.0000      -9.949186      -270.7311
  15   2.0000      -9.885976      -269.0111
  16   2.0000      -9.884459      -268.9698
  17   2.0000      -9.883393      -268.9408
  18   2.0000      -9.881043      -268.8769
  19   2.0000      -7.688281      -209.2088
  20   2.0000      -7.684154      -209.0965
  21   2.0000      -7.624340      -207.4688
  22   2.0000      -7.622672      -207.4235
  23   2.0000      -6.421280      -174.7319
  24   2.0000      -6.417752      -174.6359
  25   2.0000      -5.716061      -155.5419
  26   2.0000      -5.712705      -155.4506
  27   2.0000      -5.711947      -155.4300
  28   2.0000      -5.708546      -155.3374
  29   2.0000      -5.705432      -155.2527
  30   2.0000      -5.701309      -155.1405
  31   2.0000      -5.653400      -153.8368
  32   2.0000      -5.651763      -153.7923
  33   2.0000      -5.644894      -153.6054
  34   2.0000      -5.644458      -153.5935
  35   2.0000      -5.643050      -153.5552
  36   2.0000      -5.642839      -153.5494
  37   2.0000      -4.644262      -126.3768
  38   2.0000      -4.642962      -126.3414
  39   2.0000      -4.641423      -126.2995
  40   2.0000      -4.640551      -126.2758
  41   2.0000      -4.639474      -126.2465
  42   2.0000      -4.638056      -126.2079
  43   2.0000      -0.987967       -26.8839
  44   2.0000      -0.982872       -26.7453
  45   2.0000      -0.943862       -25.6838
  46   2.0000      -0.938144       -25.5282
  47   2.0000      -0.760707       -20.6999
  48   2.0000      -0.718169       -19.5424
  49   2.0000      -0.709248       -19.2996
  50   2.0000      -0.690481       -18.7889
  51   2.0000      -0.686868       -18.6906
  52   2.0000      -0.675961       -18.3938
  53   2.0000      -0.647034       -17.6067
  54   2.0000      -0.630019       -17.1437
  55   2.0000      -0.595874       -16.2145
  56   2.0000      -0.586599       -15.9622
  57   2.0000      -0.577890       -15.7252
  58   2.0000      -0.568101       -15.4588
  59   2.0000      -0.558942       -15.2096
  60   2.0000      -0.503291       -13.6952
  61   2.0000      -0.497608       -13.5406
  62   2.0000      -0.475052       -12.9268
  63   2.0000      -0.472539       -12.8584
  64   2.0000      -0.448734       -12.2107
  65   2.0000      -0.446604       -12.1527
  66   2.0000      -0.444440       -12.0938
  67   2.0000      -0.434139       -11.8135
  68   2.0000      -0.430350       -11.7104
  69   2.0000      -0.421394       -11.4667
  70   2.0000      -0.409531       -11.1439
  71   2.0000      -0.393885       -10.7182
  72   2.0000      -0.386845       -10.5266
  73   2.0000      -0.383962       -10.4481
  74   2.0000      -0.375665       -10.2224
  75   2.0000      -0.368236       -10.0202
  76   2.0000      -0.363954        -9.9037
  77   2.0000      -0.359389        -9.7795
  78   2.0000      -0.353898        -9.6300
  79   2.0000      -0.352202        -9.5839
  80   2.0000      -0.349008        -9.4970
  81   2.0000      -0.347347        -9.4518
  82   2.0000      -0.339350        -9.2342
  83   2.0000      -0.335658        -9.1337
  84   2.0000      -0.330726        -8.9995
  85   2.0000      -0.317496        -8.6395
  86   2.0000      -0.313209        -8.5229
  87   2.0000      -0.302286        -8.2256
  88   2.0000      -0.292899        -7.9702
  89   2.0000      -0.289047        -7.8654
  90   2.0000      -0.287887        -7.8338
  91   2.0000      -0.272325        -7.4103
  92   2.0000      -0.266781        -7.2595
  93   2.0000      -0.261768        -7.1231
  94   2.0000      -0.256194        -6.9714
  95   2.0000      -0.232549        -6.3280
  96   2.0000      -0.219186        -5.9644
  97   2.0000      -0.211040        -5.7427
  98   2.0000      -0.198029        -5.3886
  99   2.0000      -0.188406        -5.1268
 100   2.0000      -0.182054        -4.9539
 101   0.0000      -0.039747        -1.0816
 102   0.0000      -0.029331        -0.7981
 103   0.0000      -0.008062        -0.2194
 104   0.0000       0.009066         0.2467
 105   0.0000       0.020479         0.5573

MULLIKEN ATOMIC CHARGES
-----------------------
   0 C :   -0.321504
   1 C :    0.001886
   2 O :   -0.385725
   3 P :    0.597506
   4 S :   -0.274745
   5 O :   -0.358379
   6 C :   -0.017969
   7 C :   -0.297035
   8 S :   -0.112564
   9 C :   -0.345316
  10 S :   -0.125182
  11 P :    0.603377
  12 S :   -0.288528
  13 O :   -0.340703
  14 C :   -0.027033
  15 C :   -0.280289
  16 O :   -0.385319
  17 C :   -0.001635
  18 C :   -0.300134
  19 H :    0.116216
  20 H :    0.133027
  21 H :    0.114980
  22 H :    0.113425
  23 H :    0.103482
  24 H :    0.112361
  25 H :    0.107302
  26 H :    0.123273
  27 H :    0.107049
  28 H :    0.125767
  29 H :    0.179390
  30 H :    0.208502
  31 H :    0.102868
  32 H :    0.117442
  33 H :    0.103569
  34 H :    0.121547
  35 H :    0.118313
  36 H :    0.106492
  37 H :    0.101619
  38 H :    0.109365
  39 H :    0.109623
  40 H :    0.123680
Sum of atomic charges:    0.0000000

LOEWDIN ATOMIC CHARGES
----------------------
   0 C :   -0.371851
   1 C :   -0.116111
   2 O :   -0.249436
   3 P :    0.560374
   4 S :   -0.282246
   5 O :   -0.238387
   6 C :   -0.110805
   7 C :   -0.366447
   8 S :    0.074184
   9 C :   -0.481213
  10 S :    0.068568
  11 P :    0.569244
  12 S :   -0.294990
  13 O :   -0.224109
  14 C :   -0.114307
  15 C :   -0.358964
  16 O :   -0.250242
  17 C :   -0.118961
  18 C :   -0.365833
  19 H :    0.122461
  20 H :    0.123672
  21 H :    0.132168
  22 H :    0.113542
  23 H :    0.117880
  24 H :    0.112983
  25 H :    0.119361
  26 H :    0.116747
  27 H :    0.128281
  28 H :    0.122246
  29 H :    0.136670
  30 H :    0.125938
  31 H :    0.100634
  32 H :    0.120799
  33 H :    0.126736
  34 H :    0.129951
  35 H :    0.124986
  36 H :    0.119062
  37 H :    0.106839
  38 H :    0.123216
  39 H :    0.129802
  40 H :    0.117557

  Mayer bond orders larger than 0.100000
B(  0-C ,  1-C ) :   1.1669 B(  0-C , 19-H ) :   0.9437 B(  0-C , 20-H ) :   0.9338
B(  0-C , 21-H ) :   0.9371 B(  1-C ,  2-O ) :   0.9046 B(  1-C , 22-H ) :   0.9166
B(  1-C , 23-H ) :   0.9343 B(  2-O ,  3-P ) :   1.0792 B(  3-P ,  4-S ) :   1.6730
B(  3-P ,  5-O ) :   1.1189 B(  3-P ,  8-S ) :   0.9334 B(  4-S ,  8-S ) :   0.1080
B(  5-O ,  6-C ) :   0.8921 B(  6-C ,  7-C ) :   1.1684 B(  6-C , 24-H ) :   0.9181
B(  6-C , 25-H ) :   0.9353 B(  7-C , 26-H ) :   0.9301 B(  7-C , 27-H ) :   0.9364
B(  7-C , 28-H ) :   0.9409 B(  8-S ,  9-C ) :   1.0037 B(  9-C , 10-S ) :   0.9962
B(  9-C , 29-H ) :   0.9109 B(  9-C , 30-H ) :   0.8443 B( 10-S , 11-P ) :   0.9475
B( 10-S , 12-S ) :   0.1144 B( 11-P , 12-S ) :   1.6471 B( 11-P , 13-O ) :   1.1446
B( 11-P , 16-O ) :   1.0686 B( 13-O , 14-C ) :   0.8950 B( 14-C , 15-C ) :   1.1574
B( 14-C , 31-H ) :   0.9119 B( 14-C , 32-H ) :   0.9283 B( 15-C , 33-H ) :   0.9403
B( 15-C , 34-H ) :   0.9464 B( 15-C , 35-H ) :   0.9411 B( 16-O , 17-C ) :   0.9038
B( 17-C , 18-C ) :   1.1652 B( 17-C , 36-H ) :   0.9359 B( 17-C , 37-H ) :   0.9028
B( 18-C , 38-H ) :   0.9488 B( 18-C , 39-H ) :   0.9401 B( 18-C , 40-H ) :   0.9333

Dispersion correction           -0.067898975
FINAL SINGLE POINT ENERGY     -2929.515009126307

DIPOLE MOMENT
-------------

Method             : SCF
Type of density    : Electron Density
Multiplicity       :   1
Irrep              :   0
Energy             : -2929.6335853926698292 Eh
Relativity type    :
Basis              : AO
                                X                 Y                 Z
Electronic contribution:      2.001207706       5.063199415     -14.388673866
Nuclear contribution   :     -1.476167660      -6.064261904      16.020914805
                        -----------------------------------------
Total Dipole Moment    :      0.525040046      -1.001062489       1.632240940
                        -----------------------------------------
Magnitude (a.u.)       :      1.985447970
Magnitude (Debye)      :      5.046607680

Rotational constants in cm-1:             0.012509             0.005402             0.005166
Rotational constants in MHz :           375.015636           161.942602           154.859654

                             ****ORCA TERMINATED NORMALLY****
TOTAL RUN TIME: 0 days 0 hours 0 minutes 21 seconds 859 msec
