                         Program Version 6.0.0  -   RELEASE  -
|  1> ! pbe def2-sv(p) def2/J RI DEFGRID1 loosescf d4 GCP(DFT/SV(P)) printgap
|  2> %output
|  3>     printlevel normal
|  4> end
|  5> * xyz 0 1
|  6> C 5.6470420558 0.5307398849 0.1177242513
|  7> C 4.2336027123 0.6359376403 -0.418902346
|  8> O 3.4350369841 -0.3677848282 0.2345088636
|  9> P 1.8426742509 -0.2961163173 0.2243091977
| 10> S 1.1512984792 1.4836384683 0.6909182114
| 11> O 1.486312 -1.531062971 1.1457692802
| 12> C 2.281780262 -1.933139572 2.2860636341
| 13> C 2.246286006 -0.8994754731 3.3924587397
| 14> S 1.3373047757 -1.0090524954 -1.7086814377
| 15> C 0.166084892 0.2651811669 -2.25036392
| 16> S -1.5298406608 -0.3602437542 -2.4747199217
| 17> P -2.2862344302 -0.0942707289 -0.5305458302
| 18> S -4.1569589394 -0.612568837 -0.2859381931
| 19> O -1.9551018713 1.4183516983 -0.1645446804
| 20> C -2.7796041016 2.5087130273 -0.6174692192
| 21> C -2.4421116616 3.7195180526 0.2288670258
| 22> O -1.2144081291 -0.8789938007 0.3463310741
| 23> C -1.5947860218 -1.3796084951 1.647300114
| 24> C -1.7738101348 -0.2541478305 2.6434753259
| 25> H 6.0423917909 -0.4633785699 -0.0700204062
| 26> H 6.2713555717 1.2648235144 -0.3807401981
| 27> H 5.6586092323 0.7194227943 1.1875214227
| 28> H 4.201124332 0.4496173663 -1.4957570044
| 29> H 3.7973956225 1.618892222 -0.2103523664
| 30> H 1.825296549 -2.8739778511 2.598368182
| 31> H 3.3041196308 -2.1124307515 1.9491867312
| 32> H 2.6574745306 0.043382603 3.0332462682
| 33> H 1.224603241 -0.7278533958 3.7222499215
| 34> H 2.8399916727 -1.2485362614 4.2315029249
| 35> H 0.4815117518 0.609715524 -3.2311362957
| 36> H 0.1665973814 1.076367858 -1.5157220672
| 37> H -2.5639235684 2.6873646577 -1.6749941015
| 38> H -3.8303810006 2.2178165641 -0.5128921851
| 39> H -1.3742373822 3.9159473916 0.1780779344
| 40> H -2.988810235 4.5796294773 -0.1426665184
| 41> H -2.7116374936 3.5404330932 1.2656309017
| 42> H -2.5220840726 -1.9511237529 1.5372335519
| 43> H -0.7767226323 -2.0463024517 1.9190200147
| 44> H -0.8995042574 0.3934790866 2.6396271583
| 45> H -2.6451683905 0.3405748496 2.3723758401
| 46> H -1.9213802734 -0.6674872715 3.6362843796
| 47> *
| 48>
| 49>                          ****END OF INPUT****

CARTESIAN COORDINATES (ANGSTROEM)
---------------------------------
  C      5.647042    0.530740    0.117724
  C      4.233603    0.635938   -0.418902
  O      3.435037   -0.367785    0.234509
  P      1.842674   -0.296116    0.224309
  S      1.151298    1.483638    0.690918
  O      1.486312   -1.531063    1.145769
  C      2.281780   -1.933140    2.286064
  C      2.246286   -0.899475    3.392459
  S      1.337305   -1.009052   -1.708681
  C      0.166085    0.265181   -2.250364
  S     -1.529841   -0.360244   -2.474720
  P     -2.286234   -0.094271   -0.530546
  S     -4.156959   -0.612569   -0.285938
  O     -1.955102    1.418352   -0.164545
  C     -2.779604    2.508713   -0.617469
  C     -2.442112    3.719518    0.228867
  O     -1.214408   -0.878994    0.346331
  C     -1.594786   -1.379608    1.647300
  C     -1.773810   -0.254148    2.643475
  H      6.042392   -0.463379   -0.070020
  H      6.271356    1.264824   -0.380740
  H      5.658609    0.719423    1.187521
  H      4.201124    0.449617   -1.495757
  H      3.797396    1.618892   -0.210352
  H      1.825297   -2.873978    2.598368
  H      3.304120   -2.112431    1.949187
  H      2.657475    0.043383    3.033246
  H      1.224603   -0.727853    3.722250
  H      2.839992   -1.248536    4.231503
  H      0.481512    0.609716   -3.231136
  H      0.166597    1.076368   -1.515722
  H     -2.563924    2.687365   -1.674994
  H     -3.830381    2.217817   -0.512892
  H     -1.374237    3.915947    0.178078
  H     -2.988810    4.579629   -0.142667
  H     -2.711637    3.540433    1.265631
  H     -2.522084   -1.951124    1.537234
  H     -0.776723   -2.046302    1.919020
  H     -0.899504    0.393479    2.639627
  H     -2.645168    0.340575    2.372376
  H     -1.921380   -0.667487    3.636284

 Total Charge           Charge          ....    0
 Multiplicity           Mult            ....    1
 Number of Electrons    NEL             ....  202
 Basis Dimension        Dim             ....  334

ORBITAL ENERGIES
----------------

  NO   OCC          E(Eh)            E(eV)
   0   2.0000     -88.042895     -2395.7690
   1   2.0000     -88.037946     -2395.6343
   2   2.0000     -87.991980     -2394.3835
   3   2.0000     -87.980571     -2394.0731
   4   2.0000     -76.431659     -2079.8112
   5   2.0000     -76.418839     -2079.4623
   6   2.0000     -18.798308      -511.5280
   7   2.0000     -18.797638      -511.5097
   8   2.0000     -18.785673      -511.1842
   9   2.0000     -18.782946      -511.1099
  10   2.0000      -9.962140      -271.0836
  11   2.0000      -9.956698      -270.9355
  12   2.0000      -9.954619      -270.8789
  13   2.0000      -9.947136      -270.6753
  14   2.0000      -9.940190      -270.4863
  15   2.0000      -9.893915      -269.2271
  16   2.0000      -9.891423      -269.1593
  17   2.0000      -9.882307      -268.9112
  18   2.0000      -9.872213      -268.6366
  19   2.0000      -7.688280      -209.2087
  20   2.0000      -7.683583      -209.0809
  21   2.0000      -7.636724      -207.8058
  22   2.0000      -7.625853      -207.5100
  23   2.0000      -6.428809      -174.9368
  24   2.0000      -6.416942      -174.6139
  25   2.0000      -5.716177      -155.5451
  26   2.0000      -5.712759      -155.4521
  27   2.0000      -5.711748      -155.4246
  28   2.0000      -5.707739      -155.3155
  29   2.0000      -5.705233      -155.2473
  30   2.0000      -5.700539      -155.1195
  31   2.0000      -5.665429      -154.1642
  32   2.0000      -5.657694      -153.9537
  33   2.0000      -5.656704      -153.9267
  34   2.0000      -5.654764      -153.8740
  35   2.0000      -5.646433      -153.6473
  36   2.0000      -5.646021      -153.6361
  37   2.0000      -4.651737      -126.5802
  38   2.0000      -4.650321      -126.5417
  39   2.0000      -4.649206      -126.5113
  40   2.0000      -4.639194      -126.2389
  41   2.0000      -4.638996      -126.2335
  42   2.0000      -4.637352      -126.1888
  43   2.0000      -0.994770       -27.0691
  44   2.0000      -0.979039       -26.6410
  45   2.0000      -0.949445       -25.8357
  46   2.0000      -0.938219       -25.5302
  47   2.0000      -0.760584       -20.6966
  48   2.0000      -0.724482       -19.7142
  49   2.0000      -0.707107       -19.2414
  50   2.0000      -0.697028       -18.9671
  51   2.0000      -0.680885       -18.5278
  52   2.0000      -0.672719       -18.3056
  53   2.0000      -0.651789       -17.7361
  54   2.0000      -0.636610       -17.3231
  55   2.0000      -0.599180       -16.3045
  56   2.0000      -0.587911       -15.9979
  57   2.0000      -0.578563       -15.7435
  58   2.0000      -0.564353       -15.3568
  59   2.0000      -0.555641       -15.1198
  60   2.0000      -0.511036       -13.9060
  61   2.0000      -0.497728       -13.5439
  62   2.0000      -0.481754       -13.1092
  63   2.0000      -0.468482       -12.7480
  64   2.0000      -0.461343       -12.5538
  65   2.0000      -0.445922       -12.1342
  66   2.0000      -0.443881       -12.0786
  67   2.0000      -0.428238       -11.6530
  68   2.0000      -0.427060       -11.6209
  69   2.0000      -0.416359       -11.3297
  70   2.0000      -0.414507       -11.2793
  71   2.0000      -0.404511       -11.0073
  72   2.0000      -0.390733       -10.6324
  73   2.0000      -0.388895       -10.5824
  74   2.0000      -0.374468       -10.1898
  75   2.0000      -0.371352       -10.1050
  76   2.0000      -0.361789        -9.8448
  77   2.0000      -0.360575        -9.8117
  78   2.0000      -0.354656        -9.6507
  79   2.0000      -0.351595        -9.5674
  80   2.0000      -0.347292        -9.4503
  81   2.0000      -0.345052        -9.3893
  82   2.0000      -0.340180        -9.2568
  83   2.0000      -0.335071        -9.1177
  84   2.0000      -0.328388        -8.9359
  85   2.0000      -0.319525        -8.6947
  86   2.0000      -0.313293        -8.5251
  87   2.0000      -0.305540        -8.3142
  88   2.0000      -0.297040        -8.0829
  89   2.0000      -0.291348        -7.9280
  90   2.0000      -0.282850        -7.6967
  91   2.0000      -0.279496        -7.6055
  92   2.0000      -0.266180        -7.2431
  93   2.0000      -0.263356        -7.1663
  94   2.0000      -0.257043        -6.9945
  95   2.0000      -0.232960        -6.3392
  96   2.0000      -0.218840        -5.9549
  97   2.0000      -0.209856        -5.7105
  98   2.0000      -0.204704        -5.5703
  99   2.0000      -0.198709        -5.4071
 100   2.0000      -0.197291        -5.3686
 101   0.0000      -0.039726        -1.0810
 102   0.0000      -0.022504        -0.6124
 103   0.0000      -0.014170        -0.3856
 104   0.0000       0.003815         0.1038
 105   0.0000       0.011324         0.3081

MULLIKEN ATOMIC CHARGES
-----------------------
   0 C :   -0.283530
   1 C :   -0.005981
   2 O :   -0.391986
   3 P :    0.646507
   4 S :   -0.314099
   5 O :   -0.375679
   6 C :   -0.006735
   7 C :   -0.321536
   8 S :   -0.075074
   9 C :   -0.379140
  10 S :   -0.073471
  11 P :    0.617896
  12 S :   -0.328201
  13 O :   -0.368558
  14 C :   -0.010749
  15 C :   -0.280110
  16 O :   -0.378039
  17 C :   -0.015396
  18 C :   -0.322496
  19 H :    0.117168
  20 H :    0.113929
  21 H :    0.116943
  22 H :    0.097942
  23 H :    0.103985
  24 H :    0.112331
  25 H :    0.116145
  26 H :    0.128263
  27 H :    0.128520
  28 H :    0.112832
  29 H :    0.181296
  30 H :    0.207662
  31 H :    0.094388
  32 H :    0.106231
  33 H :    0.120739
  34 H :    0.108470
  35 H :    0.118724
  36 H :    0.113743
  37 H :    0.109252
  38 H :    0.137250
  39 H :    0.117383
  40 H :    0.103182
Sum of atomic charges:    0.0000000

LOEWDIN ATOMIC CHARGES
----------------------
   0 C :   -0.350815
   1 C :   -0.123530
   2 O :   -0.253222
   3 P :    0.577550
   4 S :   -0.290606
   5 O :   -0.233161
   6 C :   -0.111573
   7 C :   -0.365262
   8 S :    0.086302
   9 C :   -0.486778
  10 S :    0.083250
  11 P :    0.568909
  12 S :   -0.321925
  13 O :   -0.239836
  14 C :   -0.120499
  15 C :   -0.350418
  16 O :   -0.243434
  17 C :   -0.122622
  18 C :   -0.372416
  19 H :    0.126663
  20 H :    0.131925
  21 H :    0.126481
  22 H :    0.108336
  23 H :    0.105833
  24 H :    0.120073
  25 H :    0.115364
  26 H :    0.123684
  27 H :    0.129452
  28 H :    0.131114
  29 H :    0.137183
  30 H :    0.123153
  31 H :    0.106556
  32 H :    0.107811
  33 H :    0.127749
  34 H :    0.128721
  35 H :    0.127834
  36 H :    0.109115
  37 H :    0.113943
  38 H :    0.123205
  39 H :    0.120312
  40 H :    0.125583

  Mayer bond orders larger than 0.100000
B(  0-C ,  1-C ) :   1.1596 B(  0-C , 19-H ) :   0.9507 B(  0-C , 20-H ) :   0.9420
B(  0-C , 21-H ) :   0.9521 B(  1-C ,  2-O ) :   0.9077 B(  1-C , 22-H ) :   0.9253
B(  1-C , 23-H ) :   0.9066 B(  2-O ,  3-P ) :   1.0608 B(  3-P ,  4-S ) :   1.6136
B(  3-P ,  5-O ) :   1.1205 B(  3-P ,  8-S ) :   0.9673 B(  4-S ,  8-S ) :   0.1292
B(  4-S , 30-H ) :   0.1050 B(  5-O ,  6-C ) :   0.8969 B(  6-C ,  7-C ) :   1.1710
B(  6-C , 24-H ) :   0.9304 B(  6-C , 25-H ) :   0.9245 B(  7-C , 26-H ) :   0.9328
B(  7-C , 27-H ) :   0.9422 B(  7-C , 28-H ) :   0.9363 B(  8-S ,  9-C ) :   1.0015
B(  9-C , 10-S ) :   0.9817 B(  9-C , 29-H ) :   0.9111 B(  9-C , 30-H ) :   0.8426
B( 10-S , 11-P ) :   0.9880 B( 11-P , 12-S ) :   1.6445 B( 11-P , 13-O ) :   1.0837
B( 11-P , 16-O ) :   1.1098 B( 13-O , 14-C ) :   0.9049 B( 14-C , 15-C ) :   1.1608
B( 14-C , 31-H ) :   0.9275 B( 14-C , 32-H ) :   0.9104 B( 15-C , 33-H ) :   0.9493
B( 15-C , 34-H ) :   0.9419 B( 15-C , 35-H ) :   0.9515 B( 16-O , 17-C ) :   0.8954
B( 17-C , 18-C ) :   1.1702 B( 17-C , 36-H ) :   0.9140 B( 17-C , 37-H ) :   0.9209
B( 18-C , 38-H ) :   0.9265 B( 18-C , 39-H ) :   0.9316 B( 18-C , 40-H ) :   0.9376

Dispersion correction           -0.066640060
FINAL SINGLE POINT ENERGY     -2929.519874875472

DIPOLE MOMENT
-------------

Method             : SCF
Type of density    : Electron Density
Multiplicity       :   1
Irrep              :   0
Energy             : -2929.6415154192395676 Eh
Relativity type    :
Basis              : AO
                                X                 Y                 Z
Electronic contribution:    -13.779125524     -10.551271141     -19.557275991
Nuclear contribution   :     15.747588118      11.006714800      20.141556656
                        -----------------------------------------
Total Dipole Moment    :      1.968462594       0.455443659       0.584280665
                        -----------------------------------------
Magnitude (a.u.)       :      2.103249345
Magnitude (Debye)      :      5.346034979

Rotational constants in cm-1:             0.012080             0.005361             0.005013
Rotational constants in MHz :           362.157407           160.714452           150.279807

                             ****ORCA TERMINATED NORMALLY****
TOTAL RUN TIME: 0 days 0 hours 0 minutes 21 seconds 944 msec
