                         Program Version 6.0.0  -   RELEASE  -
|  1> ! r2scan-3c def2/J RI DEFGRID2 scfconv6 printgap
|  2> %output
|  3>     printlevel normal
|  4> end
|  5> * xyz 0 1
|  6> C 0.6424414996 1.6867474474 -0.0423759803
|  7> C 1.4081391621 0.3823292995 -0.2706307653
|  8> H 1.5983826626 0.2479373255 -1.347267847
|  9> C 0.5433620802 -0.7905781565 0.2087265993
| 10> H 0.3792565986 -0.6922603443 1.2940276884
| 11> C -0.8134096663 -0.7433716591 -0.5092847404
| 12> H -0.6522763623 -0.8965981827 -1.581421748
| 13> C -1.4639525841 0.6350940318 -0.2900912187
| 14> H -2.3467895191 0.7308781169 -0.9387200408
| 15> O -0.6185396808 1.6813396544 -0.6926234619
| 16> O -1.8149267044 0.7124916719 1.0573667612
| 17> O -1.6553481952 -1.7802713359 -0.0799133909
| 18> O 1.2310685113 -1.989108316 -0.0676438709
| 19> O 2.6200665282 0.460348934 0.4347421634
| 20> H 1.1897969707 2.5288809394 -0.4629086243
| 21> H 0.5214262932 1.8327163216 1.0373336118
| 22> H -2.3345410295 1.5128049102 1.2253495846
| 23> H -2.0077929009 -1.5467255755 0.7943691473
| 24> H 0.6057367887 -2.7260725792 0.0013769772
| 25> H 3.0470800542 -0.4090456453 0.3978963999
| 26> *
| 27>
| 28>                          ****END OF INPUT****

CARTESIAN COORDINATES (ANGSTROEM)
---------------------------------
  C      0.642441    1.686747   -0.042376
  C      1.408139    0.382329   -0.270631
  H      1.598383    0.247937   -1.347268
  C      0.543362   -0.790578    0.208727
  H      0.379257   -0.692260    1.294028
  C     -0.813410   -0.743372   -0.509285
  H     -0.652276   -0.896598   -1.581422
  C     -1.463953    0.635094   -0.290091
  H     -2.346790    0.730878   -0.938720
  O     -0.618540    1.681340   -0.692623
  O     -1.814927    0.712492    1.057367
  O     -1.655348   -1.780271   -0.079913
  O      1.231069   -1.989108   -0.067644
  O      2.620067    0.460349    0.434742
  H      1.189797    2.528881   -0.462909
  H      0.521426    1.832716    1.037334
  H     -2.334541    1.512805    1.225350
  H     -2.007793   -1.546726    0.794369
  H      0.605737   -2.726073    0.001377
  H      3.047080   -0.409046    0.397896

 Total Charge           Charge          ....    0
 Multiplicity           Mult            ....    1
 Number of Electrons    NEL             ....   80
 Basis Dimension        Dim             ....  265

ORBITAL ENERGIES
----------------

  NO   OCC          E(Eh)            E(eV)
   0   2.0000     -18.982566      -516.5419
   1   2.0000     -18.973387      -516.2921
   2   2.0000     -18.966486      -516.1043
   3   2.0000     -18.958399      -515.8843
   4   2.0000     -18.953207      -515.7430
   5   2.0000     -10.144803      -276.0541
   6   2.0000     -10.094720      -274.6913
   7   2.0000     -10.087407      -274.4923
   8   2.0000     -10.085915      -274.4517
   9   2.0000     -10.082483      -274.3583
  10   2.0000      -1.057524       -28.7767
  11   2.0000      -1.013123       -27.5685
  12   2.0000      -1.002453       -27.2781
  13   2.0000      -0.986840       -26.8533
  14   2.0000      -0.982428       -26.7332
  15   2.0000      -0.748485       -20.3673
  16   2.0000      -0.727421       -19.7941
  17   2.0000      -0.623718       -16.9722
  18   2.0000      -0.613025       -16.6813
  19   2.0000      -0.571155       -15.5419
  20   2.0000      -0.515067       -14.0157
  21   2.0000      -0.512186       -13.9373
  22   2.0000      -0.496513       -13.5108
  23   2.0000      -0.470683       -12.8079
  24   2.0000      -0.455011       -12.3815
  25   2.0000      -0.447846       -12.1865
  26   2.0000      -0.417561       -11.3624
  27   2.0000      -0.399153       -10.8615
  28   2.0000      -0.392343       -10.6762
  29   2.0000      -0.376957       -10.2575
  30   2.0000      -0.360723        -9.8158
  31   2.0000      -0.337520        -9.1844
  32   2.0000      -0.327297        -8.9062
  33   2.0000      -0.318125        -8.6566
  34   2.0000      -0.290766        -7.9121
  35   2.0000      -0.284244        -7.7347
  36   2.0000      -0.273812        -7.4508
  37   2.0000      -0.254707        -6.9309
  38   2.0000      -0.238834        -6.4990
  39   2.0000      -0.228690        -6.2230
  40   0.0000       0.035023         0.9530
  41   0.0000       0.038407         1.0451
  42   0.0000       0.076180         2.0730
  43   0.0000       0.093560         2.5459
  44   0.0000       0.095612         2.6017

MULLIKEN ATOMIC CHARGES
-----------------------
   0 C :   -0.274738
   1 C :   -0.001035
   2 H :    0.157715
   3 C :    0.048833
   4 H :    0.171462
   5 C :   -0.126868
   6 H :    0.174414
   7 C :    0.057625
   8 H :    0.135400
   9 O :   -0.205246
  10 O :   -0.422809
  11 O :   -0.426270
  12 O :   -0.441341
  13 O :   -0.423428
  14 H :    0.154191
  15 H :    0.167943
  16 H :    0.307956
  17 H :    0.319194
  18 H :    0.311153
  19 H :    0.315849
Sum of atomic charges:    0.0000000

LOEWDIN ATOMIC CHARGES
----------------------
   0 C :    0.057961
   1 C :    0.106658
   2 H :    0.177802
   3 C :    0.096153
   4 H :    0.186584
   5 C :    0.112029
   6 H :    0.201244
   7 C :    0.284378
   8 H :    0.197451
   9 O :   -0.673682
  10 O :   -0.532373
  11 O :   -0.563033
  12 O :   -0.582206
  13 O :   -0.573202
  14 H :    0.191447
  15 H :    0.182016
  16 H :    0.281616
  17 H :    0.283936
  18 H :    0.282358
  19 H :    0.282860

  Mayer bond orders larger than 0.100000
B(  0-C ,  1-C ) :   0.8899 B(  0-C ,  9-O ) :   0.9269 B(  0-C , 14-H ) :   0.9399
B(  0-C , 15-H ) :   0.9840 B(  1-C ,  2-H ) :   0.9743 B(  1-C ,  3-C ) :   0.8875
B(  1-C , 13-O ) :   0.9166 B(  3-C ,  4-H ) :   0.9503 B(  3-C ,  5-C ) :   0.8835
B(  3-C , 12-O ) :   0.9192 B(  5-C ,  6-H ) :   0.9666 B(  5-C ,  7-C ) :   0.9355
B(  5-C , 11-O ) :   0.9851 B(  7-C ,  8-H ) :   0.9500 B(  7-C ,  9-O ) :   0.9773
B(  7-C , 10-O ) :   0.9884 B( 10-O , 16-H ) :   0.8901 B( 11-O , 17-H ) :   0.8660
B( 12-O , 18-H ) :   0.8729 B( 13-O , 19-H ) :   0.8784

Dispersion correction           -0.006289243
FINAL SINGLE POINT ENERGY      -572.567032045835

DIPOLE MOMENT
-------------

Method             : SCF
Type of density    : Electron Density
Multiplicity       :   1
Irrep              :   0
Energy             :  -572.5771940162348983 Eh
Relativity type    :
Basis              : AO
                                X                 Y                 Z
Electronic contribution:     -0.741566304      -0.408553930      -0.133444859
Nuclear contribution   :     -0.003258830       0.532940222       0.403722410
                        -----------------------------------------
Total Dipole Moment    :     -0.744825134       0.124386292       0.270277551
                        -----------------------------------------
Magnitude (a.u.)       :      0.802051360
Magnitude (Debye)      :      2.038652544

Rotational constants in cm-1:             0.057219             0.044682             0.028955
Rotational constants in MHz :          1715.375024          1339.528642           868.049041

                             ****ORCA TERMINATED NORMALLY****
TOTAL RUN TIME: 0 days 0 hours 0 minutes 48 seconds 507 msec
