                         Program Version 6.0.0  -   RELEASE  -
|  1> ! r2scan-3c def2/J RI DEFGRID2 scfconv6 printgap
|  2> %output
|  3>     printlevel normal
|  4> end
|  5> %cpcm
|  6>     smd true
|  7>     smdsolvent "water"
|  8> end
|  9> * xyz 0 1
| 10> C 0.6424414996 1.6867474474 -0.0423759803
| 11> C 1.4081391621 0.3823292995 -0.2706307653
| 12> H 1.5983826626 0.2479373255 -1.347267847
| 13> C 0.5433620802 -0.7905781565 0.2087265993
| 14> H 0.3792565986 -0.6922603443 1.2940276884
| 15> C -0.8134096663 -0.7433716591 -0.5092847404
| 16> H -0.6522763623 -0.8965981827 -1.581421748
| 17> C -1.4639525841 0.6350940318 -0.2900912187
| 18> H -2.3467895191 0.7308781169 -0.9387200408
| 19> O -0.6185396808 1.6813396544 -0.6926234619
| 20> O -1.8149267044 0.7124916719 1.0573667612
| 21> O -1.6553481952 -1.7802713359 -0.0799133909
| 22> O 1.2310685113 -1.989108316 -0.0676438709
| 23> O 2.6200665282 0.460348934 0.4347421634
| 24> H 1.1897969707 2.5288809394 -0.4629086243
| 25> H 0.5214262932 1.8327163216 1.0373336118
| 26> H -2.3345410295 1.5128049102 1.2253495846
| 27> H -2.0077929009 -1.5467255755 0.7943691473
| 28> H 0.6057367887 -2.7260725792 0.0013769772
| 29> H 3.0470800542 -0.4090456453 0.3978963999
| 30> *
| 31>
| 32>                          ****END OF INPUT****

CARTESIAN COORDINATES (ANGSTROEM)
---------------------------------
  C      0.642441    1.686747   -0.042376
  C      1.408139    0.382329   -0.270631
  H      1.598383    0.247937   -1.347268
  C      0.543362   -0.790578    0.208727
  H      0.379257   -0.692260    1.294028
  C     -0.813410   -0.743372   -0.509285
  H     -0.652276   -0.896598   -1.581422
  C     -1.463953    0.635094   -0.290091
  H     -2.346790    0.730878   -0.938720
  O     -0.618540    1.681340   -0.692623
  O     -1.814927    0.712492    1.057367
  O     -1.655348   -1.780271   -0.079913
  O      1.231069   -1.989108   -0.067644
  O      2.620067    0.460349    0.434742
  H      1.189797    2.528881   -0.462909
  H      0.521426    1.832716    1.037334
  H     -2.334541    1.512805    1.225350
  H     -2.007793   -1.546726    0.794369
  H      0.605737   -2.726073    0.001377
  H      3.047080   -0.409046    0.397896

 Total Charge           Charge          ....    0
 Multiplicity           Mult            ....    1
 Number of Electrons    NEL             ....   80
 Basis Dimension        Dim             ....  265

ORBITAL ENERGIES
----------------

  NO   OCC          E(Eh)            E(eV)
   0   2.0000     -18.973489      -516.2949
   1   2.0000     -18.967916      -516.1432
   2   2.0000     -18.963030      -516.0103
   3   2.0000     -18.960224      -515.9339
   4   2.0000     -18.958891      -515.8977
   5   2.0000     -10.134860      -275.7836
   6   2.0000     -10.087448      -274.4934
   7   2.0000     -10.085640      -274.4442
   8   2.0000     -10.082178      -274.3500
   9   2.0000     -10.078254      -274.2432
  10   2.0000      -1.050186       -28.5770
  11   2.0000      -1.011852       -27.5339
  12   2.0000      -1.002648       -27.2835
  13   2.0000      -0.984437       -26.7879
  14   2.0000      -0.978955       -26.6387
  15   2.0000      -0.745283       -20.2802
  16   2.0000      -0.721429       -19.6311
  17   2.0000      -0.618688       -16.8353
  18   2.0000      -0.608073       -16.5465
  19   2.0000      -0.563287       -15.3278
  20   2.0000      -0.510121       -13.8811
  21   2.0000      -0.507821       -13.8185
  22   2.0000      -0.489971       -13.3328
  23   2.0000      -0.467884       -12.7318
  24   2.0000      -0.450729       -12.2650
  25   2.0000      -0.444485       -12.0950
  26   2.0000      -0.413728       -11.2581
  27   2.0000      -0.399366       -10.8673
  28   2.0000      -0.387079       -10.5330
  29   2.0000      -0.376343       -10.2408
  30   2.0000      -0.355524        -9.6743
  31   2.0000      -0.340244        -9.2585
  32   2.0000      -0.326934        -8.8963
  33   2.0000      -0.317865        -8.6496
  34   2.0000      -0.287535        -7.8242
  35   2.0000      -0.277747        -7.5579
  36   2.0000      -0.274484        -7.4691
  37   2.0000      -0.254701        -6.9308
  38   2.0000      -0.243568        -6.6278
  39   2.0000      -0.227761        -6.1977
  40   0.0000       0.040809         1.1105
  41   0.0000       0.062986         1.7139
  42   0.0000       0.085992         2.3399
  43   0.0000       0.101974         2.7748
  44   0.0000       0.106772         2.9054

MULLIKEN ATOMIC CHARGES
-----------------------
   0 C :   -0.292296
   1 C :    0.010507
   2 H :    0.173793
   3 C :    0.036300
   4 H :    0.183058
   5 C :   -0.108281
   6 H :    0.195642
   7 C :    0.056412
   8 H :    0.162409
   9 O :   -0.255141
  10 O :   -0.465118
  11 O :   -0.478152
  12 O :   -0.499351
  13 O :   -0.489996
  14 H :    0.174550
  15 H :    0.181611
  16 H :    0.354672
  17 H :    0.356749
  18 H :    0.348211
  19 H :    0.354420
Sum of atomic charges:    0.0000000

LOEWDIN ATOMIC CHARGES
----------------------
   0 C :    0.054173
   1 C :    0.105309
   2 H :    0.185279
   3 C :    0.097421
   4 H :    0.191766
   5 C :    0.113282
   6 H :    0.208019
   7 C :    0.288307
   8 H :    0.207956
   9 O :   -0.695650
  10 O :   -0.536778
  11 O :   -0.581800
  12 O :   -0.603388
  13 O :   -0.602443
  14 H :    0.197581
  15 H :    0.186141
  16 H :    0.299178
  17 H :    0.296073
  18 H :    0.294306
  19 H :    0.295267

  Mayer bond orders larger than 0.100000
B(  0-C ,  1-C ) :   0.8849 B(  0-C ,  9-O ) :   0.9219 B(  0-C , 14-H ) :   0.9347
B(  0-C , 15-H ) :   0.9805 B(  1-C ,  2-H ) :   0.9652 B(  1-C ,  3-C ) :   0.8964
B(  1-C , 13-O ) :   0.8957 B(  3-C ,  4-H ) :   0.9486 B(  3-C ,  5-C ) :   0.8865
B(  3-C , 12-O ) :   0.9050 B(  5-C ,  6-H ) :   0.9637 B(  5-C ,  7-C ) :   0.9287
B(  5-C , 11-O ) :   0.9696 B(  7-C ,  8-H ) :   0.9478 B(  7-C ,  9-O ) :   0.9608
B(  7-C , 10-O ) :   0.9863 B( 10-O , 16-H ) :   0.8657 B( 11-O , 17-H ) :   0.8470
B( 12-O , 18-H ) :   0.8563 B( 13-O , 19-H ) :   0.8594

Dispersion correction           -0.006289243
FINAL SINGLE POINT ENERGY      -572.591627795496

DIPOLE MOMENT
-------------

Method             : SCF
Type of density    : Electron Density
Multiplicity       :   1
Irrep              :   0
Energy             :  -572.6017897658958873 Eh
Relativity type    :
Basis              : AO
                                X                 Y                 Z
Electronic contribution:     -1.022421773      -0.401002661      -0.070629502
Nuclear contribution   :     -0.003258830       0.532940222       0.403722410
                        -----------------------------------------
Total Dipole Moment    :     -1.025680603       0.131937561       0.333092908
                        -----------------------------------------
Magnitude (a.u.)       :      1.086452532
Magnitude (Debye)      :      2.761542874

Rotational constants in cm-1:             0.057219             0.044682             0.028955
Rotational constants in MHz :          1715.375024          1339.528642           868.049041

                             ****ORCA TERMINATED NORMALLY****
TOTAL RUN TIME: 0 days 0 hours 0 minutes 51 seconds 337 msec
