                         Program Version 6.0.0  -   RELEASE  -
|  1> ! pbe def2-sv(p) def2/J RI DEFGRID1 loosescf d4 GCP(DFT/SV(P)) printgap
|  2> %output
|  3>     printlevel normal
|  4> end
|  5> * xyz 0 1
|  6> C 5.7996873787 -0.5378618139 -0.4587776803
|  7> C 4.3365116148 -0.8515425225 -0.6974333983
|  8> O 3.5595760309 0.2595918657 -0.2128218805
|  9> P 2.0375429632 0.4501211529 -0.6406538846
| 10> S 1.7695486512 0.3946569112 -2.5786063361
| 11> O 1.7128793701 1.8516978894 -0.0099431476
| 12> C 1.4457544644 2.1463713498 1.382039984
| 13> C 2.5073571743 1.6096786296 2.3165418907
| 14> S 1.0617441739 -1.0781922109 0.4752022722
| 15> C -0.0523306751 -1.7689562238 -0.7893500752
| 16> S -1.7498351465 -1.9318934433 -0.2035948399
| 17> P -2.1031928067 0.1111201497 0.2771229782
| 18> S -1.3689560876 1.4036038862 -1.0067406067
| 19> O -1.5329377818 0.3726694756 1.7264389637
| 20> C -2.123726868 -0.0722889664 2.9757216385
| 21> C -1.9997654135 -1.5685131039 3.1737996413
| 22> O -3.6697703503 0.1843242254 0.5227105162
| 23> C -4.6205928511 0.4092218612 -0.533507297
| 24> C -4.6564988141 -0.7284265613 -1.5327492065
| 25> H 6.0770739704 0.3675058433 -0.9913560315
| 26> H 5.980894638 -0.3925253993 0.6020384923
| 27> H 6.4036965875 -1.3643481572 -0.8181904478
| 28> H 4.0261678464 -1.7475477155 -0.1523722777
| 29> H 4.1231002119 -0.9875035843 -1.7633281106
| 30> H 1.4035729157 3.2367880438 1.3963440571
| 31> H 0.4588748588 1.7420006558 1.6255484981
| 32> H 3.4880893553 1.9648665252 2.010958013
| 33> H 2.2958715832 1.9538950852 3.3242402978
| 34> H 2.5057604251 0.5207352467 2.3054403964
| 35> H 0.2788756287 -2.7752325752 -1.0334987526
| 36> H -0.0113777492 -1.1180618325 -1.6677956583
| 37> H -1.5521290007 0.4773957024 3.7252082402
| 38> H -3.1671246174 0.2457405263 2.9940850682
| 39> H -2.6461406077 -2.1032532506 2.4821400487
| 40> H -0.9719476426 -1.8849585155 3.0111730768
| 41> H -2.2917194669 -1.8121022237 4.1905637466
| 42> H -5.570272834 0.5123418811 -0.0063340104
| 43> H -4.3660693672 1.3501094262 -1.0309267175
| 44> H -5.480817563 -0.5727612813 -2.221393493
| 45> H -3.7272517328 -0.7564704125 -2.1000037197
| 46> H -4.7856971855 -1.6793038647 -1.0220910188
| 47> *
| 48>
| 49>                          ****END OF INPUT****

CARTESIAN COORDINATES (ANGSTROEM)
---------------------------------
  C      5.799687   -0.537862   -0.458778
  C      4.336512   -0.851543   -0.697433
  O      3.559576    0.259592   -0.212822
  P      2.037543    0.450121   -0.640654
  S      1.769549    0.394657   -2.578606
  O      1.712879    1.851698   -0.009943
  C      1.445754    2.146371    1.382040
  C      2.507357    1.609679    2.316542
  S      1.061744   -1.078192    0.475202
  C     -0.052331   -1.768956   -0.789350
  S     -1.749835   -1.931893   -0.203595
  P     -2.103193    0.111120    0.277123
  S     -1.368956    1.403604   -1.006741
  O     -1.532938    0.372669    1.726439
  C     -2.123727   -0.072289    2.975722
  C     -1.999765   -1.568513    3.173800
  O     -3.669770    0.184324    0.522711
  C     -4.620593    0.409222   -0.533507
  C     -4.656499   -0.728427   -1.532749
  H      6.077074    0.367506   -0.991356
  H      5.980895   -0.392525    0.602038
  H      6.403697   -1.364348   -0.818190
  H      4.026168   -1.747548   -0.152372
  H      4.123100   -0.987504   -1.763328
  H      1.403573    3.236788    1.396344
  H      0.458875    1.742001    1.625548
  H      3.488089    1.964867    2.010958
  H      2.295872    1.953895    3.324240
  H      2.505760    0.520735    2.305440
  H      0.278876   -2.775233   -1.033499
  H     -0.011378   -1.118062   -1.667796
  H     -1.552129    0.477396    3.725208
  H     -3.167125    0.245741    2.994085
  H     -2.646141   -2.103253    2.482140
  H     -0.971948   -1.884959    3.011173
  H     -2.291719   -1.812102    4.190564
  H     -5.570273    0.512342   -0.006334
  H     -4.366069    1.350109   -1.030927
  H     -5.480818   -0.572761   -2.221393
  H     -3.727252   -0.756470   -2.100004
  H     -4.785697   -1.679304   -1.022091

 Total Charge           Charge          ....    0
 Multiplicity           Mult            ....    1
 Number of Electrons    NEL             ....  202
 Basis Dimension        Dim             ....  334

ORBITAL ENERGIES
----------------

  NO   OCC          E(Eh)            E(eV)
   0   2.0000     -88.043572     -2395.7874
   1   2.0000     -88.040003     -2395.6903
   2   2.0000     -87.980753     -2394.0780
   3   2.0000     -87.973854     -2393.8903
   4   2.0000     -76.426950     -2079.6831
   5   2.0000     -76.418222     -2079.4455
   6   2.0000     -18.797499      -511.5060
   7   2.0000     -18.792660      -511.3743
   8   2.0000     -18.782398      -511.0950
   9   2.0000     -18.782314      -511.0927
  10   2.0000      -9.960143      -271.0293
  11   2.0000      -9.956711      -270.9359
  12   2.0000      -9.951606      -270.7970
  13   2.0000      -9.945442      -270.6292
  14   2.0000      -9.944673      -270.6083
  15   2.0000      -9.889774      -269.1144
  16   2.0000      -9.885877      -269.0084
  17   2.0000      -9.884093      -268.9599
  18   2.0000      -9.883340      -268.9394
  19   2.0000      -7.688483      -209.2142
  20   2.0000      -7.684256      -209.0992
  21   2.0000      -7.625414      -207.4981
  22   2.0000      -7.619133      -207.3272
  23   2.0000      -6.423975      -174.8053
  24   2.0000      -6.415374      -174.5712
  25   2.0000      -5.716403      -155.5512
  26   2.0000      -5.712926      -155.4566
  27   2.0000      -5.712092      -155.4339
  28   2.0000      -5.708726      -155.3423
  29   2.0000      -5.705494      -155.2544
  30   2.0000      -5.701422      -155.1436
  31   2.0000      -5.654534      -153.8677
  32   2.0000      -5.648181      -153.6948
  33   2.0000      -5.646107      -153.6384
  34   2.0000      -5.645377      -153.6185
  35   2.0000      -5.639754      -153.4655
  36   2.0000      -5.639089      -153.4474
  37   2.0000      -4.647066      -126.4531
  38   2.0000      -4.645608      -126.4134
  39   2.0000      -4.644120      -126.3729
  40   2.0000      -4.638016      -126.2068
  41   2.0000      -4.637270      -126.1865
  42   2.0000      -4.635697      -126.1437
  43   2.0000      -0.991036       -26.9674
  44   2.0000      -0.978192       -26.6180
  45   2.0000      -0.947033       -25.7701
  46   2.0000      -0.935628       -25.4597
  47   2.0000      -0.760906       -20.7053
  48   2.0000      -0.719122       -19.5683
  49   2.0000      -0.709494       -19.3063
  50   2.0000      -0.693490       -18.8708
  51   2.0000      -0.686056       -18.6685
  52   2.0000      -0.676052       -18.3963
  53   2.0000      -0.647536       -17.6203
  54   2.0000      -0.628741       -17.1089
  55   2.0000      -0.597150       -16.2493
  56   2.0000      -0.588239       -16.0068
  57   2.0000      -0.582721       -15.8566
  58   2.0000      -0.562179       -15.2977
  59   2.0000      -0.559485       -15.2244
  60   2.0000      -0.500672       -13.6240
  61   2.0000      -0.496376       -13.5071
  62   2.0000      -0.473603       -12.8874
  63   2.0000      -0.467308       -12.7161
  64   2.0000      -0.452365       -12.3095
  65   2.0000      -0.448334       -12.1998
  66   2.0000      -0.443940       -12.0802
  67   2.0000      -0.431036       -11.7291
  68   2.0000      -0.428359       -11.6563
  69   2.0000      -0.421639       -11.4734
  70   2.0000      -0.411316       -11.1925
  71   2.0000      -0.402138       -10.9427
  72   2.0000      -0.398914       -10.8550
  73   2.0000      -0.378663       -10.3039
  74   2.0000      -0.375668       -10.2224
  75   2.0000      -0.367788       -10.0080
  76   2.0000      -0.359981        -9.7956
  77   2.0000      -0.357928        -9.7397
  78   2.0000      -0.355022        -9.6606
  79   2.0000      -0.352199        -9.5838
  80   2.0000      -0.347929        -9.4676
  81   2.0000      -0.346855        -9.4384
  82   2.0000      -0.343443        -9.3456
  83   2.0000      -0.337237        -9.1767
  84   2.0000      -0.331933        -9.0324
  85   2.0000      -0.321154        -8.7391
  86   2.0000      -0.307835        -8.3766
  87   2.0000      -0.299095        -8.1388
  88   2.0000      -0.295028        -8.0281
  89   2.0000      -0.291824        -7.9409
  90   2.0000      -0.281014        -7.6468
  91   2.0000      -0.274478        -7.4689
  92   2.0000      -0.265780        -7.2322
  93   2.0000      -0.262954        -7.1553
  94   2.0000      -0.252823        -6.8797
  95   2.0000      -0.233340        -6.3495
  96   2.0000      -0.217938        -5.9304
  97   2.0000      -0.206626        -5.6226
  98   2.0000      -0.197471        -5.3735
  99   2.0000      -0.190457        -5.1826
 100   2.0000      -0.180428        -4.9097
 101   0.0000      -0.044132        -1.2009
 102   0.0000      -0.031418        -0.8549
 103   0.0000      -0.006702        -0.1824
 104   0.0000       0.008576         0.2334
 105   0.0000       0.019276         0.5245

MULLIKEN ATOMIC CHARGES
-----------------------
   0 C :   -0.279190
   1 C :   -0.006320
   2 O :   -0.377417
   3 P :    0.609483
   4 S :   -0.300970
   5 O :   -0.349898
   6 C :   -0.020565
   7 C :   -0.316514
   8 S :   -0.142900
   9 C :   -0.332264
  10 S :   -0.113795
  11 P :    0.604821
  12 S :   -0.286869
  13 O :   -0.356769
  14 C :    0.001209
  15 C :   -0.313593
  16 O :   -0.385644
  17 C :    0.002141
  18 C :   -0.322472
  19 H :    0.121051
  20 H :    0.112274
  21 H :    0.109166
  22 H :    0.092795
  23 H :    0.101383
  24 H :    0.107450
  25 H :    0.138537
  26 H :    0.123681
  27 H :    0.109905
  28 H :    0.119234
  29 H :    0.176900
  30 H :    0.209005
  31 H :    0.105588
  32 H :    0.112464
  33 H :    0.125046
  34 H :    0.123896
  35 H :    0.112199
  36 H :    0.104036
  37 H :    0.114809
  38 H :    0.115965
  39 H :    0.136032
  40 H :    0.116114
Sum of atomic charges:   -0.0000000

LOEWDIN ATOMIC CHARGES
----------------------
   0 C :   -0.350410
   1 C :   -0.125108
   2 O :   -0.249351
   3 P :    0.572101
   4 S :   -0.300270
   5 O :   -0.223534
   6 C :   -0.116839
   7 C :   -0.367717
   8 S :    0.054811
   9 C :   -0.480910
  10 S :    0.080200
  11 P :    0.563332
  12 S :   -0.291015
  13 O :   -0.236005
  14 C :   -0.108335
  15 C :   -0.369255
  16 O :   -0.248744
  17 C :   -0.115198
  18 C :   -0.371822
  19 H :    0.129185
  20 H :    0.124451
  21 H :    0.129387
  22 H :    0.103738
  23 H :    0.106164
  24 H :    0.122835
  25 H :    0.114324
  26 H :    0.128373
  27 H :    0.129595
  28 H :    0.114395
  29 H :    0.135145
  30 H :    0.125163
  31 H :    0.119335
  32 H :    0.114826
  33 H :    0.118221
  34 H :    0.125893
  35 H :    0.130274
  36 H :    0.118168
  37 H :    0.114821
  38 H :    0.132702
  39 H :    0.124643
  40 H :    0.122431

  Mayer bond orders larger than 0.100000
B(  0-C ,  1-C ) :   1.1596 B(  0-C , 19-H ) :   0.9510 B(  0-C , 20-H ) :   0.9518
B(  0-C , 21-H ) :   0.9425 B(  1-C ,  2-O ) :   0.9116 B(  1-C , 22-H ) :   0.9247
B(  1-C , 23-H ) :   0.9065 B(  2-O ,  3-P ) :   1.0769 B(  3-P ,  4-S ) :   1.6323
B(  3-P ,  5-O ) :   1.1590 B(  3-P ,  8-S ) :   0.9335 B(  4-S ,  8-S ) :   0.1156
B(  4-S , 30-H ) :   0.1053 B(  5-O ,  6-C ) :   0.8937 B(  6-C ,  7-C ) :   1.1649
B(  6-C , 24-H ) :   0.9338 B(  6-C , 25-H ) :   0.9058 B(  7-C , 26-H ) :   0.9413
B(  7-C , 27-H ) :   0.9360 B(  7-C , 28-H ) :   0.9383 B(  8-S ,  9-C ) :   0.9961
B(  9-C , 10-S ) :   1.0007 B(  9-C , 29-H ) :   0.9108 B(  9-C , 30-H ) :   0.8420
B( 10-S , 11-P ) :   0.9372 B( 10-S , 12-S ) :   0.1094 B( 11-P , 12-S ) :   1.6606
B( 11-P , 13-O ) :   1.1013 B( 11-P , 16-O ) :   1.0807 B( 13-O , 14-C ) :   0.8998
B( 14-C , 15-C ) :   1.1705 B( 14-C , 31-H ) :   0.9345 B( 14-C , 32-H ) :   0.9257
B( 15-C , 33-H ) :   0.9393 B( 15-C , 34-H ) :   0.9420 B( 15-C , 35-H ) :   0.9357
B( 16-O , 17-C ) :   0.9024 B( 17-C , 18-C ) :   1.1677 B( 17-C , 36-H ) :   0.9344
B( 17-C , 37-H ) :   0.9180 B( 18-C , 38-H ) :   0.9364 B( 18-C , 39-H ) :   0.9335
B( 18-C , 40-H ) :   0.9435

Dispersion correction           -0.067318436
FINAL SINGLE POINT ENERGY     -2929.513936070664

DIPOLE MOMENT
-------------

Method             : SCF
Type of density    : Electron Density
Multiplicity       :   1
Irrep              :   0
Energy             : -2929.6324873489056699 Eh
Relativity type    :
Basis              : AO
                                X                 Y                 Z
Electronic contribution:     -3.001739597       4.064934500     -12.579179620
Nuclear contribution   :      2.386639743      -4.951386911      14.392406437
                        -----------------------------------------
Total Dipole Moment    :     -0.615099854      -0.886452411       1.813226817
                        -----------------------------------------
Magnitude (a.u.)       :      2.109961421
Magnitude (Debye)      :      5.363095720

Rotational constants in cm-1:             0.013319             0.005147             0.004774
Rotational constants in MHz :           399.306024           154.294472           143.133474

                             ****ORCA TERMINATED NORMALLY****
TOTAL RUN TIME: 0 days 0 hours 0 minutes 21 seconds 741 msec
