                         Program Version 6.0.1  -  RELEASE   -
|  1> ! r2scan-3c def2/J RI DEFGRID2 scfconv6 printgap
|  2> %output
|  3>     printlevel normal
|  4> end
|  5> * xyz 0 1
|  6> C 1.3129621721 -3.6305449651 -2.1745615225
|  7> C 2.5624693913 -2.7649718271 -2.2006294701
|  8> O 2.3548099869 -1.5704333599 -1.4240030982
|  9> C 2.7474355543 -1.5580823542 -0.1655719961
| 10> O 3.345769461 -2.4566381042 0.3805778168
| 11> C 2.3869204317 -0.254886347 0.5272187398
| 12> C 0.9873927238 0.2162499718 0.1476541644
| 13> H 0.9174607272 0.3554724707 -0.9361195559
| 14> C 0.6232399846 1.527065559 0.8187670064
| 15> O -0.3869831388 1.6719476172 1.4774400171
| 16> O 1.5071683532 2.4581672906 0.5916457872
| 17> C 1.2431954637 3.7762415033 1.1216265053
| 18> C 2.3693024881 4.689013233 0.6816162232
| 19> S -0.2599213008 -1.0288580736 0.63115306
| 20> P -1.997861873 0.0442841234 0.0413501949
| 21> S -1.7642102613 1.4022390764 -1.3477183851
| 22> O -2.9427141453 -1.1690258914 -0.428835076
| 23> C -2.6529948318 -1.9267982837 -1.6061456586
| 24> O -2.8344965135 0.5316864926 1.28718867
| 25> C -3.0769047141 -0.3009123782 2.4368086252
| 26> H 1.4762351426 -4.517522302 -2.777391419
| 27> H 1.0896536229 -3.9298053021 -1.1527890228
| 28> H 0.4677020328 -3.0766148574 -2.574384571
| 29> H 2.780104771 -2.4111247451 -3.2088079894
| 30> H 3.4210546356 -3.3034196617 -1.7902438665
| 31> H 3.1047579378 0.5092067662 0.2213277251
| 32> H 2.4701240571 -0.4150574878 1.6026796423
| 33> H 0.2726299782 4.1063217628 0.7382636756
| 34> H 1.1772905844 3.7000105626 2.2109547661
| 35> H 3.3162931215 4.3321764463 1.074575337
| 36> H 2.4235153413 4.7153581717 -0.4024509355
| 37> H 2.1816132069 5.6903432209 1.0541992541
| 38> H -1.819726684 -2.6026503037 -1.4132329784
| 39> H -2.4107199452 -1.2564644214 -2.4327165589
| 40> H -3.5579151354 -2.487502929 -1.8257357202
| 41> H -2.1334496851 -0.5178528633 2.9374925411
| 42> H -3.5667907901 -1.2246902657 2.1337703575
| 43> H -3.7231805152 0.2901491898 3.0803174612
| 44> *
| 45>
| 46>                          ****END OF INPUT****

CARTESIAN COORDINATES (ANGSTROEM)
---------------------------------
  C      1.312962   -3.630545   -2.174562
  C      2.562469   -2.764972   -2.200629
  O      2.354810   -1.570433   -1.424003
  C      2.747436   -1.558082   -0.165572
  O      3.345769   -2.456638    0.380578
  C      2.386920   -0.254886    0.527219
  C      0.987393    0.216250    0.147654
  H      0.917461    0.355472   -0.936120
  C      0.623240    1.527066    0.818767
  O     -0.386983    1.671948    1.477440
  O      1.507168    2.458167    0.591646
  C      1.243195    3.776242    1.121627
  C      2.369302    4.689013    0.681616
  S     -0.259921   -1.028858    0.631153
  P     -1.997862    0.044284    0.041350
  S     -1.764210    1.402239   -1.347718
  O     -2.942714   -1.169026   -0.428835
  C     -2.652995   -1.926798   -1.606146
  O     -2.834497    0.531686    1.287189
  C     -3.076905   -0.300912    2.436809
  H      1.476235   -4.517522   -2.777391
  H      1.089654   -3.929805   -1.152789
  H      0.467702   -3.076615   -2.574385
  H      2.780105   -2.411125   -3.208808
  H      3.421055   -3.303420   -1.790244
  H      3.104758    0.509207    0.221328
  H      2.470124   -0.415057    1.602680
  H      0.272630    4.106322    0.738264
  H      1.177291    3.700011    2.210955
  H      3.316293    4.332176    1.074575
  H      2.423515    4.715358   -0.402451
  H      2.181613    5.690343    1.054199
  H     -1.819727   -2.602650   -1.413233
  H     -2.410720   -1.256464   -2.432717
  H     -3.557915   -2.487503   -1.825736
  H     -2.133450   -0.517853    2.937493
  H     -3.566791   -1.224690    2.133770
  H     -3.723181    0.290149    3.080317

 Total Charge           Charge          ....    0
 Multiplicity           Mult            ....    1
 Number of Electrons    NEL             ....  174
 Basis Dimension        Dim             ....  510

ORBITAL ENERGIES
----------------

  NO   OCC          E(Eh)            E(eV)
   0   2.0000     -88.573543     -2410.2086
   1   2.0000     -88.511100     -2408.5095
   2   2.0000     -76.909377     -2092.8105
   3   2.0000     -19.015146      -517.4284
   4   2.0000     -19.007774      -517.2278
   5   2.0000     -18.984365      -516.5908
   6   2.0000     -18.982988      -516.5534
   7   2.0000     -18.940730      -515.4035
   8   2.0000     -18.938386      -515.3397
   9   2.0000     -10.168025      -276.6860
  10   2.0000     -10.165799      -276.6254
  11   2.0000     -10.101686      -274.8808
  12   2.0000     -10.098304      -274.7888
  13   2.0000     -10.097241      -274.7599
  14   2.0000     -10.090133      -274.5665
  15   2.0000     -10.086363      -274.4639
  16   2.0000     -10.067843      -273.9599
  17   2.0000     -10.038716      -273.1673
  18   2.0000     -10.034657      -273.0569
  19   2.0000      -7.867745      -214.0922
  20   2.0000      -7.806083      -212.4143
  21   2.0000      -6.587204      -179.2469
  22   2.0000      -5.814558      -158.2222
  23   2.0000      -5.811707      -158.1446
  24   2.0000      -5.804842      -157.9578
  25   2.0000      -5.753985      -156.5739
  26   2.0000      -5.746369      -156.3666
  27   2.0000      -5.745784      -156.3507
  28   2.0000      -4.732864      -128.7878
  29   2.0000      -4.732400      -128.7752
  30   2.0000      -4.730690      -128.7286
  31   2.0000      -1.093392       -29.7527
  32   2.0000      -1.084683       -29.5157
  33   2.0000      -1.042542       -28.3690
  34   2.0000      -1.000324       -27.2202
  35   2.0000      -0.992364       -27.0036
  36   2.0000      -0.988264       -26.8920
  37   2.0000      -0.815116       -22.1804
  38   2.0000      -0.759841       -20.6763
  39   2.0000      -0.752586       -20.4789
  40   2.0000      -0.729632       -19.8543
  41   2.0000      -0.697189       -18.9715
  42   2.0000      -0.669179       -18.2093
  43   2.0000      -0.661350       -17.9962
  44   2.0000      -0.649333       -17.6693
  45   2.0000      -0.629640       -17.1334
  46   2.0000      -0.599445       -16.3117
  47   2.0000      -0.547099       -14.8873
  48   2.0000      -0.535414       -14.5693
  49   2.0000      -0.529510       -14.4087
  50   2.0000      -0.498310       -13.5597
  51   2.0000      -0.488394       -13.2899
  52   2.0000      -0.486838       -13.2475
  53   2.0000      -0.475422       -12.9369
  54   2.0000      -0.470959       -12.8155
  55   2.0000      -0.454875       -12.3778
  56   2.0000      -0.445964       -12.1353
  57   2.0000      -0.441408       -12.0113
  58   2.0000      -0.438519       -11.9327
  59   2.0000      -0.427019       -11.6198
  60   2.0000      -0.425777       -11.5860
  61   2.0000      -0.413198       -11.2437
  62   2.0000      -0.411120       -11.1871
  63   2.0000      -0.402408       -10.9501
  64   2.0000      -0.396569       -10.7912
  65   2.0000      -0.383411       -10.4331
  66   2.0000      -0.380434       -10.3521
  67   2.0000      -0.376519       -10.2456
  68   2.0000      -0.368371       -10.0239
  69   2.0000      -0.358496        -9.7552
  70   2.0000      -0.348974        -9.4961
  71   2.0000      -0.348599        -9.4859
  72   2.0000      -0.338059        -9.1990
  73   2.0000      -0.331405        -9.0180
  74   2.0000      -0.329063        -8.9543
  75   2.0000      -0.316157        -8.6031
  76   2.0000      -0.312305        -8.4982
  77   2.0000      -0.307124        -8.3573
  78   2.0000      -0.288284        -7.8446
  79   2.0000      -0.281721        -7.6660
  80   2.0000      -0.280032        -7.6201
  81   2.0000      -0.271756        -7.3949
  82   2.0000      -0.257488        -7.0066
  83   2.0000      -0.241508        -6.5718
  84   2.0000      -0.233818        -6.3625
  85   2.0000      -0.212287        -5.7766
  86   2.0000      -0.207258        -5.6398
  87   0.0000      -0.046000        -1.2517
  88   0.0000      -0.034560        -0.9404
  89   0.0000      -0.011595        -0.3155
  90   0.0000       0.004228         0.1151
  91   0.0000       0.024024         0.6537

MULLIKEN ATOMIC CHARGES
-----------------------
   0 C :   -0.464482
   1 C :   -0.149643
   2 O :   -0.142943
   3 C :    0.365418
   4 O :   -0.408971
   5 C :   -0.477919
   6 C :    0.023519
   7 H :    0.247117
   8 C :    0.315898
   9 O :   -0.396985
  10 O :   -0.152299
  11 C :   -0.153046
  12 C :   -0.447385
  13 S :   -0.195702
  14 P :    0.795638
  15 S :   -0.460269
  16 O :   -0.355686
  17 C :   -0.305781
  18 O :   -0.299656
  19 C :   -0.299020
  20 H :    0.148171
  21 H :    0.170064
  22 H :    0.154167
  23 H :    0.150285
  24 H :    0.177050
  25 H :    0.202265
  26 H :    0.195032
  27 H :    0.173231
  28 H :    0.156938
  29 H :    0.151878
  30 H :    0.157979
  31 H :    0.151712
  32 H :    0.153951
  33 H :    0.176599
  34 H :    0.150828
  35 H :    0.171359
  36 H :    0.165135
  37 H :    0.155555
Sum of atomic charges:    0.0000000

LOEWDIN ATOMIC CHARGES
----------------------
   0 C :   -0.390511
   1 C :    0.033337
   2 O :   -0.600871
   3 C :    0.347955
   4 O :   -0.419316
   5 C :   -0.196798
   6 C :   -0.199173
   7 H :    0.216908
   8 C :    0.339826
   9 O :   -0.442711
  10 O :   -0.577741
  11 C :    0.041377
  12 C :   -0.384272
  13 S :    0.212287
  14 P :    0.407534
  15 S :   -0.087857
  16 O :   -0.689815
  17 C :   -0.067074
  18 O :   -0.637566
  19 C :   -0.050121
  20 H :    0.159587
  21 H :    0.165157
  22 H :    0.157819
  23 H :    0.179027
  24 H :    0.192309
  25 H :    0.200917
  26 H :    0.192223
  27 H :    0.187774
  28 H :    0.180344
  29 H :    0.158931
  30 H :    0.162123
  31 H :    0.162097
  32 H :    0.166772
  33 H :    0.176250
  34 H :    0.176048
  35 H :    0.174658
  36 H :    0.171413
  37 H :    0.181151

  Mayer bond orders larger than 0.100000
B(  0-C ,  1-C ) :   0.9436 B(  0-C , 20-H ) :   0.9644 B(  0-C , 21-H ) :   0.9687
B(  0-C , 22-H ) :   0.9703 B(  1-C ,  2-O ) :   0.7939 B(  1-C , 23-H ) :   0.9617
B(  1-C , 24-H ) :   0.9672 B(  2-O ,  3-C ) :   1.0746 B(  3-C ,  4-O ) :   1.8688
B(  3-C ,  5-C ) :   0.9674 B(  5-C ,  6-C ) :   0.8567 B(  5-C , 25-H ) :   0.9343
B(  5-C , 26-H ) :   0.9796 B(  6-C ,  7-H ) :   0.9191 B(  6-C ,  8-C ) :   0.8725
B(  6-C , 13-S ) :   0.8581 B(  8-C ,  9-O ) :   1.7995 B(  8-C , 10-O ) :   1.1727
B( 10-O , 11-C ) :   0.7846 B( 11-C , 12-C ) :   0.9454 B( 11-C , 27-H ) :   0.9507
B( 11-C , 28-H ) :   0.9497 B( 12-C , 29-H ) :   0.9724 B( 12-C , 30-H ) :   0.9716
B( 12-C , 31-H ) :   0.9666 B( 13-S , 14-P ) :   0.9687 B( 14-P , 15-S ) :   1.7857
B( 14-P , 16-O ) :   1.0101 B( 14-P , 18-O ) :   1.1936 B( 16-O , 17-C ) :   0.8368
B( 17-C , 32-H ) :   0.9549 B( 17-C , 33-H ) :   0.9595 B( 17-C , 34-H ) :   0.9687
B( 18-O , 19-C ) :   0.7954 B( 19-C , 35-H ) :   0.9580 B( 19-C , 36-H ) :   0.9636
B( 19-C , 37-H ) :   0.9649

Dispersion correction           -0.016997022
FINAL SINGLE POINT ENERGY     -1981.449399763815

DIPOLE MOMENT
-------------

Method             : SCF
Type of density    : Electron Density
Multiplicity       :   1
Irrep              :   0
Energy             : -1981.4696854718436043 Eh
Relativity type    :
Basis              : AO
                                X                 Y                 Z
Electronic contribution:     -8.700356069       1.845109756       3.164251414
Nuclear contribution   :      9.258184707      -1.975599344      -3.234647121
                        -----------------------------------------
Total Dipole Moment    :      0.557828638      -0.130489587      -0.070395707
                        -----------------------------------------
Magnitude (a.u.)       :      0.577196567
Magnitude (Debye)      :      1.467117081

Rotational constants in cm-1:             0.009685             0.008612             0.005613
Rotational constants in MHz :           290.351907           258.172111           168.272334

                             ****ORCA TERMINATED NORMALLY****
TOTAL RUN TIME: 0 days 0 hours 1 minutes 14 seconds 138 msec
