                         Program Version 6.0.1  -  RELEASE   -
|  1> ! r2scan-3c def2/J RI DEFGRID2 scfconv6 printgap
|  2> %output
|  3>     printlevel normal
|  4> end
|  5> %cpcm
|  6>     smd true
|  7>     smdsolvent "water"
|  8> end
|  9> * xyz 0 1
| 10> C 1.3129621721 -3.6305449651 -2.1745615225
| 11> C 2.5624693913 -2.7649718271 -2.2006294701
| 12> O 2.3548099869 -1.5704333599 -1.4240030982
| 13> C 2.7474355543 -1.5580823542 -0.1655719961
| 14> O 3.345769461 -2.4566381042 0.3805778168
| 15> C 2.3869204317 -0.254886347 0.5272187398
| 16> C 0.9873927238 0.2162499718 0.1476541644
| 17> H 0.9174607272 0.3554724707 -0.9361195559
| 18> C 0.6232399846 1.527065559 0.8187670064
| 19> O -0.3869831388 1.6719476172 1.4774400171
| 20> O 1.5071683532 2.4581672906 0.5916457872
| 21> C 1.2431954637 3.7762415033 1.1216265053
| 22> C 2.3693024881 4.689013233 0.6816162232
| 23> S -0.2599213008 -1.0288580736 0.63115306
| 24> P -1.997861873 0.0442841234 0.0413501949
| 25> S -1.7642102613 1.4022390764 -1.3477183851
| 26> O -2.9427141453 -1.1690258914 -0.428835076
| 27> C -2.6529948318 -1.9267982837 -1.6061456586
| 28> O -2.8344965135 0.5316864926 1.28718867
| 29> C -3.0769047141 -0.3009123782 2.4368086252
| 30> H 1.4762351426 -4.517522302 -2.777391419
| 31> H 1.0896536229 -3.9298053021 -1.1527890228
| 32> H 0.4677020328 -3.0766148574 -2.574384571
| 33> H 2.780104771 -2.4111247451 -3.2088079894
| 34> H 3.4210546356 -3.3034196617 -1.7902438665
| 35> H 3.1047579378 0.5092067662 0.2213277251
| 36> H 2.4701240571 -0.4150574878 1.6026796423
| 37> H 0.2726299782 4.1063217628 0.7382636756
| 38> H 1.1772905844 3.7000105626 2.2109547661
| 39> H 3.3162931215 4.3321764463 1.074575337
| 40> H 2.4235153413 4.7153581717 -0.4024509355
| 41> H 2.1816132069 5.6903432209 1.0541992541
| 42> H -1.819726684 -2.6026503037 -1.4132329784
| 43> H -2.4107199452 -1.2564644214 -2.4327165589
| 44> H -3.5579151354 -2.487502929 -1.8257357202
| 45> H -2.1334496851 -0.5178528633 2.9374925411
| 46> H -3.5667907901 -1.2246902657 2.1337703575
| 47> H -3.7231805152 0.2901491898 3.0803174612
| 48> *
| 49>
| 50>                          ****END OF INPUT****

CARTESIAN COORDINATES (ANGSTROEM)
---------------------------------
  C      1.312962   -3.630545   -2.174562
  C      2.562469   -2.764972   -2.200629
  O      2.354810   -1.570433   -1.424003
  C      2.747436   -1.558082   -0.165572
  O      3.345769   -2.456638    0.380578
  C      2.386920   -0.254886    0.527219
  C      0.987393    0.216250    0.147654
  H      0.917461    0.355472   -0.936120
  C      0.623240    1.527066    0.818767
  O     -0.386983    1.671948    1.477440
  O      1.507168    2.458167    0.591646
  C      1.243195    3.776242    1.121627
  C      2.369302    4.689013    0.681616
  S     -0.259921   -1.028858    0.631153
  P     -1.997862    0.044284    0.041350
  S     -1.764210    1.402239   -1.347718
  O     -2.942714   -1.169026   -0.428835
  C     -2.652995   -1.926798   -1.606146
  O     -2.834497    0.531686    1.287189
  C     -3.076905   -0.300912    2.436809
  H      1.476235   -4.517522   -2.777391
  H      1.089654   -3.929805   -1.152789
  H      0.467702   -3.076615   -2.574385
  H      2.780105   -2.411125   -3.208808
  H      3.421055   -3.303420   -1.790244
  H      3.104758    0.509207    0.221328
  H      2.470124   -0.415057    1.602680
  H      0.272630    4.106322    0.738264
  H      1.177291    3.700011    2.210955
  H      3.316293    4.332176    1.074575
  H      2.423515    4.715358   -0.402451
  H      2.181613    5.690343    1.054199
  H     -1.819727   -2.602650   -1.413233
  H     -2.410720   -1.256464   -2.432717
  H     -3.557915   -2.487503   -1.825736
  H     -2.133450   -0.517853    2.937493
  H     -3.566791   -1.224690    2.133770
  H     -3.723181    0.290149    3.080317

 Total Charge           Charge          ....    0
 Multiplicity           Mult            ....    1
 Number of Electrons    NEL             ....  174
 Basis Dimension        Dim             ....  510

ORBITAL ENERGIES
----------------

  NO   OCC          E(Eh)            E(eV)
   0   2.0000     -88.579489     -2410.3704
   1   2.0000     -88.526301     -2408.9231
   2   2.0000     -76.920666     -2093.1177
   3   2.0000     -19.015796      -517.4461
   4   2.0000     -19.009139      -517.2650
   5   2.0000     -18.995842      -516.9031
   6   2.0000     -18.989994      -516.7440
   7   2.0000     -18.951875      -515.7067
   8   2.0000     -18.950052      -515.6571
   9   2.0000     -10.176042      -276.9042
  10   2.0000     -10.173211      -276.8271
  11   2.0000     -10.098878      -274.8044
  12   2.0000     -10.089929      -274.5609
  13   2.0000     -10.086075      -274.4561
  14   2.0000     -10.084675      -274.4180
  15   2.0000     -10.079347      -274.2730
  16   2.0000     -10.061733      -273.7937
  17   2.0000     -10.020689      -272.6768
  18   2.0000     -10.019707      -272.6501
  19   2.0000      -7.873670      -214.2534
  20   2.0000      -7.821607      -212.8367
  21   2.0000      -6.598621      -179.5576
  22   2.0000      -5.820501      -158.3839
  23   2.0000      -5.817660      -158.3066
  24   2.0000      -5.810724      -158.1178
  25   2.0000      -5.769391      -156.9931
  26   2.0000      -5.761933      -156.7902
  27   2.0000      -5.761320      -156.7735
  28   2.0000      -4.744254      -129.0977
  29   2.0000      -4.743740      -129.0837
  30   2.0000      -4.742223      -129.0425
  31   2.0000      -1.096025       -29.8244
  32   2.0000      -1.087801       -29.6006
  33   2.0000      -1.051952       -28.6251
  34   2.0000      -1.008406       -27.4401
  35   2.0000      -1.001412       -27.2498
  36   2.0000      -0.997720       -27.1493
  37   2.0000      -0.815401       -22.1882
  38   2.0000      -0.750728       -20.4283
  39   2.0000      -0.748562       -20.3694
  40   2.0000      -0.729156       -19.8413
  41   2.0000      -0.696520       -18.9533
  42   2.0000      -0.667497       -18.1635
  43   2.0000      -0.660197       -17.9649
  44   2.0000      -0.654618       -17.8131
  45   2.0000      -0.620714       -16.8905
  46   2.0000      -0.594365       -16.1735
  47   2.0000      -0.543224       -14.7819
  48   2.0000      -0.533376       -14.5139
  49   2.0000      -0.526829       -14.3358
  50   2.0000      -0.497823       -13.5464
  51   2.0000      -0.490642       -13.3511
  52   2.0000      -0.489268       -13.3137
  53   2.0000      -0.481797       -13.1104
  54   2.0000      -0.466054       -12.6820
  55   2.0000      -0.459451       -12.5023
  56   2.0000      -0.447902       -12.1880
  57   2.0000      -0.445114       -12.1122
  58   2.0000      -0.442380       -12.0378
  59   2.0000      -0.427626       -11.6363
  60   2.0000      -0.424246       -11.5443
  61   2.0000      -0.410901       -11.1812
  62   2.0000      -0.406766       -11.0687
  63   2.0000      -0.400232       -10.8909
  64   2.0000      -0.393835       -10.7168
  65   2.0000      -0.378490       -10.2992
  66   2.0000      -0.371655       -10.1132
  67   2.0000      -0.366954        -9.9853
  68   2.0000      -0.361325        -9.8321
  69   2.0000      -0.356317        -9.6959
  70   2.0000      -0.348667        -9.4877
  71   2.0000      -0.341002        -9.2791
  72   2.0000      -0.334221        -9.0946
  73   2.0000      -0.330747        -9.0001
  74   2.0000      -0.325169        -8.8483
  75   2.0000      -0.317144        -8.6299
  76   2.0000      -0.314096        -8.5470
  77   2.0000      -0.306348        -8.3362
  78   2.0000      -0.290506        -7.9051
  79   2.0000      -0.286577        -7.7982
  80   2.0000      -0.283681        -7.7194
  81   2.0000      -0.277732        -7.5575
  82   2.0000      -0.268635        -7.3099
  83   2.0000      -0.252790        -6.8788
  84   2.0000      -0.242359        -6.5949
  85   2.0000      -0.227783        -6.1983
  86   2.0000      -0.223120        -6.0714
  87   0.0000      -0.053693        -1.4611
  88   0.0000      -0.041136        -1.1194
  89   0.0000      -0.017704        -0.4817
  90   0.0000      -0.000510        -0.0139
  91   0.0000       0.015195         0.4135

MULLIKEN ATOMIC CHARGES
-----------------------
   0 C :   -0.501683
   1 C :   -0.143923
   2 O :   -0.157047
   3 C :    0.400783
   4 O :   -0.483265
   5 C :   -0.501565
   6 C :    0.040767
   7 H :    0.258227
   8 C :    0.334257
   9 O :   -0.453555
  10 O :   -0.154526
  11 C :   -0.152517
  12 C :   -0.493359
  13 S :   -0.195187
  14 P :    0.795736
  15 S :   -0.504992
  16 O :   -0.387385
  17 C :   -0.309796
  18 O :   -0.349631
  19 C :   -0.304129
  20 H :    0.171341
  21 H :    0.171075
  22 H :    0.170435
  23 H :    0.176275
  24 H :    0.177855
  25 H :    0.236364
  26 H :    0.218587
  27 H :    0.178079
  28 H :    0.178124
  29 H :    0.167399
  30 H :    0.167228
  31 H :    0.172514
  32 H :    0.174418
  33 H :    0.177401
  34 H :    0.177922
  35 H :    0.180338
  36 H :    0.185184
  37 H :    0.182252
Sum of atomic charges:   -0.0000000

LOEWDIN ATOMIC CHARGES
----------------------
   0 C :   -0.393136
   1 C :    0.038913
   2 O :   -0.598415
   3 C :    0.357479
   4 O :   -0.473360
   5 C :   -0.189992
   6 C :   -0.193386
   7 H :    0.221609
   8 C :    0.347952
   9 O :   -0.487571
  10 O :   -0.571677
  11 C :    0.044839
  12 C :   -0.386884
  13 S :    0.219310
  14 P :    0.403919
  15 S :   -0.124777
  16 O :   -0.703559
  17 C :   -0.060682
  18 O :   -0.669832
  19 C :   -0.043481
  20 H :    0.168369
  21 H :    0.163397
  22 H :    0.162412
  23 H :    0.190279
  24 H :    0.192976
  25 H :    0.216316
  26 H :    0.200548
  27 H :    0.188728
  28 H :    0.188013
  29 H :    0.163784
  30 H :    0.164192
  31 H :    0.170169
  32 H :    0.175867
  33 H :    0.177247
  34 H :    0.187607
  35 H :    0.179649
  36 H :    0.181052
  37 H :    0.192124

  Mayer bond orders larger than 0.100000
B(  0-C ,  1-C ) :   0.9316 B(  0-C , 20-H ) :   0.9589 B(  0-C , 21-H ) :   0.9676
B(  0-C , 22-H ) :   0.9680 B(  1-C ,  2-O ) :   0.7796 B(  1-C , 23-H ) :   0.9525
B(  1-C , 24-H ) :   0.9628 B(  2-O ,  3-C ) :   1.1000 B(  3-C ,  4-O ) :   1.8099
B(  3-C ,  5-C ) :   0.9504 B(  5-C ,  6-C ) :   0.8586 B(  5-C , 25-H ) :   0.9144
B(  5-C , 26-H ) :   0.9820 B(  6-C ,  7-H ) :   0.9062 B(  6-C ,  8-C ) :   0.8763
B(  6-C , 13-S ) :   0.8425 B(  8-C ,  9-O ) :   1.7632 B(  8-C , 10-O ) :   1.1967
B( 10-O , 11-C ) :   0.7717 B( 11-C , 12-C ) :   0.9441 B( 11-C , 27-H ) :   0.9447
B( 11-C , 28-H ) :   0.9424 B( 12-C , 29-H ) :   0.9694 B( 12-C , 30-H ) :   0.9701
B( 12-C , 31-H ) :   0.9607 B( 13-S , 14-P ) :   0.9909 B( 14-P , 15-S ) :   1.7834
B( 14-P , 16-O ) :   1.0137 B( 14-P , 18-O ) :   1.1842 B( 16-O , 17-C ) :   0.8284
B( 17-C , 32-H ) :   0.9475 B( 17-C , 33-H ) :   0.9553 B( 17-C , 34-H ) :   0.9585
B( 18-O , 19-C ) :   0.7896 B( 19-C , 35-H ) :   0.9490 B( 19-C , 36-H ) :   0.9537
B( 19-C , 37-H ) :   0.9542

Dispersion correction           -0.016997022
FINAL SINGLE POINT ENERGY     -1981.465119082816

DIPOLE MOMENT
-------------

Method             : SCF
Type of density    : Electron Density
Multiplicity       :   1
Irrep              :   0
Energy             : -1981.4854047908447683 Eh
Relativity type    :
Basis              : AO
                                X                 Y                 Z
Electronic contribution:     -8.309704036       1.618501220       2.995954568
Nuclear contribution   :      9.258184707      -1.975599344      -3.234647121
                        -----------------------------------------
Total Dipole Moment    :      0.948480672      -0.357098124      -0.238692553
                        -----------------------------------------
Magnitude (a.u.)       :      1.041205450
Magnitude (Debye)      :      2.646533931

Rotational constants in cm-1:             0.009685             0.008612             0.005613
Rotational constants in MHz :           290.351907           258.172111           168.272334

                             ****ORCA TERMINATED NORMALLY****
TOTAL RUN TIME: 0 days 0 hours 1 minutes 54 seconds 134 msec
