                         Program Version 6.0.0  -   RELEASE  -
|  1> ! r2scan-3c def2/J RI DEFGRID2 scfconv6 printgap
|  2> %output
|  3>     printlevel normal
|  4> end
|  5> * xyz 0 1
|  6> C 0.1891518231 1.5173354009 -0.0002314809
|  7> C 1.0935338134 0.5167493152 -9.81347e-05
|  8> C 0.6951531998 -0.8812629823 -8.0725e-05
|  9> O 1.4378958413 -1.8459792735 3.0563e-06
| 10> N -0.6805747255 -1.0305405974 -0.000123854
| 11> C -1.6352277005 -0.040027147 0.0001868709
| 12> O -2.8254527709 -0.277394743 7.14028e-05
| 13> N -1.1384821527 1.2391328244 -6.5799e-06
| 14> F 2.4181764328 0.7951097237 0.0001934405
| 15> H 0.4909518465 2.5536048545 -0.0005681494
| 16> H -1.0300492865 -1.9855891082 -0.0002255742
| 17> H -1.8196004018 1.9913949028 0.0004411442
| 18> *
| 19>
| 20>                          ****END OF INPUT****

CARTESIAN COORDINATES (ANGSTROEM)
---------------------------------
  C      0.189152    1.517335   -0.000231
  C      1.093534    0.516749   -0.000098
  C      0.695153   -0.881263   -0.000081
  O      1.437896   -1.845979    0.000003
  N     -0.680575   -1.030541   -0.000124
  C     -1.635228   -0.040027    0.000187
  O     -2.825453   -0.277395    0.000071
  N     -1.138482    1.239133   -0.000007
  F      2.418176    0.795110    0.000193
  H      0.490952    2.553605   -0.000568
  H     -1.030049   -1.985589   -0.000226
  H     -1.819600    1.991395    0.000441

 Total Charge           Charge          ....    0
 Multiplicity           Mult            ....    1
 Number of Electrons    NEL             ....   66
 Basis Dimension        Dim             ....  211

ORBITAL ENERGIES
----------------

  NO   OCC          E(Eh)            E(eV)
   0   2.0000     -24.519873      -667.2197
   1   2.0000     -18.943635      -515.4825
   2   2.0000     -18.943541      -515.4800
   3   2.0000     -14.255045      -387.8995
   4   2.0000     -14.237094      -387.4110
   5   2.0000     -10.196090      -277.4497
   6   2.0000     -10.167133      -276.6618
   7   2.0000     -10.146751      -276.1071
   8   2.0000     -10.128503      -275.6106
   9   2.0000      -1.204337       -32.7717
  10   2.0000      -1.064438       -28.9648
  11   2.0000      -1.026486       -27.9321
  12   2.0000      -0.970237       -26.4015
  13   2.0000      -0.919952       -25.0332
  14   2.0000      -0.782817       -21.3015
  15   2.0000      -0.685840       -18.6627
  16   2.0000      -0.658826       -17.9276
  17   2.0000      -0.589794       -16.0491
  18   2.0000      -0.568314       -15.4646
  19   2.0000      -0.517027       -14.0690
  20   2.0000      -0.493281       -13.4229
  21   2.0000      -0.480781       -13.0827
  22   2.0000      -0.465776       -12.6744
  23   2.0000      -0.437553       -11.9064
  24   2.0000      -0.419982       -11.4283
  25   2.0000      -0.411908       -11.2086
  26   2.0000      -0.393712       -10.7134
  27   2.0000      -0.371674       -10.1138
  28   2.0000      -0.351934        -9.5766
  29   2.0000      -0.279220        -7.5980
  30   2.0000      -0.277267        -7.5448
  31   2.0000      -0.249488        -6.7889
  32   2.0000      -0.235699        -6.4137
  33   0.0000      -0.087974        -2.3939
  34   0.0000      -0.031846        -0.8666
  35   0.0000       0.015303         0.4164
  36   0.0000       0.047538         1.2936
  37   0.0000       0.071733         1.9519

MULLIKEN ATOMIC CHARGES
-----------------------
   0 C :   -0.198327
   1 C :    0.317176
   2 C :    0.079752
   3 O :   -0.366553
   4 N :   -0.086339
   5 C :    0.244456
   6 O :   -0.422422
   7 N :   -0.079850
   8 F :   -0.204438
   9 H :    0.158349
  10 H :    0.280339
  11 H :    0.277858
Sum of atomic charges:    0.0000000

LOEWDIN ATOMIC CHARGES
----------------------
   0 C :    0.138428
   1 C :    0.251666
   2 C :    0.359672
   3 O :   -0.401639
   4 N :   -0.437698
   5 C :    0.438481
   6 O :   -0.388474
   7 N :   -0.515948
   8 F :   -0.255510
   9 H :    0.208986
  10 H :    0.304426
  11 H :    0.297609

  Mayer bond orders larger than 0.100000
B(  0-C ,  1-C ) :   1.5737 B(  0-C ,  7-N ) :   1.1449 B(  0-C ,  9-H ) :   0.9378
B(  1-C ,  2-C ) :   1.0241 B(  1-C ,  8-F ) :   0.8977 B(  2-C ,  3-O ) :   1.9842
B(  2-C ,  4-N ) :   1.0311 B(  4-N ,  5-C ) :   1.0766 B(  4-N , 10-H ) :   0.8993
B(  5-C ,  6-O ) :   1.9763 B(  5-C ,  7-N ) :   1.0828 B(  7-N , 11-H ) :   0.9043

Dispersion correction           -0.003778639
FINAL SINGLE POINT ENERGY      -513.980885815043

DIPOLE MOMENT
-------------

Method             : SCF
Type of density    : Electron Density
Multiplicity       :   1
Irrep              :   0
Energy             :  -513.9896386573946074 Eh
Relativity type    :
Basis              : AO
                                X                 Y                 Z
Electronic contribution:      3.982527090      -0.051584033       0.000512741
Nuclear contribution   :     -4.483919883       1.634212611      -0.000509625
                        -----------------------------------------
Total Dipole Moment    :     -0.501392793       1.582628578       0.000003116
                        -----------------------------------------
Magnitude (a.u.)       :      1.660152989
Magnitude (Debye)      :      4.219773548

Rotational constants in cm-1:             0.106093             0.047634             0.032874
Rotational constants in MHz :          3180.582673          1428.027016           985.537579

                             ****ORCA TERMINATED NORMALLY****
TOTAL RUN TIME: 0 days 0 hours 0 minutes 40 seconds 154 msec
