                         Program Version 6.0.0  -   RELEASE  -
|  1> ! r2scan-3c def2/J RI DEFGRID2 scfconv6 printgap
|  2> %output
|  3>     printlevel normal
|  4> end
|  5> %cpcm
|  6>     smd true
|  7>     smdsolvent "water"
|  8> end
|  9> * xyz 0 1
| 10> C 0.1891518231 1.5173354009 -0.0002314809
| 11> C 1.0935338134 0.5167493152 -9.81347e-05
| 12> C 0.6951531998 -0.8812629823 -8.0725e-05
| 13> O 1.4378958413 -1.8459792735 3.0563e-06
| 14> N -0.6805747255 -1.0305405974 -0.000123854
| 15> C -1.6352277005 -0.040027147 0.0001868709
| 16> O -2.8254527709 -0.277394743 7.14028e-05
| 17> N -1.1384821527 1.2391328244 -6.5799e-06
| 18> F 2.4181764328 0.7951097237 0.0001934405
| 19> H 0.4909518465 2.5536048545 -0.0005681494
| 20> H -1.0300492865 -1.9855891082 -0.0002255742
| 21> H -1.8196004018 1.9913949028 0.0004411442
| 22> *
| 23>
| 24>                          ****END OF INPUT****

CARTESIAN COORDINATES (ANGSTROEM)
---------------------------------
  C      0.189152    1.517335   -0.000231
  C      1.093534    0.516749   -0.000098
  C      0.695153   -0.881263   -0.000081
  O      1.437896   -1.845979    0.000003
  N     -0.680575   -1.030541   -0.000124
  C     -1.635228   -0.040027    0.000187
  O     -2.825453   -0.277395    0.000071
  N     -1.138482    1.239133   -0.000007
  F      2.418176    0.795110    0.000193
  H      0.490952    2.553605   -0.000568
  H     -1.030049   -1.985589   -0.000226
  H     -1.819600    1.991395    0.000441

 Total Charge           Charge          ....    0
 Multiplicity           Mult            ....    1
 Number of Electrons    NEL             ....   66
 Basis Dimension        Dim             ....  211

ORBITAL ENERGIES
----------------

  NO   OCC          E(Eh)            E(eV)
   0   2.0000     -24.515473      -667.0999
   1   2.0000     -18.948167      -515.6058
   2   2.0000     -18.943988      -515.4921
   3   2.0000     -14.235956      -387.3801
   4   2.0000     -14.227173      -387.1411
   5   2.0000     -10.191258      -277.3182
   6   2.0000     -10.166938      -276.6564
   7   2.0000     -10.133292      -275.7409
   8   2.0000     -10.110502      -275.1207
   9   2.0000      -1.200757       -32.6743
  10   2.0000      -1.059643       -28.8344
  11   2.0000      -1.031027       -28.0557
  12   2.0000      -0.958511       -26.0824
  13   2.0000      -0.909161       -24.7395
  14   2.0000      -0.768922       -20.9234
  15   2.0000      -0.669430       -18.2161
  16   2.0000      -0.647654       -17.6236
  17   2.0000      -0.576644       -15.6913
  18   2.0000      -0.557495       -15.1702
  19   2.0000      -0.495477       -13.4826
  20   2.0000      -0.483331       -13.1521
  21   2.0000      -0.470864       -12.8129
  22   2.0000      -0.456091       -12.4109
  23   2.0000      -0.432503       -11.7690
  24   2.0000      -0.423017       -11.5109
  25   2.0000      -0.421545       -11.4708
  26   2.0000      -0.390756       -10.6330
  27   2.0000      -0.368190       -10.0190
  28   2.0000      -0.341174        -9.2838
  29   2.0000      -0.281790        -7.6679
  30   2.0000      -0.279647        -7.6096
  31   2.0000      -0.258027        -7.0213
  32   2.0000      -0.225726        -6.1423
  33   0.0000      -0.075612        -2.0575
  34   0.0000      -0.026283        -0.7152
  35   0.0000       0.039508         1.0751
  36   0.0000       0.066695         1.8149
  37   0.0000       0.089422         2.4333

MULLIKEN ATOMIC CHARGES
-----------------------
   0 C :   -0.177999
   1 C :    0.307760
   2 C :    0.105866
   3 O :   -0.476362
   4 N :   -0.087321
   5 C :    0.273225
   6 O :   -0.508021
   7 N :   -0.085297
   8 F :   -0.226461
   9 H :    0.215832
  10 H :    0.325180
  11 H :    0.333599
Sum of atomic charges:    0.0000000

LOEWDIN ATOMIC CHARGES
----------------------
   0 C :    0.177489
   1 C :    0.241309
   2 C :    0.364097
   3 O :   -0.486350
   4 N :   -0.412926
   5 C :    0.446123
   6 O :   -0.452277
   7 N :   -0.470630
   8 F :   -0.273414
   9 H :    0.232520
  10 H :    0.317310
  11 H :    0.316749

  Mayer bond orders larger than 0.100000
B(  0-C ,  1-C ) :   1.5171 B(  0-C ,  7-N ) :   1.1773 B(  0-C ,  9-H ) :   0.9329
B(  1-C ,  2-C ) :   1.0529 B(  1-C ,  8-F ) :   0.8807 B(  2-C ,  3-O ) :   1.9041
B(  2-C ,  4-N ) :   1.0599 B(  4-N ,  5-C ) :   1.0898 B(  4-N , 10-H ) :   0.8793
B(  5-C ,  6-O ) :   1.9103 B(  5-C ,  7-N ) :   1.1115 B(  7-N , 11-H ) :   0.8776

Dispersion correction           -0.003778639
FINAL SINGLE POINT ENERGY      -514.003935754862

DIPOLE MOMENT
-------------

Method             : SCF
Type of density    : Electron Density
Multiplicity       :   1
Irrep              :   0
Energy             :  -514.0126885972135824 Eh
Relativity type    :
Basis              : AO
                                X                 Y                 Z
Electronic contribution:      3.735264535       0.725476112       0.000505998
Nuclear contribution   :     -4.483919883       1.634212611      -0.000509625
                        -----------------------------------------
Total Dipole Moment    :     -0.748655348       2.359688723      -0.000003627
                        -----------------------------------------
Magnitude (a.u.)       :      2.475604108
Magnitude (Debye)      :      6.292485570

Rotational constants in cm-1:             0.106093             0.047634             0.032874
Rotational constants in MHz :          3180.582673          1428.027016           985.537579

                             ****ORCA TERMINATED NORMALLY****
TOTAL RUN TIME: 0 days 0 hours 0 minutes 42 seconds 756 msec
