                         Program Version 6.0.0  -   RELEASE  -
|  1> ! r2scan-3c def2/J RI DEFGRID2 scfconv6 printgap
|  2> %output
|  3>     printlevel normal
|  4> end
|  5> * xyz 0 1
|  6> C 5.731598879 -0.7483418874 -1.50412899
|  7> C 4.3084194413 -0.9667481064 -1.9794501261
|  8> O 3.4831217821 -1.4310191169 -0.891144836
|  9> P 2.517835818 -0.4475226888 -0.1181292084
| 10> S 3.2375115646 1.3416075371 0.257474893
| 11> O 2.2520939828 -1.4388338209 1.0833378592
| 12> C 1.2512016595 -1.2981185517 2.1059559979
| 13> C 1.5482065682 -0.1569493765 3.0587827684
| 14> S 0.7522268991 -0.4465902797 -1.326854725
| 15> C 0.1944930965 1.2477435646 -1.0091585589
| 16> S -0.6783347371 1.430833466 0.5704363845
| 17> P -2.3704320956 0.2882776115 0.036499776
| 18> S -3.0330288706 0.4710807257 -1.8036827509
| 19> O -3.4329192738 0.5919660073 1.1766091179
| 20> C -4.3881288019 1.6625972552 1.0767399457
| 21> C -3.7291979694 3.0243593493 1.1601649056
| 22> O -1.8584730447 -1.1547619765 0.4541152911
| 23> C -2.437430605 -2.358752592 -0.0885307431
| 24> C -3.8495118955 -2.5762481171 0.4122001216
| 25> H 6.3526659351 -0.4655096365 -2.3478972405
| 26> H 5.758398292 0.0455788625 -0.7607955517
| 27> H 6.1186864771 -1.6599114236 -1.0581785594
| 28> H 4.2546798862 -1.7553260383 -2.7321256195
| 29> H 3.8907051148 -0.0420228272 -2.3893508571
| 30> H 0.2705577645 -1.1704948294 1.6371885853
| 31> H 1.281830995 -2.2599397834 2.622084185
| 32> H 0.8308346966 -0.1780277555 3.8729075604
| 33> H 2.553463544 -0.2566816433 3.4602612373
| 34> H 1.4691287334 0.8010816043 2.5481723024
| 35> H -0.476332566 1.5126505889 -1.8255076454
| 36> H 1.0585916176 1.9120782043 -0.9635915656
| 37> H -4.9303877341 1.5555293047 0.1316493301
| 38> H -5.0638519253 1.4896912715 1.9153462111
| 39> H -4.4948256129 3.792267113 1.2052146569
| 40> H -3.1011958466 3.0870323088 2.0453431552
| 41> H -3.1106112924 3.1949169585 0.2799230042
| 42> H -2.416470876 -2.2896393753 -1.1809884646
| 43> H -1.7616104406 -3.148478648 0.2423535882
| 44> H -3.8713904824 -2.545128402 1.4983257934
| 45> H -4.503715201 -1.7965174732 0.0238835489
| 46> H -4.2087491327 -3.5412790907 0.0687866279
| 47> *
| 48>
| 49>                          ****END OF INPUT****

CARTESIAN COORDINATES (ANGSTROEM)
---------------------------------
  C      5.731599   -0.748342   -1.504129
  C      4.308419   -0.966748   -1.979450
  O      3.483122   -1.431019   -0.891145
  P      2.517836   -0.447523   -0.118129
  S      3.237512    1.341608    0.257475
  O      2.252094   -1.438834    1.083338
  C      1.251202   -1.298119    2.105956
  C      1.548207   -0.156949    3.058783
  S      0.752227   -0.446590   -1.326855
  C      0.194493    1.247744   -1.009159
  S     -0.678335    1.430833    0.570436
  P     -2.370432    0.288278    0.036500
  S     -3.033029    0.471081   -1.803683
  O     -3.432919    0.591966    1.176609
  C     -4.388129    1.662597    1.076740
  C     -3.729198    3.024359    1.160165
  O     -1.858473   -1.154762    0.454115
  C     -2.437431   -2.358753   -0.088531
  C     -3.849512   -2.576248    0.412200
  H      6.352666   -0.465510   -2.347897
  H      5.758398    0.045579   -0.760796
  H      6.118686   -1.659911   -1.058179
  H      4.254680   -1.755326   -2.732126
  H      3.890705   -0.042023   -2.389351
  H      0.270558   -1.170495    1.637189
  H      1.281831   -2.259940    2.622084
  H      0.830835   -0.178028    3.872908
  H      2.553464   -0.256682    3.460261
  H      1.469129    0.801082    2.548172
  H     -0.476333    1.512651   -1.825508
  H      1.058592    1.912078   -0.963592
  H     -4.930388    1.555529    0.131649
  H     -5.063852    1.489691    1.915346
  H     -4.494826    3.792267    1.205215
  H     -3.101196    3.087032    2.045343
  H     -3.110611    3.194917    0.279923
  H     -2.416471   -2.289639   -1.180988
  H     -1.761610   -3.148479    0.242354
  H     -3.871390   -2.545128    1.498326
  H     -4.503715   -1.796517    0.023884
  H     -4.208749   -3.541279    0.068787

 Total Charge           Charge          ....    0
 Multiplicity           Mult            ....    1
 Number of Electrons    NEL             ....  202
 Basis Dimension        Dim             ....  539

ORBITAL ENERGIES
----------------

  NO   OCC          E(Eh)            E(eV)
   0   2.0000     -88.578382     -2410.3403
   1   2.0000     -88.574592     -2410.2372
   2   2.0000     -88.526990     -2408.9419
   3   2.0000     -88.521724     -2408.7986
   4   2.0000     -76.918540     -2093.0599
   5   2.0000     -76.913839     -2092.9320
   6   2.0000     -18.998694      -516.9808
   7   2.0000     -18.993669      -516.8440
   8   2.0000     -18.988851      -516.7129
   9   2.0000     -18.988152      -516.6939
  10   2.0000     -10.103506      -274.9304
  11   2.0000     -10.103464      -274.9292
  12   2.0000     -10.100113      -274.8381
  13   2.0000     -10.097382      -274.7637
  14   2.0000     -10.093620      -274.6614
  15   2.0000     -10.032423      -272.9961
  16   2.0000     -10.031944      -272.9831
  17   2.0000     -10.023913      -272.7645
  18   2.0000     -10.019852      -272.6540
  19   2.0000      -7.872833      -214.2307
  20   2.0000      -7.868487      -214.1124
  21   2.0000      -7.821653      -212.8380
  22   2.0000      -7.816638      -212.7015
  23   2.0000      -6.597195      -179.5188
  24   2.0000      -6.592119      -179.3807
  25   2.0000      -5.819639      -158.3604
  26   2.0000      -5.816727      -158.2812
  27   2.0000      -5.815396      -158.2450
  28   2.0000      -5.812226      -158.1587
  29   2.0000      -5.809960      -158.0971
  30   2.0000      -5.805789      -157.9835
  31   2.0000      -5.769232      -156.9888
  32   2.0000      -5.764253      -156.8533
  33   2.0000      -5.761954      -156.7907
  34   2.0000      -5.761725      -156.7845
  35   2.0000      -5.756890      -156.6529
  36   2.0000      -5.756689      -156.6475
  37   2.0000      -4.742563      -129.0517
  38   2.0000      -4.742093      -129.0389
  39   2.0000      -4.741048      -129.0105
  40   2.0000      -4.737476      -128.9133
  41   2.0000      -4.737296      -128.9084
  42   2.0000      -4.735792      -128.8675
  43   2.0000      -1.055068       -28.7099
  44   2.0000      -1.050675       -28.5903
  45   2.0000      -1.016232       -27.6531
  46   2.0000      -1.007206       -27.4075
  47   2.0000      -0.801640       -21.8137
  48   2.0000      -0.759403       -20.6644
  49   2.0000      -0.750002       -20.4086
  50   2.0000      -0.735201       -20.0058
  51   2.0000      -0.723789       -19.6953
  52   2.0000      -0.713122       -19.4050
  53   2.0000      -0.688408       -18.7325
  54   2.0000      -0.671341       -18.2681
  55   2.0000      -0.636505       -17.3202
  56   2.0000      -0.625188       -17.0122
  57   2.0000      -0.609493       -16.5852
  58   2.0000      -0.596183       -16.2230
  59   2.0000      -0.594355       -16.1732
  60   2.0000      -0.527732       -14.3603
  61   2.0000      -0.518899       -14.1200
  62   2.0000      -0.496993       -13.5239
  63   2.0000      -0.488704       -13.2983
  64   2.0000      -0.477679       -12.9983
  65   2.0000      -0.462575       -12.5873
  66   2.0000      -0.459808       -12.5120
  67   2.0000      -0.453355       -12.3364
  68   2.0000      -0.440843       -11.9960
  69   2.0000      -0.435235       -11.8433
  70   2.0000      -0.425024       -11.5655
  71   2.0000      -0.419367       -11.4115
  72   2.0000      -0.414191       -11.2707
  73   2.0000      -0.407254       -11.0819
  74   2.0000      -0.397360       -10.8127
  75   2.0000      -0.391102       -10.6424
  76   2.0000      -0.382616       -10.4115
  77   2.0000      -0.376129       -10.2350
  78   2.0000      -0.371942       -10.1210
  79   2.0000      -0.366518        -9.9735
  80   2.0000      -0.363594        -9.8939
  81   2.0000      -0.358234        -9.7480
  82   2.0000      -0.354123        -9.6362
  83   2.0000      -0.348341        -9.4788
  84   2.0000      -0.347193        -9.4476
  85   2.0000      -0.335749        -9.1362
  86   2.0000      -0.325595        -8.8599
  87   2.0000      -0.313936        -8.5426
  88   2.0000      -0.309278        -8.4159
  89   2.0000      -0.305966        -8.3258
  90   2.0000      -0.301746        -8.2109
  91   2.0000      -0.292042        -7.9469
  92   2.0000      -0.283807        -7.7228
  93   2.0000      -0.282456        -7.6860
  94   2.0000      -0.271838        -7.3971
  95   2.0000      -0.250062        -6.8045
  96   2.0000      -0.232875        -6.3368
  97   2.0000      -0.230097        -6.2613
  98   2.0000      -0.221047        -6.0150
  99   2.0000      -0.218362        -5.9419
 100   2.0000      -0.214634        -5.8405
 101   0.0000      -0.049298        -1.3415
 102   0.0000      -0.029454        -0.8015
 103   0.0000      -0.006281        -0.1709
 104   0.0000      -0.003408        -0.0927
 105   0.0000       0.013229         0.3600

MULLIKEN ATOMIC CHARGES
-----------------------
   0 C :   -0.448749
   1 C :   -0.120500
   2 O :   -0.318144
   3 P :    0.680190
   4 S :   -0.465112
   5 O :   -0.273011
   6 C :   -0.161130
   7 C :   -0.422567
   8 S :   -0.132961
   9 C :   -0.242649
  10 S :   -0.125044
  11 P :    0.676050
  12 S :   -0.476672
  13 O :   -0.304211
  14 C :   -0.151564
  15 C :   -0.451239
  16 O :   -0.276770
  17 C :   -0.151114
  18 C :   -0.439736
  19 H :    0.144270
  20 H :    0.175920
  21 H :    0.152351
  22 H :    0.150788
  23 H :    0.154418
  24 H :    0.178383
  25 H :    0.146776
  26 H :    0.144514
  27 H :    0.152459
  28 H :    0.170743
  29 H :    0.216909
  30 H :    0.215899
  31 H :    0.171790
  32 H :    0.149344
  33 H :    0.149268
  34 H :    0.156849
  35 H :    0.176971
  36 H :    0.174223
  37 H :    0.152521
  38 H :    0.155804
  39 H :    0.166563
  40 H :    0.148168
Sum of atomic charges:   -0.0000000

LOEWDIN ATOMIC CHARGES
----------------------
   0 C :   -0.397844
   1 C :    0.021864
   2 O :   -0.653136
   3 P :    0.389706
   4 S :   -0.128894
   5 O :   -0.644106
   6 C :    0.023306
   7 C :   -0.410091
   8 S :    0.159190
   9 C :   -0.426818
  10 S :    0.166096
  11 P :    0.375691
  12 S :   -0.128558
  13 O :   -0.660533
  14 C :    0.020738
  15 C :   -0.405843
  16 O :   -0.695433
  17 C :    0.018997
  18 C :   -0.398486
  19 H :    0.158133
  20 H :    0.167122
  21 H :    0.158892
  22 H :    0.177441
  23 H :    0.176951
  24 H :    0.191424
  25 H :    0.179605
  26 H :    0.158802
  27 H :    0.160925
  28 H :    0.165595
  29 H :    0.190514
  30 H :    0.194545
  31 H :    0.179718
  32 H :    0.180074
  33 H :    0.160075
  34 H :    0.160842
  35 H :    0.165736
  36 H :    0.181716
  37 H :    0.180600
  38 H :    0.160949
  39 H :    0.164512
  40 H :    0.159987

  Mayer bond orders larger than 0.100000
B(  0-C ,  1-C ) :   0.9569 B(  0-C , 19-H ) :   0.9661 B(  0-C , 20-H ) :   0.9603
B(  0-C , 21-H ) :   0.9744 B(  1-C ,  2-O ) :   0.7677 B(  1-C , 22-H ) :   0.9620
B(  1-C , 23-H ) :   0.9636 B(  2-O ,  3-P ) :   1.1207 B(  3-P ,  4-S ) :   1.7433
B(  3-P ,  5-O ) :   1.1586 B(  3-P ,  8-S ) :   1.0539 B(  5-O ,  6-C ) :   0.8018
B(  6-C ,  7-C ) :   0.9273 B(  6-C , 24-H ) :   0.9520 B(  6-C , 25-H ) :   0.9642
B(  7-C , 26-H ) :   0.9656 B(  7-C , 27-H ) :   0.9685 B(  7-C , 28-H ) :   0.9525
B(  8-S ,  9-C ) :   0.9143 B(  9-C , 10-S ) :   0.9010 B(  9-C , 29-H ) :   0.9096
B(  9-C , 30-H ) :   0.8976 B( 10-S , 11-P ) :   1.0912 B( 11-P , 12-S ) :   1.7562
B( 11-P , 13-O ) :   1.0709 B( 11-P , 16-O ) :   1.1336 B( 13-O , 14-C ) :   0.8118
B( 14-C , 15-C ) :   0.9231 B( 14-C , 31-H ) :   0.9663 B( 14-C , 32-H ) :   0.9578
B( 15-C , 33-H ) :   0.9581 B( 15-C , 34-H ) :   0.9687 B( 15-C , 35-H ) :   0.9619
B( 16-O , 17-C ) :   0.7956 B( 17-C , 18-C ) :   0.9238 B( 17-C , 36-H ) :   0.9639
B( 17-C , 37-H ) :   0.9611 B( 18-C , 38-H ) :   0.9716 B( 18-C , 39-H ) :   0.9600
B( 18-C , 40-H ) :   0.9618

Dispersion correction           -0.021454814
FINAL SINGLE POINT ENERGY     -2932.465327183626

DIPOLE MOMENT
-------------

Method             : SCF
Type of density    : Electron Density
Multiplicity       :   1
Irrep              :   0
Energy             : -2932.4904979771890794 Eh
Relativity type    :
Basis              : AO
                                X                 Y                 Z
Electronic contribution:      3.218745290       2.929550491      -7.490399535
Nuclear contribution   :     -3.979318448      -3.477760703       7.946851500
                        -----------------------------------------
Total Dipole Moment    :     -0.760573158      -0.548210212       0.456451965
                        -----------------------------------------
Magnitude (a.u.)       :      1.042762850
Magnitude (Debye)      :      2.650492526

Rotational constants in cm-1:             0.013888             0.004444             0.004320
Rotational constants in MHz :           416.361531           133.226504           129.499908

                             ****ORCA TERMINATED NORMALLY****
TOTAL RUN TIME: 0 days 0 hours 1 minutes 18 seconds 162 msec
