                         Program Version 6.0.0  -   RELEASE  -
|  1> ! r2scan-3c def2/J RI DEFGRID2 scfconv6 printgap
|  2> %output
|  3>     printlevel normal
|  4> end
|  5> %cpcm
|  6>     smd true
|  7>     smdsolvent "water"
|  8> end
|  9> * xyz 0 1
| 10> C 5.731598879 -0.7483418874 -1.50412899
| 11> C 4.3084194413 -0.9667481064 -1.9794501261
| 12> O 3.4831217821 -1.4310191169 -0.891144836
| 13> P 2.517835818 -0.4475226888 -0.1181292084
| 14> S 3.2375115646 1.3416075371 0.257474893
| 15> O 2.2520939828 -1.4388338209 1.0833378592
| 16> C 1.2512016595 -1.2981185517 2.1059559979
| 17> C 1.5482065682 -0.1569493765 3.0587827684
| 18> S 0.7522268991 -0.4465902797 -1.326854725
| 19> C 0.1944930965 1.2477435646 -1.0091585589
| 20> S -0.6783347371 1.430833466 0.5704363845
| 21> P -2.3704320956 0.2882776115 0.036499776
| 22> S -3.0330288706 0.4710807257 -1.8036827509
| 23> O -3.4329192738 0.5919660073 1.1766091179
| 24> C -4.3881288019 1.6625972552 1.0767399457
| 25> C -3.7291979694 3.0243593493 1.1601649056
| 26> O -1.8584730447 -1.1547619765 0.4541152911
| 27> C -2.437430605 -2.358752592 -0.0885307431
| 28> C -3.8495118955 -2.5762481171 0.4122001216
| 29> H 6.3526659351 -0.4655096365 -2.3478972405
| 30> H 5.758398292 0.0455788625 -0.7607955517
| 31> H 6.1186864771 -1.6599114236 -1.0581785594
| 32> H 4.2546798862 -1.7553260383 -2.7321256195
| 33> H 3.8907051148 -0.0420228272 -2.3893508571
| 34> H 0.2705577645 -1.1704948294 1.6371885853
| 35> H 1.281830995 -2.2599397834 2.622084185
| 36> H 0.8308346966 -0.1780277555 3.8729075604
| 37> H 2.553463544 -0.2566816433 3.4602612373
| 38> H 1.4691287334 0.8010816043 2.5481723024
| 39> H -0.476332566 1.5126505889 -1.8255076454
| 40> H 1.0585916176 1.9120782043 -0.9635915656
| 41> H -4.9303877341 1.5555293047 0.1316493301
| 42> H -5.0638519253 1.4896912715 1.9153462111
| 43> H -4.4948256129 3.792267113 1.2052146569
| 44> H -3.1011958466 3.0870323088 2.0453431552
| 45> H -3.1106112924 3.1949169585 0.2799230042
| 46> H -2.416470876 -2.2896393753 -1.1809884646
| 47> H -1.7616104406 -3.148478648 0.2423535882
| 48> H -3.8713904824 -2.545128402 1.4983257934
| 49> H -4.503715201 -1.7965174732 0.0238835489
| 50> H -4.2087491327 -3.5412790907 0.0687866279
| 51> *
| 52>
| 53>                          ****END OF INPUT****

CARTESIAN COORDINATES (ANGSTROEM)
---------------------------------
  C      5.731599   -0.748342   -1.504129
  C      4.308419   -0.966748   -1.979450
  O      3.483122   -1.431019   -0.891145
  P      2.517836   -0.447523   -0.118129
  S      3.237512    1.341608    0.257475
  O      2.252094   -1.438834    1.083338
  C      1.251202   -1.298119    2.105956
  C      1.548207   -0.156949    3.058783
  S      0.752227   -0.446590   -1.326855
  C      0.194493    1.247744   -1.009159
  S     -0.678335    1.430833    0.570436
  P     -2.370432    0.288278    0.036500
  S     -3.033029    0.471081   -1.803683
  O     -3.432919    0.591966    1.176609
  C     -4.388129    1.662597    1.076740
  C     -3.729198    3.024359    1.160165
  O     -1.858473   -1.154762    0.454115
  C     -2.437431   -2.358753   -0.088531
  C     -3.849512   -2.576248    0.412200
  H      6.352666   -0.465510   -2.347897
  H      5.758398    0.045579   -0.760796
  H      6.118686   -1.659911   -1.058179
  H      4.254680   -1.755326   -2.732126
  H      3.890705   -0.042023   -2.389351
  H      0.270558   -1.170495    1.637189
  H      1.281831   -2.259940    2.622084
  H      0.830835   -0.178028    3.872908
  H      2.553464   -0.256682    3.460261
  H      1.469129    0.801082    2.548172
  H     -0.476333    1.512651   -1.825508
  H      1.058592    1.912078   -0.963592
  H     -4.930388    1.555529    0.131649
  H     -5.063852    1.489691    1.915346
  H     -4.494826    3.792267    1.205215
  H     -3.101196    3.087032    2.045343
  H     -3.110611    3.194917    0.279923
  H     -2.416471   -2.289639   -1.180988
  H     -1.761610   -3.148479    0.242354
  H     -3.871390   -2.545128    1.498326
  H     -4.503715   -1.796517    0.023884
  H     -4.208749   -3.541279    0.068787

 Total Charge           Charge          ....    0
 Multiplicity           Mult            ....    1
 Number of Electrons    NEL             ....  202
 Basis Dimension        Dim             ....  539

ORBITAL ENERGIES
----------------

  NO   OCC          E(Eh)            E(eV)
   0   2.0000     -88.579795     -2410.3788
   1   2.0000     -88.579647     -2410.3747
   2   2.0000     -88.530521     -2409.0380
   3   2.0000     -88.530507     -2409.0376
   4   2.0000     -76.921276     -2093.1343
   5   2.0000     -76.919892     -2093.0967
   6   2.0000     -18.997185      -516.9397
   7   2.0000     -18.995601      -516.8966
   8   2.0000     -18.995197      -516.8856
   9   2.0000     -18.992394      -516.8093
  10   2.0000     -10.103739      -274.9367
  11   2.0000     -10.091250      -274.5969
  12   2.0000     -10.090476      -274.5758
  13   2.0000     -10.089877      -274.5595
  14   2.0000     -10.089065      -274.5374
  15   2.0000     -10.019048      -272.6322
  16   2.0000     -10.018741      -272.6238
  17   2.0000     -10.017296      -272.5845
  18   2.0000     -10.016103      -272.5520
  19   2.0000      -7.874281      -214.2701
  20   2.0000      -7.873567      -214.2506
  21   2.0000      -7.825657      -212.9470
  22   2.0000      -7.825452      -212.9414
  23   2.0000      -6.599655      -179.5857
  24   2.0000      -6.598578      -179.5564
  25   2.0000      -5.821084      -158.3997
  26   2.0000      -5.820481      -158.3833
  27   2.0000      -5.818184      -158.3208
  28   2.0000      -5.817295      -158.2966
  29   2.0000      -5.811398      -158.1362
  30   2.0000      -5.810879      -158.1220
  31   2.0000      -5.773231      -157.0976
  32   2.0000      -5.772972      -157.0906
  33   2.0000      -5.765856      -156.8969
  34   2.0000      -5.765761      -156.8943
  35   2.0000      -5.765738      -156.8937
  36   2.0000      -5.765545      -156.8884
  37   2.0000      -4.744999      -129.1180
  38   2.0000      -4.744822      -129.1132
  39   2.0000      -4.743892      -129.0879
  40   2.0000      -4.743469      -129.0763
  41   2.0000      -4.743354      -129.0732
  42   2.0000      -4.742523      -129.0506
  43   2.0000      -1.057455       -28.7748
  44   2.0000      -1.053312       -28.6621
  45   2.0000      -1.013833       -27.5878
  46   2.0000      -1.013078       -27.5673
  47   2.0000      -0.803380       -21.8611
  48   2.0000      -0.757063       -20.6007
  49   2.0000      -0.744986       -20.2721
  50   2.0000      -0.723940       -19.6994
  51   2.0000      -0.719882       -19.5890
  52   2.0000      -0.712206       -19.3801
  53   2.0000      -0.691646       -18.8206
  54   2.0000      -0.676077       -18.3970
  55   2.0000      -0.632548       -17.2125
  56   2.0000      -0.625289       -17.0150
  57   2.0000      -0.599660       -16.3176
  58   2.0000      -0.594803       -16.1854
  59   2.0000      -0.592300       -16.1173
  60   2.0000      -0.526049       -14.3145
  61   2.0000      -0.513712       -13.9788
  62   2.0000      -0.491397       -13.3716
  63   2.0000      -0.489342       -13.3157
  64   2.0000      -0.476446       -12.9648
  65   2.0000      -0.459218       -12.4960
  66   2.0000      -0.454796       -12.3756
  67   2.0000      -0.450964       -12.2714
  68   2.0000      -0.438639       -11.9360
  69   2.0000      -0.431992       -11.7551
  70   2.0000      -0.425574       -11.5805
  71   2.0000      -0.417615       -11.3639
  72   2.0000      -0.406233       -11.0542
  73   2.0000      -0.404606       -11.0099
  74   2.0000      -0.396481       -10.7888
  75   2.0000      -0.388177       -10.5628
  76   2.0000      -0.382372       -10.4049
  77   2.0000      -0.371945       -10.1211
  78   2.0000      -0.365648        -9.9498
  79   2.0000      -0.358520        -9.7558
  80   2.0000      -0.354755        -9.6534
  81   2.0000      -0.350406        -9.5350
  82   2.0000      -0.349147        -9.5008
  83   2.0000      -0.348254        -9.4765
  84   2.0000      -0.344527        -9.3751
  85   2.0000      -0.334206        -9.0942
  86   2.0000      -0.322375        -8.7723
  87   2.0000      -0.307491        -8.3673
  88   2.0000      -0.306378        -8.3370
  89   2.0000      -0.305018        -8.3000
  90   2.0000      -0.298794        -8.1306
  91   2.0000      -0.288205        -7.8424
  92   2.0000      -0.285112        -7.7583
  93   2.0000      -0.280765        -7.6400
  94   2.0000      -0.276806        -7.5323
  95   2.0000      -0.252469        -6.8700
  96   2.0000      -0.238016        -6.4767
  97   2.0000      -0.235889        -6.4189
  98   2.0000      -0.226428        -6.1614
  99   2.0000      -0.225117        -6.1258
 100   2.0000      -0.221547        -6.0286
 101   0.0000      -0.054117        -1.4726
 102   0.0000      -0.034637        -0.9425
 103   0.0000      -0.011158        -0.3036
 104   0.0000      -0.006012        -0.1636
 105   0.0000       0.011455         0.3117

MULLIKEN ATOMIC CHARGES
-----------------------
   0 C :   -0.488524
   1 C :   -0.118463
   2 O :   -0.347467
   3 P :    0.700853
   4 S :   -0.497207
   5 O :   -0.305472
   6 C :   -0.148420
   7 C :   -0.469450
   8 S :   -0.145189
   9 C :   -0.251769
  10 S :   -0.130225
  11 P :    0.716553
  12 S :   -0.524940
  13 O :   -0.328156
  14 C :   -0.151883
  15 C :   -0.487922
  16 O :   -0.298064
  17 C :   -0.147209
  18 C :   -0.482726
  19 H :    0.170258
  20 H :    0.169203
  21 H :    0.166125
  22 H :    0.177114
  23 H :    0.166104
  24 H :    0.176777
  25 H :    0.175806
  26 H :    0.171661
  27 H :    0.164880
  28 H :    0.165906
  29 H :    0.237179
  30 H :    0.229795
  31 H :    0.178253
  32 H :    0.176087
  33 H :    0.173376
  34 H :    0.170297
  35 H :    0.172565
  36 H :    0.176456
  37 H :    0.177856
  38 H :    0.170025
  39 H :    0.168023
  40 H :    0.171934
Sum of atomic charges:   -0.0000000

LOEWDIN ATOMIC CHARGES
----------------------
   0 C :   -0.402294
   1 C :    0.026364
   2 O :   -0.671214
   3 P :    0.390646
   4 S :   -0.151144
   5 O :   -0.661614
   6 C :    0.028487
   7 C :   -0.414710
   8 S :    0.154368
   9 C :   -0.420855
  10 S :    0.163732
  11 P :    0.381584
  12 S :   -0.157647
  13 O :   -0.670476
  14 C :    0.026510
  15 C :   -0.409328
  16 O :   -0.703245
  17 C :    0.022924
  18 C :   -0.402043
  19 H :    0.168045
  20 H :    0.162077
  21 H :    0.162531
  22 H :    0.188533
  23 H :    0.181112
  24 H :    0.191742
  25 H :    0.191679
  26 H :    0.168699
  27 H :    0.162715
  28 H :    0.161138
  29 H :    0.196621
  30 H :    0.199052
  31 H :    0.181811
  32 H :    0.191401
  33 H :    0.168772
  34 H :    0.163931
  35 H :    0.161591
  36 H :    0.181988
  37 H :    0.190700
  38 H :    0.164438
  39 H :    0.162657
  40 H :    0.168720

  Mayer bond orders larger than 0.100000
B(  0-C ,  1-C ) :   0.9450 B(  0-C , 19-H ) :   0.9604 B(  0-C , 20-H ) :   0.9642
B(  0-C , 21-H ) :   0.9717 B(  1-C ,  2-O ) :   0.7555 B(  1-C , 22-H ) :   0.9516
B(  1-C , 23-H ) :   0.9576 B(  2-O ,  3-P ) :   1.1200 B(  3-P ,  4-S ) :   1.7272
B(  3-P ,  5-O ) :   1.1575 B(  3-P ,  8-S ) :   1.0632 B(  5-O ,  6-C ) :   0.7946
B(  6-C ,  7-C ) :   0.9117 B(  6-C , 24-H ) :   0.9492 B(  6-C , 25-H ) :   0.9546
B(  7-C , 26-H ) :   0.9597 B(  7-C , 27-H ) :   0.9692 B(  7-C , 28-H ) :   0.9546
B(  8-S ,  9-C ) :   0.9062 B(  9-C , 10-S ) :   0.8979 B(  9-C , 29-H ) :   0.9038
B(  9-C , 30-H ) :   0.8951 B( 10-S , 11-P ) :   1.0978 B( 11-P , 12-S ) :   1.7113
B( 11-P , 13-O ) :   1.0802 B( 11-P , 16-O ) :   1.1440 B( 13-O , 14-C ) :   0.8002
B( 14-C , 15-C ) :   0.9093 B( 14-C , 31-H ) :   0.9653 B( 14-C , 32-H ) :   0.9482
B( 15-C , 33-H ) :   0.9530 B( 15-C , 34-H ) :   0.9658 B( 15-C , 35-H ) :   0.9633
B( 16-O , 17-C ) :   0.7835 B( 17-C , 18-C ) :   0.9144 B( 17-C , 36-H ) :   0.9604
B( 17-C , 37-H ) :   0.9512 B( 18-C , 38-H ) :   0.9706 B( 18-C , 39-H ) :   0.9594
B( 18-C , 40-H ) :   0.9559

Dispersion correction           -0.021454814
FINAL SINGLE POINT ENERGY     -2932.471217594023

DIPOLE MOMENT
-------------

Method             : SCF
Type of density    : Electron Density
Multiplicity       :   1
Irrep              :   0
Energy             : -2932.4963883875857391 Eh
Relativity type    :
Basis              : AO
                                X                 Y                 Z
Electronic contribution:      2.925169296       2.802770703      -7.408802643
Nuclear contribution   :     -3.979318448      -3.477760703       7.946851500
                        -----------------------------------------
Total Dipole Moment    :     -1.054149152      -0.674990000       0.538048857
                        -----------------------------------------
Magnitude (a.u.)       :      1.362475140
Magnitude (Debye)      :      3.463136586

Rotational constants in cm-1:             0.013888             0.004444             0.004320
Rotational constants in MHz :           416.361531           133.226504           129.499908

                             ****ORCA TERMINATED NORMALLY****
TOTAL RUN TIME: 0 days 0 hours 1 minutes 46 seconds 498 msec
