                         Program Version 6.0.0  -   RELEASE  -
|  1> ! pbe def2-sv(p) def2/J RI DEFGRID1 loosescf d4 GCP(DFT/SV(P)) printgap
|  2> %output
|  3>     printlevel normal
|  4> end
|  5> * xyz 0 1
|  6> C 4.7061042994 1.0943093368 -1.8742098025
|  7> C 4.1415581348 -0.0364687094 -1.0393364669
|  8> O 3.2256761678 0.5403638969 -0.0697434999
|  9> P 2.1222470262 -0.2940013649 0.6841333919
| 10> S 1.346444688 0.7915076687 2.1136165787
| 11> O 2.935029738 -1.5818641885 1.1475429659
| 12> C 2.3518021228 -2.852604806 1.488488337
| 13> C 1.1972284489 -2.7262360379 2.4597012535
| 14> S 0.8899756699 -1.1209528794 -0.8710657655
| 15> C 0.5366114426 0.3884446361 -1.8067096573
| 16> S -0.3618973109 1.6525226269 -0.8620311559
| 17> P -2.040657895 0.457604316 -0.3992334727
| 18> S -2.6467963684 -0.7397085986 -1.8342905673
| 19> O -3.1499905881 1.4688901989 0.1201345918
| 20> C -4.115950711 2.061257282 -0.7668935893
| 21> C -3.4823640833 3.0731458243 -1.6989253218
| 22> O -1.5352186562 -0.1918735497 0.9537834653
| 23> C -2.3910017723 -0.7445789543 1.9771039846
| 24> C -2.9559734535 -2.0906717368 1.5709389064
| 25> H 5.4193051855 0.688995053 -2.5847077196
| 26> H 3.9145765377 1.606223867 -2.415163977
| 27> H 5.206225495 1.8139135918 -1.232472913
| 28> H 4.9258227666 -0.5519724434 -0.4826643202
| 29> H 3.6000087667 -0.7635859544 -1.6513642174
| 30> H 2.0246207545 -3.3332085899 0.5617099538
| 31> H 3.1829415757 -3.4104425407 1.9234472628
| 32> H 0.391409345 -2.1542097288 2.000045695
| 33> H 0.8303084719 -3.7141545348 2.7191553772
| 34> H 1.514052181 -2.20705116 3.3613022779
| 35> H -0.0707264851 0.0662160608 -2.6530257141
| 36> H 1.4599863599 0.8568342671 -2.1380234144
| 37> H -4.5962148308 1.2600895965 -1.3380728306
| 38> H -4.8382681995 2.5265724111 -0.0949585831
| 39> H -2.8107351619 2.5691592575 -2.3927614416
| 40> H -4.2596006428 3.5776625646 -2.2637028539
| 41> H -2.9131976255 3.8053554655 -1.1313781809
| 42> H -1.7296053091 -0.8239363052 2.8427728212
| 43> H -3.1859503298 -0.0267147597 2.1905207929
| 44> H -2.1529292506 -2.7710022368 1.2973050208
| 45> H -3.5143085996 -2.5093213153 2.4021318619
| 46> H -3.6192132857 -1.9794952256 0.7147705211
| 47> *
| 48>
| 49>                          ****END OF INPUT****

CARTESIAN COORDINATES (ANGSTROEM)
---------------------------------
  C      4.706104    1.094309   -1.874210
  C      4.141558   -0.036469   -1.039336
  O      3.225676    0.540364   -0.069743
  P      2.122247   -0.294001    0.684133
  S      1.346445    0.791508    2.113617
  O      2.935030   -1.581864    1.147543
  C      2.351802   -2.852605    1.488488
  C      1.197228   -2.726236    2.459701
  S      0.889976   -1.120953   -0.871066
  C      0.536611    0.388445   -1.806710
  S     -0.361897    1.652523   -0.862031
  P     -2.040658    0.457604   -0.399233
  S     -2.646796   -0.739709   -1.834291
  O     -3.149991    1.468890    0.120135
  C     -4.115951    2.061257   -0.766894
  C     -3.482364    3.073146   -1.698925
  O     -1.535219   -0.191874    0.953783
  C     -2.391002   -0.744579    1.977104
  C     -2.955973   -2.090672    1.570939
  H      5.419305    0.688995   -2.584708
  H      3.914577    1.606224   -2.415164
  H      5.206225    1.813914   -1.232473
  H      4.925823   -0.551972   -0.482664
  H      3.600009   -0.763586   -1.651364
  H      2.024621   -3.333209    0.561710
  H      3.182942   -3.410443    1.923447
  H      0.391409   -2.154210    2.000046
  H      0.830308   -3.714155    2.719155
  H      1.514052   -2.207051    3.361302
  H     -0.070726    0.066216   -2.653026
  H      1.459986    0.856834   -2.138023
  H     -4.596215    1.260090   -1.338073
  H     -4.838268    2.526572   -0.094959
  H     -2.810735    2.569159   -2.392761
  H     -4.259601    3.577663   -2.263703
  H     -2.913198    3.805355   -1.131378
  H     -1.729605   -0.823936    2.842773
  H     -3.185950   -0.026715    2.190521
  H     -2.152929   -2.771002    1.297305
  H     -3.514309   -2.509321    2.402132
  H     -3.619213   -1.979495    0.714771

 Total Charge           Charge          ....    0
 Multiplicity           Mult            ....    1
 Number of Electrons    NEL             ....  202
 Basis Dimension        Dim             ....  334

ORBITAL ENERGIES
----------------

  NO   OCC          E(Eh)            E(eV)
   0   2.0000     -88.040263     -2395.6974
   1   2.0000     -88.037651     -2395.6263
   2   2.0000     -87.984534     -2394.1809
   3   2.0000     -87.971809     -2393.8346
   4   2.0000     -76.424783     -2079.6241
   5   2.0000     -76.420700     -2079.5130
   6   2.0000     -18.794623      -511.4277
   7   2.0000     -18.790242      -511.3085
   8   2.0000     -18.788985      -511.2743
   9   2.0000     -18.781800      -511.0788
  10   2.0000      -9.959280      -271.0058
  11   2.0000      -9.958504      -270.9847
  12   2.0000      -9.956046      -270.9178
  13   2.0000      -9.951986      -270.8073
  14   2.0000      -9.947903      -270.6962
  15   2.0000      -9.892781      -269.1963
  16   2.0000      -9.884456      -268.9697
  17   2.0000      -9.883190      -268.9353
  18   2.0000      -9.878628      -268.8111
  19   2.0000      -7.684592      -209.1084
  20   2.0000      -7.682937      -209.0633
  21   2.0000      -7.629554      -207.6107
  22   2.0000      -7.617162      -207.2735
  23   2.0000      -6.422001      -174.7515
  24   2.0000      -6.417734      -174.6354
  25   2.0000      -5.712405      -155.4424
  26   2.0000      -5.710941      -155.4026
  27   2.0000      -5.709113      -155.3529
  28   2.0000      -5.707612      -155.3120
  29   2.0000      -5.701727      -155.1519
  30   2.0000      -5.699517      -155.0918
  31   2.0000      -5.658309      -153.9704
  32   2.0000      -5.650377      -153.7546
  33   2.0000      -5.649694      -153.7360
  34   2.0000      -5.646380      -153.6458
  35   2.0000      -5.637579      -153.4063
  36   2.0000      -5.637194      -153.3958
  37   2.0000      -4.644976      -126.3962
  38   2.0000      -4.643515      -126.3565
  39   2.0000      -4.642389      -126.3258
  40   2.0000      -4.640922      -126.2859
  41   2.0000      -4.639843      -126.2565
  42   2.0000      -4.637366      -126.1892
  43   2.0000      -0.985623       -26.8202
  44   2.0000      -0.985070       -26.8051
  45   2.0000      -0.942699       -25.6521
  46   2.0000      -0.940533       -25.5932
  47   2.0000      -0.762701       -20.7541
  48   2.0000      -0.719596       -19.5812
  49   2.0000      -0.709150       -19.2970
  50   2.0000      -0.691475       -18.8160
  51   2.0000      -0.685710       -18.6591
  52   2.0000      -0.671335       -18.2679
  53   2.0000      -0.648099       -17.6357
  54   2.0000      -0.636550       -17.3214
  55   2.0000      -0.594344       -16.1729
  56   2.0000      -0.584531       -15.9059
  57   2.0000      -0.574976       -15.6459
  58   2.0000      -0.572318       -15.5736
  59   2.0000      -0.562176       -15.2976
  60   2.0000      -0.508308       -13.8318
  61   2.0000      -0.495628       -13.4867
  62   2.0000      -0.473573       -12.8866
  63   2.0000      -0.468936       -12.7604
  64   2.0000      -0.462281       -12.5793
  65   2.0000      -0.446326       -12.1452
  66   2.0000      -0.437605       -11.9078
  67   2.0000      -0.432730       -11.7752
  68   2.0000      -0.425101       -11.5676
  69   2.0000      -0.416374       -11.3301
  70   2.0000      -0.409491       -11.1428
  71   2.0000      -0.402143       -10.9429
  72   2.0000      -0.394663       -10.7393
  73   2.0000      -0.387338       -10.5400
  74   2.0000      -0.375732       -10.2242
  75   2.0000      -0.370350       -10.0777
  76   2.0000      -0.363895        -9.9021
  77   2.0000      -0.359147        -9.7729
  78   2.0000      -0.352340        -9.5877
  79   2.0000      -0.349819        -9.5191
  80   2.0000      -0.346073        -9.4171
  81   2.0000      -0.342912        -9.3311
  82   2.0000      -0.340375        -9.2621
  83   2.0000      -0.338810        -9.2195
  84   2.0000      -0.332864        -9.0577
  85   2.0000      -0.321774        -8.7559
  86   2.0000      -0.311240        -8.4693
  87   2.0000      -0.296441        -8.0666
  88   2.0000      -0.294981        -8.0269
  89   2.0000      -0.294058        -8.0017
  90   2.0000      -0.285432        -7.7670
  91   2.0000      -0.274684        -7.4745
  92   2.0000      -0.272205        -7.4071
  93   2.0000      -0.258963        -7.0468
  94   2.0000      -0.254619        -6.9285
  95   2.0000      -0.238337        -6.4855
  96   2.0000      -0.213481        -5.8091
  97   2.0000      -0.204964        -5.5773
  98   2.0000      -0.198583        -5.4037
  99   2.0000      -0.187618        -5.1053
 100   2.0000      -0.179558        -4.8860
 101   0.0000      -0.047394        -1.2896
 102   0.0000      -0.023038        -0.6269
 103   0.0000      -0.012454        -0.3389
 104   0.0000       0.000454         0.0124
 105   0.0000       0.021430         0.5831

MULLIKEN ATOMIC CHARGES
-----------------------
   0 C :   -0.289333
   1 C :   -0.015574
   2 O :   -0.365006
   3 P :    0.588139
   4 S :   -0.287387
   5 O :   -0.385516
   6 C :   -0.006794
   7 C :   -0.352284
   8 S :   -0.116508
   9 C :   -0.358004
  10 S :   -0.063773
  11 P :    0.636703
  12 S :   -0.344066
  13 O :   -0.378120
  14 C :   -0.004605
  15 C :   -0.315485
  16 O :   -0.354552
  17 C :   -0.003450
  18 C :   -0.309790
  19 H :    0.112519
  20 H :    0.121595
  21 H :    0.126016
  22 H :    0.111099
  23 H :    0.099821
  24 H :    0.113208
  25 H :    0.109897
  26 H :    0.163737
  27 H :    0.111803
  28 H :    0.129267
  29 H :    0.192276
  30 H :    0.189613
  31 H :    0.111567
  32 H :    0.104700
  33 H :    0.124934
  34 H :    0.112884
  35 H :    0.120223
  36 H :    0.113663
  37 H :    0.108122
  38 H :    0.118115
  39 H :    0.106198
  40 H :    0.124143
Sum of atomic charges:    0.0000000

LOEWDIN ATOMIC CHARGES
----------------------
   0 C :   -0.350389
   1 C :   -0.118920
   2 O :   -0.241471
   3 P :    0.560980
   4 S :   -0.299099
   5 O :   -0.251508
   6 C :   -0.114291
   7 C :   -0.374744
   8 S :    0.067251
   9 C :   -0.477070
  10 S :    0.101367
  11 P :    0.575320
  12 S :   -0.329787
  13 O :   -0.242282
  14 C :   -0.120353
  15 C :   -0.369170
  16 O :   -0.233445
  17 C :   -0.110985
  18 C :   -0.365202
  19 H :    0.131145
  20 H :    0.123474
  21 H :    0.132294
  22 H :    0.117864
  23 H :    0.102130
  24 H :    0.108012
  25 H :    0.121576
  26 H :    0.124880
  27 H :    0.129376
  28 H :    0.131097
  29 H :    0.131815
  30 H :    0.128539
  31 H :    0.109920
  32 H :    0.118168
  33 H :    0.120433
  34 H :    0.131181
  35 H :    0.125897
  36 H :    0.119320
  37 H :    0.111517
  38 H :    0.125860
  39 H :    0.127289
  40 H :    0.122011

  Mayer bond orders larger than 0.100000
B(  0-C ,  1-C ) :   1.1591 B(  0-C , 19-H ) :   0.9405 B(  0-C , 20-H ) :   0.9496
B(  0-C , 21-H ) :   0.9467 B(  1-C ,  2-O ) :   0.8872 B(  1-C , 22-H ) :   0.9306
B(  1-C , 23-H ) :   0.9109 B(  2-O ,  3-P ) :   1.1131 B(  3-P ,  4-S ) :   1.7080
B(  3-P ,  5-O ) :   1.0680 B(  3-P ,  8-S ) :   0.9222 B(  4-S ,  8-S ) :   0.1151
B(  5-O ,  6-C ) :   0.9208 B(  6-C ,  7-C ) :   1.1675 B(  6-C , 24-H ) :   0.9243
B(  6-C , 25-H ) :   0.9334 B(  7-C , 26-H ) :   0.9187 B(  7-C , 27-H ) :   0.9335
B(  7-C , 28-H ) :   0.9389 B(  8-S ,  9-C ) :   1.0060 B(  9-C , 10-S ) :   1.0124
B(  9-C , 29-H ) :   0.8847 B(  9-C , 30-H ) :   0.8937 B( 10-S , 11-P ) :   0.9565
B( 10-S , 12-S ) :   0.1168 B( 11-P , 12-S ) :   1.5933 B( 11-P , 13-O ) :   1.0966
B( 11-P , 16-O ) :   1.1336 B( 13-O , 14-C ) :   0.9057 B( 14-C , 15-C ) :   1.1661
B( 14-C , 31-H ) :   0.9130 B( 14-C , 32-H ) :   0.9328 B( 15-C , 33-H ) :   0.9343
B( 15-C , 34-H ) :   0.9380 B( 15-C , 35-H ) :   0.9452 B( 16-O , 17-C ) :   0.9003
B( 17-C , 18-C ) :   1.1676 B( 17-C , 36-H ) :   0.9251 B( 17-C , 37-H ) :   0.9278
B( 18-C , 38-H ) :   0.9483 B( 18-C , 39-H ) :   0.9383 B( 18-C , 40-H ) :   0.9343

Dispersion correction           -0.067088068
FINAL SINGLE POINT ENERGY     -2929.510114774850

DIPOLE MOMENT
-------------

Method             : SCF
Type of density    : Electron Density
Multiplicity       :   1
Irrep              :   0
Energy             : -2929.6276641646136341 Eh
Relativity type    :
Basis              : AO
                                X                 Y                 Z
Electronic contribution:      1.392603231       4.800488907       0.150694703
Nuclear contribution   :     -1.174662465      -5.295199630      -0.523168470
                        -----------------------------------------
Total Dipole Moment    :      0.217940766      -0.494710722      -0.372473767
                        -----------------------------------------
Magnitude (a.u.)       :      0.656485783
Magnitude (Debye)      :      1.668654250

Rotational constants in cm-1:             0.011695             0.005685             0.004771
Rotational constants in MHz :           350.609424           170.419241           143.019487

                             ****ORCA TERMINATED NORMALLY****
TOTAL RUN TIME: 0 days 0 hours 0 minutes 21 seconds 375 msec
