                         Program Version 6.0.1  -  RELEASE   -
|  1> ! r2scan-3c def2/J RI DEFGRID2 scfconv6 printgap
|  2> %output
|  3>     printlevel normal
|  4> end
|  5> * xyz 0 1
|  6> C 5.6574795931 -1.4256488411 -0.2451652801
|  7> C 4.8132356273 -1.6773446171 -1.4841351083
|  8> O 3.4783225754 -2.0852760608 -1.1215766437
|  9> C 2.5845079227 -1.1567555582 -0.8622983987
| 10> O 2.7826591074 0.0386667812 -0.9476709712
| 11> C 1.2626483214 -1.7533836237 -0.429371071
| 12> C 0.1944331 -0.6754267779 -0.4956116183
| 13> H -0.0647273625 -0.4076970742 -1.5244744831
| 14> C 0.603282623 0.5917916078 0.2312660601
| 15> O 0.3414448864 1.698837901 -0.1879403105
| 16> O 1.1367470268 0.3318437402 1.4065686126
| 17> C 1.5781450878 1.43546364 2.2207118952
| 18> C 3.0751229974 1.639494664 2.0557021376
| 19> S -1.3318817838 -1.2305489095 0.3368964596
| 20> P -2.512633335 0.4805072281 -0.1093840523
| 21> S -2.3850683805 1.1630188843 -1.9354492202
| 22> O -3.9678622654 -0.0200332213 0.3157564714
| 23> C -4.672207488 -0.9910433097 -0.469755506
| 24> O -2.234343713 1.5538035177 1.0196469921
| 25> C -2.4584951135 1.265578195 2.4168450233
| 26> H 5.6606580079 -2.3067249037 0.3902793264
| 27> H 6.6744192464 -1.1958173351 -0.5451665177
| 28> H 5.2573619103 -0.5832182984 0.3146615285
| 29> H 5.2010277992 -2.5113707185 -2.068656182
| 30> H 4.7482199345 -0.7759883485 -2.1002678185
| 31> H 1.3728368658 -2.1071275787 0.5985265158
| 32> H 1.0100747194 -2.6045648652 -1.0600400864
| 33> H 1.0249397793 2.3299780184 1.9201718953
| 34> H 1.3240547211 1.150339101 3.2425603275
| 35> H 3.3070270401 1.81029798 1.0058974859
| 36> H 3.3895659013 2.5007984782 2.6354212721
| 37> H 3.6131356495 0.758982991 2.3961341845
| 38> H -5.7034206376 -0.9498615714 -0.1289236671
| 39> H -4.2468973238 -1.9791243385 -0.2985111129
| 40> H -4.6078641252 -0.7336278839 -1.5279003228
| 41> H -1.9658537647 0.3318746551 2.6911189346
| 42> H -3.5273287802 1.1930863245 2.6061776976
| 43> H -2.0250103946 2.1059988235 2.9529450572
| 44> *
| 45>
| 46>                          ****END OF INPUT****

CARTESIAN COORDINATES (ANGSTROEM)
---------------------------------
  C      5.657480   -1.425649   -0.245165
  C      4.813236   -1.677345   -1.484135
  O      3.478323   -2.085276   -1.121577
  C      2.584508   -1.156756   -0.862298
  O      2.782659    0.038667   -0.947671
  C      1.262648   -1.753384   -0.429371
  C      0.194433   -0.675427   -0.495612
  H     -0.064727   -0.407697   -1.524474
  C      0.603283    0.591792    0.231266
  O      0.341445    1.698838   -0.187940
  O      1.136747    0.331844    1.406569
  C      1.578145    1.435464    2.220712
  C      3.075123    1.639495    2.055702
  S     -1.331882   -1.230549    0.336896
  P     -2.512633    0.480507   -0.109384
  S     -2.385068    1.163019   -1.935449
  O     -3.967862   -0.020033    0.315756
  C     -4.672207   -0.991043   -0.469756
  O     -2.234344    1.553804    1.019647
  C     -2.458495    1.265578    2.416845
  H      5.660658   -2.306725    0.390279
  H      6.674419   -1.195817   -0.545167
  H      5.257362   -0.583218    0.314662
  H      5.201028   -2.511371   -2.068656
  H      4.748220   -0.775988   -2.100268
  H      1.372837   -2.107128    0.598527
  H      1.010075   -2.604565   -1.060040
  H      1.024940    2.329978    1.920172
  H      1.324055    1.150339    3.242560
  H      3.307027    1.810298    1.005897
  H      3.389566    2.500798    2.635421
  H      3.613136    0.758983    2.396134
  H     -5.703421   -0.949862   -0.128924
  H     -4.246897   -1.979124   -0.298511
  H     -4.607864   -0.733628   -1.527900
  H     -1.965854    0.331875    2.691119
  H     -3.527329    1.193086    2.606178
  H     -2.025010    2.105999    2.952945

 Total Charge           Charge          ....    0
 Multiplicity           Mult            ....    1
 Number of Electrons    NEL             ....  174
 Basis Dimension        Dim             ....  510

ORBITAL ENERGIES
----------------

  NO   OCC          E(Eh)            E(eV)
   0   2.0000     -88.575536     -2410.2629
   1   2.0000     -88.509484     -2408.4655
   2   2.0000     -76.908557     -2092.7882
   3   2.0000     -19.013201      -517.3755
   4   2.0000     -18.993552      -516.8408
   5   2.0000     -18.990910      -516.7689
   6   2.0000     -18.988952      -516.7157
   7   2.0000     -18.946361      -515.5567
   8   2.0000     -18.917377      -514.7680
   9   2.0000     -10.171636      -276.7843
  10   2.0000     -10.150594      -276.2117
  11   2.0000     -10.103410      -274.9278
  12   2.0000     -10.093855      -274.6677
  13   2.0000     -10.091000      -274.5901
  14   2.0000     -10.089251      -274.5425
  15   2.0000     -10.089188      -274.5408
  16   2.0000     -10.066643      -273.9273
  17   2.0000     -10.038694      -273.1667
  18   2.0000     -10.025409      -272.8052
  19   2.0000      -7.869820      -214.1487
  20   2.0000      -7.803993      -212.3574
  21   2.0000      -6.586830      -179.2367
  22   2.0000      -5.816395      -158.2722
  23   2.0000      -5.813771      -158.2007
  24   2.0000      -5.807156      -158.0208
  25   2.0000      -5.751895      -156.5170
  26   2.0000      -5.744172      -156.3069
  27   2.0000      -5.743898      -156.2994
  28   2.0000      -4.732711      -128.7836
  29   2.0000      -4.731954      -128.7630
  30   2.0000      -4.730036      -128.7108
  31   2.0000      -1.090610       -29.6770
  32   2.0000      -1.070395       -29.1269
  33   2.0000      -1.047837       -28.5131
  34   2.0000      -1.005822       -27.3698
  35   2.0000      -0.994934       -27.0735
  36   2.0000      -0.969870       -26.3915
  37   2.0000      -0.812078       -22.0978
  38   2.0000      -0.761990       -20.7348
  39   2.0000      -0.740011       -20.1367
  40   2.0000      -0.731041       -19.8926
  41   2.0000      -0.700758       -19.0686
  42   2.0000      -0.675405       -18.3787
  43   2.0000      -0.656446       -17.8628
  44   2.0000      -0.644151       -17.5282
  45   2.0000      -0.632351       -17.2071
  46   2.0000      -0.595989       -16.2177
  47   2.0000      -0.540339       -14.7034
  48   2.0000      -0.535565       -14.5735
  49   2.0000      -0.522746       -14.2246
  50   2.0000      -0.499891       -13.6027
  51   2.0000      -0.492565       -13.4034
  52   2.0000      -0.484275       -13.1778
  53   2.0000      -0.464689       -12.6448
  54   2.0000      -0.460039       -12.5183
  55   2.0000      -0.453879       -12.3507
  56   2.0000      -0.448512       -12.2046
  57   2.0000      -0.437633       -11.9086
  58   2.0000      -0.431801       -11.7499
  59   2.0000      -0.430663       -11.7189
  60   2.0000      -0.422358       -11.4929
  61   2.0000      -0.417886       -11.3713
  62   2.0000      -0.410740       -11.1768
  63   2.0000      -0.405194       -11.0259
  64   2.0000      -0.392437       -10.6788
  65   2.0000      -0.384199       -10.4546
  66   2.0000      -0.377520       -10.2729
  67   2.0000      -0.373854       -10.1731
  68   2.0000      -0.360743        -9.8163
  69   2.0000      -0.354000        -9.6328
  70   2.0000      -0.348018        -9.4701
  71   2.0000      -0.344234        -9.3671
  72   2.0000      -0.335684        -9.1344
  73   2.0000      -0.330692        -8.9986
  74   2.0000      -0.321106        -8.7377
  75   2.0000      -0.317988        -8.6529
  76   2.0000      -0.312775        -8.5110
  77   2.0000      -0.303352        -8.2546
  78   2.0000      -0.287377        -7.8199
  79   2.0000      -0.285703        -7.7744
  80   2.0000      -0.275912        -7.5079
  81   2.0000      -0.263925        -7.1818
  82   2.0000      -0.253724        -6.9042
  83   2.0000      -0.246846        -6.7170
  84   2.0000      -0.229362        -6.2413
  85   2.0000      -0.205914        -5.6032
  86   2.0000      -0.199571        -5.4306
  87   0.0000      -0.044184        -1.2023
  88   0.0000      -0.028776        -0.7830
  89   0.0000      -0.011336        -0.3085
  90   0.0000       0.012816         0.3487
  91   0.0000       0.023371         0.6360

MULLIKEN ATOMIC CHARGES
-----------------------
   0 C :   -0.471017
   1 C :   -0.135415
   2 O :   -0.167120
   3 C :    0.392859
   4 O :   -0.398407
   5 C :   -0.374330
   6 C :   -0.114720
   7 H :    0.255559
   8 C :    0.291212
   9 O :   -0.366165
  10 O :   -0.132876
  11 C :   -0.141231
  12 C :   -0.497095
  13 S :   -0.232713
  14 P :    0.734265
  15 S :   -0.409065
  16 O :   -0.332809
  17 C :   -0.295722
  18 O :   -0.296592
  19 C :   -0.280277
  20 H :    0.155176
  21 H :    0.151575
  22 H :    0.170951
  23 H :    0.152346
  24 H :    0.171292
  25 H :    0.197526
  26 H :    0.180624
  27 H :    0.185717
  28 H :    0.144618
  29 H :    0.191124
  30 H :    0.145639
  31 H :    0.145908
  32 H :    0.151537
  33 H :    0.153591
  34 H :    0.180215
  35 H :    0.171031
  36 H :    0.165612
  37 H :    0.157178
Sum of atomic charges:   -0.0000000

LOEWDIN ATOMIC CHARGES
----------------------
   0 C :   -0.388108
   1 C :    0.032483
   2 O :   -0.575467
   3 C :    0.378380
   4 O :   -0.423736
   5 C :   -0.208895
   6 C :   -0.190708
   7 H :    0.208168
   8 C :    0.330325
   9 O :   -0.411671
  10 O :   -0.596757
  11 C :    0.030746
  12 C :   -0.391014
  13 S :    0.178684
  14 P :    0.382932
  15 S :   -0.068951
  16 O :   -0.683116
  17 C :   -0.058258
  18 O :   -0.642706
  19 C :   -0.052505
  20 H :    0.158568
  21 H :    0.161321
  22 H :    0.164964
  23 H :    0.180280
  24 H :    0.189596
  25 H :    0.200678
  26 H :    0.188545
  27 H :    0.195685
  28 H :    0.174817
  29 H :    0.174526
  30 H :    0.157673
  31 H :    0.153923
  32 H :    0.176838
  33 H :    0.167383
  34 H :    0.179151
  35 H :    0.172961
  36 H :    0.173908
  37 H :    0.179355

  Mayer bond orders larger than 0.100000
B(  0-C ,  1-C ) :   0.9367 B(  0-C , 20-H ) :   0.9736 B(  0-C , 21-H ) :   0.9635
B(  0-C , 22-H ) :   0.9698 B(  1-C ,  2-O ) :   0.7982 B(  1-C , 23-H ) :   0.9609
B(  1-C , 24-H ) :   0.9669 B(  2-O ,  3-C ) :   1.1349 B(  3-C ,  4-O ) :   1.7505
B(  3-C ,  5-C ) :   1.0016 B(  4-O ,  8-C ) :   0.1166 B(  5-C ,  6-C ) :   0.9522
B(  5-C , 10-O ) :   0.1276 B(  5-C , 25-H ) :   0.9442 B(  5-C , 26-H ) :   0.9374
B(  6-C ,  7-H ) :   0.9767 B(  6-C ,  8-C ) :   0.8487 B(  6-C , 13-S ) :   0.8540
B(  8-C ,  9-O ) :   1.8811 B(  8-C , 10-O ) :   1.0823 B( 10-O , 11-C ) :   0.7820
B( 11-C , 12-C ) :   0.9281 B( 11-C , 27-H ) :   0.9700 B( 11-C , 28-H ) :   0.9605
B( 12-C , 29-H ) :   0.9690 B( 12-C , 30-H ) :   0.9648 B( 12-C , 31-H ) :   0.9739
B( 13-S , 14-P ) :   0.9585 B( 14-P , 15-S ) :   1.8827 B( 14-P , 16-O ) :   1.0341
B( 14-P , 18-O ) :   1.1350 B( 16-O , 17-C ) :   0.8287 B( 17-C , 32-H ) :   0.9678
B( 17-C , 33-H ) :   0.9577 B( 17-C , 34-H ) :   0.9579 B( 18-O , 19-C ) :   0.7938
B( 19-C , 35-H ) :   0.9575 B( 19-C , 36-H ) :   0.9597 B( 19-C , 37-H ) :   0.9655

Dispersion correction           -0.017379848
FINAL SINGLE POINT ENERGY     -1981.449721546404

DIPOLE MOMENT
-------------

Method             : SCF
Type of density    : Electron Density
Multiplicity       :   1
Irrep              :   0
Energy             : -1981.4693325765460941 Eh
Relativity type    :
Basis              : AO
                                X                 Y                 Z
Electronic contribution:    -20.606755550       2.450589788      -9.446736338
Nuclear contribution   :     21.553721597      -4.132975883      10.940118442
                        -----------------------------------------
Total Dipole Moment    :      0.946966046      -1.682386095       1.493382104
                        -----------------------------------------
Magnitude (a.u.)       :      2.440769914
Magnitude (Debye)      :      6.203944087

Rotational constants in cm-1:             0.017850             0.005616             0.004997
Rotational constants in MHz :           535.128186           168.367378           149.800297

                             ****ORCA TERMINATED NORMALLY****
TOTAL RUN TIME: 0 days 0 hours 1 minutes 19 seconds 542 msec
