                         Program Version 6.0.1  -  RELEASE   -
|  1> ! r2scan-3c def2/J RI DEFGRID2 scfconv6 printgap
|  2> %output
|  3>     printlevel normal
|  4> end
|  5> %cpcm
|  6>     smd true
|  7>     smdsolvent "water"
|  8> end
|  9> * xyz 0 1
| 10> C 5.6574795931 -1.4256488411 -0.2451652801
| 11> C 4.8132356273 -1.6773446171 -1.4841351083
| 12> O 3.4783225754 -2.0852760608 -1.1215766437
| 13> C 2.5845079227 -1.1567555582 -0.8622983987
| 14> O 2.7826591074 0.0386667812 -0.9476709712
| 15> C 1.2626483214 -1.7533836237 -0.429371071
| 16> C 0.1944331 -0.6754267779 -0.4956116183
| 17> H -0.0647273625 -0.4076970742 -1.5244744831
| 18> C 0.603282623 0.5917916078 0.2312660601
| 19> O 0.3414448864 1.698837901 -0.1879403105
| 20> O 1.1367470268 0.3318437402 1.4065686126
| 21> C 1.5781450878 1.43546364 2.2207118952
| 22> C 3.0751229974 1.639494664 2.0557021376
| 23> S -1.3318817838 -1.2305489095 0.3368964596
| 24> P -2.512633335 0.4805072281 -0.1093840523
| 25> S -2.3850683805 1.1630188843 -1.9354492202
| 26> O -3.9678622654 -0.0200332213 0.3157564714
| 27> C -4.672207488 -0.9910433097 -0.469755506
| 28> O -2.234343713 1.5538035177 1.0196469921
| 29> C -2.4584951135 1.265578195 2.4168450233
| 30> H 5.6606580079 -2.3067249037 0.3902793264
| 31> H 6.6744192464 -1.1958173351 -0.5451665177
| 32> H 5.2573619103 -0.5832182984 0.3146615285
| 33> H 5.2010277992 -2.5113707185 -2.068656182
| 34> H 4.7482199345 -0.7759883485 -2.1002678185
| 35> H 1.3728368658 -2.1071275787 0.5985265158
| 36> H 1.0100747194 -2.6045648652 -1.0600400864
| 37> H 1.0249397793 2.3299780184 1.9201718953
| 38> H 1.3240547211 1.150339101 3.2425603275
| 39> H 3.3070270401 1.81029798 1.0058974859
| 40> H 3.3895659013 2.5007984782 2.6354212721
| 41> H 3.6131356495 0.758982991 2.3961341845
| 42> H -5.7034206376 -0.9498615714 -0.1289236671
| 43> H -4.2468973238 -1.9791243385 -0.2985111129
| 44> H -4.6078641252 -0.7336278839 -1.5279003228
| 45> H -1.9658537647 0.3318746551 2.6911189346
| 46> H -3.5273287802 1.1930863245 2.6061776976
| 47> H -2.0250103946 2.1059988235 2.9529450572
| 48> *
| 49>
| 50>                          ****END OF INPUT****

CARTESIAN COORDINATES (ANGSTROEM)
---------------------------------
  C      5.657480   -1.425649   -0.245165
  C      4.813236   -1.677345   -1.484135
  O      3.478323   -2.085276   -1.121577
  C      2.584508   -1.156756   -0.862298
  O      2.782659    0.038667   -0.947671
  C      1.262648   -1.753384   -0.429371
  C      0.194433   -0.675427   -0.495612
  H     -0.064727   -0.407697   -1.524474
  C      0.603283    0.591792    0.231266
  O      0.341445    1.698838   -0.187940
  O      1.136747    0.331844    1.406569
  C      1.578145    1.435464    2.220712
  C      3.075123    1.639495    2.055702
  S     -1.331882   -1.230549    0.336896
  P     -2.512633    0.480507   -0.109384
  S     -2.385068    1.163019   -1.935449
  O     -3.967862   -0.020033    0.315756
  C     -4.672207   -0.991043   -0.469756
  O     -2.234344    1.553804    1.019647
  C     -2.458495    1.265578    2.416845
  H      5.660658   -2.306725    0.390279
  H      6.674419   -1.195817   -0.545167
  H      5.257362   -0.583218    0.314662
  H      5.201028   -2.511371   -2.068656
  H      4.748220   -0.775988   -2.100268
  H      1.372837   -2.107128    0.598527
  H      1.010075   -2.604565   -1.060040
  H      1.024940    2.329978    1.920172
  H      1.324055    1.150339    3.242560
  H      3.307027    1.810298    1.005897
  H      3.389566    2.500798    2.635421
  H      3.613136    0.758983    2.396134
  H     -5.703421   -0.949862   -0.128924
  H     -4.246897   -1.979124   -0.298511
  H     -4.607864   -0.733628   -1.527900
  H     -1.965854    0.331875    2.691119
  H     -3.527329    1.193086    2.606178
  H     -2.025010    2.105999    2.952945

 Total Charge           Charge          ....    0
 Multiplicity           Mult            ....    1
 Number of Electrons    NEL             ....  174
 Basis Dimension        Dim             ....  510

ORBITAL ENERGIES
----------------

  NO   OCC          E(Eh)            E(eV)
   0   2.0000     -88.584253     -2410.5001
   1   2.0000     -88.529380     -2409.0069
   2   2.0000     -76.922139     -2093.1578
   3   2.0000     -19.010577      -517.3041
   4   2.0000     -19.005077      -517.1545
   5   2.0000     -18.999630      -517.0062
   6   2.0000     -18.997863      -516.9581
   7   2.0000     -18.953690      -515.7561
   8   2.0000     -18.942842      -515.4609
   9   2.0000     -10.175332      -276.8849
  10   2.0000     -10.170884      -276.7638
  11   2.0000     -10.095249      -274.7057
  12   2.0000     -10.087371      -274.4913
  13   2.0000     -10.085345      -274.4362
  14   2.0000     -10.084926      -274.4248
  15   2.0000     -10.083329      -274.3813
  16   2.0000     -10.060095      -273.7491
  17   2.0000     -10.019787      -272.6523
  18   2.0000     -10.018501      -272.6173
  19   2.0000      -7.878390      -214.3819
  20   2.0000      -7.824368      -212.9119
  21   2.0000      -6.600524      -179.6094
  22   2.0000      -5.825010      -158.5066
  23   2.0000      -5.822415      -158.4360
  24   2.0000      -5.815624      -158.2512
  25   2.0000      -5.772106      -157.0670
  26   2.0000      -5.764590      -156.8625
  27   2.0000      -5.764300      -156.8546
  28   2.0000      -4.746360      -129.1550
  29   2.0000      -4.745557      -129.1332
  30   2.0000      -4.743917      -129.0886
  31   2.0000      -1.090561       -29.6757
  32   2.0000      -1.083810       -29.4920
  33   2.0000      -1.056266       -28.7425
  34   2.0000      -1.013466       -27.5778
  35   2.0000      -0.999976       -27.2107
  36   2.0000      -0.992868       -27.0173
  37   2.0000      -0.816148       -22.2085
  38   2.0000      -0.754185       -20.5224
  39   2.0000      -0.741515       -20.1776
  40   2.0000      -0.729333       -19.8462
  41   2.0000      -0.699576       -19.0364
  42   2.0000      -0.672939       -18.3116
  43   2.0000      -0.661406       -17.9978
  44   2.0000      -0.649482       -17.6733
  45   2.0000      -0.625916       -17.0320
  46   2.0000      -0.595999       -16.2179
  47   2.0000      -0.542576       -14.7642
  48   2.0000      -0.529146       -14.3988
  49   2.0000      -0.523726       -14.2513
  50   2.0000      -0.500554       -13.6208
  51   2.0000      -0.495332       -13.4787
  52   2.0000      -0.485391       -13.2082
  53   2.0000      -0.469058       -12.7637
  54   2.0000      -0.461013       -12.5448
  55   2.0000      -0.459268       -12.4973
  56   2.0000      -0.450537       -12.2597
  57   2.0000      -0.448466       -12.2034
  58   2.0000      -0.436328       -11.8731
  59   2.0000      -0.428860       -11.6699
  60   2.0000      -0.421418       -11.4674
  61   2.0000      -0.415300       -11.3009
  62   2.0000      -0.409035       -11.1304
  63   2.0000      -0.406079       -11.0500
  64   2.0000      -0.389665       -10.6033
  65   2.0000      -0.382043       -10.3959
  66   2.0000      -0.376498       -10.2450
  67   2.0000      -0.364299        -9.9131
  68   2.0000      -0.361606        -9.8398
  69   2.0000      -0.352880        -9.6023
  70   2.0000      -0.347853        -9.4656
  71   2.0000      -0.342578        -9.3220
  72   2.0000      -0.336204        -9.1486
  73   2.0000      -0.334077        -9.0907
  74   2.0000      -0.323139        -8.7931
  75   2.0000      -0.317368        -8.6360
  76   2.0000      -0.308926        -8.4063
  77   2.0000      -0.305560        -8.3147
  78   2.0000      -0.292151        -7.9498
  79   2.0000      -0.286291        -7.7904
  80   2.0000      -0.283539        -7.7155
  81   2.0000      -0.276482        -7.5234
  82   2.0000      -0.265293        -7.2190
  83   2.0000      -0.261061        -7.1038
  84   2.0000      -0.247911        -6.7460
  85   2.0000      -0.226350        -6.1593
  86   2.0000      -0.220939        -6.0121
  87   0.0000      -0.054993        -1.4964
  88   0.0000      -0.031121        -0.8469
  89   0.0000      -0.026793        -0.7291
  90   0.0000       0.001268         0.0345
  91   0.0000       0.015412         0.4194

MULLIKEN ATOMIC CHARGES
-----------------------
   0 C :   -0.497061
   1 C :   -0.139998
   2 O :   -0.179349
   3 C :    0.425013
   4 O :   -0.464315
   5 C :   -0.372235
   6 C :   -0.122386
   7 H :    0.270881
   8 C :    0.279642
   9 O :   -0.444238
  10 O :   -0.147825
  11 C :   -0.125268
  12 C :   -0.526360
  13 S :   -0.209292
  14 P :    0.752033
  15 S :   -0.483795
  16 O :   -0.355483
  17 C :   -0.305184
  18 O :   -0.338207
  19 C :   -0.285978
  20 H :    0.168357
  21 H :    0.172829
  22 H :    0.169942
  23 H :    0.177585
  24 H :    0.175542
  25 H :    0.228183
  26 H :    0.211527
  27 H :    0.181637
  28 H :    0.177169
  29 H :    0.175554
  30 H :    0.170910
  31 H :    0.171197
  32 H :    0.181200
  33 H :    0.176364
  34 H :    0.179517
  35 H :    0.183811
  36 H :    0.183369
  37 H :    0.184711
Sum of atomic charges:   -0.0000000

LOEWDIN ATOMIC CHARGES
----------------------
   0 C :   -0.390700
   1 C :    0.037951
   2 O :   -0.573442
   3 C :    0.390524
   4 O :   -0.470771
   5 C :   -0.199814
   6 C :   -0.188806
   7 H :    0.209889
   8 C :    0.330769
   9 O :   -0.480406
  10 O :   -0.592508
  11 C :    0.039015
  12 C :   -0.392162
  13 S :    0.201607
  14 P :    0.384146
  15 S :   -0.127504
  16 O :   -0.688617
  17 C :   -0.051312
  18 O :   -0.670041
  19 C :   -0.041634
  20 H :    0.163272
  21 H :    0.168990
  22 H :    0.163293
  23 H :    0.191212
  24 H :    0.191008
  25 H :    0.211823
  26 H :    0.203620
  27 H :    0.194570
  28 H :    0.189691
  29 H :    0.166839
  30 H :    0.167466
  31 H :    0.162466
  32 H :    0.189732
  33 H :    0.176894
  34 H :    0.178978
  35 H :    0.180154
  36 H :    0.182394
  37 H :    0.191411

  Mayer bond orders larger than 0.100000
B(  0-C ,  1-C ) :   0.9347 B(  0-C , 20-H ) :   0.9697 B(  0-C , 21-H ) :   0.9590
B(  0-C , 22-H ) :   0.9670 B(  1-C ,  2-O ) :   0.7809 B(  1-C , 23-H ) :   0.9516
B(  1-C , 24-H ) :   0.9631 B(  2-O ,  3-C ) :   1.1557 B(  3-C ,  4-O ) :   1.7058
B(  3-C ,  5-C ) :   1.0080 B(  4-O ,  8-C ) :   0.1231 B(  5-C ,  6-C ) :   0.9612
B(  5-C , 10-O ) :   0.1109 B(  5-C , 25-H ) :   0.9387 B(  5-C , 26-H ) :   0.9164
B(  6-C ,  7-H ) :   0.9620 B(  6-C ,  8-C ) :   0.8537 B(  6-C , 13-S ) :   0.8439
B(  8-C ,  9-O ) :   1.8189 B(  8-C , 10-O ) :   1.0959 B( 10-O , 11-C ) :   0.7688
B( 11-C , 12-C ) :   0.9146 B( 11-C , 27-H ) :   0.9657 B( 11-C , 28-H ) :   0.9484
B( 12-C , 29-H ) :   0.9706 B( 12-C , 30-H ) :   0.9589 B( 12-C , 31-H ) :   0.9687
B( 13-S , 14-P ) :   0.9851 B( 14-P , 15-S ) :   1.8382 B( 14-P , 16-O ) :   1.0481
B( 14-P , 18-O ) :   1.1399 B( 16-O , 17-C ) :   0.8183 B( 17-C , 32-H ) :   0.9570
B( 17-C , 33-H ) :   0.9496 B( 17-C , 34-H ) :   0.9548 B( 18-O , 19-C ) :   0.7841
B( 19-C , 35-H ) :   0.9479 B( 19-C , 36-H ) :   0.9507 B( 19-C , 37-H ) :   0.9540

Dispersion correction           -0.017379848
FINAL SINGLE POINT ENERGY     -1981.469715645160

DIPOLE MOMENT
-------------

Method             : SCF
Type of density    : Electron Density
Multiplicity       :   1
Irrep              :   0
Energy             : -1981.4893266753017542 Eh
Relativity type    :
Basis              : AO
                                X                 Y                 Z
Electronic contribution:    -20.467581757       1.343290312      -8.652857088
Nuclear contribution   :     21.553721597      -4.132975883      10.940118442
                        -----------------------------------------
Total Dipole Moment    :      1.086139840      -2.789685571       2.287261354
                        -----------------------------------------
Magnitude (a.u.)       :      3.767440755
Magnitude (Debye)      :      9.576073375

Rotational constants in cm-1:             0.017850             0.005616             0.004997
Rotational constants in MHz :           535.128186           168.367378           149.800297

                             ****ORCA TERMINATED NORMALLY****
TOTAL RUN TIME: 0 days 0 hours 1 minutes 45 seconds 712 msec
