                         Program Version 6.0.0  -   RELEASE  -
|  1> ! pbe def2-sv(p) def2/J RI DEFGRID1 loosescf d4 GCP(DFT/SV(P)) printgap
|  2> %output
|  3>     printlevel normal
|  4> end
|  5> * xyz 0 1
|  6> C 3.9124214408 -1.9139645106 -2.3513142765
|  7> C 4.0200833109 -0.4079124432 -2.2308135036
|  8> O 3.4722110639 0.087198859 -0.9941331637
|  9> P 1.9249703437 0.0012668976 -0.6395399475
| 10> S 0.7022941837 0.3410384721 -2.1251405912
| 11> O 1.8009821968 1.0589335406 0.5232727017
| 12> C 2.6986732561 1.1185577672 1.6644053324
| 13> C 1.9821739211 0.6726650331 2.9230649143
| 14> S 1.7110466813 -1.9040453956 0.268752736
| 15> C -0.0950767707 -1.9648402798 0.218818265
| 16> S -0.8983475129 -0.9668955066 1.5219057155
| 17> P -1.8331356051 0.6346833914 0.5233913357
| 18> S -1.0211167461 2.3916768226 0.2413146626
| 19> O -3.1160496705 0.8857553623 1.430151668
| 20> C -4.0392406456 -0.1570880053 1.8273771774
| 21> C -3.8759324176 -0.4717840891 3.3010834239
| 22> O -2.3373583988 -0.1527225966 -0.7749534844
| 23> C -2.8319781217 0.5415649618 -1.9378720516
| 24> C -2.7978758412 -0.4222888892 -3.1051507133
| 25> H 4.3206184716 -2.3959937745 -1.4666182007
| 26> H 2.8699865379 -2.2063668094 -2.4638713863
| 27> H 4.464788037 -2.2393705785 -3.2269817595
| 28> H 3.4992168951 0.0837188939 -3.0581264773
| 29> H 5.0594663641 -0.0777920086 -2.1992347686
| 30> H 3.576485597 0.5026970756 1.4597614288
| 31> H 2.9893678252 2.1684762919 1.7261926918
| 32> H 1.0589676257 1.2363562187 3.0408535398
| 33> H 1.7416099571 -0.3871781193 2.8816504686
| 34> H 2.6243056941 0.8589180674 3.7778856487
| 35> H -0.3729593008 -2.9981404663 0.4071067765
| 36> H -0.4425968874 -1.6236791417 -0.756324703
| 37> H -5.029350996 0.2531202311 1.6199679925
| 38> H -3.8708349105 -1.0423572816 1.2086961069
| 39> H -3.9989862488 0.4343819245 3.8875116629
| 40> H -4.629379221 -1.1956095202 3.5947654083
| 41> H -2.8879663279 -0.8831597033 3.4947930507
| 42> H -3.8479654297 0.8831714156 -1.7219399734
| 43> H -2.195342634 1.4138010337 -2.1208694812
| 44> H -1.7687697178 -0.6928623544 -3.3282918336
| 45> H -3.363334624 -1.3181495508 -2.8659726679
| 46> H -3.2326929659 0.0607911153 -3.9736728407
| 47> *
| 48>
| 49>                          ****END OF INPUT****

CARTESIAN COORDINATES (ANGSTROEM)
---------------------------------
  C      3.912421   -1.913965   -2.351314
  C      4.020083   -0.407912   -2.230814
  O      3.472211    0.087199   -0.994133
  P      1.924970    0.001267   -0.639540
  S      0.702294    0.341038   -2.125141
  O      1.800982    1.058934    0.523273
  C      2.698673    1.118558    1.664405
  C      1.982174    0.672665    2.923065
  S      1.711047   -1.904045    0.268753
  C     -0.095077   -1.964840    0.218818
  S     -0.898348   -0.966896    1.521906
  P     -1.833136    0.634683    0.523391
  S     -1.021117    2.391677    0.241315
  O     -3.116050    0.885755    1.430152
  C     -4.039241   -0.157088    1.827377
  C     -3.875932   -0.471784    3.301083
  O     -2.337358   -0.152723   -0.774953
  C     -2.831978    0.541565   -1.937872
  C     -2.797876   -0.422289   -3.105151
  H      4.320618   -2.395994   -1.466618
  H      2.869987   -2.206367   -2.463871
  H      4.464788   -2.239371   -3.226982
  H      3.499217    0.083719   -3.058126
  H      5.059466   -0.077792   -2.199235
  H      3.576486    0.502697    1.459761
  H      2.989368    2.168476    1.726193
  H      1.058968    1.236356    3.040854
  H      1.741610   -0.387178    2.881650
  H      2.624306    0.858918    3.777886
  H     -0.372959   -2.998140    0.407107
  H     -0.442597   -1.623679   -0.756325
  H     -5.029351    0.253120    1.619968
  H     -3.870835   -1.042357    1.208696
  H     -3.998986    0.434382    3.887512
  H     -4.629379   -1.195610    3.594765
  H     -2.887966   -0.883160    3.494793
  H     -3.847965    0.883171   -1.721940
  H     -2.195343    1.413801   -2.120869
  H     -1.768770   -0.692862   -3.328292
  H     -3.363335   -1.318150   -2.865973
  H     -3.232693    0.060791   -3.973673

 Total Charge           Charge          ....    0
 Multiplicity           Mult            ....    1
 Number of Electrons    NEL             ....  202
 Basis Dimension        Dim             ....  334

ORBITAL ENERGIES
----------------

  NO   OCC          E(Eh)            E(eV)
   0   2.0000     -88.044849     -2395.8221
   1   2.0000     -88.041280     -2395.7250
   2   2.0000     -87.986096     -2394.2234
   3   2.0000     -87.965738     -2393.6694
   4   2.0000     -76.425459     -2079.6425
   5   2.0000     -76.414004     -2079.3308
   6   2.0000     -18.794195      -511.4161
   7   2.0000     -18.783816      -511.1336
   8   2.0000     -18.782364      -511.0941
   9   2.0000     -18.780555      -511.0449
  10   2.0000      -9.959291      -271.0061
  11   2.0000      -9.955185      -270.8944
  12   2.0000      -9.949836      -270.7488
  13   2.0000      -9.949587      -270.7420
  14   2.0000      -9.942653      -270.5533
  15   2.0000      -9.886732      -269.0317
  16   2.0000      -9.883719      -268.9497
  17   2.0000      -9.879363      -268.8311
  18   2.0000      -9.875339      -268.7216
  19   2.0000      -7.690032      -209.2564
  20   2.0000      -7.686358      -209.1564
  21   2.0000      -7.631026      -207.6508
  22   2.0000      -7.611088      -207.1082
  23   2.0000      -6.422931      -174.7768
  24   2.0000      -6.411767      -174.4731
  25   2.0000      -5.717719      -155.5871
  26   2.0000      -5.714554      -155.5009
  27   2.0000      -5.714538      -155.5005
  28   2.0000      -5.710444      -155.3891
  29   2.0000      -5.707152      -155.2995
  30   2.0000      -5.703339      -155.1958
  31   2.0000      -5.659852      -154.0124
  32   2.0000      -5.651606      -153.7880
  33   2.0000      -5.651250      -153.7783
  34   2.0000      -5.640406      -153.4832
  35   2.0000      -5.631654      -153.2451
  36   2.0000      -5.630846      -153.2231
  37   2.0000      -4.645814      -126.4190
  38   2.0000      -4.644589      -126.3857
  39   2.0000      -4.643233      -126.3488
  40   2.0000      -4.634789      -126.1190
  41   2.0000      -4.633569      -126.0858
  42   2.0000      -4.631755      -126.0365
  43   2.0000      -0.985725       -26.8229
  44   2.0000      -0.974643       -26.5214
  45   2.0000      -0.940517       -25.5928
  46   2.0000      -0.934393       -25.4261
  47   2.0000      -0.762654       -20.7529
  48   2.0000      -0.717941       -19.5362
  49   2.0000      -0.707602       -19.2548
  50   2.0000      -0.688300       -18.7296
  51   2.0000      -0.686214       -18.6728
  52   2.0000      -0.672481       -18.2991
  53   2.0000      -0.647804       -17.6276
  54   2.0000      -0.628091       -17.0912
  55   2.0000      -0.596921       -16.2430
  56   2.0000      -0.576218       -15.6797
  57   2.0000      -0.570743       -15.5307
  58   2.0000      -0.566615       -15.4184
  59   2.0000      -0.558461       -15.1965
  60   2.0000      -0.502057       -13.6617
  61   2.0000      -0.499416       -13.5898
  62   2.0000      -0.474015       -12.8986
  63   2.0000      -0.470336       -12.7985
  64   2.0000      -0.451878       -12.2962
  65   2.0000      -0.443290       -12.0625
  66   2.0000      -0.441427       -12.0118
  67   2.0000      -0.432907       -11.7800
  68   2.0000      -0.428629       -11.6636
  69   2.0000      -0.420946       -11.4545
  70   2.0000      -0.410747       -11.1770
  71   2.0000      -0.389594       -10.6014
  72   2.0000      -0.385040       -10.4775
  73   2.0000      -0.378135       -10.2896
  74   2.0000      -0.377218       -10.2646
  75   2.0000      -0.368248       -10.0205
  76   2.0000      -0.356749        -9.7076
  77   2.0000      -0.355953        -9.6860
  78   2.0000      -0.352519        -9.5925
  79   2.0000      -0.350086        -9.5263
  80   2.0000      -0.345972        -9.4144
  81   2.0000      -0.340537        -9.2665
  82   2.0000      -0.337204        -9.1758
  83   2.0000      -0.335703        -9.1349
  84   2.0000      -0.325652        -8.8614
  85   2.0000      -0.313951        -8.5430
  86   2.0000      -0.308993        -8.4081
  87   2.0000      -0.298010        -8.1093
  88   2.0000      -0.296928        -8.0798
  89   2.0000      -0.293721        -7.9925
  90   2.0000      -0.271682        -7.3928
  91   2.0000      -0.268924        -7.3178
  92   2.0000      -0.266310        -7.2467
  93   2.0000      -0.261705        -7.1214
  94   2.0000      -0.256644        -6.9836
  95   2.0000      -0.234836        -6.3902
  96   2.0000      -0.220705        -6.0057
  97   2.0000      -0.212399        -5.7797
  98   2.0000      -0.202438        -5.5086
  99   2.0000      -0.183284        -4.9874
 100   2.0000      -0.171204        -4.6587
 101   0.0000      -0.040767        -1.1093
 102   0.0000      -0.026258        -0.7145
 103   0.0000      -0.019405        -0.5280
 104   0.0000       0.003101         0.0844
 105   0.0000       0.016142         0.4393

MULLIKEN ATOMIC CHARGES
-----------------------
   0 C :   -0.318510
   1 C :    0.000401
   2 O :   -0.380424
   3 P :    0.609454
   4 S :   -0.306470
   5 O :   -0.335929
   6 C :   -0.012138
   7 C :   -0.287217
   8 S :   -0.104079
   9 C :   -0.355603
  10 S :   -0.111082
  11 P :    0.608572
  12 S :   -0.288490
  13 O :   -0.369860
  14 C :   -0.019522
  15 C :   -0.289292
  16 O :   -0.395707
  17 C :   -0.009160
  18 C :   -0.290032
  19 H :    0.117222
  20 H :    0.126311
  21 H :    0.114580
  22 H :    0.113964
  23 H :    0.105992
  24 H :    0.101508
  25 H :    0.112927
  26 H :    0.125511
  27 H :    0.119548
  28 H :    0.102727
  29 H :    0.181958
  30 H :    0.213813
  31 H :    0.106182
  32 H :    0.099603
  33 H :    0.120453
  34 H :    0.106632
  35 H :    0.122399
  36 H :    0.096521
  37 H :    0.120876
  38 H :    0.131771
  39 H :    0.105929
  40 H :    0.108661
Sum of atomic charges:   -0.0000000

LOEWDIN ATOMIC CHARGES
----------------------
   0 C :   -0.371884
   1 C :   -0.115575
   2 O :   -0.246732
   3 P :    0.572168
   4 S :   -0.288879
   5 O :   -0.224833
   6 C :   -0.108728
   7 C :   -0.363651
   8 S :    0.072669
   9 C :   -0.477495
  10 S :    0.088138
  11 P :    0.552534
  12 S :   -0.293409
  13 O :   -0.247805
  14 C :   -0.123450
  15 C :   -0.360184
  16 O :   -0.257839
  17 C :   -0.120544
  18 C :   -0.355463
  19 H :    0.123091
  20 H :    0.120746
  21 H :    0.131952
  22 H :    0.113564
  23 H :    0.119242
  24 H :    0.106934
  25 H :    0.123765
  26 H :    0.128818
  27 H :    0.113965
  28 H :    0.126065
  29 H :    0.138113
  30 H :    0.130393
  31 H :    0.118616
  32 H :    0.104341
  33 H :    0.129090
  34 H :    0.128246
  35 H :    0.118667
  36 H :    0.108364
  37 H :    0.111462
  38 H :    0.124171
  39 H :    0.121787
  40 H :    0.129571

  Mayer bond orders larger than 0.100000
B(  0-C ,  1-C ) :   1.1662 B(  0-C , 19-H ) :   0.9438 B(  0-C , 20-H ) :   0.9342
B(  0-C , 21-H ) :   0.9369 B(  1-C ,  2-O ) :   0.9048 B(  1-C , 22-H ) :   0.9182
B(  1-C , 23-H ) :   0.9343 B(  2-O ,  3-P ) :   1.0916 B(  3-P ,  4-S ) :   1.6233
B(  3-P ,  5-O ) :   1.1634 B(  3-P ,  8-S ) :   0.9329 B(  4-S ,  8-S ) :   0.1055
B(  5-O ,  6-C ) :   0.8864 B(  6-C ,  7-C ) :   1.1675 B(  6-C , 24-H ) :   0.9193
B(  6-C , 25-H ) :   0.9335 B(  7-C , 26-H ) :   0.9412 B(  7-C , 27-H ) :   0.9344
B(  7-C , 28-H ) :   0.9371 B(  8-S ,  9-C ) :   1.0125 B(  9-C , 10-S ) :   0.9881
B(  9-C , 29-H ) :   0.9110 B(  9-C , 30-H ) :   0.8571 B( 10-S , 11-P ) :   0.9533
B( 10-S , 12-S ) :   0.1055 B( 11-P , 12-S ) :   1.6913 B( 11-P , 13-O ) :   1.0997
B( 11-P , 16-O ) :   1.0624 B( 13-O , 14-C ) :   0.9050 B( 14-C , 15-C ) :   1.1656
B( 14-C , 31-H ) :   0.9322 B( 14-C , 32-H ) :   0.9139 B( 15-C , 33-H ) :   0.9462
B( 15-C , 34-H ) :   0.9403 B( 15-C , 35-H ) :   0.9402 B( 16-O , 17-C ) :   0.8931
B( 17-C , 18-C ) :   1.1622 B( 17-C , 36-H ) :   0.9331 B( 17-C , 37-H ) :   0.9067
B( 18-C , 38-H ) :   0.9427 B( 18-C , 39-H ) :   0.9495 B( 18-C , 40-H ) :   0.9418

Dispersion correction           -0.067965140
FINAL SINGLE POINT ENERGY     -2929.510214702627

DIPOLE MOMENT
-------------

Method             : SCF
Type of density    : Electron Density
Multiplicity       :   1
Irrep              :   0
Energy             : -2929.6277370029329177 Eh
Relativity type    :
Basis              : AO
                                X                 Y                 Z
Electronic contribution:      3.494181441       7.654508283       0.054070232
Nuclear contribution   :     -3.321983801      -9.134950378       0.031601486
                        -----------------------------------------
Total Dipole Moment    :      0.172197640      -1.480442095       0.085671719
                        -----------------------------------------
Magnitude (a.u.)       :      1.492883273
Magnitude (Debye)      :      3.794607718

Rotational constants in cm-1:             0.011847             0.005822             0.005115
Rotational constants in MHz :           355.171880           174.525185           153.354971

                             ****ORCA TERMINATED NORMALLY****
TOTAL RUN TIME: 0 days 0 hours 0 minutes 21 seconds 993 msec
