                         Program Version 6.0.1  -  RELEASE   -
|  1> ! pbe def2-sv(p) def2/J RI DEFGRID1 loosescf d4 GCP(DFT/SV(P)) printgap
|  2> %output
|  3>     printlevel normal
|  4> end
|  5> * xyz 0 1
|  6> C 1.3871465286 -4.1870617115 -0.2876747199
|  7> C 1.7082935179 -2.849056726 0.3488869388
|  8> O 1.4460828511 -1.8188296472 -0.6215308351
|  9> C 2.1471204545 -0.6988011399 -0.572269347
| 10> O 2.9486117453 -0.4256053557 0.2936912284
| 11> C 1.8663309666 0.1842177345 -1.7752220623
| 12> C 0.524420296 0.9132128725 -1.6862290061
| 13> H 0.3877714954 1.5056490726 -2.5971284178
| 14> C 0.4192121556 1.8523823785 -0.5010167994
| 15> O -0.5826121282 1.9054941139 0.1886704649
| 16> O 1.4933934696 2.5678418582 -0.3334677189
| 17> C 1.5390126796 3.4909861639 0.7755599348
| 18> C 0.8811169263 4.8112533394 0.4111105247
| 19> S -0.9069655775 -0.206369101 -1.6541314603
| 20> P -1.2937987987 -0.5141545993 0.4298591496
| 21> S -0.0744311253 -0.2809238958 1.955834403
| 22> O -2.7708136808 0.0685262552 0.6391572047
| 23> C -3.1279120468 1.3292347839 1.2005027245
| 24> O -1.6417667049 -2.0675909529 0.3983630573
| 25> C -2.6042816632 -2.6534937692 -0.4939405343
| 26> H 2.0126228805 -4.348534128 -1.1608257709
| 27> H 1.5666777372 -4.9754221403 0.4354695502
| 28> H 0.344087595 -4.2073893295 -0.5890972419
| 29> H 2.7569334357 -2.7704194535 0.6519433768
| 30> H 1.0807233387 -2.6605957576 1.2257464189
| 31> H 1.8530484923 -0.4479451392 -2.6632411292
| 32> H 2.6639776055 0.9250126446 -1.8403583213
| 33> H 1.0484559193 3.0239416508 1.6345187208
| 34> H 2.6038599347 3.6113747046 0.9736981718
| 35> H 1.3515910221 5.2315701023 -0.4732816712
| 36> H -0.1787487635 4.66379269 0.2175761557
| 37> H 0.993394114 5.5027333397 1.2393879966
| 38> H -3.1106013732 2.0957743748 0.4278371208
| 39> H -2.4344542667 1.5977037341 1.9976806691
| 40> H -4.1328179591 1.1977626973 1.5956867678
| 41> H -2.6607900498 -3.6994701699 -0.2026468021
| 42> H -2.2631057121 -2.5567274597 -1.5247943131
| 43> H -3.5711502596 -2.1687563927 -0.3729302805
| 44> *
| 45>
| 46>                          ****END OF INPUT****

CARTESIAN COORDINATES (ANGSTROEM)
---------------------------------
  C      1.387147   -4.187062   -0.287675
  C      1.708294   -2.849057    0.348887
  O      1.446083   -1.818830   -0.621531
  C      2.147120   -0.698801   -0.572269
  O      2.948612   -0.425605    0.293691
  C      1.866331    0.184218   -1.775222
  C      0.524420    0.913213   -1.686229
  H      0.387771    1.505649   -2.597128
  C      0.419212    1.852382   -0.501017
  O     -0.582612    1.905494    0.188670
  O      1.493393    2.567842   -0.333468
  C      1.539013    3.490986    0.775560
  C      0.881117    4.811253    0.411111
  S     -0.906966   -0.206369   -1.654131
  P     -1.293799   -0.514155    0.429859
  S     -0.074431   -0.280924    1.955834
  O     -2.770814    0.068526    0.639157
  C     -3.127912    1.329235    1.200503
  O     -1.641767   -2.067591    0.398363
  C     -2.604282   -2.653494   -0.493941
  H      2.012623   -4.348534   -1.160826
  H      1.566678   -4.975422    0.435470
  H      0.344088   -4.207389   -0.589097
  H      2.756933   -2.770419    0.651943
  H      1.080723   -2.660596    1.225746
  H      1.853048   -0.447945   -2.663241
  H      2.663978    0.925013   -1.840358
  H      1.048456    3.023942    1.634519
  H      2.603860    3.611375    0.973698
  H      1.351591    5.231570   -0.473282
  H     -0.178749    4.663793    0.217576
  H      0.993394    5.502733    1.239388
  H     -3.110601    2.095774    0.427837
  H     -2.434454    1.597704    1.997681
  H     -4.132818    1.197763    1.595687
  H     -2.660790   -3.699470   -0.202647
  H     -2.263106   -2.556727   -1.524794
  H     -3.571150   -2.168756   -0.372930

 Total Charge           Charge          ....    0
 Multiplicity           Mult            ....    1
 Number of Electrons    NEL             ....  174
 Basis Dimension        Dim             ....  316

ORBITAL ENERGIES
----------------

  NO   OCC          E(Eh)            E(eV)
   0   2.0000     -88.032550     -2395.4875
   1   2.0000     -87.970027     -2393.7861
   2   2.0000     -76.420626     -2079.5110
   3   2.0000     -18.824076      -512.2292
   4   2.0000     -18.791013      -511.3295
   5   2.0000     -18.779491      -511.0159
   6   2.0000     -18.778625      -510.9924
   7   2.0000     -18.760288      -510.4934
   8   2.0000     -18.723205      -509.4843
   9   2.0000     -10.030926      -272.9554
  10   2.0000     -10.000101      -272.1166
  11   2.0000      -9.958638      -270.9883
  12   2.0000      -9.955955      -270.9153
  13   2.0000      -9.940914      -270.5060
  14   2.0000      -9.933107      -270.2936
  15   2.0000      -9.926074      -270.1022
  16   2.0000      -9.910659      -269.6827
  17   2.0000      -9.895129      -269.2601
  18   2.0000      -9.875874      -268.7362
  19   2.0000      -7.677856      -208.9251
  20   2.0000      -7.615014      -207.2151
  21   2.0000      -6.415800      -174.5828
  22   2.0000      -5.706101      -155.2709
  23   2.0000      -5.702538      -155.1739
  24   2.0000      -5.694171      -154.9463
  25   2.0000      -5.644535      -153.5956
  26   2.0000      -5.635677      -153.3546
  27   2.0000      -5.634467      -153.3216
  28   2.0000      -4.638745      -126.2267
  29   2.0000      -4.637803      -126.2010
  30   2.0000      -4.636210      -126.1577
  31   2.0000      -1.033876       -28.1332
  32   2.0000      -0.995930       -27.1006
  33   2.0000      -0.972875       -26.4733
  34   2.0000      -0.939963       -25.5777
  35   2.0000      -0.927629       -25.2421
  36   2.0000      -0.901334       -24.5265
  37   2.0000      -0.768885       -20.9224
  38   2.0000      -0.714359       -19.4387
  39   2.0000      -0.699549       -19.0357
  40   2.0000      -0.686923       -18.6921
  41   2.0000      -0.654038       -17.7973
  42   2.0000      -0.629397       -17.1268
  43   2.0000      -0.627206       -17.0672
  44   2.0000      -0.607978       -16.5439
  45   2.0000      -0.587649       -15.9907
  46   2.0000      -0.561368       -15.2756
  47   2.0000      -0.514094       -13.9892
  48   2.0000      -0.504805       -13.7364
  49   2.0000      -0.495224       -13.4757
  50   2.0000      -0.487440       -13.2639
  51   2.0000      -0.469840       -12.7850
  52   2.0000      -0.450860       -12.2685
  53   2.0000      -0.449150       -12.2220
  54   2.0000      -0.434881       -11.8337
  55   2.0000      -0.428771       -11.6675
  56   2.0000      -0.424696       -11.5566
  57   2.0000      -0.416134       -11.3236
  58   2.0000      -0.406940       -11.0734
  59   2.0000      -0.405582       -11.0365
  60   2.0000      -0.403356       -10.9759
  61   2.0000      -0.395811       -10.7706
  62   2.0000      -0.389191       -10.5904
  63   2.0000      -0.378513       -10.2999
  64   2.0000      -0.374493       -10.1905
  65   2.0000      -0.368907       -10.0385
  66   2.0000      -0.354716        -9.6523
  67   2.0000      -0.351168        -9.5558
  68   2.0000      -0.344110        -9.3637
  69   2.0000      -0.341943        -9.3047
  70   2.0000      -0.334414        -9.0999
  71   2.0000      -0.329351        -8.9621
  72   2.0000      -0.308745        -8.4014
  73   2.0000      -0.307002        -8.3540
  74   2.0000      -0.306567        -8.3421
  75   2.0000      -0.294306        -8.0085
  76   2.0000      -0.289556        -7.8792
  77   2.0000      -0.283697        -7.7198
  78   2.0000      -0.281056        -7.6479
  79   2.0000      -0.261222        -7.1082
  80   2.0000      -0.251613        -6.8467
  81   2.0000      -0.246747        -6.7143
  82   2.0000      -0.245456        -6.6792
  83   2.0000      -0.209572        -5.7028
  84   2.0000      -0.206821        -5.6279
  85   2.0000      -0.187822        -5.1109
  86   2.0000      -0.179783        -4.8921
  87   0.0000      -0.048955        -1.3321
  88   0.0000      -0.043698        -1.1891
  89   0.0000      -0.018980        -0.5165
  90   0.0000      -0.002866        -0.0780
  91   0.0000       0.033589         0.9140

MULLIKEN ATOMIC CHARGES
-----------------------
   0 C :   -0.281259
   1 C :   -0.029957
   2 O :   -0.234571
   3 C :    0.074269
   4 O :   -0.189410
   5 C :   -0.001885
   6 C :   -0.312685
   7 H :    0.155803
   8 C :    0.216643
   9 O :   -0.197993
  10 O :   -0.209977
  11 C :   -0.010980
  12 C :   -0.311144
  13 S :   -0.113009
  14 P :    0.633754
  15 S :   -0.312754
  16 O :   -0.397233
  17 C :   -0.079061
  18 O :   -0.374150
  19 C :   -0.120144
  20 H :    0.102593
  21 H :    0.107049
  22 H :    0.112539
  23 H :    0.103181
  24 H :    0.124273
  25 H :    0.110170
  26 H :    0.114501
  27 H :    0.127883
  28 H :    0.115736
  29 H :    0.115292
  30 H :    0.125702
  31 H :    0.120306
  32 H :    0.109045
  33 H :    0.115830
  34 H :    0.114580
  35 H :    0.128410
  36 H :    0.125642
  37 H :    0.123013
Sum of atomic charges:   -0.0000000

LOEWDIN ATOMIC CHARGES
----------------------
   0 C :   -0.350964
   1 C :   -0.118771
   2 O :   -0.061983
   3 C :    0.012993
   4 O :   -0.156383
   5 C :   -0.246432
   6 C :   -0.260455
   7 H :    0.153141
   8 C :    0.021040
   9 O :   -0.156969
  10 O :   -0.026681
  11 C :   -0.103552
  12 C :   -0.356793
  13 S :    0.093222
  14 P :    0.586391
  15 S :   -0.294835
  16 O :   -0.258688
  17 C :   -0.206896
  18 O :   -0.251253
  19 C :   -0.218234
  20 H :    0.120166
  21 H :    0.128571
  22 H :    0.123466
  23 H :    0.114721
  24 H :    0.112495
  25 H :    0.138677
  26 H :    0.142235
  27 H :    0.128439
  28 H :    0.125202
  29 H :    0.125465
  30 H :    0.129137
  31 H :    0.134702
  32 H :    0.109699
  33 H :    0.110711
  34 H :    0.115341
  35 H :    0.123142
  36 H :    0.106357
  37 H :    0.113574

  Mayer bond orders larger than 0.100000
B(  0-C ,  1-C ) :   1.1572 B(  0-C , 20-H ) :   0.9514 B(  0-C , 21-H ) :   0.9451
B(  0-C , 22-H ) :   0.9461 B(  1-C ,  2-O ) :   0.8938 B(  1-C , 23-H ) :   0.9196
B(  1-C , 24-H ) :   0.9071 B(  2-O ,  3-C ) :   1.2109 B(  3-C ,  4-O ) :   2.0758
B(  3-C ,  5-C ) :   1.0055 B(  5-C ,  6-C ) :   1.0380 B(  5-C , 25-H ) :   0.8904
B(  5-C , 26-H ) :   0.8815 B(  6-C ,  7-H ) :   0.8686 B(  6-C ,  8-C ) :   0.9013
B(  6-C , 13-S ) :   1.0593 B(  8-C ,  9-O ) :   1.9179 B(  8-C , 10-O ) :   1.2929
B(  9-O , 14-P ) :   0.1078 B( 10-O , 11-C ) :   0.8944 B( 11-C , 12-C ) :   1.1698
B( 11-C , 27-H ) :   0.9149 B( 11-C , 28-H ) :   0.9362 B( 12-C , 29-H ) :   0.9475
B( 12-C , 30-H ) :   0.9454 B( 12-C , 31-H ) :   0.9438 B( 13-S , 14-P ) :   0.9084
B( 13-S , 15-S ) :   0.1163 B( 14-P , 15-S ) :   1.5641 B( 14-P , 16-O ) :   1.0801
B( 14-P , 18-O ) :   1.0918 B( 16-O , 17-C ) :   0.9339 B( 17-C , 32-H ) :   0.9527
B( 17-C , 33-H ) :   0.9397 B( 17-C , 34-H ) :   0.9551 B( 18-O , 19-C ) :   0.9303
B( 19-C , 35-H ) :   0.9584 B( 19-C , 36-H ) :   0.9353 B( 19-C , 37-H ) :   0.9447

Dispersion correction           -0.056095327
FINAL SINGLE POINT ENERGY     -1979.002566583255

DIPOLE MOMENT
-------------

Method             : SCF
Type of density    : Electron Density
Multiplicity       :   1
Irrep              :   0
Energy             : -1979.1309384383971519 Eh
Relativity type    :
Basis              : AO
                                X                 Y                 Z
Electronic contribution:     -2.021203328      -1.109431785       0.196063050
Nuclear contribution   :      1.489868647       1.902982908      -1.345849518
                        -----------------------------------------
Total Dipole Moment    :     -0.531334681       0.793551123      -1.149786468
                        -----------------------------------------
Magnitude (a.u.)       :      1.494673493
Magnitude (Debye)      :      3.799158094

Rotational constants in cm-1:             0.012825             0.009448             0.007053
Rotational constants in MHz :           384.479009           283.243872           211.434261

                             ****ORCA TERMINATED NORMALLY****
TOTAL RUN TIME: 0 days 0 hours 0 minutes 46 seconds 124 msec
