                         Program Version 6.0.0  -   RELEASE  -
|  1> ! pbe def2-sv(p) def2/J RI DEFGRID1 loosescf d4 GCP(DFT/SV(P)) printgap
|  2> %output
|  3>     printlevel normal
|  4> end
|  5> * xyz 0 1
|  6> C 4.6315751056 1.2294963657 -1.5599231192
|  7> C 4.8384204207 -0.0316952474 -0.7469872561
|  8> O 3.6166968398 -0.7704481098 -0.5584037429
|  9> P 2.4050635604 -0.212110851 0.3077151438
| 10> S 2.8955489568 0.759007793 1.9302391366
| 11> O 1.5958210036 -1.5308655144 0.6145397225
| 12> C 1.3552693997 -2.5567444866 -0.3846106663
| 13> C 0.4425402528 -3.5931532246 0.2337614746
| 14> S 1.2292044425 0.8707381439 -1.1098771034
| 15> C 0.3346978687 1.8754827497 0.1035915765
| 16> S -0.6885702204 0.908584586 1.2470910291
| 17> P -2.2216277379 0.3247360878 -0.1086534652
| 18> S -1.7827901472 -1.052767686 -1.4376095501
| 19> O -2.6318173034 1.7578286839 -0.6455006626
| 20> C -3.9544332128 2.100570075 -1.1195069693
| 21> C -4.3631436678 1.2839368026 -2.3271878792
| 22> O -3.4485343233 -0.0588343672 0.825754058
| 23> C -3.6300770139 -1.3955814037 1.3208082895
| 24> C -2.6884525706 -1.694120211 2.4696134568
| 25> H 4.0395106279 1.9454672426 -0.9920450013
| 26> H 5.5968229581 1.6716846875 -1.7845611745
| 27> H 4.1124991163 1.0018132379 -2.4877290173
| 28> H 5.2490706017 0.2089104991 0.2383181246
| 29> H 5.4904289755 -0.7398840686 -1.2602643333
| 30> H 0.8909117305 -2.09197748 -1.2596807729
| 31> H 2.3188172788 -2.9828373565 -0.668587493
| 32> H -0.5338027428 -3.1591848594 0.4313810469
| 33> H 0.3246226374 -4.4176787057 -0.4614707048
| 34> H 0.8668005762 -3.956365649 1.165293396
| 35> H -0.2871249995 2.5710039926 -0.4532974035
| 36> H 1.0550466908 2.3975450706 0.7337746265
| 37> H -4.6584372339 1.9639527171 -0.2962585208
| 38> H -3.8675455372 3.1606553963 -1.3636578711
| 39> H -5.3229650562 1.6363625826 -2.691643307
| 40> H -3.6212669325 1.3776130068 -3.1169148676
| 41> H -4.4487560819 0.2317651896 -2.0593105216
| 42> H -4.6731264171 -1.4252330254 1.6385073005
| 43> H -3.4720947129 -2.096406382 0.4933695577
| 44> H -2.8862736096 -2.6905484828 2.8514227874
| 45> H -1.6535835165 -1.6425066332 2.1305574215
| 46> H -2.8220121949 -0.9674461689 3.2666196645
| 47> *
| 48>
| 49>                          ****END OF INPUT****

CARTESIAN COORDINATES (ANGSTROEM)
---------------------------------
  C      4.631575    1.229496   -1.559923
  C      4.838420   -0.031695   -0.746987
  O      3.616697   -0.770448   -0.558404
  P      2.405064   -0.212111    0.307715
  S      2.895549    0.759008    1.930239
  O      1.595821   -1.530866    0.614540
  C      1.355269   -2.556744   -0.384611
  C      0.442540   -3.593153    0.233761
  S      1.229204    0.870738   -1.109877
  C      0.334698    1.875483    0.103592
  S     -0.688570    0.908585    1.247091
  P     -2.221628    0.324736   -0.108653
  S     -1.782790   -1.052768   -1.437610
  O     -2.631817    1.757829   -0.645501
  C     -3.954433    2.100570   -1.119507
  C     -4.363144    1.283937   -2.327188
  O     -3.448534   -0.058834    0.825754
  C     -3.630077   -1.395581    1.320808
  C     -2.688453   -1.694120    2.469613
  H      4.039511    1.945467   -0.992045
  H      5.596823    1.671685   -1.784561
  H      4.112499    1.001813   -2.487729
  H      5.249071    0.208910    0.238318
  H      5.490429   -0.739884   -1.260264
  H      0.890912   -2.091977   -1.259681
  H      2.318817   -2.982837   -0.668587
  H     -0.533803   -3.159185    0.431381
  H      0.324623   -4.417679   -0.461471
  H      0.866801   -3.956366    1.165293
  H     -0.287125    2.571004   -0.453297
  H      1.055047    2.397545    0.733775
  H     -4.658437    1.963953   -0.296259
  H     -3.867546    3.160655   -1.363658
  H     -5.322965    1.636363   -2.691643
  H     -3.621267    1.377613   -3.116915
  H     -4.448756    0.231765   -2.059311
  H     -4.673126   -1.425233    1.638507
  H     -3.472095   -2.096406    0.493370
  H     -2.886274   -2.690548    2.851423
  H     -1.653584   -1.642507    2.130557
  H     -2.822012   -0.967446    3.266620

 Total Charge           Charge          ....    0
 Multiplicity           Mult            ....    1
 Number of Electrons    NEL             ....  202
 Basis Dimension        Dim             ....  334

ORBITAL ENERGIES
----------------

  NO   OCC          E(Eh)            E(eV)
   0   2.0000     -88.036897     -2395.6057
   1   2.0000     -88.034242     -2395.5335
   2   2.0000     -87.986707     -2394.2400
   3   2.0000     -87.982472     -2394.1248
   4   2.0000     -76.428465     -2079.7243
   5   2.0000     -76.421048     -2079.5224
   6   2.0000     -18.799317      -511.5554
   7   2.0000     -18.794481      -511.4238
   8   2.0000     -18.790733      -511.3218
   9   2.0000     -18.782421      -511.0956
  10   2.0000      -9.960028      -271.0261
  11   2.0000      -9.955594      -270.9055
  12   2.0000      -9.951783      -270.8018
  13   2.0000      -9.951127      -270.7839
  14   2.0000      -9.941991      -270.5353
  15   2.0000      -9.887011      -269.0392
  16   2.0000      -9.886442      -269.0238
  17   2.0000      -9.881617      -268.8925
  18   2.0000      -9.876738      -268.7597
  19   2.0000      -7.681817      -209.0329
  20   2.0000      -7.679247      -208.9629
  21   2.0000      -7.631528      -207.6644
  22   2.0000      -7.627767      -207.5621
  23   2.0000      -6.426023      -174.8610
  24   2.0000      -6.418455      -174.6550
  25   2.0000      -5.709794      -155.3714
  26   2.0000      -5.707017      -155.2958
  27   2.0000      -5.706616      -155.2849
  28   2.0000      -5.703883      -155.2106
  29   2.0000      -5.698422      -155.0620
  30   2.0000      -5.696183      -155.0010
  31   2.0000      -5.660242      -154.0230
  32   2.0000      -5.656688      -153.9263
  33   2.0000      -5.652218      -153.8047
  34   2.0000      -5.651830      -153.7941
  35   2.0000      -5.648313      -153.6984
  36   2.0000      -5.647967      -153.6890
  37   2.0000      -4.649222      -126.5118
  38   2.0000      -4.647664      -126.4694
  39   2.0000      -4.646020      -126.4246
  40   2.0000      -4.641408      -126.2991
  41   2.0000      -4.640009      -126.2611
  42   2.0000      -4.638812      -126.2285
  43   2.0000      -0.992674       -27.0120
  44   2.0000      -0.982644       -26.7391
  45   2.0000      -0.950101       -25.8536
  46   2.0000      -0.937652       -25.5148
  47   2.0000      -0.759560       -20.6687
  48   2.0000      -0.719802       -19.5868
  49   2.0000      -0.706304       -19.2195
  50   2.0000      -0.692437       -18.8422
  51   2.0000      -0.684532       -18.6271
  52   2.0000      -0.670375       -18.2418
  53   2.0000      -0.651334       -17.7237
  54   2.0000      -0.635269       -17.2866
  55   2.0000      -0.597246       -16.2519
  56   2.0000      -0.587936       -15.9986
  57   2.0000      -0.582106       -15.8399
  58   2.0000      -0.562593       -15.3089
  59   2.0000      -0.556672       -15.1478
  60   2.0000      -0.502190       -13.6653
  61   2.0000      -0.497458       -13.5365
  62   2.0000      -0.476889       -12.9768
  63   2.0000      -0.469820       -12.7845
  64   2.0000      -0.463391       -12.6095
  65   2.0000      -0.443838       -12.0774
  66   2.0000      -0.435624       -11.8539
  67   2.0000      -0.432259       -11.7624
  68   2.0000      -0.424683       -11.5562
  69   2.0000      -0.414914       -11.2904
  70   2.0000      -0.412753       -11.2316
  71   2.0000      -0.408305       -11.1105
  72   2.0000      -0.385651       -10.4941
  73   2.0000      -0.380653       -10.3581
  74   2.0000      -0.374707       -10.1963
  75   2.0000      -0.372846       -10.1457
  76   2.0000      -0.361102        -9.8261
  77   2.0000      -0.358317        -9.7503
  78   2.0000      -0.355434        -9.6719
  79   2.0000      -0.350628        -9.5411
  80   2.0000      -0.346402        -9.4261
  81   2.0000      -0.343318        -9.3422
  82   2.0000      -0.338425        -9.2090
  83   2.0000      -0.336064        -9.1448
  84   2.0000      -0.331615        -9.0237
  85   2.0000      -0.320619        -8.7245
  86   2.0000      -0.305848        -8.3226
  87   2.0000      -0.298511        -8.1229
  88   2.0000      -0.297469        -8.0945
  89   2.0000      -0.295470        -8.0401
  90   2.0000      -0.290803        -7.9132
  91   2.0000      -0.279351        -7.6015
  92   2.0000      -0.264689        -7.2026
  93   2.0000      -0.261688        -7.1209
  94   2.0000      -0.253977        -6.9111
  95   2.0000      -0.236155        -6.4261
  96   2.0000      -0.214668        -5.8414
  97   2.0000      -0.206480        -5.6186
  98   2.0000      -0.202968        -5.5230
  99   2.0000      -0.194323        -5.2878
 100   2.0000      -0.189983        -5.1697
 101   0.0000      -0.043473        -1.1830
 102   0.0000      -0.023239        -0.6324
 103   0.0000      -0.010799        -0.2938
 104   0.0000       0.005031         0.1369
 105   0.0000       0.016838         0.4582

MULLIKEN ATOMIC CHARGES
-----------------------
   0 C :   -0.315303
   1 C :    0.000578
   2 O :   -0.387450
   3 P :    0.616104
   4 S :   -0.321399
   5 O :   -0.357894
   6 C :   -0.020518
   7 C :   -0.290513
   8 S :   -0.088627
   9 C :   -0.360904
  10 S :   -0.073133
  11 P :    0.627026
  12 S :   -0.317847
  13 O :   -0.383897
  14 C :   -0.001817
  15 C :   -0.311392
  16 O :   -0.379650
  17 C :   -0.013975
  18 C :   -0.336957
  19 H :    0.125711
  20 H :    0.111992
  21 H :    0.118178
  22 H :    0.112391
  23 H :    0.103747
  24 H :    0.120232
  25 H :    0.102812
  26 H :    0.127775
  27 H :    0.104499
  28 H :    0.113958
  29 H :    0.187046
  30 H :    0.193483
  31 H :    0.112570
  32 H :    0.107689
  33 H :    0.110788
  34 H :    0.124435
  35 H :    0.126589
  36 H :    0.104866
  37 H :    0.113371
  38 H :    0.116278
  39 H :    0.156876
  40 H :    0.122281
Sum of atomic charges:    0.0000000

LOEWDIN ATOMIC CHARGES
----------------------
   0 C :   -0.370767
   1 C :   -0.115924
   2 O :   -0.248317
   3 P :    0.574098
   4 S :   -0.315114
   5 O :   -0.236497
   6 C :   -0.117332
   7 C :   -0.353977
   8 S :    0.074886
   9 C :   -0.482318
  10 S :    0.093233
  11 P :    0.572037
  12 S :   -0.304585
  13 O :   -0.249986
  14 C :   -0.108146
  15 C :   -0.366882
  16 O :   -0.243147
  17 C :   -0.123391
  18 C :   -0.369213
  19 H :    0.120660
  20 H :    0.130494
  21 H :    0.123908
  22 H :    0.112515
  23 H :    0.118091
  24 H :    0.106255
  25 H :    0.109871
  26 H :    0.120678
  27 H :    0.129178
  28 H :    0.125970
  29 H :    0.133236
  30 H :    0.130407
  31 H :    0.114839
  32 H :    0.120556
  33 H :    0.129588
  34 H :    0.130199
  35 H :    0.121889
  36 H :    0.118352
  37 H :    0.107506
  38 H :    0.133196
  39 H :    0.125554
  40 H :    0.128402

  Mayer bond orders larger than 0.100000
B(  0-C ,  1-C ) :   1.1664 B(  0-C , 19-H ) :   0.9349 B(  0-C , 20-H ) :   0.9368
B(  0-C , 21-H ) :   0.9437 B(  1-C ,  2-O ) :   0.9087 B(  1-C , 22-H ) :   0.9185
B(  1-C , 23-H ) :   0.9344 B(  2-O ,  3-P ) :   1.0832 B(  3-P ,  4-S ) :   1.6224
B(  3-P ,  5-O ) :   1.1426 B(  3-P ,  8-S ) :   0.9503 B(  4-S ,  8-S ) :   0.1105
B(  5-O ,  6-C ) :   0.8894 B(  6-C ,  7-C ) :   1.1697 B(  6-C , 24-H ) :   0.9064
B(  6-C , 25-H ) :   0.9279 B(  7-C , 26-H ) :   0.9319 B(  7-C , 27-H ) :   0.9395
B(  7-C , 28-H ) :   0.9493 B(  8-S ,  9-C ) :   1.0053 B(  9-C , 10-S ) :   1.0020
B(  9-C , 29-H ) :   0.8951 B(  9-C , 30-H ) :   0.8812 B( 10-S , 11-P ) :   0.9607
B( 10-S , 12-S ) :   0.1177 B( 11-P , 12-S ) :   1.6377 B( 11-P , 13-O ) :   1.0958
B( 11-P , 16-O ) :   1.0818 B( 13-O , 14-C ) :   0.9052 B( 14-C , 15-C ) :   1.1674
B( 14-C , 31-H ) :   0.9290 B( 14-C , 32-H ) :   0.9356 B( 15-C , 33-H ) :   0.9356
B( 15-C , 34-H ) :   0.9451 B( 15-C , 35-H ) :   0.9347 B( 16-O , 17-C ) :   0.9069
B( 17-C , 18-C ) :   1.1666 B( 17-C , 36-H ) :   0.9311 B( 17-C , 37-H ) :   0.9084
B( 18-C , 38-H ) :   0.9393 B( 18-C , 39-H ) :   0.9219 B( 18-C , 40-H ) :   0.9437

Dispersion correction           -0.065987882
FINAL SINGLE POINT ENERGY     -2929.518788428752

DIPOLE MOMENT
-------------

Method             : SCF
Type of density    : Electron Density
Multiplicity       :   1
Irrep              :   0
Energy             : -2929.6377116009621204 Eh
Relativity type    :
Basis              : AO
                                X                 Y                 Z
Electronic contribution:      7.120758017       7.652084926       5.098558598
Nuclear contribution   :     -8.013746622      -7.661020559      -5.771129590
                        -----------------------------------------
Total Dipole Moment    :     -0.892988604      -0.008935632      -0.672570992
                        -----------------------------------------
Magnitude (a.u.)       :      1.117971481
Magnitude (Debye)      :      2.841657674

Rotational constants in cm-1:             0.012709             0.005026             0.004632
Rotational constants in MHz :           380.991426           150.687151           138.856269

                             ****ORCA TERMINATED NORMALLY****
TOTAL RUN TIME: 0 days 0 hours 0 minutes 21 seconds 225 msec
