                         Program Version 6.0.1  -  RELEASE   -
|  1> ! r2scan-3c def2/J RI DEFGRID2 scfconv6 printgap
|  2> %output
|  3>     printlevel normal
|  4> end
|  5> * xyz 0 1
|  6> C 4.5706147614 -3.3721595927 -2.0518028302
|  7> C 3.6601748434 -3.6191081426 -0.8593024584
|  8> O 3.3313014318 -2.383000916 -0.1959611071
|  9> C 2.3045526986 -1.6851406122 -0.640491556
| 10> O 1.5864654035 -2.0186243417 -1.5559706483
| 11> C 2.1418743667 -0.3994415321 0.1495922357
| 12> C 0.7539296959 0.1820583999 -0.0614137207
| 13> H 0.5093784996 0.1655580244 -1.1322889547
| 14> C 0.5872302671 1.6102965916 0.4194348662
| 15> O -0.4238116667 1.9874561923 0.9760291253
| 16> O 1.6147673885 2.3606757189 0.1274433599
| 17> C 1.5611277404 3.7609536868 0.4819812781
| 18> C 1.9714114466 3.9717182674 1.9298443109
| 19> S -0.5084788865 -0.8301742594 0.7851160803
| 20> P -2.2258711855 0.2085977267 0.0911760688
| 21> S -2.0616654685 1.2479467772 -1.5594860403
| 22> O -3.2567161306 -1.019895764 -0.0642445159
| 23> C -3.0975796196 -1.989894952 -1.1008903433
| 24> O -2.9334443861 0.9712347617 1.2770762112
| 25> C -3.1772304272 0.356109763 2.5571895095
| 26> H 4.0507044484 -2.7827810301 -2.8037211419
| 27> H 5.4634199632 -2.8388238733 -1.7374522052
| 28> H 4.8568546772 -4.3235663348 -2.4877524756
| 29> H 4.1593210477 -4.2134101291 -0.0940568492
| 30> H 2.7316617063 -4.103282794 -1.1744432623
| 31> H 2.886512016 0.3153028497 -0.208184587
| 32> H 2.3331428863 -0.6060625184 1.2024325893
| 33> H 2.2595607157 4.2352488857 -0.2070517922
| 34> H 0.5448340622 4.1238809684 0.3054716422
| 35> H 2.9623675172 3.5621215875 2.1035623408
| 36> H 1.9811172808 5.0351602402 2.1444742452
| 37> H 1.2614934952 3.4856489146 2.5951028462
| 38> H -2.203488439 -2.5883530146 -0.921664722
| 39> H -3.0180325113 -1.4929952325 -2.06935867
| 40> H -3.9891810053 -2.6100771765 -1.0623395056
| 41> H -3.8850894249 -0.4633182118 2.445340374
| 42> H -3.591130109 1.1489315465 3.174620606
| 43> H -2.2402451626 -0.0099986508 2.9770704265
| 44> *
| 45>
| 46>                          ****END OF INPUT****

CARTESIAN COORDINATES (ANGSTROEM)
---------------------------------
  C      4.570615   -3.372160   -2.051803
  C      3.660175   -3.619108   -0.859302
  O      3.331301   -2.383001   -0.195961
  C      2.304553   -1.685141   -0.640492
  O      1.586465   -2.018624   -1.555971
  C      2.141874   -0.399442    0.149592
  C      0.753930    0.182058   -0.061414
  H      0.509378    0.165558   -1.132289
  C      0.587230    1.610297    0.419435
  O     -0.423812    1.987456    0.976029
  O      1.614767    2.360676    0.127443
  C      1.561128    3.760954    0.481981
  C      1.971411    3.971718    1.929844
  S     -0.508479   -0.830174    0.785116
  P     -2.225871    0.208598    0.091176
  S     -2.061665    1.247947   -1.559486
  O     -3.256716   -1.019896   -0.064245
  C     -3.097580   -1.989895   -1.100890
  O     -2.933444    0.971235    1.277076
  C     -3.177230    0.356110    2.557190
  H      4.050704   -2.782781   -2.803721
  H      5.463420   -2.838824   -1.737452
  H      4.856855   -4.323566   -2.487752
  H      4.159321   -4.213410   -0.094057
  H      2.731662   -4.103283   -1.174443
  H      2.886512    0.315303   -0.208185
  H      2.333143   -0.606063    1.202433
  H      2.259561    4.235249   -0.207052
  H      0.544834    4.123881    0.305472
  H      2.962368    3.562122    2.103562
  H      1.981117    5.035160    2.144474
  H      1.261493    3.485649    2.595103
  H     -2.203488   -2.588353   -0.921665
  H     -3.018033   -1.492995   -2.069359
  H     -3.989181   -2.610077   -1.062340
  H     -3.885089   -0.463318    2.445340
  H     -3.591130    1.148932    3.174621
  H     -2.240245   -0.009999    2.977070

 Total Charge           Charge          ....    0
 Multiplicity           Mult            ....    1
 Number of Electrons    NEL             ....  174
 Basis Dimension        Dim             ....  510

ORBITAL ENERGIES
----------------

  NO   OCC          E(Eh)            E(eV)
   0   2.0000     -88.566957     -2410.0294
   1   2.0000     -88.503442     -2408.3011
   2   2.0000     -76.902152     -2092.6139
   3   2.0000     -19.014103      -517.4001
   4   2.0000     -19.008730      -517.2538
   5   2.0000     -18.978917      -516.4426
   6   2.0000     -18.974109      -516.3118
   7   2.0000     -18.940835      -515.4063
   8   2.0000     -18.938985      -515.3560
   9   2.0000     -10.166291      -276.6389
  10   2.0000     -10.166033      -276.6318
  11   2.0000     -10.101361      -274.8720
  12   2.0000     -10.100041      -274.8361
  13   2.0000     -10.091425      -274.6016
  14   2.0000     -10.086934      -274.4794
  15   2.0000     -10.075492      -274.1681
  16   2.0000     -10.066924      -273.9349
  17   2.0000     -10.036271      -273.1008
  18   2.0000     -10.035670      -273.0845
  19   2.0000      -7.861316      -213.9173
  20   2.0000      -7.798356      -212.2041
  21   2.0000      -6.579951      -179.0496
  22   2.0000      -5.808164      -158.0482
  23   2.0000      -5.805338      -157.9713
  24   2.0000      -5.798293      -157.7796
  25   2.0000      -5.746292      -156.3646
  26   2.0000      -5.738758      -156.1595
  27   2.0000      -5.737919      -156.1367
  28   2.0000      -4.725647      -128.5914
  29   2.0000      -4.725148      -128.5778
  30   2.0000      -4.723397      -128.5302
  31   2.0000      -1.091415       -29.6989
  32   2.0000      -1.085323       -29.5331
  33   2.0000      -1.035697       -28.1828
  34   2.0000      -0.993762       -27.0416
  35   2.0000      -0.990627       -26.9563
  36   2.0000      -0.990204       -26.9448
  37   2.0000      -0.809973       -22.0405
  38   2.0000      -0.758980       -20.6529
  39   2.0000      -0.750641       -20.4260
  40   2.0000      -0.724926       -19.7262
  41   2.0000      -0.694946       -18.9104
  42   2.0000      -0.663802       -18.0630
  43   2.0000      -0.659093       -17.9348
  44   2.0000      -0.643489       -17.5102
  45   2.0000      -0.633391       -17.2354
  46   2.0000      -0.599624       -16.3166
  47   2.0000      -0.535883       -14.5821
  48   2.0000      -0.532582       -14.4923
  49   2.0000      -0.521621       -14.1940
  50   2.0000      -0.502187       -13.6652
  51   2.0000      -0.486394       -13.2355
  52   2.0000      -0.480368       -13.0715
  53   2.0000      -0.474412       -12.9094
  54   2.0000      -0.458946       -12.4885
  55   2.0000      -0.452161       -12.3039
  56   2.0000      -0.444585       -12.0978
  57   2.0000      -0.439315       -11.9544
  58   2.0000      -0.437037       -11.8924
  59   2.0000      -0.424753       -11.5581
  60   2.0000      -0.420652       -11.4465
  61   2.0000      -0.415214       -11.2985
  62   2.0000      -0.408418       -11.1136
  63   2.0000      -0.404503       -11.0071
  64   2.0000      -0.397820       -10.8252
  65   2.0000      -0.382200       -10.4002
  66   2.0000      -0.380291       -10.3482
  67   2.0000      -0.372561       -10.1379
  68   2.0000      -0.363154        -9.8819
  69   2.0000      -0.353678        -9.6241
  70   2.0000      -0.349673        -9.5151
  71   2.0000      -0.347898        -9.4668
  72   2.0000      -0.342125        -9.3097
  73   2.0000      -0.323895        -8.8136
  74   2.0000      -0.319300        -8.6886
  75   2.0000      -0.317565        -8.6414
  76   2.0000      -0.306896        -8.3511
  77   2.0000      -0.301099        -8.1933
  78   2.0000      -0.286376        -7.7927
  79   2.0000      -0.283373        -7.7110
  80   2.0000      -0.276463        -7.5229
  81   2.0000      -0.263059        -7.1582
  82   2.0000      -0.251508        -6.8439
  83   2.0000      -0.247962        -6.7474
  84   2.0000      -0.227199        -6.1824
  85   2.0000      -0.205701        -5.5974
  86   2.0000      -0.197805        -5.3825
  87   0.0000      -0.041007        -1.1159
  88   0.0000      -0.028173        -0.7666
  89   0.0000      -0.018281        -0.4974
  90   0.0000       0.011882         0.3233
  91   0.0000       0.030713         0.8357

MULLIKEN ATOMIC CHARGES
-----------------------
   0 C :   -0.469036
   1 C :   -0.136476
   2 O :   -0.171903
   3 C :    0.381672
   4 O :   -0.419506
   5 C :   -0.425357
   6 C :   -0.052252
   7 H :    0.260315
   8 C :    0.396254
   9 O :   -0.408185
  10 O :   -0.172624
  11 C :   -0.139457
  12 C :   -0.474330
  13 S :   -0.222734
  14 P :    0.811909
  15 S :   -0.465139
  16 O :   -0.362806
  17 C :   -0.295112
  18 O :   -0.304209
  19 C :   -0.297467
  20 H :    0.173379
  21 H :    0.153118
  22 H :    0.149645
  23 H :    0.150846
  24 H :    0.169546
  25 H :    0.202986
  26 H :    0.188829
  27 H :    0.152728
  28 H :    0.178988
  29 H :    0.151465
  30 H :    0.151854
  31 H :    0.178153
  32 H :    0.158527
  33 H :    0.173906
  34 H :    0.146029
  35 H :    0.167282
  36 H :    0.154777
  37 H :    0.164386
Sum of atomic charges:    0.0000000

LOEWDIN ATOMIC CHARGES
----------------------
   0 C :   -0.388679
   1 C :    0.030842
   2 O :   -0.584726
   3 C :    0.355969
   4 O :   -0.433179
   5 C :   -0.203413
   6 C :   -0.197989
   7 H :    0.225260
   8 C :    0.349795
   9 O :   -0.450185
  10 O :   -0.580744
  11 C :    0.036074
  12 C :   -0.388274
  13 S :    0.207018
  14 P :    0.407774
  15 S :   -0.087698
  16 O :   -0.694352
  17 C :   -0.064891
  18 O :   -0.639421
  19 C :   -0.051271
  20 H :    0.165514
  21 H :    0.157685
  22 H :    0.160625
  23 H :    0.179270
  24 H :    0.189203
  25 H :    0.205784
  26 H :    0.191328
  27 H :    0.180369
  28 H :    0.192813
  29 H :    0.156948
  30 H :    0.161738
  31 H :    0.167293
  32 H :    0.169425
  33 H :    0.176219
  34 H :    0.173886
  35 H :    0.171984
  36 H :    0.179918
  37 H :    0.172088

  Mayer bond orders larger than 0.100000
B(  0-C ,  1-C ) :   0.9394 B(  0-C , 20-H ) :   0.9705 B(  0-C , 21-H ) :   0.9736
B(  0-C , 22-H ) :   0.9635 B(  1-C ,  2-O ) :   0.8049 B(  1-C , 23-H ) :   0.9620
B(  1-C , 24-H ) :   0.9669 B(  2-O ,  3-C ) :   1.1006 B(  3-C ,  4-O ) :   1.8416
B(  3-C ,  5-C ) :   0.9608 B(  5-C ,  6-C ) :   0.9011 B(  5-C , 25-H ) :   0.9210
B(  5-C , 26-H ) :   0.9636 B(  6-C ,  7-H ) :   0.9145 B(  6-C ,  8-C ) :   0.8742
B(  6-C , 13-S ) :   0.8820 B(  8-C ,  9-O ) :   1.8269 B(  8-C , 10-O ) :   1.1552
B( 10-O , 11-C ) :   0.7993 B( 11-C , 12-C ) :   0.9337 B( 11-C , 27-H ) :   0.9617
B( 11-C , 28-H ) :   0.9699 B( 12-C , 29-H ) :   0.9723 B( 12-C , 30-H ) :   0.9628
B( 12-C , 31-H ) :   0.9711 B( 13-S , 14-P ) :   0.9769 B( 14-P , 15-S ) :   1.7836
B( 14-P , 16-O ) :   1.0096 B( 14-P , 18-O ) :   1.1910 B( 16-O , 17-C ) :   0.8404
B( 17-C , 32-H ) :   0.9538 B( 17-C , 33-H ) :   0.9584 B( 17-C , 34-H ) :   0.9694
B( 18-O , 19-C ) :   0.7964 B( 19-C , 35-H ) :   0.9633 B( 19-C , 36-H ) :   0.9657
B( 19-C , 37-H ) :   0.9592

Dispersion correction           -0.016413824
FINAL SINGLE POINT ENERGY     -1981.448000842167

DIPOLE MOMENT
-------------

Method             : SCF
Type of density    : Electron Density
Multiplicity       :   1
Irrep              :   0
Energy             : -1981.4691405469379788 Eh
Relativity type    :
Basis              : AO
                                X                 Y                 Z
Electronic contribution:    -16.265206937       3.328137030      -1.725175391
Nuclear contribution   :     18.079614850      -3.915914229       2.810507419
                        -----------------------------------------
Total Dipole Moment    :      1.814407913      -0.587777198       1.085332028
                        -----------------------------------------
Magnitude (a.u.)       :      2.194425602
Magnitude (Debye)      :      5.577786606

Rotational constants in cm-1:             0.011057             0.006722             0.004928
Rotational constants in MHz :           331.469920           201.512537           147.734898

                             ****ORCA TERMINATED NORMALLY****
TOTAL RUN TIME: 0 days 0 hours 1 minutes 9 seconds 140 msec
