                         Program Version 6.0.1  -  RELEASE   -
|  1> ! r2scan-3c def2/J RI DEFGRID2 scfconv6 printgap
|  2> %output
|  3>     printlevel normal
|  4> end
|  5> %cpcm
|  6>     smd true
|  7>     smdsolvent "water"
|  8> end
|  9> * xyz 0 1
| 10> C 4.5706147614 -3.3721595927 -2.0518028302
| 11> C 3.6601748434 -3.6191081426 -0.8593024584
| 12> O 3.3313014318 -2.383000916 -0.1959611071
| 13> C 2.3045526986 -1.6851406122 -0.640491556
| 14> O 1.5864654035 -2.0186243417 -1.5559706483
| 15> C 2.1418743667 -0.3994415321 0.1495922357
| 16> C 0.7539296959 0.1820583999 -0.0614137207
| 17> H 0.5093784996 0.1655580244 -1.1322889547
| 18> C 0.5872302671 1.6102965916 0.4194348662
| 19> O -0.4238116667 1.9874561923 0.9760291253
| 20> O 1.6147673885 2.3606757189 0.1274433599
| 21> C 1.5611277404 3.7609536868 0.4819812781
| 22> C 1.9714114466 3.9717182674 1.9298443109
| 23> S -0.5084788865 -0.8301742594 0.7851160803
| 24> P -2.2258711855 0.2085977267 0.0911760688
| 25> S -2.0616654685 1.2479467772 -1.5594860403
| 26> O -3.2567161306 -1.019895764 -0.0642445159
| 27> C -3.0975796196 -1.989894952 -1.1008903433
| 28> O -2.9334443861 0.9712347617 1.2770762112
| 29> C -3.1772304272 0.356109763 2.5571895095
| 30> H 4.0507044484 -2.7827810301 -2.8037211419
| 31> H 5.4634199632 -2.8388238733 -1.7374522052
| 32> H 4.8568546772 -4.3235663348 -2.4877524756
| 33> H 4.1593210477 -4.2134101291 -0.0940568492
| 34> H 2.7316617063 -4.103282794 -1.1744432623
| 35> H 2.886512016 0.3153028497 -0.208184587
| 36> H 2.3331428863 -0.6060625184 1.2024325893
| 37> H 2.2595607157 4.2352488857 -0.2070517922
| 38> H 0.5448340622 4.1238809684 0.3054716422
| 39> H 2.9623675172 3.5621215875 2.1035623408
| 40> H 1.9811172808 5.0351602402 2.1444742452
| 41> H 1.2614934952 3.4856489146 2.5951028462
| 42> H -2.203488439 -2.5883530146 -0.921664722
| 43> H -3.0180325113 -1.4929952325 -2.06935867
| 44> H -3.9891810053 -2.6100771765 -1.0623395056
| 45> H -3.8850894249 -0.4633182118 2.445340374
| 46> H -3.591130109 1.1489315465 3.174620606
| 47> H -2.2402451626 -0.0099986508 2.9770704265
| 48> *
| 49>
| 50>                          ****END OF INPUT****

CARTESIAN COORDINATES (ANGSTROEM)
---------------------------------
  C      4.570615   -3.372160   -2.051803
  C      3.660175   -3.619108   -0.859302
  O      3.331301   -2.383001   -0.195961
  C      2.304553   -1.685141   -0.640492
  O      1.586465   -2.018624   -1.555971
  C      2.141874   -0.399442    0.149592
  C      0.753930    0.182058   -0.061414
  H      0.509378    0.165558   -1.132289
  C      0.587230    1.610297    0.419435
  O     -0.423812    1.987456    0.976029
  O      1.614767    2.360676    0.127443
  C      1.561128    3.760954    0.481981
  C      1.971411    3.971718    1.929844
  S     -0.508479   -0.830174    0.785116
  P     -2.225871    0.208598    0.091176
  S     -2.061665    1.247947   -1.559486
  O     -3.256716   -1.019896   -0.064245
  C     -3.097580   -1.989895   -1.100890
  O     -2.933444    0.971235    1.277076
  C     -3.177230    0.356110    2.557190
  H      4.050704   -2.782781   -2.803721
  H      5.463420   -2.838824   -1.737452
  H      4.856855   -4.323566   -2.487752
  H      4.159321   -4.213410   -0.094057
  H      2.731662   -4.103283   -1.174443
  H      2.886512    0.315303   -0.208185
  H      2.333143   -0.606063    1.202433
  H      2.259561    4.235249   -0.207052
  H      0.544834    4.123881    0.305472
  H      2.962368    3.562122    2.103562
  H      1.981117    5.035160    2.144474
  H      1.261493    3.485649    2.595103
  H     -2.203488   -2.588353   -0.921665
  H     -3.018033   -1.492995   -2.069359
  H     -3.989181   -2.610077   -1.062340
  H     -3.885089   -0.463318    2.445340
  H     -3.591130    1.148932    3.174621
  H     -2.240245   -0.009999    2.977070

 Total Charge           Charge          ....    0
 Multiplicity           Mult            ....    1
 Number of Electrons    NEL             ....  174
 Basis Dimension        Dim             ....  510

ORBITAL ENERGIES
----------------

  NO   OCC          E(Eh)            E(eV)
   0   2.0000     -88.577798     -2410.3244
   1   2.0000     -88.524902     -2408.8851
   2   2.0000     -76.919136     -2093.0761
   3   2.0000     -19.015420      -517.4359
   4   2.0000     -19.008385      -517.2444
   5   2.0000     -18.994879      -516.8769
   6   2.0000     -18.988168      -516.6943
   7   2.0000     -18.951556      -515.6981
   8   2.0000     -18.950437      -515.6676
   9   2.0000     -10.175607      -276.8923
  10   2.0000     -10.172104      -276.7970
  11   2.0000     -10.096416      -274.7374
  12   2.0000     -10.089390      -274.5462
  13   2.0000     -10.086221      -274.4600
  14   2.0000     -10.084472      -274.4124
  15   2.0000     -10.078246      -274.2430
  16   2.0000     -10.060288      -273.7543
  17   2.0000     -10.020461      -272.6706
  18   2.0000     -10.019342      -272.6401
  19   2.0000      -7.872080      -214.2102
  20   2.0000      -7.820178      -212.7979
  21   2.0000      -6.597071      -179.5154
  22   2.0000      -5.818921      -158.3409
  23   2.0000      -5.816104      -158.2642
  24   2.0000      -5.809076      -158.0730
  25   2.0000      -5.767965      -156.9543
  26   2.0000      -5.760623      -156.7545
  27   2.0000      -5.759770      -156.7313
  28   2.0000      -4.742757      -129.0570
  29   2.0000      -4.742177      -129.0412
  30   2.0000      -4.740637      -128.9993
  31   2.0000      -1.094880       -29.7932
  32   2.0000      -1.086706       -29.5708
  33   2.0000      -1.050691       -28.5908
  34   2.0000      -1.007024       -27.4025
  35   2.0000      -1.001699       -27.2576
  36   2.0000      -0.997632       -27.1469
  37   2.0000      -0.812488       -22.1089
  38   2.0000      -0.750937       -20.4340
  39   2.0000      -0.745645       -20.2900
  40   2.0000      -0.728428       -19.8215
  41   2.0000      -0.696210       -18.9448
  42   2.0000      -0.666575       -18.1384
  43   2.0000      -0.660247       -17.9662
  44   2.0000      -0.655306       -17.8318
  45   2.0000      -0.625497       -17.0206
  46   2.0000      -0.596727       -16.2378
  47   2.0000      -0.538190       -14.6449
  48   2.0000      -0.527651       -14.3581
  49   2.0000      -0.520486       -14.1631
  50   2.0000      -0.503236       -13.6938
  51   2.0000      -0.489958       -13.3324
  52   2.0000      -0.488804       -13.3010
  53   2.0000      -0.474956       -12.9242
  54   2.0000      -0.464379       -12.6364
  55   2.0000      -0.456487       -12.4216
  56   2.0000      -0.448513       -12.2047
  57   2.0000      -0.445256       -12.1160
  58   2.0000      -0.440967       -11.9993
  59   2.0000      -0.425969       -11.5912
  60   2.0000      -0.420275       -11.4363
  61   2.0000      -0.415952       -11.3186
  62   2.0000      -0.409156       -11.1337
  63   2.0000      -0.402320       -10.9477
  64   2.0000      -0.394860       -10.7447
  65   2.0000      -0.382002       -10.3948
  66   2.0000      -0.372887       -10.1468
  67   2.0000      -0.366800        -9.9811
  68   2.0000      -0.357704        -9.7336
  69   2.0000      -0.352838        -9.6012
  70   2.0000      -0.349916        -9.5217
  71   2.0000      -0.342060        -9.3079
  72   2.0000      -0.340792        -9.2734
  73   2.0000      -0.329117        -8.9557
  74   2.0000      -0.318347        -8.6627
  75   2.0000      -0.312427        -8.5016
  76   2.0000      -0.309825        -8.4308
  77   2.0000      -0.308258        -8.3881
  78   2.0000      -0.289571        -7.8796
  79   2.0000      -0.287957        -7.8357
  80   2.0000      -0.283861        -7.7243
  81   2.0000      -0.275542        -7.4979
  82   2.0000      -0.263525        -7.1709
  83   2.0000      -0.259176        -7.0525
  84   2.0000      -0.240241        -6.5373
  85   2.0000      -0.227632        -6.1942
  86   2.0000      -0.219930        -5.9846
  87   0.0000      -0.050985        -1.3874
  88   0.0000      -0.037124        -1.0102
  89   0.0000      -0.023082        -0.6281
  90   0.0000       0.002190         0.0596
  91   0.0000       0.017088         0.4650

MULLIKEN ATOMIC CHARGES
-----------------------
   0 C :   -0.495845
   1 C :   -0.141114
   2 O :   -0.184285
   3 C :    0.416892
   4 O :   -0.492296
   5 C :   -0.434382
   6 C :   -0.042012
   7 H :    0.258530
   8 C :    0.403212
   9 O :   -0.461582
  10 O :   -0.174944
  11 C :   -0.137223
  12 C :   -0.499790
  13 S :   -0.217156
  14 P :    0.815403
  15 S :   -0.517956
  16 O :   -0.389711
  17 C :   -0.308975
  18 O :   -0.354385
  19 C :   -0.300789
  20 H :    0.170193
  21 H :    0.166877
  22 H :    0.171732
  23 H :    0.176836
  24 H :    0.174162
  25 H :    0.234538
  26 H :    0.221200
  27 H :    0.179871
  28 H :    0.177431
  29 H :    0.168313
  30 H :    0.174022
  31 H :    0.173815
  32 H :    0.171314
  33 H :    0.175729
  34 H :    0.177330
  35 H :    0.184742
  36 H :    0.182076
  37 H :    0.178228
Sum of atomic charges:    0.0000000

LOEWDIN ATOMIC CHARGES
----------------------
   0 C :   -0.391589
   1 C :    0.036194
   2 O :   -0.582909
   3 C :    0.367748
   4 O :   -0.486720
   5 C :   -0.194445
   6 C :   -0.193074
   7 H :    0.224483
   8 C :    0.358068
   9 O :   -0.493615
  10 O :   -0.572917
  11 C :    0.041894
  12 C :   -0.389667
  13 S :    0.215566
  14 P :    0.403929
  15 S :   -0.131216
  16 O :   -0.706897
  17 C :   -0.061491
  18 O :   -0.671125
  19 C :   -0.042909
  20 H :    0.162876
  21 H :    0.162579
  22 H :    0.168582
  23 H :    0.190589
  24 H :    0.190716
  25 H :    0.220053
  26 H :    0.204457
  27 H :    0.192269
  28 H :    0.191930
  29 H :    0.163410
  30 H :    0.169865
  31 H :    0.164379
  32 H :    0.174203
  33 H :    0.176016
  34 H :    0.187292
  35 H :    0.180872
  36 H :    0.191507
  37 H :    0.179095

  Mayer bond orders larger than 0.100000
B(  0-C ,  1-C ) :   0.9378 B(  0-C , 20-H ) :   0.9690 B(  0-C , 21-H ) :   0.9695
B(  0-C , 22-H ) :   0.9588 B(  1-C ,  2-O ) :   0.7869 B(  1-C , 23-H ) :   0.9524
B(  1-C , 24-H ) :   0.9630 B(  2-O ,  3-C ) :   1.1235 B(  3-C ,  4-O ) :   1.7888
B(  3-C ,  5-C ) :   0.9535 B(  5-C ,  6-C ) :   0.9093 B(  5-C , 25-H ) :   0.9072
B(  5-C , 26-H ) :   0.9568 B(  6-C ,  7-H ) :   0.9061 B(  6-C ,  8-C ) :   0.8858
B(  6-C , 13-S ) :   0.8717 B(  8-C ,  9-O ) :   1.7904 B(  8-C , 10-O ) :   1.1797
B( 10-O , 11-C ) :   0.7798 B( 11-C , 12-C ) :   0.9344 B( 11-C , 27-H ) :   0.9511
B( 11-C , 28-H ) :   0.9639 B( 12-C , 29-H ) :   0.9680 B( 12-C , 30-H ) :   0.9577
B( 12-C , 31-H ) :   0.9692 B( 13-S , 14-P ) :   1.0001 B( 14-P , 15-S ) :   1.7759
B( 14-P , 16-O ) :   1.0081 B( 14-P , 18-O ) :   1.1815 B( 16-O , 17-C ) :   0.8310
B( 17-C , 32-H ) :   0.9493 B( 17-C , 33-H ) :   0.9553 B( 17-C , 34-H ) :   0.9585
B( 18-O , 19-C ) :   0.7893 B( 19-C , 35-H ) :   0.9536 B( 19-C , 36-H ) :   0.9545
B( 19-C , 37-H ) :   0.9488

Dispersion correction           -0.016413824
FINAL SINGLE POINT ENERGY     -1981.463683320031

DIPOLE MOMENT
-------------

Method             : SCF
Type of density    : Electron Density
Multiplicity       :   1
Irrep              :   0
Energy             : -1981.4848230248012442 Eh
Relativity type    :
Basis              : AO
                                X                 Y                 Z
Electronic contribution:    -15.411782225       2.981327093      -1.245057134
Nuclear contribution   :     18.079614850      -3.915914229       2.810507419
                        -----------------------------------------
Total Dipole Moment    :      2.667832626      -0.934587136       1.565450285
                        -----------------------------------------
Magnitude (a.u.)       :      3.231318404
Magnitude (Debye)      :      8.213358656

Rotational constants in cm-1:             0.011057             0.006722             0.004928
Rotational constants in MHz :           331.469920           201.512537           147.734898

                             ****ORCA TERMINATED NORMALLY****
TOTAL RUN TIME: 0 days 0 hours 1 minutes 52 seconds 78 msec
