                         Program Version 6.0.0  -   RELEASE  -
|  1> ! pbe def2-sv(p) def2/J RI DEFGRID1 loosescf d4 GCP(DFT/SV(P)) printgap
|  2> %output
|  3>     printlevel normal
|  4> end
|  5> * xyz 0 1
|  6> C 4.2364730502 0.0493315956 -2.1819395594
|  7> C 4.4082672679 -0.3458590547 -0.7287113488
|  8> O 3.1504521219 -0.6257432633 -0.0933157432
|  9> P 2.1126111441 0.5329744852 0.2683202385
| 10> S 2.9123586116 2.2259574877 0.8395796914
| 11> O 1.1795216106 -0.186990239 1.3255057291
| 12> C 1.443823249 -0.1444210834 2.7405510008
| 13> C 2.6567896375 -0.9712025963 3.1111174095
| 14> S 0.7860601108 0.630678256 -1.3731920724
| 15> C 0.4144706572 -1.1290056202 -1.6073938359
| 16> S -0.6336181747 -1.862063733 -0.311367034
| 17> P -2.1408478487 -0.4051480646 -0.2746159218
| 18> S -2.7143078375 0.3696665661 -1.9872411418
| 19> O -1.6012945247 0.5880420865 0.8368083938
| 20> C -2.1975511108 1.8865058769 1.0573539766
| 21> C -1.3541638397 2.9757012522 0.424667124
| 22> O -3.3170837727 -1.1232484863 0.521939006
| 23> C -4.2311254518 -2.0339625807 -0.1231607375
| 24> C -5.4764722348 -2.1340584709 0.7342846285
| 25> H 3.7065622674 -0.7240035142 -2.7319681139
| 26> H 3.6720697101 0.9791323681 -2.2497140587
| 27> H 5.2137443185 0.1992463915 -2.62958501
| 28> H 4.9057691066 0.455422676 -0.172913924
| 29> H 4.9704413502 -1.2750402872 -0.6255624393
| 30> H 1.5810727128 0.9010748117 3.0357798874
| 31> H 0.5294295448 -0.5394001905 3.1861575607
| 32> H 2.751397578 -1.0050337256 4.1919887998
| 33> H 2.5535296869 -1.9813932704 2.7236065807
| 34> H 3.5545051287 -0.5198516104 2.6911300768
| 35> H 1.3331071487 -1.710384293 -1.6178860795
| 36> H -0.10533218 -1.1832198487 -2.5627014426
| 37> H -3.2108580879 1.8922139071 0.646220217
| 38> H -2.2402102092 1.9933630097 2.1425227911
| 39> H -1.7693306836 3.9454413221 0.6793978378
| 40> H -0.3291999952 2.9209683234 0.787124235
| 41> H -1.3434587759 2.8654470184 -0.6580956818
| 42> H -4.4597516351 -1.6473158232 -1.1221122053
| 43> H -3.7329422183 -3.0021410175 -0.218069358
| 44> H -5.2129526039 -2.4759358055 1.7309981773
| 45> H -5.9588897904 -1.1637058877 0.8109218267
| 46> H -6.1637571413 -2.8405102322 0.280678843
| 47> *
| 48>
| 49>                          ****END OF INPUT****

CARTESIAN COORDINATES (ANGSTROEM)
---------------------------------
  C      4.236473    0.049332   -2.181940
  C      4.408267   -0.345859   -0.728711
  O      3.150452   -0.625743   -0.093316
  P      2.112611    0.532974    0.268320
  S      2.912359    2.225957    0.839580
  O      1.179522   -0.186990    1.325506
  C      1.443823   -0.144421    2.740551
  C      2.656790   -0.971203    3.111117
  S      0.786060    0.630678   -1.373192
  C      0.414471   -1.129006   -1.607394
  S     -0.633618   -1.862064   -0.311367
  P     -2.140848   -0.405148   -0.274616
  S     -2.714308    0.369667   -1.987241
  O     -1.601295    0.588042    0.836808
  C     -2.197551    1.886506    1.057354
  C     -1.354164    2.975701    0.424667
  O     -3.317084   -1.123248    0.521939
  C     -4.231125   -2.033963   -0.123161
  C     -5.476472   -2.134058    0.734285
  H      3.706562   -0.724004   -2.731968
  H      3.672070    0.979132   -2.249714
  H      5.213744    0.199246   -2.629585
  H      4.905769    0.455423   -0.172914
  H      4.970441   -1.275040   -0.625562
  H      1.581073    0.901075    3.035780
  H      0.529430   -0.539400    3.186158
  H      2.751398   -1.005034    4.191989
  H      2.553530   -1.981393    2.723607
  H      3.554505   -0.519852    2.691130
  H      1.333107   -1.710384   -1.617886
  H     -0.105332   -1.183220   -2.562701
  H     -3.210858    1.892214    0.646220
  H     -2.240210    1.993363    2.142523
  H     -1.769331    3.945441    0.679398
  H     -0.329200    2.920968    0.787124
  H     -1.343459    2.865447   -0.658096
  H     -4.459752   -1.647316   -1.122112
  H     -3.732942   -3.002141   -0.218069
  H     -5.212953   -2.475936    1.730998
  H     -5.958890   -1.163706    0.810922
  H     -6.163757   -2.840510    0.280679

 Total Charge           Charge          ....    0
 Multiplicity           Mult            ....    1
 Number of Electrons    NEL             ....  202
 Basis Dimension        Dim             ....  334

ORBITAL ENERGIES
----------------

  NO   OCC          E(Eh)            E(eV)
   0   2.0000     -88.044028     -2395.7998
   1   2.0000     -88.040588     -2395.7062
   2   2.0000     -87.991346     -2394.3662
   3   2.0000     -87.984282     -2394.1740
   4   2.0000     -76.426603     -2079.6736
   5   2.0000     -76.424159     -2079.6071
   6   2.0000     -18.796735      -511.4852
   7   2.0000     -18.790836      -511.3246
   8   2.0000     -18.786287      -511.2009
   9   2.0000     -18.783752      -511.1319
  10   2.0000      -9.960697      -271.0443
  11   2.0000      -9.955316      -270.8979
  12   2.0000      -9.950328      -270.7622
  13   2.0000      -9.949582      -270.7419
  14   2.0000      -9.946823      -270.6668
  15   2.0000      -9.887581      -269.0548
  16   2.0000      -9.887463      -269.0516
  17   2.0000      -9.883703      -268.9492
  18   2.0000      -9.869988      -268.5760
  19   2.0000      -7.688593      -209.2172
  20   2.0000      -7.686237      -209.1532
  21   2.0000      -7.636373      -207.7963
  22   2.0000      -7.629297      -207.6037
  23   2.0000      -6.424369      -174.8160
  24   2.0000      -6.421565      -174.7397
  25   2.0000      -5.716929      -155.5655
  26   2.0000      -5.714237      -155.4923
  27   2.0000      -5.712877      -155.4553
  28   2.0000      -5.710830      -155.3996
  29   2.0000      -5.705331      -155.2499
  30   2.0000      -5.702851      -155.1825
  31   2.0000      -5.665201      -154.1579
  32   2.0000      -5.658120      -153.9653
  33   2.0000      -5.656967      -153.9339
  34   2.0000      -5.656668      -153.9258
  35   2.0000      -5.650052      -153.7457
  36   2.0000      -5.649455      -153.7295
  37   2.0000      -4.646678      -126.4425
  38   2.0000      -4.646357      -126.4338
  39   2.0000      -4.644857      -126.3930
  40   2.0000      -4.644029      -126.3705
  41   2.0000      -4.643358      -126.3522
  42   2.0000      -4.642138      -126.3190
  43   2.0000      -0.987377       -26.8679
  44   2.0000      -0.982204       -26.7271
  45   2.0000      -0.946361       -25.7518
  46   2.0000      -0.939727       -25.5713
  47   2.0000      -0.765303       -20.8250
  48   2.0000      -0.721461       -19.6320
  49   2.0000      -0.707588       -19.2545
  50   2.0000      -0.688465       -18.7341
  51   2.0000      -0.682862       -18.5816
  52   2.0000      -0.672617       -18.3028
  53   2.0000      -0.653013       -17.7694
  54   2.0000      -0.637900       -17.3581
  55   2.0000      -0.600777       -16.3480
  56   2.0000      -0.588902       -16.0248
  57   2.0000      -0.573937       -15.6176
  58   2.0000      -0.568583       -15.4719
  59   2.0000      -0.557854       -15.1800
  60   2.0000      -0.505454       -13.7541
  61   2.0000      -0.494818       -13.4647
  62   2.0000      -0.475184       -12.9304
  63   2.0000      -0.471173       -12.8213
  64   2.0000      -0.459813       -12.5121
  65   2.0000      -0.443035       -12.0556
  66   2.0000      -0.441003       -12.0003
  67   2.0000      -0.432953       -11.7813
  68   2.0000      -0.426638       -11.6094
  69   2.0000      -0.416395       -11.3307
  70   2.0000      -0.408883       -11.1263
  71   2.0000      -0.396695       -10.7946
  72   2.0000      -0.392053       -10.6683
  73   2.0000      -0.383381       -10.4323
  74   2.0000      -0.377123       -10.2620
  75   2.0000      -0.374356       -10.1868
  76   2.0000      -0.370251       -10.0750
  77   2.0000      -0.356949        -9.7131
  78   2.0000      -0.352280        -9.5860
  79   2.0000      -0.351307        -9.5596
  80   2.0000      -0.349407        -9.5079
  81   2.0000      -0.341673        -9.2974
  82   2.0000      -0.341255        -9.2860
  83   2.0000      -0.334539        -9.1033
  84   2.0000      -0.330177        -8.9846
  85   2.0000      -0.322685        -8.7807
  86   2.0000      -0.306514        -8.3407
  87   2.0000      -0.298635        -8.1263
  88   2.0000      -0.294464        -8.0128
  89   2.0000      -0.290932        -7.9166
  90   2.0000      -0.282572        -7.6892
  91   2.0000      -0.274605        -7.4724
  92   2.0000      -0.265899        -7.2355
  93   2.0000      -0.263539        -7.1713
  94   2.0000      -0.260411        -7.0861
  95   2.0000      -0.229020        -6.2320
  96   2.0000      -0.218791        -5.9536
  97   2.0000      -0.211961        -5.7678
  98   2.0000      -0.208839        -5.6828
  99   2.0000      -0.199476        -5.4280
 100   2.0000      -0.197363        -5.3705
 101   0.0000      -0.044229        -1.2035
 102   0.0000      -0.023344        -0.6352
 103   0.0000      -0.007388        -0.2010
 104   0.0000       0.003358         0.0914
 105   0.0000       0.008199         0.2231

MULLIKEN ATOMIC CHARGES
-----------------------
   0 C :   -0.313777
   1 C :   -0.009092
   2 O :   -0.382195
   3 P :    0.617533
   4 S :   -0.321705
   5 O :   -0.356276
   6 C :   -0.001028
   7 C :   -0.306662
   8 S :   -0.057932
   9 C :   -0.349831
  10 S :   -0.081915
  11 P :    0.613009
  12 S :   -0.340581
  13 O :   -0.358490
  14 C :   -0.001504
  15 C :   -0.299529
  16 O :   -0.379077
  17 C :   -0.010039
  18 C :   -0.280522
  19 H :    0.114032
  20 H :    0.131170
  21 H :    0.114509
  22 H :    0.112607
  23 H :    0.105199
  24 H :    0.109571
  25 H :    0.106021
  26 H :    0.111049
  27 H :    0.117031
  28 H :    0.119355
  29 H :    0.181799
  30 H :    0.193715
  31 H :    0.099427
  32 H :    0.102820
  33 H :    0.103217
  34 H :    0.119072
  35 H :    0.129215
  36 H :    0.105674
  37 H :    0.099086
  38 H :    0.115737
  39 H :    0.117777
  40 H :    0.111530
Sum of atomic charges:    0.0000000

LOEWDIN ATOMIC CHARGES
----------------------
   0 C :   -0.366658
   1 C :   -0.122269
   2 O :   -0.249377
   3 P :    0.567625
   4 S :   -0.317796
   5 O :   -0.233942
   6 C :   -0.115657
   7 C :   -0.364117
   8 S :    0.119162
   9 C :   -0.474222
  10 S :    0.088286
  11 P :    0.565910
  12 S :   -0.333523
  13 O :   -0.238346
  14 C :   -0.111137
  15 C :   -0.365142
  16 O :   -0.253321
  17 C :   -0.121852
  18 C :   -0.350643
  19 H :    0.122448
  20 H :    0.123524
  21 H :    0.132007
  22 H :    0.110128
  23 H :    0.118078
  24 H :    0.109670
  25 H :    0.119339
  26 H :    0.129748
  27 H :    0.126547
  28 H :    0.121573
  29 H :    0.130714
  30 H :    0.137203
  31 H :    0.107347
  32 H :    0.116714
  33 H :    0.126403
  34 H :    0.120240
  35 H :    0.124657
  36 H :    0.106980
  37 H :    0.109091
  38 H :    0.126372
  39 H :    0.127633
  40 H :    0.130604

  Mayer bond orders larger than 0.100000
B(  0-C ,  1-C ) :   1.1634 B(  0-C , 19-H ) :   0.9464 B(  0-C , 20-H ) :   0.9349
B(  0-C , 21-H ) :   0.9385 B(  1-C ,  2-O ) :   0.9096 B(  1-C , 22-H ) :   0.9135
B(  1-C , 23-H ) :   0.9340 B(  2-O ,  3-P ) :   1.0645 B(  3-P ,  4-S ) :   1.6154
B(  3-P ,  5-O ) :   1.1321 B(  3-P ,  8-S ) :   0.9659 B(  5-O ,  6-C ) :   0.9074
B(  6-C ,  7-C ) :   1.1624 B(  6-C , 24-H ) :   0.9181 B(  6-C , 25-H ) :   0.9326
B(  7-C , 26-H ) :   0.9392 B(  7-C , 27-H ) :   0.9466 B(  7-C , 28-H ) :   0.9390
B(  8-S ,  9-C ) :   1.0004 B(  9-C , 10-S ) :   0.9922 B(  9-C , 29-H ) :   0.8960
B(  9-C , 30-H ) :   0.8962 B( 10-S , 11-P ) :   0.9837 B( 10-S , 12-S ) :   0.1133
B( 11-P , 12-S ) :   1.5942 B( 11-P , 13-O ) :   1.1379 B( 11-P , 16-O ) :   1.1049
B( 13-O , 14-C ) :   0.8924 B( 14-C , 15-C ) :   1.1715 B( 14-C , 31-H ) :   0.9137
B( 14-C , 32-H ) :   0.9338 B( 15-C , 33-H ) :   0.9392 B( 15-C , 34-H ) :   0.9347
B( 15-C , 35-H ) :   0.9374 B( 16-O , 17-C ) :   0.9070 B( 17-C , 18-C ) :   1.1605
B( 17-C , 36-H ) :   0.9067 B( 17-C , 37-H ) :   0.9299 B( 18-C , 38-H ) :   0.9508
B( 18-C , 39-H ) :   0.9513 B( 18-C , 40-H ) :   0.9422

Dispersion correction           -0.066360212
FINAL SINGLE POINT ENERGY     -2929.522847894263

DIPOLE MOMENT
-------------

Method             : SCF
Type of density    : Electron Density
Multiplicity       :   1
Irrep              :   0
Energy             : -2929.6411378102866365 Eh
Relativity type    :
Basis              : AO
                                X                 Y                 Z
Electronic contribution:     -0.078480915       2.630211892      -7.382189381
Nuclear contribution   :      0.236170192      -3.847197292       7.929619064
                        -----------------------------------------
Total Dipole Moment    :      0.157689277      -1.216985400       0.547429683
                        -----------------------------------------
Magnitude (a.u.)       :      1.343725652
Magnitude (Debye)      :      3.415479176

Rotational constants in cm-1:             0.013102             0.004917             0.004833
Rotational constants in MHz :           392.790048           147.404405           144.894789

                             ****ORCA TERMINATED NORMALLY****
TOTAL RUN TIME: 0 days 0 hours 0 minutes 21 seconds 322 msec
