                         Program Version 6.0.0  -   RELEASE  -
|  1> ! pbe def2-sv(p) def2/J RI DEFGRID1 loosescf d4 GCP(DFT/SV(P)) printgap
|  2> %output
|  3>     printlevel normal
|  4> end
|  5> * xyz 0 1
|  6> C 5.5273198325 -0.8089679567 -1.2656886098
|  7> C 4.2029464717 -1.5409696552 -1.3345458724
|  8> O 3.1435148377 -0.6574655702 -1.7804802675
|  9> P 2.1755181033 0.1206947514 -0.8091193211
| 10> S 0.9169077085 1.1795954018 -1.8697721797
| 11> O 3.1919565791 0.9086485664 0.1173565034
| 12> C 2.8256696931 1.8493398806 1.1444779835
| 13> C 2.8249769062 1.1871787943 2.5075708081
| 14> S 1.342817291 -1.3932601754 0.437062527
| 15> C -0.0988208603 -1.8022885589 -0.5995223483
| 16> S -1.6536737401 -1.8329486924 0.3212882494
| 17> P -2.031283111 0.264806768 0.4480843169
| 18> S -0.7033017257 1.2979863436 1.4474583578
| 19> O -3.4929712113 0.3001339629 1.0630468363
| 20> C -3.7236676321 -0.018554251 2.4519451552
| 21> C -5.0918468321 0.511056847 2.8295187178
| 22> O -2.2414836955 0.8143007534 -1.0095906123
| 23> C -3.4421839783 0.6890006742 -1.8121505991
| 24> C -3.7405602062 -0.7431379446 -2.2025966528
| 25> H 6.3082206588 -1.5143638945 -0.999212604
| 26> H 5.7573205234 -0.365317643 -2.2305218757
| 27> H 5.4855075817 -0.0200421464 -0.5198917505
| 28> H 3.9280542215 -1.9594584933 -0.3620896246
| 29> H 4.2261378277 -2.3322251847 -2.0859782603
| 30> H 3.5855676304 2.6306546691 1.0821079088
| 31> H 1.845440856 2.2774396975 0.9160095886
| 32> H 2.6525965751 1.9450734781 3.264570769
| 33> H 2.0278572264 0.4499950729 2.5703918829
| 34> H 3.7789361187 0.7007695037 2.6894626974
| 35> H 0.0316845045 -2.8066623833 -0.9929652057
| 36> H -0.162255826 -1.0584318979 -1.3986508136
| 37> H -3.6685847501 -1.1045104276 2.5626797958
| 38> H -2.9325501023 0.4441844265 3.0510957835
| 39> H -5.853489088 0.0563847618 2.2029034912
| 40> H -5.2902458708 0.2700238091 3.8685544536
| 41> H -5.1243389101 1.58929605 2.6997822963
| 42> H -4.2711500566 1.1249040986 -1.2524787282
| 43> H -3.2140158482 1.3045863018 -2.6840621513
| 44> H -4.5850038601 -0.7493517696 -2.8848978919
| 45> H -2.8813297102 -1.1876514032 -2.6991505022
| 46> H -3.9895095529 -1.33529387 -1.3249242954
| 47> *
| 48>
| 49>                          ****END OF INPUT****

CARTESIAN COORDINATES (ANGSTROEM)
---------------------------------
  C      5.527320   -0.808968   -1.265689
  C      4.202946   -1.540970   -1.334546
  O      3.143515   -0.657466   -1.780480
  P      2.175518    0.120695   -0.809119
  S      0.916908    1.179595   -1.869772
  O      3.191957    0.908649    0.117357
  C      2.825670    1.849340    1.144478
  C      2.824977    1.187179    2.507571
  S      1.342817   -1.393260    0.437063
  C     -0.098821   -1.802289   -0.599522
  S     -1.653674   -1.832949    0.321288
  P     -2.031283    0.264807    0.448084
  S     -0.703302    1.297986    1.447458
  O     -3.492971    0.300134    1.063047
  C     -3.723668   -0.018554    2.451945
  C     -5.091847    0.511057    2.829519
  O     -2.241484    0.814301   -1.009591
  C     -3.442184    0.689001   -1.812151
  C     -3.740560   -0.743138   -2.202597
  H      6.308221   -1.514364   -0.999213
  H      5.757321   -0.365318   -2.230522
  H      5.485508   -0.020042   -0.519892
  H      3.928054   -1.959458   -0.362090
  H      4.226138   -2.332225   -2.085978
  H      3.585568    2.630655    1.082108
  H      1.845441    2.277440    0.916010
  H      2.652597    1.945073    3.264571
  H      2.027857    0.449995    2.570392
  H      3.778936    0.700770    2.689463
  H      0.031685   -2.806662   -0.992965
  H     -0.162256   -1.058432   -1.398651
  H     -3.668585   -1.104510    2.562680
  H     -2.932550    0.444184    3.051096
  H     -5.853489    0.056385    2.202903
  H     -5.290246    0.270024    3.868554
  H     -5.124339    1.589296    2.699782
  H     -4.271150    1.124904   -1.252479
  H     -3.214016    1.304586   -2.684062
  H     -4.585004   -0.749352   -2.884898
  H     -2.881330   -1.187651   -2.699151
  H     -3.989510   -1.335294   -1.324924

 Total Charge           Charge          ....    0
 Multiplicity           Mult            ....    1
 Number of Electrons    NEL             ....  202
 Basis Dimension        Dim             ....  334

ORBITAL ENERGIES
----------------

  NO   OCC          E(Eh)            E(eV)
   0   2.0000     -88.039852     -2395.6862
   1   2.0000     -88.034577     -2395.5426
   2   2.0000     -87.975436     -2393.9333
   3   2.0000     -87.972691     -2393.8586
   4   2.0000     -76.423255     -2079.5825
   5   2.0000     -76.416957     -2079.4111
   6   2.0000     -18.795314      -511.4465
   7   2.0000     -18.788646      -511.2650
   8   2.0000     -18.788607      -511.2640
   9   2.0000     -18.780539      -511.0444
  10   2.0000      -9.955763      -270.9101
  11   2.0000      -9.955172      -270.8940
  12   2.0000      -9.952694      -270.8266
  13   2.0000      -9.949706      -270.7453
  14   2.0000      -9.944661      -270.6080
  15   2.0000      -9.891163      -269.1522
  16   2.0000      -9.886816      -269.0340
  17   2.0000      -9.881384      -268.8861
  18   2.0000      -9.875984      -268.7392
  19   2.0000      -7.684935      -209.1177
  20   2.0000      -7.679394      -208.9669
  21   2.0000      -7.620554      -207.3658
  22   2.0000      -7.618011      -207.2966
  23   2.0000      -6.420572      -174.7126
  24   2.0000      -6.414580      -174.5496
  25   2.0000      -5.712591      -155.4475
  26   2.0000      -5.709569      -155.3653
  27   2.0000      -5.707199      -155.3008
  28   2.0000      -5.703967      -155.2128
  29   2.0000      -5.702010      -155.1596
  30   2.0000      -5.696405      -155.0071
  31   2.0000      -5.649462      -153.7297
  32   2.0000      -5.647130      -153.6662
  33   2.0000      -5.641349      -153.5089
  34   2.0000      -5.640481      -153.4853
  35   2.0000      -5.638757      -153.4384
  36   2.0000      -5.637781      -153.4118
  37   2.0000      -4.643787      -126.3639
  38   2.0000      -4.642342      -126.3246
  39   2.0000      -4.640449      -126.2730
  40   2.0000      -4.637432      -126.1909
  41   2.0000      -4.636382      -126.1624
  42   2.0000      -4.634713      -126.1170
  43   2.0000      -0.988672       -26.9031
  44   2.0000      -0.980807       -26.6891
  45   2.0000      -0.944862       -25.7110
  46   2.0000      -0.937449       -25.5093
  47   2.0000      -0.757440       -20.6110
  48   2.0000      -0.718894       -19.5621
  49   2.0000      -0.708888       -19.2898
  50   2.0000      -0.693991       -18.8845
  51   2.0000      -0.684157       -18.6168
  52   2.0000      -0.671635       -18.2761
  53   2.0000      -0.644713       -17.5435
  54   2.0000      -0.627350       -17.0710
  55   2.0000      -0.589760       -16.0482
  56   2.0000      -0.585333       -15.9277
  57   2.0000      -0.574670       -15.6376
  58   2.0000      -0.567958       -15.4549
  59   2.0000      -0.558420       -15.1954
  60   2.0000      -0.507181       -13.8011
  61   2.0000      -0.495413       -13.4809
  62   2.0000      -0.474850       -12.9213
  63   2.0000      -0.473063       -12.8727
  64   2.0000      -0.451723       -12.2920
  65   2.0000      -0.444964       -12.1081
  66   2.0000      -0.442959       -12.0535
  67   2.0000      -0.435322       -11.8457
  68   2.0000      -0.429713       -11.6931
  69   2.0000      -0.414248       -11.2723
  70   2.0000      -0.405389       -11.0312
  71   2.0000      -0.398549       -10.8451
  72   2.0000      -0.386636       -10.5209
  73   2.0000      -0.380238       -10.3468
  74   2.0000      -0.377526       -10.2730
  75   2.0000      -0.369944       -10.0667
  76   2.0000      -0.360335        -9.8052
  77   2.0000      -0.354968        -9.6592
  78   2.0000      -0.352448        -9.5906
  79   2.0000      -0.349285        -9.5045
  80   2.0000      -0.346606        -9.4316
  81   2.0000      -0.341641        -9.2965
  82   2.0000      -0.341197        -9.2844
  83   2.0000      -0.335541        -9.1305
  84   2.0000      -0.327105        -8.9010
  85   2.0000      -0.321310        -8.7433
  86   2.0000      -0.310953        -8.4615
  87   2.0000      -0.304193        -8.2775
  88   2.0000      -0.292533        -7.9602
  89   2.0000      -0.286377        -7.7927
  90   2.0000      -0.282719        -7.6932
  91   2.0000      -0.272829        -7.4241
  92   2.0000      -0.267380        -7.2758
  93   2.0000      -0.259116        -7.0509
  94   2.0000      -0.253916        -6.9094
  95   2.0000      -0.236984        -6.4487
  96   2.0000      -0.220225        -5.9926
  97   2.0000      -0.198991        -5.4148
  98   2.0000      -0.193598        -5.2681
  99   2.0000      -0.183507        -4.9935
 100   2.0000      -0.177388        -4.8270
 101   0.0000      -0.037550        -1.0218
 102   0.0000      -0.026759        -0.7281
 103   0.0000      -0.011785        -0.3207
 104   0.0000       0.005352         0.1456
 105   0.0000       0.026352         0.7171

MULLIKEN ATOMIC CHARGES
-----------------------
   0 C :   -0.288978
   1 C :   -0.011602
   2 O :   -0.357435
   3 P :    0.598041
   4 S :   -0.295155
   5 O :   -0.381855
   6 C :   -0.012021
   7 C :   -0.310056
   8 S :   -0.097471
   9 C :   -0.350080
  10 S :   -0.120396
  11 P :    0.624231
  12 S :   -0.314718
  13 O :   -0.389033
  14 C :   -0.013649
  15 C :   -0.281733
  16 O :   -0.351108
  17 C :    0.006155
  18 C :   -0.318167
  19 H :    0.106149
  20 H :    0.118628
  21 H :    0.122043
  22 H :    0.097778
  23 H :    0.104607
  24 H :    0.103386
  25 H :    0.131051
  26 H :    0.110352
  27 H :    0.142548
  28 H :    0.105912
  29 H :    0.180409
  30 H :    0.192851
  31 H :    0.105949
  32 H :    0.108308
  33 H :    0.114371
  34 H :    0.113873
  35 H :    0.122795
  36 H :    0.109462
  37 H :    0.114605
  38 H :    0.112518
  39 H :    0.124189
  40 H :    0.123244
Sum of atomic charges:    0.0000000

LOEWDIN ATOMIC CHARGES
----------------------
   0 C :   -0.360221
   1 C :   -0.117576
   2 O :   -0.242143
   3 P :    0.565599
   4 S :   -0.298558
   5 O :   -0.240711
   6 C :   -0.115483
   7 C :   -0.365883
   8 S :    0.068034
   9 C :   -0.482678
  10 S :    0.062422
  11 P :    0.571161
  12 S :   -0.306902
  13 O :   -0.250922
  14 C :   -0.120131
  15 C :   -0.350735
  16 O :   -0.226693
  17 C :   -0.106028
  18 C :   -0.368413
  19 H :    0.127586
  20 H :    0.128288
  21 H :    0.125613
  22 H :    0.100421
  23 H :    0.118707
  24 H :    0.117643
  25 H :    0.112288
  26 H :    0.131322
  27 H :    0.122819
  28 H :    0.120907
  29 H :    0.135209
  30 H :    0.121020
  31 H :    0.110162
  32 H :    0.110389
  33 H :    0.125547
  34 H :    0.132074
  35 H :    0.130029
  36 H :    0.114595
  37 H :    0.124816
  38 H :    0.130823
  39 H :    0.127720
  40 H :    0.117884

  Mayer bond orders larger than 0.100000
B(  0-C ,  1-C ) :   1.1628 B(  0-C , 19-H ) :   0.9399 B(  0-C , 20-H ) :   0.9472
B(  0-C , 21-H ) :   0.9415 B(  1-C ,  2-O ) :   0.9028 B(  1-C , 22-H ) :   0.9096
B(  1-C , 23-H ) :   0.9372 B(  2-O ,  3-P ) :   1.1238 B(  3-P ,  4-S ) :   1.6519
B(  3-P ,  5-O ) :   1.1005 B(  3-P ,  8-S ) :   0.9472 B(  4-S ,  8-S ) :   0.1152
B(  4-S , 30-H ) :   0.1124 B(  5-O ,  6-C ) :   0.8912 B(  6-C ,  7-C ) :   1.1719
B(  6-C , 24-H ) :   0.9344 B(  6-C , 25-H ) :   0.9034 B(  7-C , 26-H ) :   0.9402
B(  7-C , 27-H ) :   0.9301 B(  7-C , 28-H ) :   0.9479 B(  8-S ,  9-C ) :   0.9883
B(  9-C , 10-S ) :   1.0045 B(  9-C , 29-H ) :   0.9120 B(  9-C , 30-H ) :   0.8476
B( 10-S , 11-P ) :   0.9415 B( 10-S , 12-S ) :   0.1142 B( 11-P , 12-S ) :   1.6732
B( 11-P , 13-O ) :   1.0708 B( 11-P , 16-O ) :   1.1410 B( 13-O , 14-C ) :   0.9019
B( 14-C , 15-C ) :   1.1606 B( 14-C , 31-H ) :   0.9298 B( 14-C , 32-H ) :   0.9065
B( 15-C , 33-H ) :   0.9512 B( 15-C , 34-H ) :   0.9414 B( 15-C , 35-H ) :   0.9506
B( 16-O , 17-C ) :   0.8961 B( 17-C , 18-C ) :   1.1701 B( 17-C , 36-H ) :   0.9275
B( 17-C , 37-H ) :   0.9336 B( 18-C , 38-H ) :   0.9359 B( 18-C , 39-H ) :   0.9451
B( 18-C , 40-H ) :   0.9380

Dispersion correction           -0.065239285
FINAL SINGLE POINT ENERGY     -2929.510101345019

DIPOLE MOMENT
-------------

Method             : SCF
Type of density    : Electron Density
Multiplicity       :   1
Irrep              :   0
Energy             : -2929.6292835779509005 Eh
Relativity type    :
Basis              : AO
                                X                 Y                 Z
Electronic contribution:      1.766377018       0.890638347      -5.019897605
Nuclear contribution   :     -2.317311895      -1.841151045       5.423385560
                        -----------------------------------------
Total Dipole Moment    :     -0.550934876      -0.950512698       0.403487955
                        -----------------------------------------
Magnitude (a.u.)       :      1.170387183
Magnitude (Debye)      :      2.974887800

Rotational constants in cm-1:             0.013756             0.004787             0.004381
Rotational constants in MHz :           412.392831           143.495721           131.339171

                             ****ORCA TERMINATED NORMALLY****
TOTAL RUN TIME: 0 days 0 hours 0 minutes 20 seconds 804 msec
