                         Program Version 6.0.0  -   RELEASE  -
|  1> ! pbe def2-sv(p) def2/J RI DEFGRID1 loosescf d4 GCP(DFT/SV(P)) printgap
|  2> %output
|  3>     printlevel normal
|  4> end
|  5> * xyz 0 1
|  6> C 4.2342402517 -1.3552212025 -2.462098398
|  7> C 4.8929248627 -1.1009719881 -1.1214065811
|  8> O 3.9529187353 -1.1407195221 -0.033992993
|  9> P 2.8074214501 -0.0561113747 0.1482117279
| 10> S 3.33664214 1.7838454404 -0.2637044662
| 11> O 2.4187326602 -0.1992663311 1.6673899376
| 12> C 1.6672166706 -1.2711867745 2.2873649087
| 13> C 2.2148046601 -2.643866778 1.9636531624
| 14> S 1.1618739801 -0.8123399344 -0.9791566736
| 15> C 0.2067115501 0.7178288246 -0.9885570005
| 16> S -0.6463678768 1.0335593723 0.5855712007
| 17> P -2.6515353307 0.6376770539 0.0099887113
| 18> S -2.9594928382 0.4664359943 -1.9243339129
| 19> O -3.2903594131 1.8638619446 0.7787969266
| 20> C -4.6614437748 1.9123420372 1.2313482244
| 21> C -5.6489689649 1.8152600331 0.0868210307
| 22> O -3.193465823 -0.5905591435 0.8657872755
| 23> C -3.192348983 -1.9419786866 0.374233757
| 24> C -1.8300992111 -2.5883418109 0.5165510451
| 25> H 3.5825045902 -0.5225308533 -2.7221037591
| 26> H 5.0004475526 -1.4501670178 -3.2248085
| 27> H 3.6431148767 -2.266747272 -2.4281092572
| 28> H 5.3882903409 -0.1248556767 -1.1156497297
| 29> H 5.6110928865 -1.8830740303 -0.8711964839
| 30> H 1.7461292066 -1.0427361234 3.3512971737
| 31> H 0.6258546651 -1.1743604924 1.9695479486
| 32> H 3.2691876222 -2.6975186768 2.2212331033
| 33> H 1.6669518192 -3.3870695011 2.5348053648
| 34> H 2.1000747443 -2.8558691682 0.9025497034
| 35> H -0.537624763 0.6382455545 -1.7851955994
| 36> H 0.8891459482 1.5505734737 -1.1647899325
| 37> H -4.8148471589 1.1056888673 1.9512994613
| 38> H -4.7268408291 2.877990653 1.7354467491
| 39> H -6.6579163562 1.9350145217 0.4687732845
| 40> H -5.4495668274 2.5890519592 -0.65105211
| 41> H -5.5658658003 0.8449017157 -0.4011253159
| 42> H -3.9417577155 -2.4474015512 0.9851701203
| 43> H -3.5102521922 -1.9323861803 -0.6737075163
| 44> H -1.8971883897 -3.632364248 0.2288457919
| 45> H -1.1086879056 -2.0949412012 -0.1337334079
| 46> H -1.4888070182 -2.5214095049 1.5463623234
| 47> *
| 48>
| 49>                          ****END OF INPUT****

CARTESIAN COORDINATES (ANGSTROEM)
---------------------------------
  C      4.234240   -1.355221   -2.462098
  C      4.892925   -1.100972   -1.121407
  O      3.952919   -1.140720   -0.033993
  P      2.807421   -0.056111    0.148212
  S      3.336642    1.783845   -0.263704
  O      2.418733   -0.199266    1.667390
  C      1.667217   -1.271187    2.287365
  C      2.214805   -2.643867    1.963653
  S      1.161874   -0.812340   -0.979157
  C      0.206712    0.717829   -0.988557
  S     -0.646368    1.033559    0.585571
  P     -2.651535    0.637677    0.009989
  S     -2.959493    0.466436   -1.924334
  O     -3.290359    1.863862    0.778797
  C     -4.661444    1.912342    1.231348
  C     -5.648969    1.815260    0.086821
  O     -3.193466   -0.590559    0.865787
  C     -3.192349   -1.941979    0.374234
  C     -1.830099   -2.588342    0.516551
  H      3.582505   -0.522531   -2.722104
  H      5.000448   -1.450167   -3.224808
  H      3.643115   -2.266747   -2.428109
  H      5.388290   -0.124856   -1.115650
  H      5.611093   -1.883074   -0.871196
  H      1.746129   -1.042736    3.351297
  H      0.625855   -1.174360    1.969548
  H      3.269188   -2.697519    2.221233
  H      1.666952   -3.387070    2.534805
  H      2.100075   -2.855869    0.902550
  H     -0.537625    0.638246   -1.785196
  H      0.889146    1.550573   -1.164790
  H     -4.814847    1.105689    1.951299
  H     -4.726841    2.877991    1.735447
  H     -6.657916    1.935015    0.468773
  H     -5.449567    2.589052   -0.651052
  H     -5.565866    0.844902   -0.401125
  H     -3.941758   -2.447402    0.985170
  H     -3.510252   -1.932386   -0.673708
  H     -1.897188   -3.632364    0.228846
  H     -1.108688   -2.094941   -0.133733
  H     -1.488807   -2.521410    1.546362

 Total Charge           Charge          ....    0
 Multiplicity           Mult            ....    1
 Number of Electrons    NEL             ....  202
 Basis Dimension        Dim             ....  334

ORBITAL ENERGIES
----------------

  NO   OCC          E(Eh)            E(eV)
   0   2.0000     -88.045897     -2395.8506
   1   2.0000     -88.042906     -2395.7693
   2   2.0000     -87.994668     -2394.4567
   3   2.0000     -87.983167     -2394.1437
   4   2.0000     -76.430958     -2079.7921
   5   2.0000     -76.426706     -2079.6764
   6   2.0000     -18.799147      -511.5508
   7   2.0000     -18.795015      -511.4384
   8   2.0000     -18.795004      -511.4381
   9   2.0000     -18.790982      -511.3286
  10   2.0000      -9.958709      -270.9903
  11   2.0000      -9.957556      -270.9589
  12   2.0000      -9.955030      -270.8901
  13   2.0000      -9.953791      -270.8564
  14   2.0000      -9.948397      -270.7097
  15   2.0000      -9.889589      -269.1094
  16   2.0000      -9.888764      -269.0869
  17   2.0000      -9.887357      -269.0487
  18   2.0000      -9.884630      -268.9744
  19   2.0000      -7.690048      -209.2569
  20   2.0000      -7.687755      -209.1944
  21   2.0000      -7.639490      -207.8811
  22   2.0000      -7.628429      -207.5801
  23   2.0000      -6.428545      -174.9296
  24   2.0000      -6.424114      -174.8090
  25   2.0000      -5.717672      -155.5858
  26   2.0000      -5.715588      -155.5291
  27   2.0000      -5.714623      -155.5028
  28   2.0000      -5.712290      -155.4393
  29   2.0000      -5.707338      -155.3046
  30   2.0000      -5.704767      -155.2346
  31   2.0000      -5.668202      -154.2396
  32   2.0000      -5.660373      -154.0266
  33   2.0000      -5.659614      -154.0059
  34   2.0000      -5.657426      -153.9464
  35   2.0000      -5.648992      -153.7169
  36   2.0000      -5.648524      -153.7041
  37   2.0000      -4.651337      -126.5693
  38   2.0000      -4.649947      -126.5315
  39   2.0000      -4.649134      -126.5094
  40   2.0000      -4.646908      -126.4488
  41   2.0000      -4.645925      -126.4221
  42   2.0000      -4.644338      -126.3789
  43   2.0000      -0.993217       -27.0268
  44   2.0000      -0.987825       -26.8801
  45   2.0000      -0.949258       -25.8306
  46   2.0000      -0.946621       -25.7589
  47   2.0000      -0.762799       -20.7568
  48   2.0000      -0.724878       -19.7249
  49   2.0000      -0.712519       -19.3886
  50   2.0000      -0.693895       -18.8818
  51   2.0000      -0.691343       -18.8124
  52   2.0000      -0.678617       -18.4661
  53   2.0000      -0.654077       -17.7983
  54   2.0000      -0.638120       -17.3641
  55   2.0000      -0.603861       -16.4319
  56   2.0000      -0.596815       -16.2402
  57   2.0000      -0.582592       -15.8531
  58   2.0000      -0.577571       -15.7165
  59   2.0000      -0.557605       -15.1732
  60   2.0000      -0.503299       -13.6955
  61   2.0000      -0.492421       -13.3995
  62   2.0000      -0.477390       -12.9904
  63   2.0000      -0.472792       -12.8653
  64   2.0000      -0.461498       -12.5580
  65   2.0000      -0.447772       -12.1845
  66   2.0000      -0.443178       -12.0595
  67   2.0000      -0.435672       -11.8552
  68   2.0000      -0.434524       -11.8240
  69   2.0000      -0.420992       -11.4558
  70   2.0000      -0.416721       -11.3396
  71   2.0000      -0.407348       -11.0845
  72   2.0000      -0.399665       -10.8754
  73   2.0000      -0.388280       -10.5656
  74   2.0000      -0.378585       -10.3018
  75   2.0000      -0.377134       -10.2623
  76   2.0000      -0.366787        -9.9808
  77   2.0000      -0.361456        -9.8357
  78   2.0000      -0.357863        -9.7380
  79   2.0000      -0.353867        -9.6292
  80   2.0000      -0.351275        -9.5587
  81   2.0000      -0.347359        -9.4521
  82   2.0000      -0.345355        -9.3976
  83   2.0000      -0.341290        -9.2870
  84   2.0000      -0.336933        -9.1684
  85   2.0000      -0.323933        -8.8147
  86   2.0000      -0.310430        -8.4472
  87   2.0000      -0.301898        -8.2151
  88   2.0000      -0.294847        -8.0232
  89   2.0000      -0.294012        -8.0005
  90   2.0000      -0.292628        -7.9628
  91   2.0000      -0.280268        -7.6265
  92   2.0000      -0.273594        -7.4449
  93   2.0000      -0.266476        -7.2512
  94   2.0000      -0.262187        -7.1345
  95   2.0000      -0.234004        -6.3676
  96   2.0000      -0.222821        -6.0633
  97   2.0000      -0.215264        -5.8576
  98   2.0000      -0.206758        -5.6262
  99   2.0000      -0.202370        -5.5068
 100   2.0000      -0.198270        -5.3952
 101   0.0000      -0.043478        -1.1831
 102   0.0000      -0.033004        -0.8981
 103   0.0000      -0.009422        -0.2564
 104   0.0000       0.002765         0.0752
 105   0.0000       0.009073         0.2469

MULLIKEN ATOMIC CHARGES
-----------------------
   0 C :   -0.317888
   1 C :   -0.002155
   2 O :   -0.374583
   3 P :    0.598651
   4 S :   -0.310502
   5 O :   -0.356107
   6 C :   -0.019506
   7 C :   -0.308995
   8 S :   -0.114177
   9 C :   -0.364083
  10 S :   -0.072011
  11 P :    0.627845
  12 S :   -0.325140
  13 O :   -0.370362
  14 C :   -0.002018
  15 C :   -0.316387
  16 O :   -0.381493
  17 C :   -0.007777
  18 C :   -0.326818
  19 H :    0.130315
  20 H :    0.114688
  21 H :    0.115274
  22 H :    0.115153
  23 H :    0.105041
  24 H :    0.109797
  25 H :    0.128946
  26 H :    0.123126
  27 H :    0.112184
  28 H :    0.119222
  29 H :    0.195749
  30 H :    0.198608
  31 H :    0.109751
  32 H :    0.111628
  33 H :    0.112152
  34 H :    0.127781
  35 H :    0.127308
  36 H :    0.102905
  37 H :    0.113038
  38 H :    0.112231
  39 H :    0.134651
  40 H :    0.123957
Sum of atomic charges:   -0.0000000

LOEWDIN ATOMIC CHARGES
----------------------
   0 C :   -0.370914
   1 C :   -0.117097
   2 O :   -0.241841
   3 P :    0.571080
   4 S :   -0.309385
   5 O :   -0.233581
   6 C :   -0.116542
   7 C :   -0.366969
   8 S :    0.085648
   9 C :   -0.492730
  10 S :    0.100135
  11 P :    0.568266
  12 S :   -0.302515
  13 O :   -0.241321
  14 C :   -0.110499
  15 C :   -0.366507
  16 O :   -0.247138
  17 C :   -0.121437
  18 C :   -0.368157
  19 H :    0.122641
  20 H :    0.131944
  21 H :    0.122611
  22 H :    0.113755
  23 H :    0.118722
  24 H :    0.123425
  25 H :    0.105127
  26 H :    0.128990
  27 H :    0.130453
  28 H :    0.116786
  29 H :    0.124782
  30 H :    0.128819
  31 H :    0.113156
  32 H :    0.122771
  33 H :    0.130320
  34 H :    0.131612
  35 H :    0.121580
  36 H :    0.117144
  37 H :    0.108507
  38 H :    0.131991
  39 H :    0.112780
  40 H :    0.123586

  Mayer bond orders larger than 0.100000
B(  0-C ,  1-C ) :   1.1656 B(  0-C , 19-H ) :   0.9343 B(  0-C , 20-H ) :   0.9374
B(  0-C , 21-H ) :   0.9448 B(  1-C ,  2-O ) :   0.9052 B(  1-C , 22-H ) :   0.9164
B(  1-C , 23-H ) :   0.9339 B(  2-O ,  3-P ) :   1.0957 B(  3-P ,  4-S ) :   1.6289
B(  3-P ,  5-O ) :   1.1505 B(  3-P ,  8-S ) :   0.9364 B(  4-S ,  8-S ) :   0.1066
B(  5-O ,  6-C ) :   0.8967 B(  6-C ,  7-C ) :   1.1709 B(  6-C , 24-H ) :   0.9331
B(  6-C , 25-H ) :   0.9043 B(  7-C , 26-H ) :   0.9422 B(  7-C , 27-H ) :   0.9356
B(  7-C , 28-H ) :   0.9375 B(  8-S ,  9-C ) :   1.0034 B(  9-C , 10-S ) :   1.0081
B(  9-C , 29-H ) :   0.8480 B(  9-C , 30-H ) :   0.8632 B( 10-S , 11-P ) :   0.9679
B( 10-S , 12-S ) :   0.1216 B( 11-P , 12-S ) :   1.6038 B( 11-P , 13-O ) :   1.1378
B( 11-P , 16-O ) :   1.0762 B( 12-S , 29-H ) :   0.1167 B( 13-O , 14-C ) :   0.9059
B( 14-C , 15-C ) :   1.1658 B( 14-C , 31-H ) :   0.9290 B( 14-C , 32-H ) :   0.9344
B( 15-C , 33-H ) :   0.9362 B( 15-C , 34-H ) :   0.9450 B( 15-C , 35-H ) :   0.9366
B( 16-O , 17-C ) :   0.9123 B( 17-C , 18-C ) :   1.1643 B( 17-C , 36-H ) :   0.9323
B( 17-C , 37-H ) :   0.9078 B( 18-C , 38-H ) :   0.9363 B( 18-C , 39-H ) :   0.9270
B( 18-C , 40-H ) :   0.9368

Dispersion correction           -0.064341970
FINAL SINGLE POINT ENERGY     -2929.519398934592

DIPOLE MOMENT
-------------

Method             : SCF
Type of density    : Electron Density
Multiplicity       :   1
Irrep              :   0
Energy             : -2929.6407742083397352 Eh
Relativity type    :
Basis              : AO
                                X                 Y                 Z
Electronic contribution:      5.170763279      16.241112409      -1.802664914
Nuclear contribution   :     -5.961461391     -17.940802631       2.537373623
                        -----------------------------------------
Total Dipole Moment    :     -0.790698112      -1.699690222       0.734708709
                        -----------------------------------------
Magnitude (a.u.)       :      2.013441641
Magnitude (Debye)      :      5.117761936

Rotational constants in cm-1:             0.014652             0.004068             0.003905
Rotational constants in MHz :           439.270653           121.957055           117.075026

                             ****ORCA TERMINATED NORMALLY****
TOTAL RUN TIME: 0 days 0 hours 0 minutes 20 seconds 874 msec
