                         Program Version 6.0.1  -  RELEASE   -
|  1> ! pbe def2-sv(p) def2/J RI DEFGRID1 loosescf d4 GCP(DFT/SV(P)) printgap
|  2> %output
|  3>     printlevel normal
|  4> end
|  5> * xyz 0 1
|  6> C 3.0185761572 -3.8698505018 -0.6025808087
|  7> C 3.8772432248 -2.6274685574 -0.7768281369
|  8> O 3.1804754283 -1.6370272333 -1.5594029865
|  9> C 2.3772659323 -0.8011762342 -0.9464755344
| 10> O 2.1993035797 -0.7595936546 0.2549954493
| 11> C 1.6934213931 0.1484384156 -1.9082626232
| 12> C 0.411657809 0.6545899511 -1.2616275647
| 13> H -0.036077002 1.4650805795 -1.8435072828
| 14> C 0.6661133655 1.1658462517 0.1434192346
| 15> O -0.0489581113 0.8581348226 1.0814660122
| 16> O 1.624491355 2.0473366524 0.1825371433
| 17> C 1.9366419268 2.6689549386 1.4485741224
| 18> C 2.9981638563 1.8728320611 2.1885279742
| 19> S -0.8082922151 -0.6945948606 -1.1340870666
| 20> P -2.2271411437 0.2379745891 0.1627295907
| 21> S -2.4436534312 2.1889594689 0.1669062273
| 22> O -3.5741592686 -0.2934175771 -0.5120528146
| 23> C -3.8686907808 -1.6807788345 -0.7360399398
| 24> O -2.3470279141 -0.6103122809 1.5125793346
| 25> C -1.5860575254 -0.6093694689 2.7172488147
| 26> H 2.1157201955 -3.6255840846 -0.0467765878
| 27> H 2.7360170815 -4.2684507762 -1.5727755309
| 28> H 3.578184924 -4.6206914974 -0.0546603555
| 29> H 4.7793948091 -2.8428716146 -1.3491201046
| 30> H 4.1333890904 -2.1924031902 0.1931501566
| 31> H 1.488164297 -0.3615885231 -2.8480791174
| 32> H 2.3621560339 0.9912624368 -2.0954762643
| 33> H 2.2932020114 3.6632844882 1.1786019605
| 34> H 1.0156494222 2.7426380309 2.0331555156
| 35> H 2.6568715261 0.8506548946 2.3370498667
| 36> H 3.9204047565 1.8522683998 1.6149661921
| 37> H 3.1838967519 2.3320646617 3.1535667818
| 38> H -4.035185564 -2.1833655462 0.2149875031
| 39> H -3.0468604505 -2.1555097454 -1.2738134955
| 40> H -4.7733195013 -1.6857870594 -1.3389268985
| 41> H -1.4888525905 0.4023423776 3.1071533374
| 42> H -0.5964528191 -1.0277788695 2.5397846719
| 43> H -2.1534127381 -1.2343884538 3.4043264721
| 44> *
| 45>
| 46>                          ****END OF INPUT****

CARTESIAN COORDINATES (ANGSTROEM)
---------------------------------
  C      3.018576   -3.869851   -0.602581
  C      3.877243   -2.627469   -0.776828
  O      3.180475   -1.637027   -1.559403
  C      2.377266   -0.801176   -0.946476
  O      2.199304   -0.759594    0.254995
  C      1.693421    0.148438   -1.908263
  C      0.411658    0.654590   -1.261628
  H     -0.036077    1.465081   -1.843507
  C      0.666113    1.165846    0.143419
  O     -0.048958    0.858135    1.081466
  O      1.624491    2.047337    0.182537
  C      1.936642    2.668955    1.448574
  C      2.998164    1.872832    2.188528
  S     -0.808292   -0.694595   -1.134087
  P     -2.227141    0.237975    0.162730
  S     -2.443653    2.188959    0.166906
  O     -3.574159   -0.293418   -0.512053
  C     -3.868691   -1.680779   -0.736040
  O     -2.347028   -0.610312    1.512579
  C     -1.586058   -0.609369    2.717249
  H      2.115720   -3.625584   -0.046777
  H      2.736017   -4.268451   -1.572776
  H      3.578185   -4.620691   -0.054660
  H      4.779395   -2.842872   -1.349120
  H      4.133389   -2.192403    0.193150
  H      1.488164   -0.361589   -2.848079
  H      2.362156    0.991262   -2.095476
  H      2.293202    3.663284    1.178602
  H      1.015649    2.742638    2.033156
  H      2.656872    0.850655    2.337050
  H      3.920405    1.852268    1.614966
  H      3.183897    2.332065    3.153567
  H     -4.035186   -2.183366    0.214988
  H     -3.046860   -2.155510   -1.273813
  H     -4.773320   -1.685787   -1.338927
  H     -1.488853    0.402342    3.107153
  H     -0.596453   -1.027779    2.539785
  H     -2.153413   -1.234388    3.404326

 Total Charge           Charge          ....    0
 Multiplicity           Mult            ....    1
 Number of Electrons    NEL             ....  174
 Basis Dimension        Dim             ....  316

ORBITAL ENERGIES
----------------

  NO   OCC          E(Eh)            E(eV)
   0   2.0000     -88.027011     -2395.3367
   1   2.0000     -87.954167     -2393.3546
   2   2.0000     -76.411133     -2079.2526
   3   2.0000     -18.820379      -512.1285
   4   2.0000     -18.812790      -511.9221
   5   2.0000     -18.774503      -510.8802
   6   2.0000     -18.760306      -510.4939
   7   2.0000     -18.757814      -510.4261
   8   2.0000     -18.749772      -510.2072
   9   2.0000     -10.028198      -272.8811
  10   2.0000     -10.022602      -272.7289
  11   2.0000      -9.961378      -271.0629
  12   2.0000      -9.951126      -270.7839
  13   2.0000      -9.947053      -270.6731
  14   2.0000      -9.930959      -270.2351
  15   2.0000      -9.930080      -270.2112
  16   2.0000      -9.925050      -270.0743
  17   2.0000      -9.897081      -269.3133
  18   2.0000      -9.887260      -269.0460
  19   2.0000      -7.671960      -208.7646
  20   2.0000      -7.599692      -206.7981
  21   2.0000      -6.405937      -174.3144
  22   2.0000      -5.699907      -155.1024
  23   2.0000      -5.696688      -155.0147
  24   2.0000      -5.688666      -154.7965
  25   2.0000      -5.629302      -153.1811
  26   2.0000      -5.620603      -152.9444
  27   2.0000      -5.618823      -152.8959
  28   2.0000      -4.628929      -125.9595
  29   2.0000      -4.628043      -125.9354
  30   2.0000      -4.626296      -125.8879
  31   2.0000      -1.030168       -28.0323
  32   2.0000      -1.022492       -27.8234
  33   2.0000      -0.962382       -26.1877
  34   2.0000      -0.935524       -25.4569
  35   2.0000      -0.928576       -25.2678
  36   2.0000      -0.915131       -24.9020
  37   2.0000      -0.767447       -20.8833
  38   2.0000      -0.721831       -19.6420
  39   2.0000      -0.707036       -19.2394
  40   2.0000      -0.687280       -18.7018
  41   2.0000      -0.657161       -17.8823
  42   2.0000      -0.624548       -16.9948
  43   2.0000      -0.621996       -16.9254
  44   2.0000      -0.604010       -16.4359
  45   2.0000      -0.593740       -16.1565
  46   2.0000      -0.566048       -15.4030
  47   2.0000      -0.514017       -13.9871
  48   2.0000      -0.504059       -13.7162
  49   2.0000      -0.499404       -13.5895
  50   2.0000      -0.491383       -13.3712
  51   2.0000      -0.466613       -12.6972
  52   2.0000      -0.461117       -12.5476
  53   2.0000      -0.451113       -12.2754
  54   2.0000      -0.443008       -12.0549
  55   2.0000      -0.434291       -11.8176
  56   2.0000      -0.428938       -11.6720
  57   2.0000      -0.423121       -11.5137
  58   2.0000      -0.410940       -11.1822
  59   2.0000      -0.403327       -10.9751
  60   2.0000      -0.399994       -10.8844
  61   2.0000      -0.396143       -10.7796
  62   2.0000      -0.386995       -10.5307
  63   2.0000      -0.384363       -10.4590
  64   2.0000      -0.380254       -10.3472
  65   2.0000      -0.371541       -10.1102
  66   2.0000      -0.364793        -9.9265
  67   2.0000      -0.358859        -9.7651
  68   2.0000      -0.350558        -9.5392
  69   2.0000      -0.339031        -9.2255
  70   2.0000      -0.336909        -9.1678
  71   2.0000      -0.334835        -9.1113
  72   2.0000      -0.324386        -8.8270
  73   2.0000      -0.309562        -8.4236
  74   2.0000      -0.301292        -8.1986
  75   2.0000      -0.300233        -8.1698
  76   2.0000      -0.282750        -7.6940
  77   2.0000      -0.280319        -7.6279
  78   2.0000      -0.273729        -7.4486
  79   2.0000      -0.267746        -7.2857
  80   2.0000      -0.252933        -6.8827
  81   2.0000      -0.245627        -6.6839
  82   2.0000      -0.244114        -6.6427
  83   2.0000      -0.237204        -6.4547
  84   2.0000      -0.204548        -5.5660
  85   2.0000      -0.178316        -4.8522
  86   2.0000      -0.164535        -4.4772
  87   0.0000      -0.044369        -1.2073
  88   0.0000      -0.032301        -0.8790
  89   0.0000      -0.024768        -0.6740
  90   0.0000       0.007420         0.2019
  91   0.0000       0.032281         0.8784

MULLIKEN ATOMIC CHARGES
-----------------------
   0 C :   -0.306071
   1 C :   -0.017032
   2 O :   -0.218212
   3 C :    0.120012
   4 O :   -0.197310
   5 C :   -0.095746
   6 C :   -0.264400
   7 H :    0.151563
   8 C :    0.240435
   9 O :   -0.210014
  10 O :   -0.227594
  11 C :   -0.017425
  12 C :   -0.304019
  13 S :   -0.134848
  14 P :    0.652200
  15 S :   -0.354821
  16 O :   -0.373777
  17 C :   -0.108028
  18 O :   -0.400329
  19 C :   -0.075170
  20 H :    0.132675
  21 H :    0.118816
  22 H :    0.117137
  23 H :    0.108712
  24 H :    0.111102
  25 H :    0.129500
  26 H :    0.140924
  27 H :    0.106152
  28 H :    0.121867
  29 H :    0.139544
  30 H :    0.107423
  31 H :    0.112341
  32 H :    0.112971
  33 H :    0.112301
  34 H :    0.124402
  35 H :    0.115569
  36 H :    0.116862
  37 H :    0.112289
Sum of atomic charges:   -0.0000000

LOEWDIN ATOMIC CHARGES
----------------------
   0 C :   -0.354890
   1 C :   -0.109228
   2 O :   -0.047686
   3 C :    0.039097
   4 O :   -0.148994
   5 C :   -0.250081
   6 C :   -0.258306
   7 H :    0.148076
   8 C :    0.024805
   9 O :   -0.157828
  10 O :   -0.040034
  11 C :   -0.104276
  12 C :   -0.356453
  13 S :    0.070740
  14 P :    0.587308
  15 S :   -0.350828
  16 O :   -0.258386
  17 C :   -0.215276
  18 O :   -0.252398
  19 C :   -0.204584
  20 H :    0.133188
  21 H :    0.127365
  22 H :    0.132695
  23 H :    0.120632
  24 H :    0.120724
  25 H :    0.143274
  26 H :    0.155798
  27 H :    0.119435
  28 H :    0.125203
  29 H :    0.134340
  30 H :    0.122400
  31 H :    0.130157
  32 H :    0.110157
  33 H :    0.100113
  34 H :    0.122220
  35 H :    0.114176
  36 H :    0.113216
  37 H :    0.114132

  Mayer bond orders larger than 0.100000
B(  0-C ,  1-C ) :   1.1753 B(  0-C , 20-H ) :   0.9450 B(  0-C , 21-H ) :   0.9484
B(  0-C , 22-H ) :   0.9434 B(  1-C ,  2-O ) :   0.9058 B(  1-C , 23-H ) :   0.9364
B(  1-C , 24-H ) :   0.9144 B(  2-O ,  3-C ) :   1.2652 B(  3-C ,  4-O ) :   1.9610
B(  3-C ,  5-C ) :   0.9905 B(  4-O ,  8-C ) :   0.1073 B(  5-C ,  6-C ) :   1.0589
B(  5-C , 25-H ) :   0.9031 B(  5-C , 26-H ) :   0.8742 B(  6-C ,  7-H ) :   0.8592
B(  6-C ,  8-C ) :   0.8885 B(  6-C , 13-S ) :   1.0475 B(  8-C ,  9-O ) :   1.8804
B(  8-C , 10-O ) :   1.2668 B(  9-O , 14-P ) :   0.1442 B( 10-O , 11-C ) :   0.9053
B( 11-C , 12-C ) :   1.1742 B( 11-C , 27-H ) :   0.9374 B( 11-C , 28-H ) :   0.9144
B( 12-C , 29-H ) :   0.9394 B( 12-C , 30-H ) :   0.9494 B( 12-C , 31-H ) :   0.9428
B( 13-S , 14-P ) :   0.9069 B( 13-S , 15-S ) :   0.1066 B( 14-P , 15-S ) :   1.5886
B( 14-P , 16-O ) :   1.0851 B( 14-P , 18-O ) :   1.0808 B( 16-O , 17-C ) :   0.9419
B( 17-C , 32-H ) :   0.9472 B( 17-C , 33-H ) :   0.9362 B( 17-C , 34-H ) :   0.9614
B( 18-O , 19-C ) :   0.9314 B( 19-C , 35-H ) :   0.9509 B( 19-C , 36-H ) :   0.9507
B( 19-C , 37-H ) :   0.9528

Dispersion correction           -0.052154914
FINAL SINGLE POINT ENERGY     -1979.003250096018

DIPOLE MOMENT
-------------

Method             : SCF
Type of density    : Electron Density
Multiplicity       :   1
Irrep              :   0
Energy             : -1979.1356006260430149 Eh
Relativity type    :
Basis              : AO
                                X                 Y                 Z
Electronic contribution:    -16.771128292      10.066244626      -6.782950906
Nuclear contribution   :     19.111177902     -11.424875103       6.795761265
                        -----------------------------------------
Total Dipole Moment    :      2.340049610      -1.358630477       0.012810359
                        -----------------------------------------
Magnitude (a.u.)       :      2.705895981
Magnitude (Debye)      :      6.877840992

Rotational constants in cm-1:             0.013089             0.007308             0.005861
Rotational constants in MHz :           392.393378           219.090982           175.694431

                             ****ORCA TERMINATED NORMALLY****
TOTAL RUN TIME: 0 days 0 hours 0 minutes 45 seconds 20 msec
