                         Program Version 6.0.0  -   RELEASE  -
|  1> ! pbe def2-sv(p) def2/J RI DEFGRID1 loosescf d4 GCP(DFT/SV(P)) printgap
|  2> %output
|  3>     printlevel normal
|  4> end
|  5> * xyz 0 1
|  6> C 4.5398276961 -0.5719231067 -2.4163982603
|  7> C 3.7430995937 -1.7882431136 -1.9917865517
|  8> O 3.2853874666 -1.7122379394 -0.6297247585
|  9> P 2.4799028177 -0.5029646235 0.0126518822
| 10> S 3.5010534326 1.1005202796 0.5134223303
| 11> O 1.8108321705 -1.2473926451 1.2393106349
| 12> C 2.2314461575 -1.0810716328 2.6131855353
| 13> C 1.0844815116 -0.5585058212 3.4541422031
| 14> S 0.8781931892 -0.2118813767 -1.3390979933
| 15> C 0.2706837373 1.3295378222 -0.6040722775
| 16> S -0.8536829614 1.0452445223 0.7769215032
| 17> P -2.4963206622 0.392255262 -0.4205947926
| 18> S -2.773225036 1.4651298434 -2.0360258069
| 19> O -3.7210661127 0.3026529543 0.5854285912
| 20> C -4.5762353942 1.4267127594 0.8660085701
| 21> C -3.8464700591 2.5407447537 1.5872825397
| 22> O -2.236307541 -1.1204615941 -0.7865422029
| 23> C -2.4920907688 -2.2689267753 0.0571726023
| 24> C -1.6706215985 -2.2525999102 1.3285310834
| 25> H 4.9343634071 -0.7303853746 -3.4149580149
| 26> H 3.9030541348 0.3119333528 -2.4241713855
| 27> H 5.363139154 -0.3979318148 -1.7274272219
| 28> H 4.3563246188 -2.6911706587 -2.0057747652
| 29> H 2.8701884283 -1.9235143594 -2.6368257254
| 30> H 2.5542571705 -2.0691042034 2.9455561203
| 31> H 3.0803163169 -0.3902839547 2.6413543807
| 32> H 0.2462103574 -1.2472606232 3.4210310098
| 33> H 1.4235896052 -0.4536624741 4.4796783948
| 34> H 0.7579296283 0.4112418668 3.0852584482
| 35> H -0.2602715988 1.8691181693 -1.3895485679
| 36> H 1.1182363488 1.9054931884 -0.2284061002
| 37> H -4.9908895658 1.7883434596 -0.0798008785
| 38> H -5.3693129768 0.9993078299 1.481288686
| 39> H -3.3363955087 2.1555014534 2.4664972549
| 40> H -3.1109450594 2.9947650242 0.9250004691
| 41> H -4.5615699356 3.299521197 1.8884591914
| 42> H -3.5601430504 -2.2944362627 0.2820562714
| 43> H -2.2250302094 -3.1101631499 -0.5845734399
| 44> H -1.9692848012 -1.4149564664 1.9562769645
| 45> H -1.8376262297 -3.1797655865 1.8684337489
| 46> H -0.6115417501 -2.1623373675 1.0952824545
| 47> *
| 48>
| 49>                          ****END OF INPUT****

CARTESIAN COORDINATES (ANGSTROEM)
---------------------------------
  C      4.539828   -0.571923   -2.416398
  C      3.743100   -1.788243   -1.991787
  O      3.285387   -1.712238   -0.629725
  P      2.479903   -0.502965    0.012652
  S      3.501053    1.100520    0.513422
  O      1.810832   -1.247393    1.239311
  C      2.231446   -1.081072    2.613186
  C      1.084482   -0.558506    3.454142
  S      0.878193   -0.211881   -1.339098
  C      0.270684    1.329538   -0.604072
  S     -0.853683    1.045245    0.776922
  P     -2.496321    0.392255   -0.420595
  S     -2.773225    1.465130   -2.036026
  O     -3.721066    0.302653    0.585429
  C     -4.576235    1.426713    0.866009
  C     -3.846470    2.540745    1.587283
  O     -2.236308   -1.120462   -0.786542
  C     -2.492091   -2.268927    0.057173
  C     -1.670622   -2.252600    1.328531
  H      4.934363   -0.730385   -3.414958
  H      3.903054    0.311933   -2.424171
  H      5.363139   -0.397932   -1.727427
  H      4.356325   -2.691171   -2.005775
  H      2.870188   -1.923514   -2.636826
  H      2.554257   -2.069104    2.945556
  H      3.080316   -0.390284    2.641354
  H      0.246210   -1.247261    3.421031
  H      1.423590   -0.453662    4.479678
  H      0.757930    0.411242    3.085258
  H     -0.260272    1.869118   -1.389549
  H      1.118236    1.905493   -0.228406
  H     -4.990890    1.788343   -0.079801
  H     -5.369313    0.999308    1.481289
  H     -3.336396    2.155501    2.466497
  H     -3.110945    2.994765    0.925000
  H     -4.561570    3.299521    1.888459
  H     -3.560143   -2.294436    0.282056
  H     -2.225030   -3.110163   -0.584573
  H     -1.969285   -1.414956    1.956277
  H     -1.837626   -3.179766    1.868434
  H     -0.611542   -2.162337    1.095282

 Total Charge           Charge          ....    0
 Multiplicity           Mult            ....    1
 Number of Electrons    NEL             ....  202
 Basis Dimension        Dim             ....  334

ORBITAL ENERGIES
----------------

  NO   OCC          E(Eh)            E(eV)
   0   2.0000     -88.043589     -2395.7878
   1   2.0000     -88.041625     -2395.7344
   2   2.0000     -87.987920     -2394.2730
   3   2.0000     -87.985351     -2394.2031
   4   2.0000     -76.428613     -2079.7283
   5   2.0000     -76.428406     -2079.7227
   6   2.0000     -18.801764      -511.6220
   7   2.0000     -18.792920      -511.3813
   8   2.0000     -18.790948      -511.3277
   9   2.0000     -18.790126      -511.3053
  10   2.0000      -9.958669      -270.9892
  11   2.0000      -9.958205      -270.9765
  12   2.0000      -9.955656      -270.9072
  13   2.0000      -9.950975      -270.7798
  14   2.0000      -9.950551      -270.7682
  15   2.0000      -9.887656      -269.0568
  16   2.0000      -9.883935      -268.9556
  17   2.0000      -9.883428      -268.9417
  18   2.0000      -9.882783      -268.9242
  19   2.0000      -7.688731      -209.2210
  20   2.0000      -7.686373      -209.1568
  21   2.0000      -7.632870      -207.7010
  22   2.0000      -7.630622      -207.6398
  23   2.0000      -6.425937      -174.8586
  24   2.0000      -6.425798      -174.8548
  25   2.0000      -5.716475      -155.5532
  26   2.0000      -5.714075      -155.4879
  27   2.0000      -5.713281      -155.4663
  28   2.0000      -5.711086      -155.4066
  29   2.0000      -5.705774      -155.2620
  30   2.0000      -5.703346      -155.1959
  31   2.0000      -5.661669      -154.0618
  32   2.0000      -5.659629      -154.0063
  33   2.0000      -5.653615      -153.8427
  34   2.0000      -5.653024      -153.8266
  35   2.0000      -5.651345      -153.7809
  36   2.0000      -5.650554      -153.7594
  37   2.0000      -4.649141      -126.5095
  38   2.0000      -4.648313      -126.4870
  39   2.0000      -4.647727      -126.4711
  40   2.0000      -4.647377      -126.4615
  41   2.0000      -4.646153      -126.4283
  42   2.0000      -4.646145      -126.4280
  43   2.0000      -0.991787       -26.9879
  44   2.0000      -0.986819       -26.8527
  45   2.0000      -0.947109       -25.7722
  46   2.0000      -0.945217       -25.7207
  47   2.0000      -0.765172       -20.8214
  48   2.0000      -0.723081       -19.6760
  49   2.0000      -0.711657       -19.3652
  50   2.0000      -0.693394       -18.8682
  51   2.0000      -0.687045       -18.6954
  52   2.0000      -0.678006       -18.4495
  53   2.0000      -0.652043       -17.7430
  54   2.0000      -0.637283       -17.3413
  55   2.0000      -0.601554       -16.3691
  56   2.0000      -0.594277       -16.1711
  57   2.0000      -0.581085       -15.8121
  58   2.0000      -0.574347       -15.6288
  59   2.0000      -0.557429       -15.1684
  60   2.0000      -0.501745       -13.6532
  61   2.0000      -0.498187       -13.5564
  62   2.0000      -0.473252       -12.8778
  63   2.0000      -0.470736       -12.8094
  64   2.0000      -0.462169       -12.5763
  65   2.0000      -0.450597       -12.2614
  66   2.0000      -0.440844       -11.9960
  67   2.0000      -0.435171       -11.8416
  68   2.0000      -0.427883       -11.6433
  69   2.0000      -0.425305       -11.5731
  70   2.0000      -0.414565       -11.2809
  71   2.0000      -0.401814       -10.9339
  72   2.0000      -0.397772       -10.8239
  73   2.0000      -0.385309       -10.4848
  74   2.0000      -0.377525       -10.2730
  75   2.0000      -0.375302       -10.2125
  76   2.0000      -0.370011       -10.0685
  77   2.0000      -0.360024        -9.7968
  78   2.0000      -0.354876        -9.6567
  79   2.0000      -0.349910        -9.5215
  80   2.0000      -0.346805        -9.4370
  81   2.0000      -0.343840        -9.3564
  82   2.0000      -0.341636        -9.2964
  83   2.0000      -0.340160        -9.2562
  84   2.0000      -0.337307        -9.1786
  85   2.0000      -0.325530        -8.8581
  86   2.0000      -0.309067        -8.4101
  87   2.0000      -0.299518        -8.1503
  88   2.0000      -0.298220        -8.1150
  89   2.0000      -0.296190        -8.0597
  90   2.0000      -0.288033        -7.8378
  91   2.0000      -0.278271        -7.5721
  92   2.0000      -0.274738        -7.4760
  93   2.0000      -0.265289        -7.2189
  94   2.0000      -0.254845        -6.9347
  95   2.0000      -0.234357        -6.3772
  96   2.0000      -0.221511        -6.0276
  97   2.0000      -0.210297        -5.7225
  98   2.0000      -0.203966        -5.5502
  99   2.0000      -0.201498        -5.4831
 100   2.0000      -0.196767        -5.3543
 101   0.0000      -0.046274        -1.2592
 102   0.0000      -0.028035        -0.7629
 103   0.0000      -0.009094        -0.2475
 104   0.0000      -0.003402        -0.0926
 105   0.0000       0.015752         0.4286

MULLIKEN ATOMIC CHARGES
-----------------------
   0 C :   -0.311499
   1 C :   -0.011279
   2 O :   -0.371585
   3 P :    0.610186
   4 S :   -0.333731
   5 O :   -0.359632
   6 C :   -0.010995
   7 C :   -0.299293
   8 S :   -0.076294
   9 C :   -0.378261
  10 S :   -0.092112
  11 P :    0.616838
  12 S :   -0.317547
  13 O :   -0.386037
  14 C :   -0.000605
  15 C :   -0.320699
  16 O :   -0.357059
  17 C :    0.024617
  18 C :   -0.364144
  19 H :    0.112133
  20 H :    0.127097
  21 H :    0.126560
  22 H :    0.109447
  23 H :    0.115764
  24 H :    0.103117
  25 H :    0.112726
  26 H :    0.125517
  27 H :    0.107731
  28 H :    0.124912
  29 H :    0.196843
  30 H :    0.191496
  31 H :    0.115834
  32 H :    0.105664
  33 H :    0.117118
  34 H :    0.132981
  35 H :    0.116151
  36 H :    0.105520
  37 H :    0.108804
  38 H :    0.123159
  39 H :    0.109452
  40 H :    0.151103
Sum of atomic charges:    0.0000000

LOEWDIN ATOMIC CHARGES
----------------------
   0 C :   -0.369795
   1 C :   -0.113830
   2 O :   -0.245492
   3 P :    0.573345
   4 S :   -0.317058
   5 O :   -0.239240
   6 C :   -0.117582
   7 C :   -0.357370
   8 S :    0.089894
   9 C :   -0.491648
  10 S :    0.089557
  11 P :    0.575273
  12 S :   -0.313487
  13 O :   -0.246243
  14 C :   -0.115266
  15 C :   -0.371307
  16 O :   -0.236687
  17 C :   -0.104932
  18 C :   -0.377888
  19 H :    0.130408
  20 H :    0.121890
  21 H :    0.129641
  22 H :    0.121579
  23 H :    0.110372
  24 H :    0.115989
  25 H :    0.106624
  26 H :    0.125490
  27 H :    0.129212
  28 H :    0.119963
  29 H :    0.128529
  30 H :    0.127308
  31 H :    0.114795
  32 H :    0.118934
  33 H :    0.123280
  34 H :    0.123586
  35 H :    0.132939
  36 H :    0.113027
  37 H :    0.122746
  38 H :    0.115916
  39 H :    0.128988
  40 H :    0.128542

  Mayer bond orders larger than 0.100000
B(  0-C ,  1-C ) :   1.1641 B(  0-C , 19-H ) :   0.9351 B(  0-C , 20-H ) :   0.9332
B(  0-C , 21-H ) :   0.9426 B(  1-C ,  2-O ) :   0.9135 B(  1-C , 22-H ) :   0.9342
B(  1-C , 23-H ) :   0.9279 B(  2-O ,  3-P ) :   1.1242 B(  3-P ,  4-S ) :   1.5897
B(  3-P ,  5-O ) :   1.1248 B(  3-P ,  8-S ) :   0.9657 B(  4-S ,  8-S ) :   0.1080
B(  5-O ,  6-C ) :   0.8950 B(  6-C ,  7-C ) :   1.1684 B(  6-C , 24-H ) :   0.9323
B(  6-C , 25-H ) :   0.8991 B(  7-C , 26-H ) :   0.9442 B(  7-C , 27-H ) :   0.9382
B(  7-C , 28-H ) :   0.9394 B(  8-S ,  9-C ) :   1.0051 B(  9-C , 10-S ) :   1.0094
B(  9-C , 29-H ) :   0.8649 B(  9-C , 30-H ) :   0.8619 B( 10-S , 11-P ) :   0.9404
B( 10-S , 12-S ) :   0.1098 B( 11-P , 12-S ) :   1.6315 B( 11-P , 13-O ) :   1.0805
B( 11-P , 16-O ) :   1.1414 B( 13-O , 14-C ) :   0.9007 B( 14-C , 15-C ) :   1.1671
B( 14-C , 31-H ) :   0.9182 B( 14-C , 32-H ) :   0.9341 B( 15-C , 33-H ) :   0.9444
B( 15-C , 34-H ) :   0.9327 B( 15-C , 35-H ) :   0.9365 B( 16-O , 17-C ) :   0.8964
B( 17-C , 18-C ) :   1.1671 B( 17-C , 36-H ) :   0.9284 B( 17-C , 37-H ) :   0.9334
B( 18-C , 38-H ) :   0.9364 B( 18-C , 39-H ) :   0.9352 B( 18-C , 40-H ) :   0.9240

Dispersion correction           -0.065620116
FINAL SINGLE POINT ENERGY     -2929.517147375372

DIPOLE MOMENT
-------------

Method             : SCF
Type of density    : Electron Density
Multiplicity       :   1
Irrep              :   0
Energy             : -2929.6370330390409435 Eh
Relativity type    :
Basis              : AO
                                X                 Y                 Z
Electronic contribution:      0.765793256       4.890892780     -12.583029838
Nuclear contribution   :     -1.169499729      -5.993807225      13.607226853
                        -----------------------------------------
Total Dipole Moment    :     -0.403706473      -1.102914444       1.024197015
                        -----------------------------------------
Magnitude (a.u.)       :      1.558325612
Magnitude (Debye)      :      3.960948925

Rotational constants in cm-1:             0.012717             0.004809             0.004479
Rotational constants in MHz :           381.255000           144.168523           134.280183

                             ****ORCA TERMINATED NORMALLY****
TOTAL RUN TIME: 0 days 0 hours 0 minutes 21 seconds 532 msec
