                         Program Version 6.0.0  -   RELEASE  -
|  1> ! pbe def2-sv(p) def2/J RI DEFGRID1 loosescf d4 GCP(DFT/SV(P)) printgap
|  2> %output
|  3>     printlevel normal
|  4> end
|  5> * xyz 0 1
|  6> C 4.4821727437 0.6987708329 -2.1475026002
|  7> C 3.1406868249 -0.0034948574 -2.1108557217
|  8> O 2.2725638674 0.5902949694 -1.1150791439
|  9> P 2.132001388 0.0925040458 0.371923015
| 10> S 0.9232350756 1.2343038668 1.3986663082
| 11> O 3.6297271635 0.0717997682 0.9033747882
| 12> C 3.9509087086 0.0451954383 2.3062405555
| 13> C 3.5004857058 -1.2377185615 2.9734338011
| 14> S 1.6895330124 -1.9875454941 0.2089764117
| 15> C 0.07490491 -1.8922801908 -0.5983721832
| 16> S -1.2608149477 -1.3850912649 0.5346503106
| 17> P -2.1225345053 0.1349581019 -0.6867727465
| 18> S -0.9199706848 1.0699578495 -1.9131205225
| 19> O -2.9579808957 1.0166827651 0.3310215612
| 20> C -2.390686179 2.0363057152 1.1743418369
| 21> C -3.5189864399 2.9430218835 1.6203810661
| 22> O -3.2470480402 -0.6044213599 -1.5069126789
| 23> C -4.3025677707 -1.3990511694 -0.910181722
| 24> C -5.5483710217 -0.5679195924 -0.6831898086
| 25> H 4.3390539937 1.7635902541 -2.310536693
| 26> H 5.0095928881 0.5540516037 -1.208566852
| 27> H 5.0735170504 0.2877393424 -2.9597686745
| 28> H 3.2586830018 -1.0683934932 -1.8906680204
| 29> H 2.5955037616 0.1267975672 -3.0482667672
| 30> H 5.0363663846 0.1515775842 2.3257999707
| 31> H 3.4822067837 0.9119298011 2.7823103754
| 32> H 3.8737228673 -1.2618541559 3.9921750031
| 33> H 2.41232999 -1.282304972 2.9963709228
| 34> H 3.8755240323 -2.1008492085 2.4290248798
| 35> H -0.1370244087 -2.8963585655 -0.9557901663
| 36> H 0.1131782672 -1.1709584888 -1.4196279659
| 37> H -1.9003136144 1.5531053129 2.0234827474
| 38> H -1.6315227927 2.5840858801 0.6069906196
| 39> H -3.9940672283 3.400271885 0.7567641972
| 40> H -4.2587143741 2.3714712722 2.173326493
| 41> H -3.1133841452 3.7195790611 2.2601755364
| 42> H -4.4816239478 -2.192827609 -1.6375226549
| 43> H -3.9345980675 -1.8283978881 0.0261747373
| 44> H -5.8633521228 -0.1080468017 -1.61587014
| 45> H -6.3408099524 -1.2118547021 -0.3146609152
| 46> H -5.3537479197 0.2146491218 0.0448342742
| 47> *
| 48>
| 49>                          ****END OF INPUT****

CARTESIAN COORDINATES (ANGSTROEM)
---------------------------------
  C      4.482173    0.698771   -2.147503
  C      3.140687   -0.003495   -2.110856
  O      2.272564    0.590295   -1.115079
  P      2.132001    0.092504    0.371923
  S      0.923235    1.234304    1.398666
  O      3.629727    0.071800    0.903375
  C      3.950909    0.045195    2.306241
  C      3.500486   -1.237719    2.973434
  S      1.689533   -1.987545    0.208976
  C      0.074905   -1.892280   -0.598372
  S     -1.260815   -1.385091    0.534650
  P     -2.122535    0.134958   -0.686773
  S     -0.919971    1.069958   -1.913121
  O     -2.957981    1.016683    0.331022
  C     -2.390686    2.036306    1.174342
  C     -3.518986    2.943022    1.620381
  O     -3.247048   -0.604421   -1.506913
  C     -4.302568   -1.399051   -0.910182
  C     -5.548371   -0.567920   -0.683190
  H      4.339054    1.763590   -2.310537
  H      5.009593    0.554052   -1.208567
  H      5.073517    0.287739   -2.959769
  H      3.258683   -1.068393   -1.890668
  H      2.595504    0.126798   -3.048267
  H      5.036366    0.151578    2.325800
  H      3.482207    0.911930    2.782310
  H      3.873723   -1.261854    3.992175
  H      2.412330   -1.282305    2.996371
  H      3.875524   -2.100849    2.429025
  H     -0.137024   -2.896359   -0.955790
  H      0.113178   -1.170958   -1.419628
  H     -1.900314    1.553105    2.023483
  H     -1.631523    2.584086    0.606991
  H     -3.994067    3.400272    0.756764
  H     -4.258714    2.371471    2.173326
  H     -3.113384    3.719579    2.260176
  H     -4.481624   -2.192828   -1.637523
  H     -3.934598   -1.828398    0.026175
  H     -5.863352   -0.108047   -1.615870
  H     -6.340810   -1.211855   -0.314661
  H     -5.353748    0.214649    0.044834

 Total Charge           Charge          ....    0
 Multiplicity           Mult            ....    1
 Number of Electrons    NEL             ....  202
 Basis Dimension        Dim             ....  334

ORBITAL ENERGIES
----------------

  NO   OCC          E(Eh)            E(eV)
   0   2.0000     -88.042877     -2395.7685
   1   2.0000     -88.034648     -2395.5446
   2   2.0000     -87.977880     -2393.9998
   3   2.0000     -87.976609     -2393.9652
   4   2.0000     -76.422850     -2079.5715
   5   2.0000     -76.418691     -2079.4583
   6   2.0000     -18.792163      -511.3608
   7   2.0000     -18.790576      -511.3176
   8   2.0000     -18.787158      -511.2246
   9   2.0000     -18.783217      -511.1173
  10   2.0000      -9.953510      -270.8488
  11   2.0000      -9.952840      -270.8305
  12   2.0000      -9.951646      -270.7980
  13   2.0000      -9.951175      -270.7852
  14   2.0000      -9.944642      -270.6075
  15   2.0000      -9.884652      -268.9751
  16   2.0000      -9.883309      -268.9385
  17   2.0000      -9.883068      -268.9320
  18   2.0000      -9.882630      -268.9200
  19   2.0000      -7.687730      -209.1938
  20   2.0000      -7.679675      -208.9746
  21   2.0000      -7.623043      -207.4335
  22   2.0000      -7.621874      -207.4017
  23   2.0000      -6.420237      -174.7035
  24   2.0000      -6.416443      -174.6003
  25   2.0000      -5.715413      -155.5243
  26   2.0000      -5.712170      -155.4360
  27   2.0000      -5.707520      -155.3095
  28   2.0000      -5.704991      -155.2407
  29   2.0000      -5.704299      -155.2219
  30   2.0000      -5.696579      -155.0118
  31   2.0000      -5.652041      -153.7998
  32   2.0000      -5.650912      -153.7691
  33   2.0000      -5.643462      -153.5664
  34   2.0000      -5.643256      -153.5608
  35   2.0000      -5.642725      -153.5463
  36   2.0000      -5.641631      -153.5166
  37   2.0000      -4.643259      -126.3495
  38   2.0000      -4.642059      -126.3168
  39   2.0000      -4.640268      -126.2681
  40   2.0000      -4.639291      -126.2415
  41   2.0000      -4.638163      -126.2108
  42   2.0000      -4.636641      -126.1694
  43   2.0000      -0.985563       -26.8185
  44   2.0000      -0.983003       -26.7489
  45   2.0000      -0.943676       -25.6787
  46   2.0000      -0.939962       -25.5777
  47   2.0000      -0.758321       -20.6350
  48   2.0000      -0.718145       -19.5417
  49   2.0000      -0.708890       -19.2899
  50   2.0000      -0.689096       -18.7512
  51   2.0000      -0.687992       -18.7212
  52   2.0000      -0.671685       -18.2775
  53   2.0000      -0.646417       -17.5899
  54   2.0000      -0.631469       -17.1831
  55   2.0000      -0.593142       -16.1402
  56   2.0000      -0.583785       -15.8856
  57   2.0000      -0.573946       -15.6179
  58   2.0000      -0.566383       -15.4121
  59   2.0000      -0.557937       -15.1822
  60   2.0000      -0.504776       -13.7356
  61   2.0000      -0.496639       -13.5142
  62   2.0000      -0.477075       -12.9819
  63   2.0000      -0.473094       -12.8735
  64   2.0000      -0.448960       -12.2168
  65   2.0000      -0.443850       -12.0778
  66   2.0000      -0.440619       -11.9899
  67   2.0000      -0.433328       -11.7915
  68   2.0000      -0.426908       -11.6168
  69   2.0000      -0.421439       -11.4679
  70   2.0000      -0.411391       -11.1945
  71   2.0000      -0.390318       -10.6211
  72   2.0000      -0.386529       -10.5180
  73   2.0000      -0.383384       -10.4324
  74   2.0000      -0.378491       -10.2993
  75   2.0000      -0.364300        -9.9131
  76   2.0000      -0.359960        -9.7950
  77   2.0000      -0.356569        -9.7027
  78   2.0000      -0.352080        -9.5806
  79   2.0000      -0.350449        -9.5362
  80   2.0000      -0.348358        -9.4793
  81   2.0000      -0.344876        -9.3845
  82   2.0000      -0.340967        -9.2782
  83   2.0000      -0.338512        -9.2114
  84   2.0000      -0.332848        -9.0573
  85   2.0000      -0.314401        -8.5553
  86   2.0000      -0.310017        -8.4360
  87   2.0000      -0.294367        -8.0101
  88   2.0000      -0.293442        -7.9850
  89   2.0000      -0.287964        -7.8359
  90   2.0000      -0.285589        -7.7713
  91   2.0000      -0.268845        -7.3156
  92   2.0000      -0.267046        -7.2667
  93   2.0000      -0.260033        -7.0758
  94   2.0000      -0.255174        -6.9436
  95   2.0000      -0.240574        -6.5464
  96   2.0000      -0.221130        -6.0173
  97   2.0000      -0.201096        -5.4721
  98   2.0000      -0.197865        -5.3842
  99   2.0000      -0.185951        -5.0600
 100   2.0000      -0.182848        -4.9755
 101   0.0000      -0.036384        -0.9901
 102   0.0000      -0.026456        -0.7199
 103   0.0000      -0.010688        -0.2908
 104   0.0000       0.004792         0.1304
 105   0.0000       0.028885         0.7860

MULLIKEN ATOMIC CHARGES
-----------------------
   0 C :   -0.289481
   1 C :   -0.015791
   2 O :   -0.345166
   3 P :    0.613159
   4 S :   -0.314891
   5 O :   -0.381525
   6 C :    0.001409
   7 C :   -0.327502
   8 S :   -0.109879
   9 C :   -0.348207
  10 S :   -0.098410
  11 P :    0.604319
  12 S :   -0.297717
  13 O :   -0.385477
  14 C :   -0.029549
  15 C :   -0.278023
  16 O :   -0.357037
  17 C :   -0.010885
  18 C :   -0.293857
  19 H :    0.121684
  20 H :    0.120823
  21 H :    0.107896
  22 H :    0.098625
  23 H :    0.112844
  24 H :    0.104128
  25 H :    0.113145
  26 H :    0.115200
  27 H :    0.133752
  28 H :    0.119001
  29 H :    0.181142
  30 H :    0.191829
  31 H :    0.118937
  32 H :    0.123987
  33 H :    0.118540
  34 H :    0.113113
  35 H :    0.114146
  36 H :    0.105803
  37 H :    0.099049
  38 H :    0.118805
  39 H :    0.107215
  40 H :    0.124847
Sum of atomic charges:   -0.0000000

LOEWDIN ATOMIC CHARGES
----------------------
   0 C :   -0.359786
   1 C :   -0.116764
   2 O :   -0.225356
   3 P :    0.571505
   4 S :   -0.304551
   5 O :   -0.247725
   6 C :   -0.117846
   7 C :   -0.373542
   8 S :    0.075284
   9 C :   -0.482524
  10 S :    0.060928
  11 P :    0.567399
  12 S :   -0.297048
  13 O :   -0.243168
  14 C :   -0.120135
  15 C :   -0.351670
  16 O :   -0.241167
  17 C :   -0.116696
  18 C :   -0.361093
  19 H :    0.129563
  20 H :    0.125314
  21 H :    0.128823
  22 H :    0.101353
  23 H :    0.121867
  24 H :    0.117969
  25 H :    0.112920
  26 H :    0.132396
  27 H :    0.123651
  28 H :    0.122999
  29 H :    0.135442
  30 H :    0.121045
  31 H :    0.111055
  32 H :    0.113308
  33 H :    0.127703
  34 H :    0.123628
  35 H :    0.132100
  36 H :    0.119346
  37 H :    0.101170
  38 H :    0.128449
  39 H :    0.128174
  40 H :    0.125683

  Mayer bond orders larger than 0.100000
B(  0-C ,  1-C ) :   1.1670 B(  0-C , 19-H ) :   0.9474 B(  0-C , 20-H ) :   0.9417
B(  0-C , 21-H ) :   0.9396 B(  1-C ,  2-O ) :   0.8966 B(  1-C , 22-H ) :   0.9082
B(  1-C , 23-H ) :   0.9325 B(  2-O ,  3-P ) :   1.1419 B(  3-P ,  4-S ) :   1.6564
B(  3-P ,  5-O ) :   1.0789 B(  3-P ,  8-S ) :   0.9462 B(  4-S ,  8-S ) :   0.1127
B(  5-O ,  6-C ) :   0.9051 B(  6-C ,  7-C ) :   1.1654 B(  6-C , 24-H ) :   0.9334
B(  6-C , 25-H ) :   0.9165 B(  7-C , 26-H ) :   0.9371 B(  7-C , 27-H ) :   0.9324
B(  7-C , 28-H ) :   0.9426 B(  8-S ,  9-C ) :   0.9962 B(  9-C , 10-S ) :   0.9948
B(  9-C , 29-H ) :   0.9119 B(  9-C , 30-H ) :   0.8511 B( 10-S , 11-P ) :   0.9497
B( 10-S , 12-S ) :   0.1149 B( 11-P , 12-S ) :   1.6477 B( 11-P , 13-O ) :   1.0982
B( 11-P , 16-O ) :   1.1296 B( 12-S , 30-H ) :   0.1121 B( 13-O , 14-C ) :   0.8970
B( 14-C , 15-C ) :   1.1522 B( 14-C , 31-H ) :   0.9271 B( 14-C , 32-H ) :   0.9141
B( 15-C , 33-H ) :   0.9499 B( 15-C , 34-H ) :   0.9495 B( 15-C , 35-H ) :   0.9424
B( 16-O , 17-C ) :   0.9019 B( 17-C , 18-C ) :   1.1626 B( 17-C , 36-H ) :   0.9372
B( 17-C , 37-H ) :   0.9097 B( 18-C , 38-H ) :   0.9470 B( 18-C , 39-H ) :   0.9396
B( 18-C , 40-H ) :   0.9406

Dispersion correction           -0.065001764
FINAL SINGLE POINT ENERGY     -2929.513932622961

DIPOLE MOMENT
-------------

Method             : SCF
Type of density    : Electron Density
Multiplicity       :   1
Irrep              :   0
Energy             : -2929.6335437502461900 Eh
Relativity type    :
Basis              : AO
                                X                 Y                 Z
Electronic contribution:      2.035921425      -3.091133394      -4.551463083
Nuclear contribution   :     -1.845011982       2.204980316       4.997673740
                        -----------------------------------------
Total Dipole Moment    :      0.190909442      -0.886153079       0.446210657
                        -----------------------------------------
Magnitude (a.u.)       :      1.010355207
Magnitude (Debye)      :      2.568118844

Rotational constants in cm-1:             0.012884             0.004729             0.004564
Rotational constants in MHz :           386.242765           141.761176           136.819433

                             ****ORCA TERMINATED NORMALLY****
TOTAL RUN TIME: 0 days 0 hours 0 minutes 20 seconds 815 msec
