                         Program Version 6.0.0  -   RELEASE  -
|  1> ! wb97x-v def2-tzvp def2/J RIJCOSX DEFGRID2 scfconv7 GCP(DFT/TZ) printgap
|  2> %output
|  3>     printlevel normal
|  4> end
|  5> * xyz 0 1
|  6> C -5.5224034437644703e-05 7.532077819769573e-05 -1.8398848328808382
|  7> C 5.0080222342839156e-05 7.84053905293307e-05 -0.33532697736230843
|  8> Cl -1.6343417414859958 0.4388246182085056 0.30603826866417855
|  9> Cl 0.43572519518141434 -1.6351815576296844 0.30593049087859037
| 10> Cl 1.1979455066068354 1.1956680217120241 0.3041344140019013
| 11> H -0.2656525317764905 0.9951616408961204 -2.2041320854514015
| 12> H 0.9944934115688923 -0.2673792744828599 -2.2042380228012606
| 13> H -0.7287621322097625 -0.7272193877130626 -2.2046812336663093
| 14> *
| 15>
| 16>                          ****END OF INPUT****

CARTESIAN COORDINATES (ANGSTROEM)
---------------------------------
  C     -0.000055    0.000075   -1.839885
  C      0.000050    0.000078   -0.335327
  Cl    -1.634342    0.438825    0.306038
  Cl     0.435725   -1.635182    0.305930
  Cl     1.197946    1.195668    0.304134
  H     -0.265653    0.995162   -2.204132
  H      0.994493   -0.267379   -2.204238
  H     -0.728762   -0.727219   -2.204681

 Total Charge           Charge          ....    0
 Multiplicity           Mult            ....    1
 Number of Electrons    NEL             ....   66
 Basis Dimension        Dim             ....  191

ORBITAL ENERGIES
----------------

  NO   OCC          E(Eh)            E(eV)
   0   2.0000    -107.160785     -2915.9932
   1   2.0000    -107.160710     -2915.9912
   2   2.0000    -107.160703     -2915.9910
   3   2.0000     -12.248738      -333.3051
   4   2.0000     -12.081246      -328.7474
   5   2.0000     -11.314289      -307.8774
   6   2.0000     -11.314232      -307.8759
   7   2.0000     -11.313935      -307.8678
   8   2.0000      -9.106510      -247.8007
   9   2.0000      -9.106454      -247.7992
  10   2.0000      -9.104497      -247.7459
  11   2.0000      -9.103537      -247.7198
  12   2.0000      -9.102811      -247.7001
  13   2.0000      -9.102759      -247.6987
  14   2.0000      -9.102099      -247.6807
  15   2.0000      -9.102054      -247.6795
  16   2.0000      -9.101895      -247.6752
  17   2.0000      -1.480030       -40.2737
  18   2.0000      -1.398765       -38.0623
  19   2.0000      -1.398610       -38.0581
  20   2.0000      -1.281576       -34.8735
  21   2.0000      -1.106391       -30.1064
  22   2.0000      -0.958483       -26.0816
  23   2.0000      -0.958324       -26.0773
  24   2.0000      -0.933664       -25.4063
  25   2.0000      -0.854803       -23.2604
  26   2.0000      -0.854734       -23.2585
  27   2.0000      -0.818380       -22.2693
  28   2.0000      -0.818332       -22.2680
  29   2.0000      -0.800274       -21.7766
  30   2.0000      -0.798860       -21.7381
  31   2.0000      -0.798788       -21.7361
  32   2.0000      -0.793900       -21.6031
  33   0.0000      -0.360789        -9.8176
  34   0.0000      -0.285730        -7.7751
  35   0.0000      -0.285506        -7.7690
  36   0.0000      -0.066975        -1.8225
  37   0.0000      -0.009317        -0.2535

MULLIKEN ATOMIC CHARGES
-----------------------
   0 C :   -0.343988
   1 C :    0.139162
   2 Cl:   -0.070218
   3 Cl:   -0.070217
   4 Cl:   -0.069903
   5 H :    0.138425
   6 H :    0.138424
   7 H :    0.138316
Sum of atomic charges:    0.0000000

LOEWDIN ATOMIC CHARGES
----------------------
   0 C :   -0.341299
   1 C :   -1.008584
   2 Cl:    0.318027
   3 Cl:    0.318022
   4 Cl:    0.318696
   5 H :    0.131743
   6 H :    0.131742
   7 H :    0.131653

  Mayer bond orders larger than 0.100000
B(  0-C ,  1-C ) :   1.0047 B(  0-C ,  5-H ) :   0.9578 B(  0-C ,  6-H ) :   0.9578
B(  0-C ,  7-H ) :   0.9578 B(  1-C ,  2-Cl) :   1.1178 B(  1-C ,  3-Cl) :   1.1178
B(  1-C ,  4-Cl) :   1.1184

FINAL SINGLE POINT ENERGY     -1458.452714520962

DIPOLE MOMENT
-------------

Method             : SCF
Type of density    : Electron Density
Multiplicity       :   1
Irrep              :   0
Energy             : -1458.4578053138618543 Eh
Relativity type    :
Basis              : AO
                                X                 Y                 Z
Electronic contribution:     -0.000120228      -0.000564253       6.674672060
Nuclear contribution   :      0.000758559       0.001252862      -7.436660612
                        -----------------------------------------
Total Dipole Moment    :      0.000638331       0.000688609      -0.761988552
                        -----------------------------------------
Magnitude (a.u.)       :      0.761989131
Magnitude (Debye)      :      1.936822449

Rotational constants in cm-1:             0.076474             0.076409             0.054765
Rotational constants in MHz :          2292.629764          2290.670108          1641.804433

                             ****ORCA TERMINATED NORMALLY****
TOTAL RUN TIME: 0 days 0 hours 0 minutes 56 seconds 99 msec
