                         Program Version 6.0.0  -   RELEASE  -
|  1> ! wb97x-v def2-tzvp def2/J RIJCOSX DEFGRID2 scfconv7 GCP(DFT/TZ) printgap
|  2> %output
|  3>     printlevel normal
|  4> end
|  5> %cpcm
|  6>     smd true
|  7>     smdsolvent "water"
|  8> end
|  9> * xyz 0 1
| 10> C -5.5224034437644703e-05 7.532077819769573e-05 -1.8398848328808382
| 11> C 5.0080222342839156e-05 7.84053905293307e-05 -0.33532697736230843
| 12> Cl -1.6343417414859958 0.4388246182085056 0.30603826866417855
| 13> Cl 0.43572519518141434 -1.6351815576296844 0.30593049087859037
| 14> Cl 1.1979455066068354 1.1956680217120241 0.3041344140019013
| 15> H -0.2656525317764905 0.9951616408961204 -2.2041320854514015
| 16> H 0.9944934115688923 -0.2673792744828599 -2.2042380228012606
| 17> H -0.7287621322097625 -0.7272193877130626 -2.2046812336663093
| 18> *
| 19>
| 20>                          ****END OF INPUT****

CARTESIAN COORDINATES (ANGSTROEM)
---------------------------------
  C     -0.000055    0.000075   -1.839885
  C      0.000050    0.000078   -0.335327
  Cl    -1.634342    0.438825    0.306038
  Cl     0.435725   -1.635182    0.305930
  Cl     1.197946    1.195668    0.304134
  H     -0.265653    0.995162   -2.204132
  H      0.994493   -0.267379   -2.204238
  H     -0.728762   -0.727219   -2.204681

 Total Charge           Charge          ....    0
 Multiplicity           Mult            ....    1
 Number of Electrons    NEL             ....   66
 Basis Dimension        Dim             ....  191

ORBITAL ENERGIES
----------------

  NO   OCC          E(Eh)            E(eV)
   0   2.0000    -107.160292     -2915.9798
   1   2.0000    -107.160242     -2915.9784
   2   2.0000    -107.160235     -2915.9782
   3   2.0000     -12.244826      -333.1987
   4   2.0000     -12.061664      -328.2146
   5   2.0000     -11.313875      -307.8662
   6   2.0000     -11.313838      -307.8652
   7   2.0000     -11.313535      -307.8569
   8   2.0000      -9.106086      -247.7892
   9   2.0000      -9.106046      -247.7881
  10   2.0000      -9.104057      -247.7340
  11   2.0000      -9.103166      -247.7097
  12   2.0000      -9.102427      -247.6896
  13   2.0000      -9.102394      -247.6887
  14   2.0000      -9.101728      -247.6706
  15   2.0000      -9.101698      -247.6698
  16   2.0000      -9.101515      -247.6648
  17   2.0000      -1.478159       -40.2227
  18   2.0000      -1.398443       -38.0536
  19   2.0000      -1.398308       -38.0499
  20   2.0000      -1.269243       -34.5379
  21   2.0000      -1.099034       -29.9062
  22   2.0000      -0.954769       -25.9806
  23   2.0000      -0.954601       -25.9760
  24   2.0000      -0.923939       -25.1417
  25   2.0000      -0.839859       -22.8537
  26   2.0000      -0.839756       -22.8509
  27   2.0000      -0.816504       -22.2182
  28   2.0000      -0.816462       -22.2171
  29   2.0000      -0.798280       -21.7223
  30   2.0000      -0.798221       -21.7207
  31   2.0000      -0.798135       -21.7184
  32   2.0000      -0.794164       -21.6103
  33   0.0000      -0.359676        -9.7873
  34   0.0000      -0.282090        -7.6761
  35   0.0000      -0.281874        -7.6702
  36   0.0000      -0.056870        -1.5475
  37   0.0000       0.010673         0.2904

MULLIKEN ATOMIC CHARGES
-----------------------
   0 C :   -0.370382
   1 C :    0.140772
   2 Cl:   -0.086293
   3 Cl:   -0.086294
   4 Cl:   -0.085945
   5 H :    0.162825
   6 H :    0.162823
   7 H :    0.162495
Sum of atomic charges:    0.0000000

LOEWDIN ATOMIC CHARGES
----------------------
   0 C :   -0.334907
   1 C :   -1.005509
   2 Cl:    0.306882
   3 Cl:    0.306877
   4 Cl:    0.307617
   5 H :    0.139733
   6 H :    0.139732
   7 H :    0.139574

  Mayer bond orders larger than 0.100000
B(  0-C ,  1-C ) :   1.0124 B(  0-C ,  5-H ) :   0.9485 B(  0-C ,  6-H ) :   0.9485
B(  0-C ,  7-H ) :   0.9485 B(  1-C ,  2-Cl) :   1.1107 B(  1-C ,  3-Cl) :   1.1107
B(  1-C ,  4-Cl) :   1.1112

FINAL SINGLE POINT ENERGY     -1458.454486073574

DIPOLE MOMENT
-------------

Method             : SCF
Type of density    : Electron Density
Multiplicity       :   1
Irrep              :   0
Energy             : -1458.4595768664744355 Eh
Relativity type    :
Basis              : AO
                                X                 Y                 Z
Electronic contribution:      0.000615980       0.000189526       6.392173661
Nuclear contribution   :      0.000758559       0.001252862      -7.436660612
                        -----------------------------------------
Total Dipole Moment    :      0.001374539       0.001442388      -1.044486951
                        -----------------------------------------
Magnitude (a.u.)       :      1.044488851
Magnitude (Debye)      :      2.654879673

Rotational constants in cm-1:             0.076474             0.076409             0.054765
Rotational constants in MHz :          2292.629764          2290.670108          1641.804433

                             ****ORCA TERMINATED NORMALLY****
TOTAL RUN TIME: 0 days 0 hours 0 minutes 56 seconds 963 msec
