                         Program Version 6.0.0  -   RELEASE  -
|  1> ! pbe def2-sv(p) def2/J RI DEFGRID1 loosescf d4 GCP(DFT/SV(P)) printgap
|  2> %output
|  3>     printlevel normal
|  4> end
|  5> * xyz 0 1
|  6> C 4.4723903019 -0.3614672268 -2.1933362645
|  7> C 2.97938132 -0.4471903543 -1.952426853
|  8> O 2.5675491193 0.4605625182 -0.9022682193
|  9> P 2.4611726367 0.087129682 0.6244542497
| 10> S 1.7844428155 1.5830951652 1.6828388057
| 11> O 3.9305139276 -0.4027673191 0.980389112
| 12> C 4.4139396243 -0.4958797293 2.3333920379
| 13> C 3.7035383252 -1.571954318 3.128488477
| 14> S 1.2919834376 -1.6989194243 0.6957150765
| 15> C -0.3035397474 -0.8734200434 0.6950158432
| 16> S -0.6459174982 -0.1592123118 -0.9590662623
| 17> P -2.6976237771 0.2742818219 -0.6241854223
| 18> S -3.5889401601 1.2080637339 -2.0956755329
| 19> O -2.7663796777 0.9658311688 0.800093026
| 20> C -2.8687514847 2.3945210326 0.9313366985
| 21> C -1.5830331233 3.0946765809 0.5389212774
| 22> O -3.2930069345 -1.1232265154 -0.1566088208
| 23> C -3.4319140559 -2.2165392724 -1.0887740583
| 24> C -4.8190466152 -2.2347747925 -1.7002190632
| 25> H 4.7292547894 -0.9870924903 -3.0424544718
| 26> H 4.7568015842 0.6654600962 -2.4061588258
| 27> H 5.0174310648 -0.7030322121 -1.3175705149
| 28> H 2.6794696757 -1.4630703265 -1.6802146084
| 29> H 2.4107055513 -0.1187554666 -2.8244094956
| 30> H 5.4752722098 -0.7184480142 2.2142552744
| 31> H 4.2914843253 0.4811775241 2.8108910663
| 32> H 3.7169660115 -2.5143235292 2.5867182308
| 33> H 4.2032860407 -1.697602426 4.0836856445
| 34> H 2.6691065966 -1.2843506248 3.3083441143
| 35> H -0.2881590947 -0.0677234712 1.4310463977
| 36> H -1.0598216207 -1.6168386805 0.9334860959
| 37> H -3.6973547523 2.7434418242 0.3067846214
| 38> H -3.1054319172 2.5472561231 1.9849566945
| 39> H -1.3696033023 2.9154136871 -0.5152862313
| 40> H -1.6918297378 4.1628572984 0.6960678076
| 41> H -0.7443184217 2.7356295931 1.1323335652
| 42> H -2.6633027119 -2.1318622678 -1.8648801543
| 43> H -3.2526639744 -3.1142420651 -0.4932340812
| 44> H -4.9841248667 -1.3343118663 -2.2877258806
| 45> H -4.9146045778 -3.102125743 -2.3454270112
| 46> H -5.5700056441 -2.2824769463 -0.9167685388
| 47> *
| 48>
| 49>                          ****END OF INPUT****

CARTESIAN COORDINATES (ANGSTROEM)
---------------------------------
  C      4.472390   -0.361467   -2.193336
  C      2.979381   -0.447190   -1.952427
  O      2.567549    0.460563   -0.902268
  P      2.461173    0.087130    0.624454
  S      1.784443    1.583095    1.682839
  O      3.930514   -0.402767    0.980389
  C      4.413940   -0.495880    2.333392
  C      3.703538   -1.571954    3.128488
  S      1.291983   -1.698919    0.695715
  C     -0.303540   -0.873420    0.695016
  S     -0.645917   -0.159212   -0.959066
  P     -2.697624    0.274282   -0.624185
  S     -3.588940    1.208064   -2.095676
  O     -2.766380    0.965831    0.800093
  C     -2.868751    2.394521    0.931337
  C     -1.583033    3.094677    0.538921
  O     -3.293007   -1.123227   -0.156609
  C     -3.431914   -2.216539   -1.088774
  C     -4.819047   -2.234775   -1.700219
  H      4.729255   -0.987092   -3.042454
  H      4.756802    0.665460   -2.406159
  H      5.017431   -0.703032   -1.317571
  H      2.679470   -1.463070   -1.680215
  H      2.410706   -0.118755   -2.824409
  H      5.475272   -0.718448    2.214255
  H      4.291484    0.481178    2.810891
  H      3.716966   -2.514324    2.586718
  H      4.203286   -1.697602    4.083686
  H      2.669107   -1.284351    3.308344
  H     -0.288159   -0.067723    1.431046
  H     -1.059822   -1.616839    0.933486
  H     -3.697355    2.743442    0.306785
  H     -3.105432    2.547256    1.984957
  H     -1.369603    2.915414   -0.515286
  H     -1.691830    4.162857    0.696068
  H     -0.744318    2.735630    1.132334
  H     -2.663303   -2.131862   -1.864880
  H     -3.252664   -3.114242   -0.493234
  H     -4.984125   -1.334312   -2.287726
  H     -4.914605   -3.102126   -2.345427
  H     -5.570006   -2.282477   -0.916769

 Total Charge           Charge          ....    0
 Multiplicity           Mult            ....    1
 Number of Electrons    NEL             ....  202
 Basis Dimension        Dim             ....  334

ORBITAL ENERGIES
----------------

  NO   OCC          E(Eh)            E(eV)
   0   2.0000     -88.053976     -2396.0705
   1   2.0000     -88.040426     -2395.7018
   2   2.0000     -87.992630     -2394.4012
   3   2.0000     -87.986337     -2394.2300
   4   2.0000     -76.433085     -2079.8500
   5   2.0000     -76.424285     -2079.6105
   6   2.0000     -18.803136      -511.6593
   7   2.0000     -18.797404      -511.5034
   8   2.0000     -18.790040      -511.3030
   9   2.0000     -18.787942      -511.2459
  10   2.0000      -9.960803      -271.0472
  11   2.0000      -9.958186      -270.9760
  12   2.0000      -9.955938      -270.9149
  13   2.0000      -9.955020      -270.8899
  14   2.0000      -9.945147      -270.6212
  15   2.0000      -9.891262      -269.1549
  16   2.0000      -9.888951      -269.0920
  17   2.0000      -9.880007      -268.8487
  18   2.0000      -9.870078      -268.5785
  19   2.0000      -7.698747      -209.4935
  20   2.0000      -7.685177      -209.1243
  21   2.0000      -7.637608      -207.8299
  22   2.0000      -7.631475      -207.6630
  23   2.0000      -6.430724      -174.9889
  24   2.0000      -6.421754      -174.7448
  25   2.0000      -5.726375      -155.8226
  26   2.0000      -5.723341      -155.7400
  27   2.0000      -5.715938      -155.5386
  28   2.0000      -5.713339      -155.4679
  29   2.0000      -5.709578      -155.3655
  30   2.0000      -5.702100      -155.1620
  31   2.0000      -5.666492      -154.1931
  32   2.0000      -5.660444      -154.0285
  33   2.0000      -5.658167      -153.9665
  34   2.0000      -5.657837      -153.9576
  35   2.0000      -5.652073      -153.8007
  36   2.0000      -5.651630      -153.7887
  37   2.0000      -4.653589      -126.6306
  38   2.0000      -4.652417      -126.5987
  39   2.0000      -4.650964      -126.5592
  40   2.0000      -4.644069      -126.3715
  41   2.0000      -4.643996      -126.3696
  42   2.0000      -4.642041      -126.3164
  43   2.0000      -0.995280       -27.0829
  44   2.0000      -0.987138       -26.8614
  45   2.0000      -0.953115       -25.9356
  46   2.0000      -0.943518       -25.6744
  47   2.0000      -0.766923       -20.8690
  48   2.0000      -0.723293       -19.6818
  49   2.0000      -0.711474       -19.3602
  50   2.0000      -0.696316       -18.9477
  51   2.0000      -0.680011       -18.5040
  52   2.0000      -0.675907       -18.3924
  53   2.0000      -0.656299       -17.8588
  54   2.0000      -0.640891       -17.4395
  55   2.0000      -0.601953       -16.3800
  56   2.0000      -0.590949       -16.0805
  57   2.0000      -0.580668       -15.8008
  58   2.0000      -0.565857       -15.3977
  59   2.0000      -0.560920       -15.2634
  60   2.0000      -0.504865       -13.7381
  61   2.0000      -0.499259       -13.5855
  62   2.0000      -0.481277       -13.0962
  63   2.0000      -0.467009       -12.7080
  64   2.0000      -0.454941       -12.3796
  65   2.0000      -0.449346       -12.2273
  66   2.0000      -0.444270       -12.0892
  67   2.0000      -0.438073       -11.9206
  68   2.0000      -0.433976       -11.8091
  69   2.0000      -0.420074       -11.4308
  70   2.0000      -0.416946       -11.3457
  71   2.0000      -0.399093       -10.8599
  72   2.0000      -0.396521       -10.7899
  73   2.0000      -0.386752       -10.5241
  74   2.0000      -0.382290       -10.4027
  75   2.0000      -0.374475       -10.1900
  76   2.0000      -0.369153       -10.0452
  77   2.0000      -0.358805        -9.7636
  78   2.0000      -0.356730        -9.7071
  79   2.0000      -0.353691        -9.6244
  80   2.0000      -0.351706        -9.5704
  81   2.0000      -0.344746        -9.3810
  82   2.0000      -0.342021        -9.3069
  83   2.0000      -0.330594        -8.9959
  84   2.0000      -0.327329        -8.9071
  85   2.0000      -0.321769        -8.7558
  86   2.0000      -0.319539        -8.6951
  87   2.0000      -0.301601        -8.2070
  88   2.0000      -0.297873        -8.1055
  89   2.0000      -0.296446        -8.0667
  90   2.0000      -0.286230        -7.7887
  91   2.0000      -0.279459        -7.6045
  92   2.0000      -0.271132        -7.3779
  93   2.0000      -0.265586        -7.2270
  94   2.0000      -0.257552        -7.0084
  95   2.0000      -0.236862        -6.4453
  96   2.0000      -0.224171        -6.1000
  97   2.0000      -0.211978        -5.7682
  98   2.0000      -0.209237        -5.6936
  99   2.0000      -0.205025        -5.5790
 100   2.0000      -0.199736        -5.4351
 101   0.0000      -0.043331        -1.1791
 102   0.0000      -0.028251        -0.7688
 103   0.0000      -0.017824        -0.4850
 104   0.0000      -0.001455        -0.0396
 105   0.0000       0.013049         0.3551

MULLIKEN ATOMIC CHARGES
-----------------------
   0 C :   -0.292038
   1 C :   -0.016021
   2 O :   -0.346590
   3 P :    0.606282
   4 S :   -0.302382
   5 O :   -0.379796
   6 C :   -0.001710
   7 C :   -0.320716
   8 S :   -0.094463
   9 C :   -0.360315
  10 S :   -0.081279
  11 P :    0.578354
  12 S :   -0.311640
  13 O :   -0.369260
  14 C :   -0.004136
  15 C :   -0.329342
  16 O :   -0.366511
  17 C :   -0.018105
  18 C :   -0.283793
  19 H :    0.111350
  20 H :    0.121929
  21 H :    0.121183
  22 H :    0.103520
  23 H :    0.116665
  24 H :    0.107692
  25 H :    0.116005
  26 H :    0.117876
  27 H :    0.117437
  28 H :    0.130608
  29 H :    0.197680
  30 H :    0.187036
  31 H :    0.111465
  32 H :    0.104858
  33 H :    0.125193
  34 H :    0.107214
  35 H :    0.140207
  36 H :    0.101488
  37 H :    0.103802
  38 H :    0.129957
  39 H :    0.106092
  40 H :    0.114201
Sum of atomic charges:   -0.0000000

LOEWDIN ATOMIC CHARGES
----------------------
   0 C :   -0.360338
   1 C :   -0.117511
   2 O :   -0.229050
   3 P :    0.572574
   4 S :   -0.291541
   5 O :   -0.245065
   6 C :   -0.115949
   7 C :   -0.371147
   8 S :    0.089242
   9 C :   -0.480533
  10 S :    0.068478
  11 P :    0.565578
  12 S :   -0.314550
  13 O :   -0.236421
  14 C :   -0.118946
  15 C :   -0.372600
  16 O :   -0.242732
  17 C :   -0.119501
  18 C :   -0.362211
  19 H :    0.130437
  20 H :    0.129800
  21 H :    0.125111
  22 H :    0.102127
  23 H :    0.123645
  24 H :    0.119802
  25 H :    0.114560
  26 H :    0.123559
  27 H :    0.133390
  28 H :    0.122344
  29 H :    0.122736
  30 H :    0.132704
  31 H :    0.109503
  32 H :    0.118758
  33 H :    0.122035
  34 H :    0.129549
  35 H :    0.120902
  36 H :    0.105514
  37 H :    0.115682
  38 H :    0.125433
  39 H :    0.128151
  40 H :    0.126480

  Mayer bond orders larger than 0.100000
B(  0-C ,  1-C ) :   1.1641 B(  0-C , 19-H ) :   0.9395 B(  0-C , 20-H ) :   0.9472
B(  0-C , 21-H ) :   0.9414 B(  1-C ,  2-O ) :   0.8913 B(  1-C , 22-H ) :   0.9104
B(  1-C , 23-H ) :   0.9340 B(  2-O ,  3-P ) :   1.1505 B(  3-P ,  4-S ) :   1.6343
B(  3-P ,  5-O ) :   1.0920 B(  3-P ,  8-S ) :   0.9358 B(  4-S ,  8-S ) :   0.1099
B(  5-O ,  6-C ) :   0.9020 B(  6-C ,  7-C ) :   1.1662 B(  6-C , 24-H ) :   0.9338
B(  6-C , 25-H ) :   0.9181 B(  7-C , 26-H ) :   0.9438 B(  7-C , 27-H ) :   0.9370
B(  7-C , 28-H ) :   0.9352 B(  8-S ,  9-C ) :   1.0157 B(  9-C , 10-S ) :   0.9548
B(  9-C , 29-H ) :   0.8653 B(  9-C , 30-H ) :   0.8949 B( 10-S , 11-P ) :   0.9794
B( 11-P , 12-S ) :   1.6485 B( 11-P , 13-O ) :   1.1043 B( 11-P , 16-O ) :   1.0925
B( 13-O , 14-C ) :   0.9016 B( 14-C , 15-C ) :   1.1619 B( 14-C , 31-H ) :   0.9165
B( 14-C , 32-H ) :   0.9333 B( 15-C , 33-H ) :   0.9362 B( 15-C , 34-H ) :   0.9372
B( 15-C , 35-H ) :   0.9286 B( 16-O , 17-C ) :   0.9063 B( 17-C , 18-C ) :   1.1707
B( 17-C , 36-H ) :   0.9093 B( 17-C , 37-H ) :   0.9348 B( 18-C , 38-H ) :   0.9320
B( 18-C , 39-H ) :   0.9396 B( 18-C , 40-H ) :   0.9472

Dispersion correction           -0.063257139
FINAL SINGLE POINT ENERGY     -2929.520435117086

DIPOLE MOMENT
-------------

Method             : SCF
Type of density    : Electron Density
Multiplicity       :   1
Irrep              :   0
Energy             : -2929.6422267666498556 Eh
Relativity type    :
Basis              : AO
                                X                 Y                 Z
Electronic contribution:     -5.297300639       5.380505411      -1.274702223
Nuclear contribution   :      6.451262675      -6.810738327       1.713513321
                        -----------------------------------------
Total Dipole Moment    :      1.153962036      -1.430232916       0.438811098
                        -----------------------------------------
Magnitude (a.u.)       :      1.889378139
Magnitude (Debye)      :      4.802417576

Rotational constants in cm-1:             0.012870             0.004226             0.004023
Rotational constants in MHz :           385.831620           126.695590           120.612733

                             ****ORCA TERMINATED NORMALLY****
TOTAL RUN TIME: 0 days 0 hours 0 minutes 20 seconds 440 msec
