                         Program Version 6.0.0  -   RELEASE  -
|  1> ! r2scan-3c def2/J RI DEFGRID2 scfconv6 printgap
|  2> %output
|  3>     printlevel normal
|  4> end
|  5> * xyz 0 1
|  6> C 2.7160602793 -0.1532545507 3.3684213236
|  7> C 1.4322617485 -0.5128439223 2.6506032352
|  8> O 1.3154171963 0.1821478171 1.3940685777
|  9> P 2.2222776771 -0.1635964467 0.1428969893
| 10> S 2.8830082044 -2.0075940042 0.0146623425
| 11> O 3.3471741674 0.9521687318 0.2576034599
| 12> C 4.5819112023 0.8840394201 -0.4776608136
| 13> C 4.3718001094 1.0688163934 -1.9666617915
| 14> S 0.9658360672 0.524671413 -1.4106483712
| 15> C 0.0929268249 -1.0425746416 -1.6811441407
| 16> S -0.8448962114 -1.5995640476 -0.2324708701
| 17> P -2.1571351202 0.0616396351 -0.1365325398
| 18> S -2.7155623766 0.7980794326 -1.8688794865
| 19> O -1.3958120994 1.0528036722 0.8300604212
| 20> C -1.4536308161 2.4837319668 0.6772687306
| 21> C -2.7698618968 3.0276194669 1.1910881217
| 22> O -3.2923906717 -0.4584102334 0.8440392601
| 23> C -4.222488769 -1.5007915424 0.486481655
| 24> C -5.4647931755 -0.9278921961 -0.168155345
| 25> H 2.726995828 -0.6248223318 4.3460455739
| 26> H 3.5706187765 -0.5089696923 2.7936803343
| 27> H 2.7938448248 0.9247096633 3.4829433166
| 28> H 0.5478837658 -0.1978653569 3.206652613
| 29> H 1.3817806574 -1.5898253003 2.4577215022
| 30> H 5.1840732706 1.6878819518 -0.0521653518
| 31> H 5.0517552104 -0.0834873295 -0.2737598991
| 32> H 5.3361102777 1.1314807137 -2.4606719787
| 33> H 3.8210980056 0.221710625 -2.3737277365
| 34> H 3.806384766 1.9771805091 -2.1594661517
| 35> H 0.8116667249 -1.83082607 -1.9021249892
| 36> H -0.5870928196 -0.8748236378 -2.5158082179
| 37> H -0.6022351767 2.8478192036 1.2541228506
| 38> H -1.3147876846 2.731959429 -0.3805145714
| 39> H -2.7657365544 4.1108616682 1.1238959784
| 40> H -3.5862374489 2.6359956045 0.5851576581
| 41> H -2.9237167988 2.726306387 2.2236861755
| 42> H -3.7239909883 -2.2177815166 -0.1725349185
| 43> H -4.4612644075 -1.9858437026 1.4348812102
| 44> H -5.2076000214 -0.4356870892 -1.1033574684
| 45> H -6.1635789952 -1.7325953913 -0.3726213507
| 46> H -5.934228892 -0.2032303222 0.4912099757
| 47> *
| 48>
| 49>                          ****END OF INPUT****

CARTESIAN COORDINATES (ANGSTROEM)
---------------------------------
  C      2.716060   -0.153255    3.368421
  C      1.432262   -0.512844    2.650603
  O      1.315417    0.182148    1.394069
  P      2.222278   -0.163596    0.142897
  S      2.883008   -2.007594    0.014662
  O      3.347174    0.952169    0.257603
  C      4.581911    0.884039   -0.477661
  C      4.371800    1.068816   -1.966662
  S      0.965836    0.524671   -1.410648
  C      0.092927   -1.042575   -1.681144
  S     -0.844896   -1.599564   -0.232471
  P     -2.157135    0.061640   -0.136533
  S     -2.715562    0.798079   -1.868879
  O     -1.395812    1.052804    0.830060
  C     -1.453631    2.483732    0.677269
  C     -2.769862    3.027619    1.191088
  O     -3.292391   -0.458410    0.844039
  C     -4.222489   -1.500792    0.486482
  C     -5.464793   -0.927892   -0.168155
  H      2.726996   -0.624822    4.346046
  H      3.570619   -0.508970    2.793680
  H      2.793845    0.924710    3.482943
  H      0.547884   -0.197865    3.206653
  H      1.381781   -1.589825    2.457722
  H      5.184073    1.687882   -0.052165
  H      5.051755   -0.083487   -0.273760
  H      5.336110    1.131481   -2.460672
  H      3.821098    0.221711   -2.373728
  H      3.806385    1.977181   -2.159466
  H      0.811667   -1.830826   -1.902125
  H     -0.587093   -0.874824   -2.515808
  H     -0.602235    2.847819    1.254123
  H     -1.314788    2.731959   -0.380515
  H     -2.765737    4.110862    1.123896
  H     -3.586237    2.635996    0.585158
  H     -2.923717    2.726306    2.223686
  H     -3.723991   -2.217782   -0.172535
  H     -4.461264   -1.985844    1.434881
  H     -5.207600   -0.435687   -1.103357
  H     -6.163579   -1.732595   -0.372621
  H     -5.934229   -0.203230    0.491210

 Total Charge           Charge          ....    0
 Multiplicity           Mult            ....    1
 Number of Electrons    NEL             ....  202
 Basis Dimension        Dim             ....  539

ORBITAL ENERGIES
----------------

  NO   OCC          E(Eh)            E(eV)
   0   2.0000     -88.573632     -2410.2111
   1   2.0000     -88.573164     -2410.1983
   2   2.0000     -88.521347     -2408.7883
   3   2.0000     -88.520234     -2408.7580
   4   2.0000     -76.912769     -2092.9029
   5   2.0000     -76.912437     -2092.8938
   6   2.0000     -18.992830      -516.8212
   7   2.0000     -18.992233      -516.8049
   8   2.0000     -18.985240      -516.6146
   9   2.0000     -18.984382      -516.5913
  10   2.0000     -10.104346      -274.9532
  11   2.0000     -10.100974      -274.8615
  12   2.0000     -10.099095      -274.8103
  13   2.0000     -10.093275      -274.6520
  14   2.0000     -10.092624      -274.6343
  15   2.0000     -10.028796      -272.8974
  16   2.0000     -10.026605      -272.8378
  17   2.0000     -10.025689      -272.8129
  18   2.0000     -10.025271      -272.8015
  19   2.0000      -7.867998      -214.0991
  20   2.0000      -7.867422      -214.0834
  21   2.0000      -7.816126      -212.6876
  22   2.0000      -7.815138      -212.6607
  23   2.0000      -6.591186      -179.3553
  24   2.0000      -6.591056      -179.3518
  25   2.0000      -5.814881      -158.2309
  26   2.0000      -5.814296      -158.2150
  27   2.0000      -5.811932      -158.1507
  28   2.0000      -5.811265      -158.1326
  29   2.0000      -5.805024      -157.9627
  30   2.0000      -5.804566      -157.9503
  31   2.0000      -5.763693      -156.8381
  32   2.0000      -5.762724      -156.8117
  33   2.0000      -5.756433      -156.6405
  34   2.0000      -5.756186      -156.6338
  35   2.0000      -5.755363      -156.6114
  36   2.0000      -5.755244      -156.6081
  37   2.0000      -4.736549      -128.8881
  38   2.0000      -4.736384      -128.8836
  39   2.0000      -4.736161      -128.8775
  40   2.0000      -4.735926      -128.8711
  41   2.0000      -4.735024      -128.8466
  42   2.0000      -4.734997      -128.8458
  43   2.0000      -1.049019       -28.5453
  44   2.0000      -1.047835       -28.5130
  45   2.0000      -1.009526       -27.4706
  46   2.0000      -1.008001       -27.4291
  47   2.0000      -0.801169       -21.8009
  48   2.0000      -0.756536       -20.5864
  49   2.0000      -0.746795       -20.3213
  50   2.0000      -0.729805       -19.8590
  51   2.0000      -0.728106       -19.8128
  52   2.0000      -0.709150       -19.2969
  53   2.0000      -0.686228       -18.6732
  54   2.0000      -0.669180       -18.2093
  55   2.0000      -0.632498       -17.2112
  56   2.0000      -0.625357       -17.0168
  57   2.0000      -0.603724       -16.4282
  58   2.0000      -0.601405       -16.3651
  59   2.0000      -0.591501       -16.0956
  60   2.0000      -0.524768       -14.2797
  61   2.0000      -0.515209       -14.0195
  62   2.0000      -0.493379       -13.4255
  63   2.0000      -0.490845       -13.3566
  64   2.0000      -0.471459       -12.8290
  65   2.0000      -0.458450       -12.4751
  66   2.0000      -0.456954       -12.4343
  67   2.0000      -0.455887       -12.4053
  68   2.0000      -0.442973       -12.0539
  69   2.0000      -0.429108       -11.6766
  70   2.0000      -0.421344       -11.4653
  71   2.0000      -0.412274       -11.2185
  72   2.0000      -0.407870       -11.0987
  73   2.0000      -0.403142       -10.9701
  74   2.0000      -0.402496       -10.9525
  75   2.0000      -0.389707       -10.6045
  76   2.0000      -0.384139       -10.4529
  77   2.0000      -0.372450       -10.1349
  78   2.0000      -0.366975        -9.9859
  79   2.0000      -0.364337        -9.9141
  80   2.0000      -0.361470        -9.8361
  81   2.0000      -0.360306        -9.8044
  82   2.0000      -0.354666        -9.6510
  83   2.0000      -0.349880        -9.5207
  84   2.0000      -0.345932        -9.4133
  85   2.0000      -0.335888        -9.1400
  86   2.0000      -0.320656        -8.7255
  87   2.0000      -0.311129        -8.4662
  88   2.0000      -0.309669        -8.4265
  89   2.0000      -0.301034        -8.1915
  90   2.0000      -0.296050        -8.0559
  91   2.0000      -0.290416        -7.9026
  92   2.0000      -0.282677        -7.6920
  93   2.0000      -0.278827        -7.5873
  94   2.0000      -0.271776        -7.3954
  95   2.0000      -0.244055        -6.6411
  96   2.0000      -0.229576        -6.2471
  97   2.0000      -0.227275        -6.1845
  98   2.0000      -0.220914        -6.0114
  99   2.0000      -0.213252        -5.8029
 100   2.0000      -0.211696        -5.7605
 101   0.0000      -0.046105        -1.2546
 102   0.0000      -0.023446        -0.6380
 103   0.0000       0.000408         0.0111
 104   0.0000       0.001943         0.0529
 105   0.0000       0.014176         0.3858

MULLIKEN ATOMIC CHARGES
-----------------------
   0 C :   -0.442380
   1 C :   -0.160809
   2 O :   -0.261106
   3 P :    0.697150
   4 S :   -0.486499
   5 O :   -0.304213
   6 C :   -0.153143
   7 C :   -0.449382
   8 S :   -0.124628
   9 C :   -0.232923
  10 S :   -0.145081
  11 P :    0.700440
  12 S :   -0.485365
  13 O :   -0.258631
  14 C :   -0.151790
  15 C :   -0.444330
  16 O :   -0.304339
  17 C :   -0.138431
  18 C :   -0.451832
  19 H :    0.146380
  20 H :    0.166264
  21 H :    0.154008
  22 H :    0.157697
  23 H :    0.173673
  24 H :    0.148332
  25 H :    0.171935
  26 H :    0.148134
  27 H :    0.176614
  28 H :    0.155836
  29 H :    0.208649
  30 H :    0.208994
  31 H :    0.157781
  32 H :    0.174303
  33 H :    0.146225
  34 H :    0.166260
  35 H :    0.153002
  36 H :    0.154344
  37 H :    0.150480
  38 H :    0.181238
  39 H :    0.145056
  40 H :    0.152089
Sum of atomic charges:   -0.0000000

LOEWDIN ATOMIC CHARGES
----------------------
   0 C :   -0.399427
   1 C :    0.018663
   2 O :   -0.671019
   3 P :    0.380572
   4 S :   -0.131498
   5 O :   -0.660091
   6 C :    0.019612
   7 C :   -0.406965
   8 S :    0.178331
   9 C :   -0.419328
  10 S :    0.166740
  11 P :    0.381398
  12 S :   -0.131917
  13 O :   -0.660721
  14 C :    0.015481
  15 C :   -0.398623
  16 O :   -0.656671
  17 C :    0.022119
  18 C :   -0.402184
  19 H :    0.158982
  20 H :    0.164017
  21 H :    0.159763
  22 H :    0.181987
  23 H :    0.181253
  24 H :    0.179466
  25 H :    0.179444
  26 H :    0.159286
  27 H :    0.165493
  28 H :    0.160509
  29 H :    0.189193
  30 H :    0.190335
  31 H :    0.181202
  32 H :    0.181912
  33 H :    0.159127
  34 H :    0.164543
  35 H :    0.158879
  36 H :    0.175522
  37 H :    0.179181
  38 H :    0.169117
  39 H :    0.157837
  40 H :    0.158479

  Mayer bond orders larger than 0.100000
B(  0-C ,  1-C ) :   0.9216 B(  0-C , 19-H ) :   0.9632 B(  0-C , 20-H ) :   0.9611
B(  0-C , 21-H ) :   0.9728 B(  1-C ,  2-O ) :   0.7904 B(  1-C , 22-H ) :   0.9631
B(  1-C , 23-H ) :   0.9642 B(  2-O ,  3-P ) :   1.1508 B(  3-P ,  4-S ) :   1.7395
B(  3-P ,  5-O ) :   1.0669 B(  3-P ,  8-S ) :   1.0856 B(  5-O ,  6-C ) :   0.8129
B(  6-C ,  7-C ) :   0.9229 B(  6-C , 24-H ) :   0.9583 B(  6-C , 25-H ) :   0.9677
B(  7-C , 26-H ) :   0.9588 B(  7-C , 27-H ) :   0.9627 B(  7-C , 28-H ) :   0.9682
B(  8-S ,  9-C ) :   0.8997 B(  9-C , 10-S ) :   0.9017 B(  9-C , 29-H ) :   0.9107
B(  9-C , 30-H ) :   0.9084 B( 10-S , 11-P ) :   1.0764 B( 11-P , 12-S ) :   1.7354
B( 11-P , 13-O ) :   1.1585 B( 11-P , 16-O ) :   1.0810 B( 13-O , 14-C ) :   0.7769
B( 14-C , 15-C ) :   0.9283 B( 14-C , 31-H ) :   0.9632 B( 14-C , 32-H ) :   0.9606
B( 15-C , 33-H ) :   0.9650 B( 15-C , 34-H ) :   0.9607 B( 15-C , 35-H ) :   0.9739
B( 16-O , 17-C ) :   0.7840 B( 17-C , 18-C ) :   0.9548 B( 17-C , 36-H ) :   0.9629
B( 17-C , 37-H ) :   0.9630 B( 18-C , 38-H ) :   0.9559 B( 18-C , 39-H ) :   0.9649
B( 18-C , 40-H ) :   0.9743

Dispersion correction           -0.021760192
FINAL SINGLE POINT ENERGY     -2932.464583695190

DIPOLE MOMENT
-------------

Method             : SCF
Type of density    : Electron Density
Multiplicity       :   1
Irrep              :   0
Energy             : -2932.4892323103440503 Eh
Relativity type    :
Basis              : AO
                                X                 Y                 Z
Electronic contribution:      2.220810194      -7.880129658      -8.360758436
Nuclear contribution   :     -2.166802693       8.354443968       9.182445267
                        -----------------------------------------
Total Dipole Moment    :      0.054007501       0.474314310       0.821686832
                        -----------------------------------------
Magnitude (a.u.)       :      0.950294757
Magnitude (Debye)      :      2.415457312

Rotational constants in cm-1:             0.013300             0.004855             0.004788
Rotational constants in MHz :           398.711800           145.554103           143.537133

                             ****ORCA TERMINATED NORMALLY****
TOTAL RUN TIME: 0 days 0 hours 1 minutes 19 seconds 118 msec
