                         Program Version 6.0.0  -   RELEASE  -
|  1> ! r2scan-3c def2/J RI DEFGRID2 scfconv6 printgap
|  2> %output
|  3>     printlevel normal
|  4> end
|  5> %cpcm
|  6>     smd true
|  7>     smdsolvent "water"
|  8> end
|  9> * xyz 0 1
| 10> C 2.7160602793 -0.1532545507 3.3684213236
| 11> C 1.4322617485 -0.5128439223 2.6506032352
| 12> O 1.3154171963 0.1821478171 1.3940685777
| 13> P 2.2222776771 -0.1635964467 0.1428969893
| 14> S 2.8830082044 -2.0075940042 0.0146623425
| 15> O 3.3471741674 0.9521687318 0.2576034599
| 16> C 4.5819112023 0.8840394201 -0.4776608136
| 17> C 4.3718001094 1.0688163934 -1.9666617915
| 18> S 0.9658360672 0.524671413 -1.4106483712
| 19> C 0.0929268249 -1.0425746416 -1.6811441407
| 20> S -0.8448962114 -1.5995640476 -0.2324708701
| 21> P -2.1571351202 0.0616396351 -0.1365325398
| 22> S -2.7155623766 0.7980794326 -1.8688794865
| 23> O -1.3958120994 1.0528036722 0.8300604212
| 24> C -1.4536308161 2.4837319668 0.6772687306
| 25> C -2.7698618968 3.0276194669 1.1910881217
| 26> O -3.2923906717 -0.4584102334 0.8440392601
| 27> C -4.222488769 -1.5007915424 0.486481655
| 28> C -5.4647931755 -0.9278921961 -0.168155345
| 29> H 2.726995828 -0.6248223318 4.3460455739
| 30> H 3.5706187765 -0.5089696923 2.7936803343
| 31> H 2.7938448248 0.9247096633 3.4829433166
| 32> H 0.5478837658 -0.1978653569 3.206652613
| 33> H 1.3817806574 -1.5898253003 2.4577215022
| 34> H 5.1840732706 1.6878819518 -0.0521653518
| 35> H 5.0517552104 -0.0834873295 -0.2737598991
| 36> H 5.3361102777 1.1314807137 -2.4606719787
| 37> H 3.8210980056 0.221710625 -2.3737277365
| 38> H 3.806384766 1.9771805091 -2.1594661517
| 39> H 0.8116667249 -1.83082607 -1.9021249892
| 40> H -0.5870928196 -0.8748236378 -2.5158082179
| 41> H -0.6022351767 2.8478192036 1.2541228506
| 42> H -1.3147876846 2.731959429 -0.3805145714
| 43> H -2.7657365544 4.1108616682 1.1238959784
| 44> H -3.5862374489 2.6359956045 0.5851576581
| 45> H -2.9237167988 2.726306387 2.2236861755
| 46> H -3.7239909883 -2.2177815166 -0.1725349185
| 47> H -4.4612644075 -1.9858437026 1.4348812102
| 48> H -5.2076000214 -0.4356870892 -1.1033574684
| 49> H -6.1635789952 -1.7325953913 -0.3726213507
| 50> H -5.934228892 -0.2032303222 0.4912099757
| 51> *
| 52>
| 53>                          ****END OF INPUT****

CARTESIAN COORDINATES (ANGSTROEM)
---------------------------------
  C      2.716060   -0.153255    3.368421
  C      1.432262   -0.512844    2.650603
  O      1.315417    0.182148    1.394069
  P      2.222278   -0.163596    0.142897
  S      2.883008   -2.007594    0.014662
  O      3.347174    0.952169    0.257603
  C      4.581911    0.884039   -0.477661
  C      4.371800    1.068816   -1.966662
  S      0.965836    0.524671   -1.410648
  C      0.092927   -1.042575   -1.681144
  S     -0.844896   -1.599564   -0.232471
  P     -2.157135    0.061640   -0.136533
  S     -2.715562    0.798079   -1.868879
  O     -1.395812    1.052804    0.830060
  C     -1.453631    2.483732    0.677269
  C     -2.769862    3.027619    1.191088
  O     -3.292391   -0.458410    0.844039
  C     -4.222489   -1.500792    0.486482
  C     -5.464793   -0.927892   -0.168155
  H      2.726996   -0.624822    4.346046
  H      3.570619   -0.508970    2.793680
  H      2.793845    0.924710    3.482943
  H      0.547884   -0.197865    3.206653
  H      1.381781   -1.589825    2.457722
  H      5.184073    1.687882   -0.052165
  H      5.051755   -0.083487   -0.273760
  H      5.336110    1.131481   -2.460672
  H      3.821098    0.221711   -2.373728
  H      3.806385    1.977181   -2.159466
  H      0.811667   -1.830826   -1.902125
  H     -0.587093   -0.874824   -2.515808
  H     -0.602235    2.847819    1.254123
  H     -1.314788    2.731959   -0.380515
  H     -2.765737    4.110862    1.123896
  H     -3.586237    2.635996    0.585158
  H     -2.923717    2.726306    2.223686
  H     -3.723991   -2.217782   -0.172535
  H     -4.461264   -1.985844    1.434881
  H     -5.207600   -0.435687   -1.103357
  H     -6.163579   -1.732595   -0.372621
  H     -5.934229   -0.203230    0.491210

 Total Charge           Charge          ....    0
 Multiplicity           Mult            ....    1
 Number of Electrons    NEL             ....  202
 Basis Dimension        Dim             ....  539

ORBITAL ENERGIES
----------------

  NO   OCC          E(Eh)            E(eV)
   0   2.0000     -88.577984     -2410.3295
   1   2.0000     -88.577850     -2410.3258
   2   2.0000     -88.528393     -2408.9800
   3   2.0000     -88.527916     -2408.9671
   4   2.0000     -76.919089     -2093.0748
   5   2.0000     -76.918049     -2093.0465
   6   2.0000     -18.995813      -516.9023
   7   2.0000     -18.995492      -516.8936
   8   2.0000     -18.991388      -516.7819
   9   2.0000     -18.989632      -516.7342
  10   2.0000     -10.104594      -274.9600
  11   2.0000     -10.091639      -274.6075
  12   2.0000     -10.089719      -274.5552
  13   2.0000     -10.088467      -274.5211
  14   2.0000     -10.088256      -274.5154
  15   2.0000     -10.018543      -272.6184
  16   2.0000     -10.018141      -272.6075
  17   2.0000     -10.017887      -272.6006
  18   2.0000     -10.016603      -272.5656
  19   2.0000      -7.872278      -214.2156
  20   2.0000      -7.872248      -214.2148
  21   2.0000      -7.823436      -212.8865
  22   2.0000      -7.823069      -212.8765
  23   2.0000      -6.597555      -179.5286
  24   2.0000      -6.596710      -179.5056
  25   2.0000      -5.819134      -158.3467
  26   2.0000      -5.819121      -158.3463
  27   2.0000      -5.816176      -158.2662
  28   2.0000      -5.816112      -158.2645
  29   2.0000      -5.809454      -158.0833
  30   2.0000      -5.809296      -158.0790
  31   2.0000      -5.770960      -157.0358
  32   2.0000      -5.770614      -157.0264
  33   2.0000      -5.763723      -156.8389
  34   2.0000      -5.763507      -156.8330
  35   2.0000      -5.763293      -156.8272
  36   2.0000      -5.763168      -156.8238
  37   2.0000      -4.742887      -129.0605
  38   2.0000      -4.742541      -129.0511
  39   2.0000      -4.742002      -129.0364
  40   2.0000      -4.741594      -129.0253
  41   2.0000      -4.741432      -129.0209
  42   2.0000      -4.740692      -129.0008
  43   2.0000      -1.053372       -28.6637
  44   2.0000      -1.051508       -28.6130
  45   2.0000      -1.013165       -27.5696
  46   2.0000      -1.011563       -27.5260
  47   2.0000      -0.804128       -21.8814
  48   2.0000      -0.755222       -20.5506
  49   2.0000      -0.742523       -20.2051
  50   2.0000      -0.722803       -19.6685
  51   2.0000      -0.721998       -19.6466
  52   2.0000      -0.709639       -19.3103
  53   2.0000      -0.690326       -18.7847
  54   2.0000      -0.675315       -18.3762
  55   2.0000      -0.632192       -17.2028
  56   2.0000      -0.623591       -16.9688
  57   2.0000      -0.598524       -16.2867
  58   2.0000      -0.597368       -16.2552
  59   2.0000      -0.590886       -16.0788
  60   2.0000      -0.523123       -14.2349
  61   2.0000      -0.512646       -13.9498
  62   2.0000      -0.492847       -13.4111
  63   2.0000      -0.489064       -13.3081
  64   2.0000      -0.472444       -12.8559
  65   2.0000      -0.458296       -12.4709
  66   2.0000      -0.453434       -12.3386
  67   2.0000      -0.453285       -12.3345
  68   2.0000      -0.440946       -11.9987
  69   2.0000      -0.426350       -11.6016
  70   2.0000      -0.419615       -11.4183
  71   2.0000      -0.412301       -11.2193
  72   2.0000      -0.405547       -11.0355
  73   2.0000      -0.403626       -10.9832
  74   2.0000      -0.400354       -10.8942
  75   2.0000      -0.388185       -10.5630
  76   2.0000      -0.382654       -10.4126
  77   2.0000      -0.369109       -10.0440
  78   2.0000      -0.364194        -9.9102
  79   2.0000      -0.360120        -9.7994
  80   2.0000      -0.353550        -9.6206
  81   2.0000      -0.353020        -9.6061
  82   2.0000      -0.348333        -9.4786
  83   2.0000      -0.345806        -9.4099
  84   2.0000      -0.344453        -9.3731
  85   2.0000      -0.335011        -9.1161
  86   2.0000      -0.320291        -8.7156
  87   2.0000      -0.306555        -8.3418
  88   2.0000      -0.304805        -8.2942
  89   2.0000      -0.301574        -8.2062
  90   2.0000      -0.297423        -8.0933
  91   2.0000      -0.291396        -7.9293
  92   2.0000      -0.284463        -7.7406
  93   2.0000      -0.279386        -7.6025
  94   2.0000      -0.274980        -7.4826
  95   2.0000      -0.248954        -6.7744
  96   2.0000      -0.236036        -6.4229
  97   2.0000      -0.234942        -6.3931
  98   2.0000      -0.227795        -6.1986
  99   2.0000      -0.220900        -6.0110
 100   2.0000      -0.218635        -5.9494
 101   0.0000      -0.051597        -1.4040
 102   0.0000      -0.030139        -0.8201
 103   0.0000      -0.004819        -0.1311
 104   0.0000      -0.002721        -0.0740
 105   0.0000       0.012293         0.3345

MULLIKEN ATOMIC CHARGES
-----------------------
   0 C :   -0.484775
   1 C :   -0.153300
   2 O :   -0.292326
   3 P :    0.733538
   4 S :   -0.528907
   5 O :   -0.331271
   6 C :   -0.153485
   7 C :   -0.485679
   8 S :   -0.135508
   9 C :   -0.245100
  10 S :   -0.157461
  11 P :    0.726951
  12 S :   -0.522911
  13 O :   -0.290306
  14 C :   -0.142052
  15 C :   -0.486240
  16 O :   -0.334853
  17 C :   -0.128388
  18 C :   -0.491817
  19 H :    0.171508
  20 H :    0.167586
  21 H :    0.169154
  22 H :    0.178459
  23 H :    0.176387
  24 H :    0.175414
  25 H :    0.178358
  26 H :    0.172951
  27 H :    0.172785
  28 H :    0.169087
  29 H :    0.231281
  30 H :    0.230212
  31 H :    0.179382
  32 H :    0.175888
  33 H :    0.171608
  34 H :    0.165243
  35 H :    0.168543
  36 H :    0.164226
  37 H :    0.176935
  38 H :    0.171157
  39 H :    0.169880
  40 H :    0.167847
Sum of atomic charges:   -0.0000000

LOEWDIN ATOMIC CHARGES
----------------------
   0 C :   -0.402387
   1 C :    0.022034
   2 O :   -0.688625
   3 P :    0.385472
   4 S :   -0.156612
   5 O :   -0.671919
   6 C :    0.025489
   7 C :   -0.410061
   8 S :    0.173058
   9 C :   -0.412755
  10 S :    0.160797
  11 P :    0.384889
  12 S :   -0.155299
  13 O :   -0.678975
  14 C :    0.018983
  15 C :   -0.401721
  16 O :   -0.670737
  17 C :    0.028269
  18 C :   -0.406255
  19 H :    0.168410
  20 H :    0.162361
  21 H :    0.163819
  22 H :    0.190451
  23 H :    0.182041
  24 H :    0.190997
  25 H :    0.181589
  26 H :    0.168390
  27 H :    0.161539
  28 H :    0.163588
  29 H :    0.196364
  30 H :    0.196889
  31 H :    0.189955
  32 H :    0.182541
  33 H :    0.168583
  34 H :    0.162033
  35 H :    0.163373
  36 H :    0.180020
  37 H :    0.190607
  38 H :    0.162996
  39 H :    0.167337
  40 H :    0.162471

  Mayer bond orders larger than 0.100000
B(  0-C ,  1-C ) :   0.9144 B(  0-C , 19-H ) :   0.9570 B(  0-C , 20-H ) :   0.9602
B(  0-C , 21-H ) :   0.9713 B(  1-C ,  2-O ) :   0.7782 B(  1-C , 22-H ) :   0.9530
B(  1-C , 23-H ) :   0.9593 B(  2-O ,  3-P ) :   1.1542 B(  3-P ,  4-S ) :   1.7013
B(  3-P ,  5-O ) :   1.0754 B(  3-P ,  8-S ) :   1.0963 B(  5-O ,  6-C ) :   0.8008
B(  6-C ,  7-C ) :   0.9096 B(  6-C , 24-H ) :   0.9484 B(  6-C , 25-H ) :   0.9661
B(  7-C , 26-H ) :   0.9534 B(  7-C , 27-H ) :   0.9638 B(  7-C , 28-H ) :   0.9656
B(  8-S ,  9-C ) :   0.8913 B(  9-C , 10-S ) :   0.8934 B(  9-C , 29-H ) :   0.9047
B(  9-C , 30-H ) :   0.9032 B( 10-S , 11-P ) :   1.0890 B( 11-P , 12-S ) :   1.7082
B( 11-P , 13-O ) :   1.1585 B( 11-P , 16-O ) :   1.0855 B( 13-O , 14-C ) :   0.7648
B( 14-C , 15-C ) :   0.9223 B( 14-C , 31-H ) :   0.9530 B( 14-C , 32-H ) :   0.9557
B( 15-C , 33-H ) :   0.9588 B( 15-C , 34-H ) :   0.9608 B( 15-C , 35-H ) :   0.9718
B( 16-O , 17-C ) :   0.7732 B( 17-C , 18-C ) :   0.9432 B( 17-C , 36-H ) :   0.9556
B( 17-C , 37-H ) :   0.9531 B( 18-C , 38-H ) :   0.9604 B( 18-C , 39-H ) :   0.9594
B( 18-C , 40-H ) :   0.9721

Dispersion correction           -0.021760192
FINAL SINGLE POINT ENERGY     -2932.471692814791

DIPOLE MOMENT
-------------

Method             : SCF
Type of density    : Electron Density
Multiplicity       :   1
Irrep              :   0
Energy             : -2932.4963414299454598 Eh
Relativity type    :
Basis              : AO
                                X                 Y                 Z
Electronic contribution:      2.289461222      -7.831772651      -8.192591255
Nuclear contribution   :     -2.166802693       8.354443968       9.182445267
                        -----------------------------------------
Total Dipole Moment    :      0.122658528       0.522671317       0.989854012
                        -----------------------------------------
Magnitude (a.u.)       :      1.126073437
Magnitude (Debye)      :      2.862251210

Rotational constants in cm-1:             0.013300             0.004855             0.004788
Rotational constants in MHz :           398.711800           145.554103           143.537133

                             ****ORCA TERMINATED NORMALLY****
TOTAL RUN TIME: 0 days 0 hours 1 minutes 49 seconds 540 msec
