                         Program Version 6.0.1  -  RELEASE   -
|  1> ! pbe def2-sv(p) def2/J RI DEFGRID1 loosescf d4 GCP(DFT/SV(P)) printgap
|  2> %output
|  3>     printlevel normal
|  4> end
|  5> * xyz 0 1
|  6> C 1.774823728 -3.371991885 -0.0502238041
|  7> C 2.8722166874 -2.3289493429 -0.1875826043
|  8> O 2.3223316896 -1.0843682438 -0.6603055687
|  9> C 2.2201231225 -0.8961519747 -1.9677593648
| 10> O 2.6589655013 -1.653676914 -2.8011632498
| 11> C 1.5077165605 0.400910709 -2.2978718295
| 12> C 0.4268698526 0.7335220648 -1.2767400995
| 13> H -0.088407899 1.658453044 -1.5558366683
| 14> C 0.9784200161 0.9151303716 0.1231593308
| 15> O 0.4474867843 0.4133551744 1.095035601
| 16> O 2.0240010736 1.6908261332 0.1507782139
| 17> C 2.5712142111 2.0495166998 1.4385350827
| 18> C 1.8658161654 3.2791897924 1.9865001472
| 19> S -0.8205432051 -0.5988897585 -1.200949341
| 20> P -2.0003109719 0.1526009818 0.4141137541
| 21> S -2.0009632473 2.0645031907 0.834425158
| 22> O -3.4549921856 -0.1819229005 -0.1538875776
| 23> C -3.8650263686 -1.5021928686 -0.5425420114
| 24> O -1.9645799821 -0.9015143205 1.615986319
| 25> C -1.2636053755 -0.7917338328 2.8538537014
| 26> H 1.3588279703 -3.6064880279 -1.0274600146
| 27> H 2.1856516773 -4.2746929072 0.3892288218
| 28> H 0.9769041516 -2.9928138191 0.5841548114
| 29> H 3.6406151316 -2.6591527488 -0.8919222714
| 30> H 3.3177721773 -2.0873387303 0.7778872399
| 31> H 1.0792647289 0.3053214524 -3.2953436255
| 32> H 2.2460213238 1.2062332423 -2.3048901738
| 33> H 2.4579220056 1.1990693549 2.1150984485
| 34> H 3.6248181218 2.2458302126 1.2409340578
| 35> H 0.800907032 3.0831537764 2.1024279832
| 36> H 2.2853423609 3.5350983551 2.9535599258
| 37> H 1.9893204087 4.1181643416 1.3077141856
| 38> H -3.891135894 -2.1552632327 0.32795178
| 39> H -3.1786153392 -1.9013263042 -1.2904052715
| 40> H -4.8596107756 -1.3792129455 -0.963677886
| 41> H -0.2729671642 -1.2309315002 2.7562477013
| 42> H -1.863270725 -1.3396295652 3.5777556703
| 43> H -1.1717313418 0.2543308321 3.1457152231
| 44> *
| 45>
| 46>                          ****END OF INPUT****

CARTESIAN COORDINATES (ANGSTROEM)
---------------------------------
  C      1.774824   -3.371992   -0.050224
  C      2.872217   -2.328949   -0.187583
  O      2.322332   -1.084368   -0.660306
  C      2.220123   -0.896152   -1.967759
  O      2.658966   -1.653677   -2.801163
  C      1.507717    0.400911   -2.297872
  C      0.426870    0.733522   -1.276740
  H     -0.088408    1.658453   -1.555837
  C      0.978420    0.915130    0.123159
  O      0.447487    0.413355    1.095036
  O      2.024001    1.690826    0.150778
  C      2.571214    2.049517    1.438535
  C      1.865816    3.279190    1.986500
  S     -0.820543   -0.598890   -1.200949
  P     -2.000311    0.152601    0.414114
  S     -2.000963    2.064503    0.834425
  O     -3.454992   -0.181923   -0.153888
  C     -3.865026   -1.502193   -0.542542
  O     -1.964580   -0.901514    1.615986
  C     -1.263605   -0.791734    2.853854
  H      1.358828   -3.606488   -1.027460
  H      2.185652   -4.274693    0.389229
  H      0.976904   -2.992814    0.584155
  H      3.640615   -2.659153   -0.891922
  H      3.317772   -2.087339    0.777887
  H      1.079265    0.305321   -3.295344
  H      2.246021    1.206233   -2.304890
  H      2.457922    1.199069    2.115098
  H      3.624818    2.245830    1.240934
  H      0.800907    3.083154    2.102428
  H      2.285342    3.535098    2.953560
  H      1.989320    4.118164    1.307714
  H     -3.891136   -2.155263    0.327952
  H     -3.178615   -1.901326   -1.290405
  H     -4.859611   -1.379213   -0.963678
  H     -0.272967   -1.230932    2.756248
  H     -1.863271   -1.339630    3.577756
  H     -1.171731    0.254331    3.145715

 Total Charge           Charge          ....    0
 Multiplicity           Mult            ....    1
 Number of Electrons    NEL             ....  174
 Basis Dimension        Dim             ....  316

ORBITAL ENERGIES
----------------

  NO   OCC          E(Eh)            E(eV)
   0   2.0000     -88.035002     -2395.5542
   1   2.0000     -87.971485     -2393.8258
   2   2.0000     -76.420754     -2079.5144
   3   2.0000     -18.821459      -512.1579
   4   2.0000     -18.811388      -511.8839
   5   2.0000     -18.784676      -511.1570
   6   2.0000     -18.774072      -510.8685
   7   2.0000     -18.754719      -510.3418
   8   2.0000     -18.743696      -510.0419
   9   2.0000     -10.028068      -272.8776
  10   2.0000     -10.018442      -272.6157
  11   2.0000      -9.959040      -270.9993
  12   2.0000      -9.953460      -270.8474
  13   2.0000      -9.951885      -270.8046
  14   2.0000      -9.939925      -270.4791
  15   2.0000      -9.936737      -270.3924
  16   2.0000      -9.922200      -269.9968
  17   2.0000      -9.889422      -269.1048
  18   2.0000      -9.887802      -269.0608
  19   2.0000      -7.679786      -208.9776
  20   2.0000      -7.616926      -207.2671
  21   2.0000      -6.416384      -174.5987
  22   2.0000      -5.707696      -155.3143
  23   2.0000      -5.704637      -155.2311
  24   2.0000      -5.696419      -155.0074
  25   2.0000      -5.646268      -153.6428
  26   2.0000      -5.637746      -153.4109
  27   2.0000      -5.636361      -153.3732
  28   2.0000      -4.639260      -126.2407
  29   2.0000      -4.638275      -126.2139
  30   2.0000      -4.636903      -126.1766
  31   2.0000      -1.032191       -28.0873
  32   2.0000      -1.016972       -27.6732
  33   2.0000      -0.973124       -26.4800
  34   2.0000      -0.935916       -25.4676
  35   2.0000      -0.927397       -25.2357
  36   2.0000      -0.922317       -25.0975
  37   2.0000      -0.772092       -21.0097
  38   2.0000      -0.713755       -19.4223
  39   2.0000      -0.711983       -19.3740
  40   2.0000      -0.690661       -18.7938
  41   2.0000      -0.657696       -17.8968
  42   2.0000      -0.631302       -17.1786
  43   2.0000      -0.625808       -17.0291
  44   2.0000      -0.608876       -16.5684
  45   2.0000      -0.600376       -16.3371
  46   2.0000      -0.571708       -15.5570
  47   2.0000      -0.513696       -13.9784
  48   2.0000      -0.506981       -13.7956
  49   2.0000      -0.506060       -13.7706
  50   2.0000      -0.487458       -13.2644
  51   2.0000      -0.468635       -12.7522
  52   2.0000      -0.468134       -12.7386
  53   2.0000      -0.452272       -12.3070
  54   2.0000      -0.444138       -12.0856
  55   2.0000      -0.434959       -11.8358
  56   2.0000      -0.423519       -11.5245
  57   2.0000      -0.420784       -11.4501
  58   2.0000      -0.411649       -11.2016
  59   2.0000      -0.409260       -11.1365
  60   2.0000      -0.403185       -10.9712
  61   2.0000      -0.399430       -10.8690
  62   2.0000      -0.391149       -10.6437
  63   2.0000      -0.387714       -10.5502
  64   2.0000      -0.380866       -10.3639
  65   2.0000      -0.372891       -10.1469
  66   2.0000      -0.362161        -9.8549
  67   2.0000      -0.356441        -9.6993
  68   2.0000      -0.351886        -9.5753
  69   2.0000      -0.346229        -9.4214
  70   2.0000      -0.336286        -9.1508
  71   2.0000      -0.332300        -9.0423
  72   2.0000      -0.327525        -8.9124
  73   2.0000      -0.312673        -8.5083
  74   2.0000      -0.308056        -8.3826
  75   2.0000      -0.297034        -8.0827
  76   2.0000      -0.294187        -8.0052
  77   2.0000      -0.289129        -7.8676
  78   2.0000      -0.280110        -7.6222
  79   2.0000      -0.266167        -7.2428
  80   2.0000      -0.260077        -7.0771
  81   2.0000      -0.253650        -6.9022
  82   2.0000      -0.242568        -6.6006
  83   2.0000      -0.229641        -6.2488
  84   2.0000      -0.210641        -5.7318
  85   2.0000      -0.194620        -5.2959
  86   2.0000      -0.184096        -5.0095
  87   0.0000      -0.047458        -1.2914
  88   0.0000      -0.037658        -1.0247
  89   0.0000      -0.022671        -0.6169
  90   0.0000      -0.001021        -0.0278
  91   0.0000       0.026187         0.7126

MULLIKEN ATOMIC CHARGES
-----------------------
   0 C :   -0.308509
   1 C :   -0.011488
   2 O :   -0.240480
   3 C :    0.109442
   4 O :   -0.189376
   5 C :   -0.093367
   6 C :   -0.297256
   7 H :    0.157165
   8 C :    0.249949
   9 O :   -0.205249
  10 O :   -0.224540
  11 C :   -0.012324
  12 C :   -0.312170
  13 S :   -0.118892
  14 P :    0.643758
  15 S :   -0.333961
  16 O :   -0.369933
  17 C :   -0.111880
  18 O :   -0.398050
  19 C :   -0.084795
  20 H :    0.125222
  21 H :    0.111036
  22 H :    0.128974
  23 H :    0.111681
  24 H :    0.101278
  25 H :    0.129992
  26 H :    0.142584
  27 H :    0.108575
  28 H :    0.106165
  29 H :    0.143808
  30 H :    0.112882
  31 H :    0.115975
  32 H :    0.117287
  33 H :    0.119034
  34 H :    0.128853
  35 H :    0.118100
  36 H :    0.115220
  37 H :    0.115296
Sum of atomic charges:   -0.0000000

LOEWDIN ATOMIC CHARGES
----------------------
   0 C :   -0.356474
   1 C :   -0.108576
   2 O :   -0.052495
   3 C :    0.029937
   4 O :   -0.155627
   5 C :   -0.245690
   6 C :   -0.263765
   7 H :    0.148756
   8 C :    0.018360
   9 O :   -0.163233
  10 O :   -0.037005
  11 C :   -0.105273
  12 C :   -0.358257
  13 S :    0.085639
  14 P :    0.590302
  15 S :   -0.330017
  16 O :   -0.256087
  17 C :   -0.214349
  18 O :   -0.254185
  19 C :   -0.207031
  20 H :    0.130461
  21 H :    0.129259
  22 H :    0.127220
  23 H :    0.121235
  24 H :    0.116978
  25 H :    0.146873
  26 H :    0.155674
  27 H :    0.119799
  28 H :    0.119320
  29 H :    0.133210
  30 H :    0.131040
  31 H :    0.126641
  32 H :    0.112137
  33 H :    0.103814
  34 H :    0.124616
  35 H :    0.110136
  36 H :    0.115240
  37 H :    0.111413

  Mayer bond orders larger than 0.100000
B(  0-C ,  1-C ) :   1.1768 B(  0-C , 20-H ) :   0.9448 B(  0-C , 21-H ) :   0.9423
B(  0-C , 22-H ) :   0.9428 B(  1-C ,  2-O ) :   0.9082 B(  1-C , 23-H ) :   0.9132
B(  1-C , 24-H ) :   0.9363 B(  2-O ,  3-C ) :   1.2017 B(  3-C ,  4-O ) :   2.0757
B(  3-C ,  5-C ) :   1.0033 B(  5-C ,  6-C ) :   1.0615 B(  5-C , 25-H ) :   0.9048
B(  5-C , 26-H ) :   0.8774 B(  6-C ,  7-H ) :   0.8551 B(  6-C ,  8-C ) :   0.8793
B(  6-C , 13-S ) :   1.0480 B(  8-C ,  9-O ) :   1.9244 B(  8-C , 10-O ) :   1.2721
B(  9-O , 14-P ) :   0.1103 B( 10-O , 11-C ) :   0.8981 B( 11-C , 12-C ) :   1.1783
B( 11-C , 27-H ) :   0.9136 B( 11-C , 28-H ) :   0.9363 B( 12-C , 29-H ) :   0.9326
B( 12-C , 30-H ) :   0.9419 B( 12-C , 31-H ) :   0.9483 B( 13-S , 14-P ) :   0.9192
B( 13-S , 15-S ) :   0.1067 B( 14-P , 15-S ) :   1.5938 B( 14-P , 16-O ) :   1.1007
B( 14-P , 18-O ) :   1.0854 B( 16-O , 17-C ) :   0.9365 B( 17-C , 32-H ) :   0.9462
B( 17-C , 33-H ) :   0.9360 B( 17-C , 34-H ) :   0.9606 B( 18-O , 19-C ) :   0.9319
B( 19-C , 35-H ) :   0.9484 B( 19-C , 36-H ) :   0.9532 B( 19-C , 37-H ) :   0.9420

Dispersion correction           -0.053687595
FINAL SINGLE POINT ENERGY     -1979.011168657006

DIPOLE MOMENT
-------------

Method             : SCF
Type of density    : Electron Density
Multiplicity       :   1
Irrep              :   0
Energy             : -1979.1416979961209108 Eh
Relativity type    :
Basis              : AO
                                X                 Y                 Z
Electronic contribution:    -10.695060315       5.285068775      -8.133730681
Nuclear contribution   :     11.878999350      -5.853123688       8.963434727
                        -----------------------------------------
Total Dipole Moment    :      1.183939034      -0.568054913       0.829704046
                        -----------------------------------------
Magnitude (a.u.)       :      1.553321224
Magnitude (Debye)      :      3.948228781

Rotational constants in cm-1:             0.012142             0.008487             0.006651
Rotational constants in MHz :           364.002922           254.435117           199.381370

                             ****ORCA TERMINATED NORMALLY****
TOTAL RUN TIME: 0 days 0 hours 0 minutes 28 seconds 849 msec
