                         Program Version 6.0.0  -   RELEASE  -
|  1> ! r2scan-3c def2/J RI DEFGRID2 scfconv6 printgap
|  2> %output
|  3>     printlevel normal
|  4> end
|  5> * xyz 0 1
|  6> C 4.7710159074 -1.3549013876 -1.0223850207
|  7> C 4.7484210924 0.0532532117 -0.4642550569
|  8> O 3.5798813255 0.2993577429 0.3377172251
|  9> P 2.1145464841 0.3720486702 -0.282639649
| 10> S 2.0571374517 1.2434936342 -2.0431937649
| 11> O 1.3371163387 1.0584912153 0.9133678846
| 12> C 1.4544831245 2.4767929192 1.1607227352
| 13> C 0.5597532593 2.8121382733 2.3343597591
| 14> S 1.3879628137 -1.5896974833 -0.1362498499
| 15> C 0.1911668066 -1.5935102141 -1.5163944045
| 16> S -1.4991117199 -1.9190822864 -0.9751111475
| 17> P -1.8471902088 -0.1028781632 0.0813337004
| 18> S -1.3361353347 1.5344640005 -0.8601764492
| 19> O -1.1612134766 -0.243015627 1.4878812587
| 20> C -1.3828624934 -1.3620648779 2.3847304504
| 21> C -2.4333993948 -1.017727181 3.4193924594
| 22> O -3.3923138215 -0.2248524015 0.4277670494
| 23> C -4.3990615195 -0.0989413722 -0.597618961
| 24> C -5.738249914 0.085084115 0.0866091225
| 25> H 4.6309716307 -2.0804484055 -0.2251567137
| 26> H 3.9729536212 -1.4755252451 -1.753706084
| 27> H 5.7242863621 -1.5313121967 -1.5100337329
| 28> H 4.7695567739 0.7882106644 -1.2752957992
| 29> H 5.5774185428 0.2302876211 0.2222045545
| 30> H 2.5029020871 2.7057950215 1.3700577691
| 31> H 1.1424406997 3.008158866 0.254721194
| 32> H 0.8716881814 2.2523525147 3.2110828543
| 33> H 0.6213291488 3.8762534916 2.5373597704
| 34> H -0.4679271011 2.5498762258 2.0943315227
| 35> H 0.4528423476 -2.4076799456 -2.1871618369
| 36> H 0.2424682037 -0.6279031048 -2.0275966974
| 37> H -1.6763216066 -2.2361794167 1.7965977011
| 38> H -0.4072393139 -1.5384528778 2.8419469
| 39> H -3.3879010362 -0.8271330132 2.9363147811
| 40> H -2.5381969149 -1.8515427105 4.1064883225
| 41> H -2.1374926497 -0.1311523667 3.9733740032
| 42> H -4.1467052404 0.7597584199 -1.2283458943
| 43> H -4.380831965 -1.0070479604 -1.2059525111
| 44> H -5.9542152723 -0.7717736268 0.7179991962
| 45> H -5.72491021 0.9823808188 0.6989074084
| 46> H -6.5121159697 0.1786877867 -0.6680291974
| 47> *
| 48>
| 49>                          ****END OF INPUT****

CARTESIAN COORDINATES (ANGSTROEM)
---------------------------------
  C      4.771016   -1.354901   -1.022385
  C      4.748421    0.053253   -0.464255
  O      3.579881    0.299358    0.337717
  P      2.114546    0.372049   -0.282640
  S      2.057137    1.243494   -2.043194
  O      1.337116    1.058491    0.913368
  C      1.454483    2.476793    1.160723
  C      0.559753    2.812138    2.334360
  S      1.387963   -1.589697   -0.136250
  C      0.191167   -1.593510   -1.516394
  S     -1.499112   -1.919082   -0.975111
  P     -1.847190   -0.102878    0.081334
  S     -1.336135    1.534464   -0.860176
  O     -1.161213   -0.243016    1.487881
  C     -1.382862   -1.362065    2.384730
  C     -2.433399   -1.017727    3.419392
  O     -3.392314   -0.224852    0.427767
  C     -4.399062   -0.098941   -0.597619
  C     -5.738250    0.085084    0.086609
  H      4.630972   -2.080448   -0.225157
  H      3.972954   -1.475525   -1.753706
  H      5.724286   -1.531312   -1.510034
  H      4.769557    0.788211   -1.275296
  H      5.577419    0.230288    0.222205
  H      2.502902    2.705795    1.370058
  H      1.142441    3.008159    0.254721
  H      0.871688    2.252353    3.211083
  H      0.621329    3.876253    2.537360
  H     -0.467927    2.549876    2.094332
  H      0.452842   -2.407680   -2.187162
  H      0.242468   -0.627903   -2.027597
  H     -1.676322   -2.236179    1.796598
  H     -0.407239   -1.538453    2.841947
  H     -3.387901   -0.827133    2.936315
  H     -2.538197   -1.851543    4.106488
  H     -2.137493   -0.131152    3.973374
  H     -4.146705    0.759758   -1.228346
  H     -4.380832   -1.007048   -1.205953
  H     -5.954215   -0.771774    0.717999
  H     -5.724910    0.982381    0.698907
  H     -6.512116    0.178688   -0.668029

 Total Charge           Charge          ....    0
 Multiplicity           Mult            ....    1
 Number of Electrons    NEL             ....  202
 Basis Dimension        Dim             ....  539

ORBITAL ENERGIES
----------------

  NO   OCC          E(Eh)            E(eV)
   0   2.0000     -88.575466     -2410.2610
   1   2.0000     -88.573873     -2410.2176
   2   2.0000     -88.512745     -2408.5542
   3   2.0000     -88.511973     -2408.5332
   4   2.0000     -76.910884     -2092.8516
   5   2.0000     -76.906227     -2092.7248
   6   2.0000     -18.993183      -516.8308
   7   2.0000     -18.990206      -516.7498
   8   2.0000     -18.985195      -516.6134
   9   2.0000     -18.976615      -516.3799
  10   2.0000     -10.106162      -275.0026
  11   2.0000     -10.100105      -274.8378
  12   2.0000     -10.100024      -274.8356
  13   2.0000     -10.092300      -274.6254
  14   2.0000     -10.084939      -274.4251
  15   2.0000     -10.035216      -273.0721
  16   2.0000     -10.030929      -272.9554
  17   2.0000     -10.024447      -272.7791
  18   2.0000     -10.018214      -272.6095
  19   2.0000      -7.869994      -214.1534
  20   2.0000      -7.868583      -214.1150
  21   2.0000      -7.807494      -212.4527
  22   2.0000      -7.806693      -212.4309
  23   2.0000      -6.589401      -179.3067
  24   2.0000      -6.584820      -179.1821
  25   2.0000      -5.816810      -158.2834
  26   2.0000      -5.815403      -158.2452
  27   2.0000      -5.813613      -158.1965
  28   2.0000      -5.812488      -158.1658
  29   2.0000      -5.807363      -158.0264
  30   2.0000      -5.805616      -157.9789
  31   2.0000      -5.755295      -156.6095
  32   2.0000      -5.754321      -156.5830
  33   2.0000      -5.747681      -156.4023
  34   2.0000      -5.747446      -156.3959
  35   2.0000      -5.747214      -156.3896
  36   2.0000      -5.746479      -156.3697
  37   2.0000      -4.735229      -128.8521
  38   2.0000      -4.734544      -128.8335
  39   2.0000      -4.732614      -128.7810
  40   2.0000      -4.730237      -128.7163
  41   2.0000      -4.729621      -128.6995
  42   2.0000      -4.728730      -128.6753
  43   2.0000      -1.051327       -28.6081
  44   2.0000      -1.041079       -28.3292
  45   2.0000      -1.010757       -27.5041
  46   2.0000      -0.999528       -27.1985
  47   2.0000      -0.799437       -21.7538
  48   2.0000      -0.758086       -20.6286
  49   2.0000      -0.746226       -20.3058
  50   2.0000      -0.737085       -20.0571
  51   2.0000      -0.724175       -19.7058
  52   2.0000      -0.708034       -19.2666
  53   2.0000      -0.681034       -18.5319
  54   2.0000      -0.660560       -17.9747
  55   2.0000      -0.624155       -16.9841
  56   2.0000      -0.618567       -16.8321
  57   2.0000      -0.603646       -16.4260
  58   2.0000      -0.597983       -16.2719
  59   2.0000      -0.587807       -15.9950
  60   2.0000      -0.532169       -14.4811
  61   2.0000      -0.519711       -14.1421
  62   2.0000      -0.500740       -13.6258
  63   2.0000      -0.484771       -13.1913
  64   2.0000      -0.465595       -12.6695
  65   2.0000      -0.463043       -12.6000
  66   2.0000      -0.457576       -12.4513
  67   2.0000      -0.450609       -12.2617
  68   2.0000      -0.443900       -12.0791
  69   2.0000      -0.435904       -11.8615
  70   2.0000      -0.423662       -11.5284
  71   2.0000      -0.408926       -11.1274
  72   2.0000      -0.404194       -10.9987
  73   2.0000      -0.400080       -10.8867
  74   2.0000      -0.396624       -10.7927
  75   2.0000      -0.382426       -10.4063
  76   2.0000      -0.377187       -10.2638
  77   2.0000      -0.370756       -10.0888
  78   2.0000      -0.369062       -10.0427
  79   2.0000      -0.363181        -9.8826
  80   2.0000      -0.360701        -9.8152
  81   2.0000      -0.358348        -9.7511
  82   2.0000      -0.353344        -9.6150
  83   2.0000      -0.347709        -9.4617
  84   2.0000      -0.338954        -9.2234
  85   2.0000      -0.329908        -8.9772
  86   2.0000      -0.322241        -8.7686
  87   2.0000      -0.316020        -8.5993
  88   2.0000      -0.308493        -8.3945
  89   2.0000      -0.304574        -8.2879
  90   2.0000      -0.294649        -8.0178
  91   2.0000      -0.287351        -7.8192
  92   2.0000      -0.277634        -7.5548
  93   2.0000      -0.275017        -7.4836
  94   2.0000      -0.270024        -7.3477
  95   2.0000      -0.249117        -6.7788
  96   2.0000      -0.231670        -6.3041
  97   2.0000      -0.225463        -6.1352
  98   2.0000      -0.214874        -5.8470
  99   2.0000      -0.203956        -5.5499
 100   2.0000      -0.195101        -5.3090
 101   0.0000      -0.042565        -1.1583
 102   0.0000      -0.030441        -0.8283
 103   0.0000      -0.006948        -0.1891
 104   0.0000       0.016515         0.4494
 105   0.0000       0.017710         0.4819

MULLIKEN ATOMIC CHARGES
-----------------------
   0 C :   -0.445729
   1 C :   -0.157529
   2 O :   -0.313754
   3 P :    0.665346
   4 S :   -0.467892
   5 O :   -0.255528
   6 C :   -0.129073
   7 C :   -0.469313
   8 S :   -0.126175
   9 C :   -0.222934
  10 S :   -0.175325
  11 P :    0.664938
  12 S :   -0.414994
  13 O :   -0.255197
  14 C :   -0.113866
  15 C :   -0.463290
  16 O :   -0.290289
  17 C :   -0.158758
  18 C :   -0.441647
  19 H :    0.153290
  20 H :    0.172966
  21 H :    0.146243
  22 H :    0.174541
  23 H :    0.145520
  24 H :    0.146150
  25 H :    0.175075
  26 H :    0.145563
  27 H :    0.141994
  28 H :    0.178731
  29 H :    0.194060
  30 H :    0.219751
  31 H :    0.162656
  32 H :    0.164580
  33 H :    0.166054
  34 H :    0.146631
  35 H :    0.156176
  36 H :    0.173954
  37 H :    0.149037
  38 H :    0.150385
  39 H :    0.159585
  40 H :    0.148067
Sum of atomic charges:   -0.0000000

LOEWDIN ATOMIC CHARGES
----------------------
   0 C :   -0.408168
   1 C :    0.017160
   2 O :   -0.666581
   3 P :    0.370262
   4 S :   -0.128623
   5 O :   -0.674901
   6 C :    0.017909
   7 C :   -0.390543
   8 S :    0.177527
   9 C :   -0.412483
  10 S :    0.118762
  11 P :    0.375084
  12 S :   -0.066071
  13 O :   -0.651335
  14 C :    0.019357
  15 C :   -0.393407
  16 O :   -0.676997
  17 C :    0.018884
  18 C :   -0.386343
  19 H :    0.159553
  20 H :    0.164101
  21 H :    0.158142
  22 H :    0.180285
  23 H :    0.178077
  24 H :    0.170459
  25 H :    0.182974
  26 H :    0.156719
  27 H :    0.157572
  28 H :    0.169301
  29 H :    0.180111
  30 H :    0.202791
  31 H :    0.177347
  32 H :    0.183068
  33 H :    0.166336
  34 H :    0.158587
  35 H :    0.160561
  36 H :    0.182262
  37 H :    0.171456
  38 H :    0.158043
  39 H :    0.162047
  40 H :    0.160714

  Mayer bond orders larger than 0.100000
B(  0-C ,  1-C ) :   0.9205 B(  0-C , 19-H ) :   0.9678 B(  0-C , 20-H ) :   0.9654
B(  0-C , 21-H ) :   0.9599 B(  1-C ,  2-O ) :   0.8268 B(  1-C , 22-H ) :   0.9671
B(  1-C , 23-H ) :   0.9594 B(  2-O ,  3-P ) :   1.0530 B(  3-P ,  4-S ) :   1.7463
B(  3-P ,  5-O ) :   1.1905 B(  3-P ,  8-S ) :   1.1245 B(  5-O ,  6-C ) :   0.7654
B(  6-C ,  7-C ) :   0.9376 B(  6-C , 24-H ) :   0.9438 B(  6-C , 25-H ) :   0.9502
B(  7-C , 26-H ) :   0.9731 B(  7-C , 27-H ) :   0.9665 B(  7-C , 28-H ) :   0.9689
B(  8-S ,  9-C ) :   0.8948 B(  9-C , 10-S ) :   0.9220 B(  9-C , 29-H ) :   0.9141
B(  9-C , 30-H ) :   0.9043 B( 10-S , 11-P ) :   0.9938 B( 11-P , 12-S ) :   1.8506
B( 11-P , 13-O ) :   1.1333 B( 11-P , 16-O ) :   1.0466 B( 13-O , 14-C ) :   0.7275
B( 14-C , 15-C ) :   0.9348 B( 14-C , 31-H ) :   0.9606 B( 14-C , 32-H ) :   0.9620
B( 15-C , 33-H ) :   0.9665 B( 15-C , 34-H ) :   0.9667 B( 15-C , 35-H ) :   0.9740
B( 16-O , 17-C ) :   0.7916 B( 17-C , 18-C ) :   0.9559 B( 17-C , 36-H ) :   0.9498
B( 17-C , 37-H ) :   0.9423 B( 18-C , 38-H ) :   0.9719 B( 18-C , 39-H ) :   0.9713
B( 18-C , 40-H ) :   0.9633

Dispersion correction           -0.021986013
FINAL SINGLE POINT ENERGY     -2932.459754794458

DIPOLE MOMENT
-------------

Method             : SCF
Type of density    : Electron Density
Multiplicity       :   1
Irrep              :   0
Energy             : -2932.4843177814432238 Eh
Relativity type    :
Basis              : AO
                                X                 Y                 Z
Electronic contribution:      6.261191385      -1.586210040     -13.052030038
Nuclear contribution   :     -6.654176923       0.587158759      14.115446081
                        -----------------------------------------
Total Dipole Moment    :     -0.392985538      -0.999051281       1.063416043
                        -----------------------------------------
Magnitude (a.u.)       :      1.511090591
Magnitude (Debye)      :      3.840887042

Rotational constants in cm-1:             0.012956             0.005188             0.004964
Rotational constants in MHz :           388.411787           155.542721           148.807458

                             ****ORCA TERMINATED NORMALLY****
TOTAL RUN TIME: 0 days 0 hours 1 minutes 21 seconds 589 msec
