                         Program Version 6.0.0  -   RELEASE  -
|  1> ! r2scan-3c def2/J RI DEFGRID2 scfconv6 printgap
|  2> %output
|  3>     printlevel normal
|  4> end
|  5> %cpcm
|  6>     smd true
|  7>     smdsolvent "water"
|  8> end
|  9> * xyz 0 1
| 10> C 4.7710159074 -1.3549013876 -1.0223850207
| 11> C 4.7484210924 0.0532532117 -0.4642550569
| 12> O 3.5798813255 0.2993577429 0.3377172251
| 13> P 2.1145464841 0.3720486702 -0.282639649
| 14> S 2.0571374517 1.2434936342 -2.0431937649
| 15> O 1.3371163387 1.0584912153 0.9133678846
| 16> C 1.4544831245 2.4767929192 1.1607227352
| 17> C 0.5597532593 2.8121382733 2.3343597591
| 18> S 1.3879628137 -1.5896974833 -0.1362498499
| 19> C 0.1911668066 -1.5935102141 -1.5163944045
| 20> S -1.4991117199 -1.9190822864 -0.9751111475
| 21> P -1.8471902088 -0.1028781632 0.0813337004
| 22> S -1.3361353347 1.5344640005 -0.8601764492
| 23> O -1.1612134766 -0.243015627 1.4878812587
| 24> C -1.3828624934 -1.3620648779 2.3847304504
| 25> C -2.4333993948 -1.017727181 3.4193924594
| 26> O -3.3923138215 -0.2248524015 0.4277670494
| 27> C -4.3990615195 -0.0989413722 -0.597618961
| 28> C -5.738249914 0.085084115 0.0866091225
| 29> H 4.6309716307 -2.0804484055 -0.2251567137
| 30> H 3.9729536212 -1.4755252451 -1.753706084
| 31> H 5.7242863621 -1.5313121967 -1.5100337329
| 32> H 4.7695567739 0.7882106644 -1.2752957992
| 33> H 5.5774185428 0.2302876211 0.2222045545
| 34> H 2.5029020871 2.7057950215 1.3700577691
| 35> H 1.1424406997 3.008158866 0.254721194
| 36> H 0.8716881814 2.2523525147 3.2110828543
| 37> H 0.6213291488 3.8762534916 2.5373597704
| 38> H -0.4679271011 2.5498762258 2.0943315227
| 39> H 0.4528423476 -2.4076799456 -2.1871618369
| 40> H 0.2424682037 -0.6279031048 -2.0275966974
| 41> H -1.6763216066 -2.2361794167 1.7965977011
| 42> H -0.4072393139 -1.5384528778 2.8419469
| 43> H -3.3879010362 -0.8271330132 2.9363147811
| 44> H -2.5381969149 -1.8515427105 4.1064883225
| 45> H -2.1374926497 -0.1311523667 3.9733740032
| 46> H -4.1467052404 0.7597584199 -1.2283458943
| 47> H -4.380831965 -1.0070479604 -1.2059525111
| 48> H -5.9542152723 -0.7717736268 0.7179991962
| 49> H -5.72491021 0.9823808188 0.6989074084
| 50> H -6.5121159697 0.1786877867 -0.6680291974
| 51> *
| 52>
| 53>                          ****END OF INPUT****

CARTESIAN COORDINATES (ANGSTROEM)
---------------------------------
  C      4.771016   -1.354901   -1.022385
  C      4.748421    0.053253   -0.464255
  O      3.579881    0.299358    0.337717
  P      2.114546    0.372049   -0.282640
  S      2.057137    1.243494   -2.043194
  O      1.337116    1.058491    0.913368
  C      1.454483    2.476793    1.160723
  C      0.559753    2.812138    2.334360
  S      1.387963   -1.589697   -0.136250
  C      0.191167   -1.593510   -1.516394
  S     -1.499112   -1.919082   -0.975111
  P     -1.847190   -0.102878    0.081334
  S     -1.336135    1.534464   -0.860176
  O     -1.161213   -0.243016    1.487881
  C     -1.382862   -1.362065    2.384730
  C     -2.433399   -1.017727    3.419392
  O     -3.392314   -0.224852    0.427767
  C     -4.399062   -0.098941   -0.597619
  C     -5.738250    0.085084    0.086609
  H      4.630972   -2.080448   -0.225157
  H      3.972954   -1.475525   -1.753706
  H      5.724286   -1.531312   -1.510034
  H      4.769557    0.788211   -1.275296
  H      5.577419    0.230288    0.222205
  H      2.502902    2.705795    1.370058
  H      1.142441    3.008159    0.254721
  H      0.871688    2.252353    3.211083
  H      0.621329    3.876253    2.537360
  H     -0.467927    2.549876    2.094332
  H      0.452842   -2.407680   -2.187162
  H      0.242468   -0.627903   -2.027597
  H     -1.676322   -2.236179    1.796598
  H     -0.407239   -1.538453    2.841947
  H     -3.387901   -0.827133    2.936315
  H     -2.538197   -1.851543    4.106488
  H     -2.137493   -0.131152    3.973374
  H     -4.146705    0.759758   -1.228346
  H     -4.380832   -1.007048   -1.205953
  H     -5.954215   -0.771774    0.717999
  H     -5.724910    0.982381    0.698907
  H     -6.512116    0.178688   -0.668029

 Total Charge           Charge          ....    0
 Multiplicity           Mult            ....    1
 Number of Electrons    NEL             ....  202
 Basis Dimension        Dim             ....  539

ORBITAL ENERGIES
----------------

  NO   OCC          E(Eh)            E(eV)
   0   2.0000     -88.578973     -2410.3564
   1   2.0000     -88.578711     -2410.3493
   2   2.0000     -88.523911     -2408.8581
   3   2.0000     -88.522969     -2408.8325
   4   2.0000     -76.917169     -2093.0226
   5   2.0000     -76.915836     -2092.9863
   6   2.0000     -18.994544      -516.8678
   7   2.0000     -18.994315      -516.8616
   8   2.0000     -18.991870      -516.7951
   9   2.0000     -18.986702      -516.6544
  10   2.0000     -10.105697      -274.9900
  11   2.0000     -10.091558      -274.6052
  12   2.0000     -10.090470      -274.5756
  13   2.0000     -10.087277      -274.4888
  14   2.0000     -10.086339      -274.4632
  15   2.0000     -10.019797      -272.6525
  16   2.0000     -10.018336      -272.6128
  17   2.0000     -10.017254      -272.5833
  18   2.0000     -10.017248      -272.5832
  19   2.0000      -7.873621      -214.2521
  20   2.0000      -7.873159      -214.2395
  21   2.0000      -7.818968      -212.7649
  22   2.0000      -7.818085      -212.7409
  23   2.0000      -6.595717      -179.4786
  24   2.0000      -6.594472      -179.4447
  25   2.0000      -5.820469      -158.3830
  26   2.0000      -5.819983      -158.3698
  27   2.0000      -5.817535      -158.3032
  28   2.0000      -5.816793      -158.2830
  29   2.0000      -5.810637      -158.1155
  30   2.0000      -5.810520      -158.1123
  31   2.0000      -5.766516      -156.9149
  32   2.0000      -5.765771      -156.8946
  33   2.0000      -5.759497      -156.7239
  34   2.0000      -5.758761      -156.7039
  35   2.0000      -5.758314      -156.6917
  36   2.0000      -5.758038      -156.6842
  37   2.0000      -4.741493      -129.0226
  38   2.0000      -4.740819      -129.0042
  39   2.0000      -4.739860      -128.9782
  40   2.0000      -4.739258      -128.9618
  41   2.0000      -4.739064      -128.9565
  42   2.0000      -4.738457      -128.9400
  43   2.0000      -1.053916       -28.6785
  44   2.0000      -1.048952       -28.5434
  45   2.0000      -1.012775       -27.5590
  46   2.0000      -1.007255       -27.4088
  47   2.0000      -0.801872       -21.8200
  48   2.0000      -0.756299       -20.5800
  49   2.0000      -0.744952       -20.2712
  50   2.0000      -0.727043       -19.7838
  51   2.0000      -0.721537       -19.6340
  52   2.0000      -0.709880       -19.3168
  53   2.0000      -0.686556       -18.6821
  54   2.0000      -0.668924       -18.2024
  55   2.0000      -0.626329       -17.0433
  56   2.0000      -0.614627       -16.7249
  57   2.0000      -0.598616       -16.2892
  58   2.0000      -0.595005       -16.1909
  59   2.0000      -0.588579       -16.0160
  60   2.0000      -0.529447       -14.4070
  61   2.0000      -0.522376       -14.2146
  62   2.0000      -0.497605       -13.5405
  63   2.0000      -0.487216       -13.2578
  64   2.0000      -0.467632       -12.7249
  65   2.0000      -0.460203       -12.5228
  66   2.0000      -0.457775       -12.4567
  67   2.0000      -0.448305       -12.1990
  68   2.0000      -0.441733       -12.0202
  69   2.0000      -0.436218       -11.8701
  70   2.0000      -0.420469       -11.4415
  71   2.0000      -0.412284       -11.2188
  72   2.0000      -0.402372       -10.9491
  73   2.0000      -0.399367       -10.8673
  74   2.0000      -0.390873       -10.6362
  75   2.0000      -0.384550       -10.4641
  76   2.0000      -0.375636       -10.2216
  77   2.0000      -0.364946        -9.9307
  78   2.0000      -0.360910        -9.8209
  79   2.0000      -0.359412        -9.7801
  80   2.0000      -0.356215        -9.6931
  81   2.0000      -0.350660        -9.5419
  82   2.0000      -0.349900        -9.5213
  83   2.0000      -0.345182        -9.3929
  84   2.0000      -0.340066        -9.2537
  85   2.0000      -0.325703        -8.8628
  86   2.0000      -0.324665        -8.8346
  87   2.0000      -0.313863        -8.5407
  88   2.0000      -0.307570        -8.3694
  89   2.0000      -0.304077        -8.2744
  90   2.0000      -0.298029        -8.1098
  91   2.0000      -0.288207        -7.8425
  92   2.0000      -0.280533        -7.6337
  93   2.0000      -0.278452        -7.5771
  94   2.0000      -0.273623        -7.4456
  95   2.0000      -0.253185        -6.8895
  96   2.0000      -0.239576        -6.5192
  97   2.0000      -0.236589        -6.4379
  98   2.0000      -0.226452        -6.1621
  99   2.0000      -0.213647        -5.8136
 100   2.0000      -0.207180        -5.6376
 101   0.0000      -0.047524        -1.2932
 102   0.0000      -0.037354        -1.0164
 103   0.0000      -0.011288        -0.3072
 104   0.0000       0.008807         0.2396
 105   0.0000       0.014366         0.3909

MULLIKEN ATOMIC CHARGES
-----------------------
   0 C :   -0.479869
   1 C :   -0.156212
   2 O :   -0.340460
   3 P :    0.701362
   4 S :   -0.526197
   5 O :   -0.283146
   6 C :   -0.126601
   7 C :   -0.511929
   8 S :   -0.123694
   9 C :   -0.222215
  10 S :   -0.173544
  11 P :    0.679004
  12 S :   -0.472448
  13 O :   -0.286625
  14 C :   -0.100121
  15 C :   -0.503389
  16 O :   -0.310524
  17 C :   -0.149185
  18 C :   -0.481178
  19 H :    0.166468
  20 H :    0.171144
  21 H :    0.171148
  22 H :    0.176744
  23 H :    0.172650
  24 H :    0.169916
  25 H :    0.173995
  26 H :    0.166831
  27 H :    0.169146
  28 H :    0.170354
  29 H :    0.236406
  30 H :    0.212364
  31 H :    0.175320
  32 H :    0.181582
  33 H :    0.169387
  34 H :    0.171396
  35 H :    0.167771
  36 H :    0.173762
  37 H :    0.168155
  38 H :    0.165924
  39 H :    0.166945
  40 H :    0.169563
Sum of atomic charges:   -0.0000000

LOEWDIN ATOMIC CHARGES
----------------------
   0 C :   -0.410540
   1 C :    0.022362
   2 O :   -0.678163
   3 P :    0.375398
   4 S :   -0.165518
   5 O :   -0.693115
   6 C :    0.019587
   7 C :   -0.394522
   8 S :    0.182382
   9 C :   -0.406333
  10 S :    0.127909
  11 P :    0.377254
  12 S :   -0.107482
  13 O :   -0.671786
  14 C :    0.025973
  15 C :   -0.395436
  16 O :   -0.684091
  17 C :    0.023129
  18 C :   -0.389279
  19 H :    0.163123
  20 H :    0.161109
  21 H :    0.167304
  22 H :    0.180932
  23 H :    0.189540
  24 H :    0.179612
  25 H :    0.182149
  26 H :    0.162827
  27 H :    0.167870
  28 H :    0.163837
  29 H :    0.197031
  30 H :    0.199595
  31 H :    0.183070
  32 H :    0.190040
  33 H :    0.165851
  34 H :    0.168783
  35 H :    0.163225
  36 H :    0.181654
  37 H :    0.179182
  38 H :    0.163060
  39 H :    0.163446
  40 H :    0.169029

  Mayer bond orders larger than 0.100000
B(  0-C ,  1-C ) :   0.9104 B(  0-C , 19-H ) :   0.9655 B(  0-C , 20-H ) :   0.9651
B(  0-C , 21-H ) :   0.9546 B(  1-C ,  2-O ) :   0.8140 B(  1-C , 22-H ) :   0.9648
B(  1-C , 23-H ) :   0.9497 B(  2-O ,  3-P ) :   1.0619 B(  3-P ,  4-S ) :   1.6926
B(  3-P ,  5-O ) :   1.1898 B(  3-P ,  8-S ) :   1.1500 B(  5-O ,  6-C ) :   0.7578
B(  6-C ,  7-C ) :   0.9273 B(  6-C , 24-H ) :   0.9356 B(  6-C , 25-H ) :   0.9475
B(  7-C , 26-H ) :   0.9697 B(  7-C , 27-H ) :   0.9605 B(  7-C , 28-H ) :   0.9710
B(  8-S ,  9-C ) :   0.8881 B(  9-C , 10-S ) :   0.9146 B(  9-C , 29-H ) :   0.8980
B(  9-C , 30-H ) :   0.9090 B( 10-S , 11-P ) :   1.0168 B( 11-P , 12-S ) :   1.8156
B( 11-P , 13-O ) :   1.1372 B( 11-P , 16-O ) :   1.0573 B( 13-O , 14-C ) :   0.7173
B( 14-C , 15-C ) :   0.9284 B( 14-C , 31-H ) :   0.9514 B( 14-C , 32-H ) :   0.9527
B( 15-C , 33-H ) :   0.9659 B( 15-C , 34-H ) :   0.9598 B( 15-C , 35-H ) :   0.9721
B( 16-O , 17-C ) :   0.7829 B( 17-C , 18-C ) :   0.9558 B( 17-C , 36-H ) :   0.9469
B( 17-C , 37-H ) :   0.9335 B( 18-C , 38-H ) :   0.9683 B( 18-C , 39-H ) :   0.9690
B( 18-C , 40-H ) :   0.9577

Dispersion correction           -0.021986013
FINAL SINGLE POINT ENERGY     -2932.468998480754

DIPOLE MOMENT
-------------

Method             : SCF
Type of density    : Electron Density
Multiplicity       :   1
Irrep              :   0
Energy             : -2932.4935614677392550 Eh
Relativity type    :
Basis              : AO
                                X                 Y                 Z
Electronic contribution:      6.281683429      -2.216945372     -12.799244305
Nuclear contribution   :     -6.654176923       0.587158759      14.115446081
                        -----------------------------------------
Total Dipole Moment    :     -0.372493494      -1.629786613       1.316201776
                        -----------------------------------------
Magnitude (a.u.)       :      2.127755372
Magnitude (Debye)      :      5.408324348

Rotational constants in cm-1:             0.012956             0.005188             0.004964
Rotational constants in MHz :           388.411787           155.542721           148.807458

                             ****ORCA TERMINATED NORMALLY****
TOTAL RUN TIME: 0 days 0 hours 1 minutes 57 seconds 642 msec
