                         Program Version 6.0.0  -   RELEASE  -
|  1> ! r2scan-3c def2/J RI DEFGRID2 scfconv6 printgap
|  2> %output
|  3>     printlevel normal
|  4> end
|  5> * xyz 0 1
|  6> C -0.5902916365 0.0756805556 -0.4638200857
|  7> C 0.6006735144 -0.0688059983 0.4888748103
|  8> O 1.7808819535 0.0333168714 -0.2779436969
|  9> O -1.8287226952 0.0153307162 0.200624771
| 10> H -0.5172707643 -0.6904335079 -1.2454867023
| 11> H -0.5466159139 1.0564835014 -0.9421679087
| 12> H 0.5535402558 -1.0444287703 0.9926552478
| 13> H 0.5507527349 0.7237550392 1.2462984559
| 14> H 2.5490059678 -0.0295809448 0.306374214
| 15> H -1.9537306645 -0.8699139197 0.5710827978
| 16> *
| 17>
| 18>                          ****END OF INPUT****

CARTESIAN COORDINATES (ANGSTROEM)
---------------------------------
  C     -0.590292    0.075681   -0.463820
  C      0.600674   -0.068806    0.488875
  O      1.780882    0.033317   -0.277944
  O     -1.828723    0.015331    0.200625
  H     -0.517271   -0.690434   -1.245487
  H     -0.546616    1.056484   -0.942168
  H      0.553540   -1.044429    0.992655
  H      0.550753    0.723755    1.246298
  H      2.549006   -0.029581    0.306374
  H     -1.953731   -0.869914    0.571083

 Total Charge           Charge          ....    0
 Multiplicity           Mult            ....    1
 Number of Electrons    NEL             ....   34
 Basis Dimension        Dim             ....  116

ORBITAL ENERGIES
----------------

  NO   OCC          E(Eh)            E(eV)
   0   2.0000     -18.955723      -515.8114
   1   2.0000     -18.954828      -515.7871
   2   2.0000     -10.079621      -274.2804
   3   2.0000     -10.076266      -274.1891
   4   2.0000      -0.996979       -27.1292
   5   2.0000      -0.986477       -26.8434
   6   2.0000      -0.701972       -19.1016
   7   2.0000      -0.589345       -16.0369
   8   2.0000      -0.497980       -13.5507
   9   2.0000      -0.469905       -12.7868
  10   2.0000      -0.431427       -11.7397
  11   2.0000      -0.399068       -10.8592
  12   2.0000      -0.371437       -10.1073
  13   2.0000      -0.320692        -8.7265
  14   2.0000      -0.295920        -8.0524
  15   2.0000      -0.243979        -6.6390
  16   2.0000      -0.242936        -6.6106
  17   0.0000       0.038065         1.0358
  18   0.0000       0.071126         1.9354
  19   0.0000       0.131514         3.5787
  20   0.0000       0.142314         3.8726
  21   0.0000       0.147824         4.0225

MULLIKEN ATOMIC CHARGES
-----------------------
   0 C :   -0.155625
   1 C :   -0.104628
   2 O :   -0.433971
   3 O :   -0.418981
   4 H :    0.135586
   5 H :    0.144577
   6 H :    0.108571
   7 H :    0.130667
   8 H :    0.297269
   9 H :    0.296537
Sum of atomic charges:    0.0000000

LOEWDIN ATOMIC CHARGES
----------------------
   0 C :    0.029336
   1 C :    0.017060
   2 O :   -0.624854
   3 O :   -0.608752
   4 H :    0.160797
   5 H :    0.181152
   6 H :    0.150662
   7 H :    0.159550
   8 H :    0.268707
   9 H :    0.266342

  Mayer bond orders larger than 0.100000
B(  0-C ,  1-C ) :   0.9505 B(  0-C ,  3-O ) :   0.9528 B(  0-C ,  4-H ) :   0.9733
B(  0-C ,  5-H ) :   0.9658 B(  1-C ,  2-O ) :   0.9253 B(  1-C ,  6-H ) :   0.9561
B(  1-C ,  7-H ) :   0.9578 B(  2-O ,  8-H ) :   0.8979 B(  3-O ,  9-H ) :   0.8956

Dispersion correction           -0.001534539
FINAL SINGLE POINT ENERGY      -230.206425992260

DIPOLE MOMENT
-------------

Method             : SCF
Type of density    : Electron Density
Multiplicity       :   1
Irrep              :   0
Energy             :  -230.2121837114372340 Eh
Relativity type    :
Basis              : AO
                                X                 Y                 Z
Electronic contribution:     -0.188276419       0.267445355      -0.308107988
Nuclear contribution   :      0.595668519      -0.800588222       0.870185107
                        -----------------------------------------
Total Dipole Moment    :      0.407392101      -0.533142867       0.562077118
                        -----------------------------------------
Magnitude (a.u.)       :      0.875294423
Magnitude (Debye)      :      2.224821614

Rotational constants in cm-1:             1.009457             0.131305             0.122647
Rotational constants in MHz :         30262.758632          3936.439535          3676.877530

                             ****ORCA TERMINATED NORMALLY****
TOTAL RUN TIME: 0 days 0 hours 0 minutes 10 seconds 177 msec
