                         Program Version 6.0.0  -   RELEASE  -
|  1> ! r2scan-3c def2/J RI DEFGRID2 scfconv6 printgap
|  2> %output
|  3>     printlevel normal
|  4> end
|  5> %cpcm
|  6>     smd true
|  7>     smdsolvent "water"
|  8> end
|  9> * xyz 0 1
| 10> C -0.5902916365 0.0756805556 -0.4638200857
| 11> C 0.6006735144 -0.0688059983 0.4888748103
| 12> O 1.7808819535 0.0333168714 -0.2779436969
| 13> O -1.8287226952 0.0153307162 0.200624771
| 14> H -0.5172707643 -0.6904335079 -1.2454867023
| 15> H -0.5466159139 1.0564835014 -0.9421679087
| 16> H 0.5535402558 -1.0444287703 0.9926552478
| 17> H 0.5507527349 0.7237550392 1.2462984559
| 18> H 2.5490059678 -0.0295809448 0.306374214
| 19> H -1.9537306645 -0.8699139197 0.5710827978
| 20> *
| 21>
| 22>                          ****END OF INPUT****

CARTESIAN COORDINATES (ANGSTROEM)
---------------------------------
  C     -0.590292    0.075681   -0.463820
  C      0.600674   -0.068806    0.488875
  O      1.780882    0.033317   -0.277944
  O     -1.828723    0.015331    0.200625
  H     -0.517271   -0.690434   -1.245487
  H     -0.546616    1.056484   -0.942168
  H      0.553540   -1.044429    0.992655
  H      0.550753    0.723755    1.246298
  H      2.549006   -0.029581    0.306374
  H     -1.953731   -0.869914    0.571083

 Total Charge           Charge          ....    0
 Multiplicity           Mult            ....    1
 Number of Electrons    NEL             ....   34
 Basis Dimension        Dim             ....  116

ORBITAL ENERGIES
----------------

  NO   OCC          E(Eh)            E(eV)
   0   2.0000     -18.956455      -515.8314
   1   2.0000     -18.954264      -515.7718
   2   2.0000     -10.071830      -274.0684
   3   2.0000     -10.070446      -274.0308
   4   2.0000      -0.995875       -27.0991
   5   2.0000      -0.985387       -26.8137
   6   2.0000      -0.696567       -18.9546
   7   2.0000      -0.583891       -15.8885
   8   2.0000      -0.492505       -13.4017
   9   2.0000      -0.465090       -12.6557
  10   2.0000      -0.426329       -11.6010
  11   2.0000      -0.397628       -10.8200
  12   2.0000      -0.370701       -10.0873
  13   2.0000      -0.322868        -8.7857
  14   2.0000      -0.296153        -8.0587
  15   2.0000      -0.245785        -6.6882
  16   2.0000      -0.243232        -6.6187
  17   0.0000       0.052974         1.4415
  18   0.0000       0.094285         2.5656
  19   0.0000       0.138969         3.7815
  20   0.0000       0.153467         4.1760
  21   0.0000       0.162249         4.4150

MULLIKEN ATOMIC CHARGES
-----------------------
   0 C :   -0.151888
   1 C :   -0.118788
   2 O :   -0.514530
   3 O :   -0.500861
   4 H :    0.145238
   5 H :    0.154030
   6 H :    0.140242
   7 H :    0.141344
   8 H :    0.351042
   9 H :    0.354172
Sum of atomic charges:   -0.0000000

LOEWDIN ATOMIC CHARGES
----------------------
   0 C :    0.023559
   1 C :    0.020940
   2 O :   -0.656067
   3 O :   -0.639693
   4 H :    0.166194
   5 H :    0.181490
   6 H :    0.164099
   7 H :    0.164622
   8 H :    0.288074
   9 H :    0.286782

  Mayer bond orders larger than 0.100000
B(  0-C ,  1-C ) :   0.9397 B(  0-C ,  3-O ) :   0.9485 B(  0-C ,  4-H ) :   0.9631
B(  0-C ,  5-H ) :   0.9646 B(  1-C ,  2-O ) :   0.9148 B(  1-C ,  6-H ) :   0.9570
B(  1-C ,  7-H ) :   0.9577 B(  2-O ,  8-H ) :   0.8703 B(  3-O ,  9-H ) :   0.8660

Dispersion correction           -0.001534539
FINAL SINGLE POINT ENERGY      -230.221917495002

DIPOLE MOMENT
-------------

Method             : SCF
Type of density    : Electron Density
Multiplicity       :   1
Irrep              :   0
Energy             :  -230.2276752141789302 Eh
Relativity type    :
Basis              : AO
                                X                 Y                 Z
Electronic contribution:     -0.064072552       0.039198959      -0.071185870
Nuclear contribution   :      0.595668519      -0.800588222       0.870185107
                        -----------------------------------------
Total Dipole Moment    :      0.531595967      -0.761389262       0.798999237
                        -----------------------------------------
Magnitude (a.u.)       :      1.225033739
Magnitude (Debye)      :      3.113788308

Rotational constants in cm-1:             1.009457             0.131305             0.122647
Rotational constants in MHz :         30262.758632          3936.439535          3676.877530

                             ****ORCA TERMINATED NORMALLY****
TOTAL RUN TIME: 0 days 0 hours 0 minutes 11 seconds 485 msec
