                         Program Version 6.0.0  -   RELEASE  -
|  1> ! pbe def2-sv(p) def2/J RI DEFGRID1 loosescf d4 GCP(DFT/SV(P)) printgap
|  2> %output
|  3>     printlevel normal
|  4> end
|  5> * xyz 0 1
|  6> C 3.0554610468 -1.3195628412 -2.9755915048
|  7> C 3.388423358 -0.3923401989 -1.8242941016
|  8> O 2.7432853787 -0.894200851 -0.6336602511
|  9> P 2.064705646 0.0186502486 0.4640757617
| 10> S 1.434210638 1.7883388818 -0.1453481799
| 11> O 3.2343662055 0.1592602269 1.5379044463
| 12> C 3.2016692951 1.1318124453 2.5942805569
| 13> C 2.112752995 0.8252847333 3.6024670744
| 14> S 0.8234861113 -1.420396692 1.3636229223
| 15> C -0.1037886499 -2.0673917194 -0.0737747537
| 16> S -0.364602455 -0.8834929461 -1.4208600001
| 17> P -1.895579275 0.2918438636 -0.5814108738
| 18> S -2.5061657037 1.8440457483 -1.6061893597
| 19> O -1.2665267544 0.5732615622 0.8441639762
| 20> C -1.9109709279 1.4395061369 1.8022265952
| 21> C -2.6286735102 0.6181703794 2.8530004919
| 22> O -3.0616428433 -0.7349625173 -0.2046563501
| 23> C -4.1385544925 -1.024202485 -1.1100240547
| 24> C -3.6703289471 -1.8190351496 -2.3122432357
| 25> H 3.382429389 -2.3290332048 -2.7447458308
| 26> H 1.9822269872 -1.3250665615 -3.1522485914
| 27> H 3.5634793934 -0.9715045022 -3.8689707503
| 28> H 3.0345377308 0.6269254389 -2.0155369447
| 29> H 4.4615299163 -0.368490598 -1.6231133236
| 30> H 4.1959093932 1.0738907176 3.0388874346
| 31> H 3.0494240915 2.1207344773 2.1484862035
| 32> H 2.164207181 1.5358357311 4.4211052994
| 33> H 1.1376843134 0.9063365271 3.1213951882
| 34> H 2.2274813203 -0.1848593759 3.9872480439
| 35> H -1.0637867945 -2.4068231836 0.3098856916
| 36> H 0.4630346233 -2.8855798487 -0.5118349782
| 37> H -1.100970238 2.0328830928 2.233686278
| 38> H -2.5945978383 2.1090342435 1.2693952473
| 39> H -1.930286618 -0.067173775 3.3263907652
| 40> H -3.0439855492 1.285673073 3.6012356804
| 41> H -3.431537685 0.0446728843 2.3970127654
| 42> H -4.8504034372 -1.5869489799 -0.5046652476
| 43> H -4.5838186012 -0.0764524008 -1.428666258
| 44> H -2.9740328425 -1.2213765159 -2.9004562272
| 45> H -3.1724698136 -2.7327420611 -1.9985462936
| 46> H -4.5259172444 -2.0698672502 -2.9308874859
| 47> *
| 48>
| 49>                          ****END OF INPUT****

CARTESIAN COORDINATES (ANGSTROEM)
---------------------------------
  C      3.055461   -1.319563   -2.975592
  C      3.388423   -0.392340   -1.824294
  O      2.743285   -0.894201   -0.633660
  P      2.064706    0.018650    0.464076
  S      1.434211    1.788339   -0.145348
  O      3.234366    0.159260    1.537904
  C      3.201669    1.131812    2.594281
  C      2.112753    0.825285    3.602467
  S      0.823486   -1.420397    1.363623
  C     -0.103789   -2.067392   -0.073775
  S     -0.364602   -0.883493   -1.420860
  P     -1.895579    0.291844   -0.581411
  S     -2.506166    1.844046   -1.606189
  O     -1.266527    0.573262    0.844164
  C     -1.910971    1.439506    1.802227
  C     -2.628674    0.618170    2.853000
  O     -3.061643   -0.734963   -0.204656
  C     -4.138554   -1.024202   -1.110024
  C     -3.670329   -1.819035   -2.312243
  H      3.382429   -2.329033   -2.744746
  H      1.982227   -1.325067   -3.152249
  H      3.563479   -0.971505   -3.868971
  H      3.034538    0.626925   -2.015537
  H      4.461530   -0.368491   -1.623113
  H      4.195909    1.073891    3.038887
  H      3.049424    2.120734    2.148486
  H      2.164207    1.535836    4.421105
  H      1.137684    0.906337    3.121395
  H      2.227481   -0.184859    3.987248
  H     -1.063787   -2.406823    0.309886
  H      0.463035   -2.885580   -0.511835
  H     -1.100970    2.032883    2.233686
  H     -2.594598    2.109034    1.269395
  H     -1.930287   -0.067174    3.326391
  H     -3.043986    1.285673    3.601236
  H     -3.431538    0.044673    2.397013
  H     -4.850403   -1.586949   -0.504665
  H     -4.583819   -0.076452   -1.428666
  H     -2.974033   -1.221377   -2.900456
  H     -3.172470   -2.732742   -1.998546
  H     -4.525917   -2.069867   -2.930887

 Total Charge           Charge          ....    0
 Multiplicity           Mult            ....    1
 Number of Electrons    NEL             ....  202
 Basis Dimension        Dim             ....  334

ORBITAL ENERGIES
----------------

  NO   OCC          E(Eh)            E(eV)
   0   2.0000     -88.048309     -2395.9163
   1   2.0000     -88.038222     -2395.6418
   2   2.0000     -87.984243     -2394.1730
   3   2.0000     -87.976722     -2393.9683
   4   2.0000     -76.424285     -2079.6105
   5   2.0000     -76.422241     -2079.5549
   6   2.0000     -18.792410      -511.3675
   7   2.0000     -18.788254      -511.2544
   8   2.0000     -18.785183      -511.1708
   9   2.0000     -18.784095      -511.1412
  10   2.0000      -9.962840      -271.1027
  11   2.0000      -9.951666      -270.7986
  12   2.0000      -9.947937      -270.6971
  13   2.0000      -9.947557      -270.6868
  14   2.0000      -9.947117      -270.6748
  15   2.0000      -9.885433      -268.9963
  16   2.0000      -9.885354      -268.9942
  17   2.0000      -9.884181      -268.9622
  18   2.0000      -9.882233      -268.9092
  19   2.0000      -7.692796      -209.3316
  20   2.0000      -7.683539      -209.0797
  21   2.0000      -7.629438      -207.6076
  22   2.0000      -7.621433      -207.3897
  23   2.0000      -6.421950      -174.7501
  24   2.0000      -6.419245      -174.6765
  25   2.0000      -5.721130      -155.6798
  26   2.0000      -5.717047      -155.5687
  27   2.0000      -5.711810      -155.4262
  28   2.0000      -5.709554      -155.3649
  29   2.0000      -5.708076      -155.3246
  30   2.0000      -5.700003      -155.1050
  31   2.0000      -5.658403      -153.9730
  32   2.0000      -5.650459      -153.7568
  33   2.0000      -5.650257      -153.7513
  34   2.0000      -5.649359      -153.7269
  35   2.0000      -5.642152      -153.5308
  36   2.0000      -5.641446      -153.5116
  37   2.0000      -4.644385      -126.3802
  38   2.0000      -4.643907      -126.3671
  39   2.0000      -4.642344      -126.3246
  40   2.0000      -4.641918      -126.3130
  41   2.0000      -4.641091      -126.2905
  42   2.0000      -4.639598      -126.2499
  43   2.0000      -0.984671       -26.7943
  44   2.0000      -0.981201       -26.6998
  45   2.0000      -0.942143       -25.6370
  46   2.0000      -0.941273       -25.6134
  47   2.0000      -0.765143       -20.8206
  48   2.0000      -0.720017       -19.5927
  49   2.0000      -0.707035       -19.2394
  50   2.0000      -0.686655       -18.6848
  51   2.0000      -0.684528       -18.6270
  52   2.0000      -0.672819       -18.3083
  53   2.0000      -0.649792       -17.6817
  54   2.0000      -0.634963       -17.2782
  55   2.0000      -0.598019       -16.2729
  56   2.0000      -0.590503       -16.0684
  57   2.0000      -0.572219       -15.5709
  58   2.0000      -0.569338       -15.4925
  59   2.0000      -0.561300       -15.2738
  60   2.0000      -0.499250       -13.5853
  61   2.0000      -0.496581       -13.5127
  62   2.0000      -0.471948       -12.8423
  63   2.0000      -0.469309       -12.7706
  64   2.0000      -0.460484       -12.5304
  65   2.0000      -0.440594       -11.9892
  66   2.0000      -0.438038       -11.9196
  67   2.0000      -0.432211       -11.7611
  68   2.0000      -0.424533       -11.5521
  69   2.0000      -0.419183       -11.4065
  70   2.0000      -0.413930       -11.2636
  71   2.0000      -0.396552       -10.7907
  72   2.0000      -0.388387       -10.5685
  73   2.0000      -0.384492       -10.4626
  74   2.0000      -0.382175       -10.3995
  75   2.0000      -0.374582       -10.1929
  76   2.0000      -0.368931       -10.0391
  77   2.0000      -0.355969        -9.6864
  78   2.0000      -0.354903        -9.6574
  79   2.0000      -0.353849        -9.6287
  80   2.0000      -0.349340        -9.5060
  81   2.0000      -0.345735        -9.4079
  82   2.0000      -0.338986        -9.2243
  83   2.0000      -0.335861        -9.1393
  84   2.0000      -0.330440        -8.9917
  85   2.0000      -0.319141        -8.6843
  86   2.0000      -0.311493        -8.4761
  87   2.0000      -0.296145        -8.0585
  88   2.0000      -0.293909        -7.9977
  89   2.0000      -0.286155        -7.7867
  90   2.0000      -0.280211        -7.6249
  91   2.0000      -0.274473        -7.4688
  92   2.0000      -0.269560        -7.3351
  93   2.0000      -0.261628        -7.1193
  94   2.0000      -0.257166        -6.9978
  95   2.0000      -0.231616        -6.3026
  96   2.0000      -0.217381        -5.9152
  97   2.0000      -0.207347        -5.6422
  98   2.0000      -0.198918        -5.4128
  99   2.0000      -0.191679        -5.2159
 100   2.0000      -0.184446        -5.0190
 101   0.0000      -0.050633        -1.3778
 102   0.0000      -0.027471        -0.7475
 103   0.0000      -0.016052        -0.4368
 104   0.0000      -0.003206        -0.0872
 105   0.0000       0.017183         0.4676

MULLIKEN ATOMIC CHARGES
-----------------------
   0 C :   -0.297836
   1 C :   -0.001552
   2 O :   -0.377541
   3 P :    0.608479
   4 S :   -0.316234
   5 O :   -0.370603
   6 C :    0.003606
   7 C :   -0.348371
   8 S :   -0.100799
   9 C :   -0.319352
  10 S :   -0.085833
  11 P :    0.629152
  12 S :   -0.306949
  13 O :   -0.364785
  14 C :   -0.007528
  15 C :   -0.292402
  16 O :   -0.384775
  17 C :   -0.005814
  18 C :   -0.310556
  19 H :    0.112100
  20 H :    0.126851
  21 H :    0.111740
  22 H :    0.112370
  23 H :    0.104069
  24 H :    0.103806
  25 H :    0.108821
  26 H :    0.113942
  27 H :    0.146960
  28 H :    0.120970
  29 H :    0.182083
  30 H :    0.186778
  31 H :    0.116551
  32 H :    0.102082
  33 H :    0.116585
  34 H :    0.108071
  35 H :    0.112750
  36 H :    0.102050
  37 H :    0.111631
  38 H :    0.126335
  39 H :    0.109960
  40 H :    0.113189
Sum of atomic charges:   -0.0000000

LOEWDIN ATOMIC CHARGES
----------------------
   0 C :   -0.355725
   1 C :   -0.116341
   2 O :   -0.247532
   3 P :    0.562849
   4 S :   -0.310386
   5 O :   -0.248886
   6 C :   -0.121474
   7 C :   -0.372881
   8 S :    0.082999
   9 C :   -0.468300
  10 S :    0.115970
  11 P :    0.570001
  12 S :   -0.309389
  13 O :   -0.237804
  14 C :   -0.115252
  15 C :   -0.358900
  16 O :   -0.252436
  17 C :   -0.123742
  18 C :   -0.367586
  19 H :    0.123881
  20 H :    0.121559
  21 H :    0.131044
  22 H :    0.109220
  23 H :    0.115103
  24 H :    0.118117
  25 H :    0.108459
  26 H :    0.131340
  27 H :    0.121153
  28 H :    0.124996
  29 H :    0.132260
  30 H :    0.137538
  31 H :    0.116487
  32 H :    0.107895
  33 H :    0.124595
  34 H :    0.128236
  35 H :    0.123349
  36 H :    0.116436
  37 H :    0.109961
  38 H :    0.121008
  39 H :    0.121208
  40 H :    0.130973

  Mayer bond orders larger than 0.100000
B(  0-C ,  1-C ) :   1.1618 B(  0-C , 19-H ) :   0.9503 B(  0-C , 20-H ) :   0.9447
B(  0-C , 21-H ) :   0.9412 B(  1-C ,  2-O ) :   0.8936 B(  1-C , 22-H ) :   0.9026
B(  1-C , 23-H ) :   0.9342 B(  2-O ,  3-P ) :   1.1166 B(  3-P ,  4-S ) :   1.6014
B(  3-P ,  5-O ) :   1.1035 B(  3-P ,  8-S ) :   0.9762 B(  4-S ,  8-S ) :   0.1172
B(  5-O ,  6-C ) :   0.9151 B(  6-C ,  7-C ) :   1.1617 B(  6-C , 24-H ) :   0.9329
B(  6-C , 25-H ) :   0.9107 B(  7-C , 26-H ) :   0.9382 B(  7-C , 27-H ) :   0.9267
B(  7-C , 28-H ) :   0.9426 B(  8-S ,  9-C ) :   0.9750 B(  9-C , 10-S ) :   1.0072
B(  9-C , 29-H ) :   0.9005 B(  9-C , 30-H ) :   0.9083 B( 10-S , 11-P ) :   0.9531
B( 11-P , 12-S ) :   1.6628 B( 11-P , 13-O ) :   1.1262 B( 11-P , 16-O ) :   1.0520
B( 13-O , 14-C ) :   0.8955 B( 14-C , 15-C ) :   1.1679 B( 14-C , 31-H ) :   0.9216
B( 14-C , 32-H ) :   0.9078 B( 15-C , 33-H ) :   0.9477 B( 15-C , 34-H ) :   0.9411
B( 15-C , 35-H ) :   0.9435 B( 16-O , 17-C ) :   0.9132 B( 17-C , 18-C ) :   1.1636
B( 17-C , 36-H ) :   0.9337 B( 17-C , 37-H ) :   0.9118 B( 18-C , 38-H ) :   0.9349
B( 18-C , 39-H ) :   0.9470 B( 18-C , 40-H ) :   0.9386

Dispersion correction           -0.068239061
FINAL SINGLE POINT ENERGY     -2929.511691339486

DIPOLE MOMENT
-------------

Method             : SCF
Type of density    : Electron Density
Multiplicity       :   1
Irrep              :   0
Energy             : -2929.6283917320010914 Eh
Relativity type    :
Basis              : AO
                                X                 Y                 Z
Electronic contribution:      3.412829512       5.175835620      -5.281329189
Nuclear contribution   :     -3.495610503      -6.417834896       5.973325811
                        -----------------------------------------
Total Dipole Moment    :     -0.082780991      -1.241999276       0.691996623
                        -----------------------------------------
Magnitude (a.u.)       :      1.424174926
Magnitude (Debye)      :      3.619964979

Rotational constants in cm-1:             0.011089             0.006219             0.005175
Rotational constants in MHz :           332.435201           186.429096           155.149608

                             ****ORCA TERMINATED NORMALLY****
TOTAL RUN TIME: 0 days 0 hours 0 minutes 21 seconds 707 msec
