                         Program Version 6.0.0  -   RELEASE  -
|  1> ! pbe def2-sv(p) def2/J RI DEFGRID1 loosescf d4 GCP(DFT/SV(P)) printgap
|  2> %output
|  3>     printlevel normal
|  4> end
|  5> * xyz 0 1
|  6> C 4.0198449259 0.2804484179 -1.669918163
|  7> C 2.5976923548 0.7946982268 -1.6482542402
|  8> O 2.0876011756 1.0144078097 -0.3091410504
|  9> P 2.0881570821 -0.0077475479 0.8934730323
| 10> S 0.9473309019 0.6318073315 2.351989087
| 11> O 3.6247262245 -0.1479528102 1.2632568263
| 12> C 4.0696523743 -0.6374283682 2.5402181708
| 13> C 3.72387374 -2.0975501082 2.7491195518
| 14> S 1.5568135882 -1.902365534 0.0743058932
| 15> C -0.2183429417 -1.6179120825 -0.0046998601
| 16> S -0.6827656308 -0.7072431854 -1.5308965389
| 17> P -2.3349577019 0.3830292337 -0.7684942554
| 18> S -3.4061948086 1.2680724019 -2.1454875021
| 19> O -1.7097845495 1.3006188259 0.3670354339
| 20> C -1.0638899879 2.538437686 0.0163445383
| 21> C -2.0053663614 3.7050962495 0.2335417889
| 22> O -3.0914495284 -0.6153438106 0.2003824028
| 23> C -4.2420811725 -1.3582872816 -0.2474689822
| 24> C -3.8541032736 -2.510070923 -1.1534946287
| 25> H 4.6679010681 0.9367871248 -1.0951585185
| 26> H 4.0674994727 -0.7215006441 -1.249076375
| 27> H 4.3632741334 0.2474060787 -2.6994181396
| 28> H 1.9226123476 0.1016812804 -2.1595262284
| 29> H 2.5200529575 1.7825455976 -2.1053775979
| 30> H 5.1485183716 -0.478192845 2.5165928311
| 31> H 3.6198481105 -0.0198061251 3.3239299569
| 32> H 2.6457068049 -2.2157909612 2.8442709603
| 33> H 4.0698899579 -2.6937379524 1.9087388358
| 34> H 4.1966017535 -2.4500338519 3.6602541456
| 35> H -0.5349138478 -1.0353534046 0.8636709988
| 36> H -0.6917419511 -2.5953069583 -0.0282911959
| 37> H -0.1913211834 2.6020958156 0.6710489807
| 38> H -0.7305746095 2.4922914009 -1.0266168794
| 39> H -2.3580489952 3.7065125094 1.2609964623
| 40> H -1.4793519585 4.6321262476 0.0299122787
| 41> H -2.860463702 3.6242219133 -0.4344838597
| 42> H -4.7061518642 -1.7069570856 0.6759940084
| 43> H -4.918160237 -0.6724362002 -0.7679208476
| 44> H -3.1685510379 -3.1832886579 -0.6455674366
| 45> H -4.7477296971 -3.0583330069 -1.434272936
| 46> H -3.3778663951 -2.128521232 -2.0563802781
| 47> *
| 48>
| 49>                          ****END OF INPUT****

CARTESIAN COORDINATES (ANGSTROEM)
---------------------------------
  C      4.019845    0.280448   -1.669918
  C      2.597692    0.794698   -1.648254
  O      2.087601    1.014408   -0.309141
  P      2.088157   -0.007748    0.893473
  S      0.947331    0.631807    2.351989
  O      3.624726   -0.147953    1.263257
  C      4.069652   -0.637428    2.540218
  C      3.723874   -2.097550    2.749120
  S      1.556814   -1.902366    0.074306
  C     -0.218343   -1.617912   -0.004700
  S     -0.682766   -0.707243   -1.530897
  P     -2.334958    0.383029   -0.768494
  S     -3.406195    1.268072   -2.145488
  O     -1.709785    1.300619    0.367035
  C     -1.063890    2.538438    0.016345
  C     -2.005366    3.705096    0.233542
  O     -3.091450   -0.615344    0.200382
  C     -4.242081   -1.358287   -0.247469
  C     -3.854103   -2.510071   -1.153495
  H      4.667901    0.936787   -1.095159
  H      4.067499   -0.721501   -1.249076
  H      4.363274    0.247406   -2.699418
  H      1.922612    0.101681   -2.159526
  H      2.520053    1.782546   -2.105378
  H      5.148518   -0.478193    2.516593
  H      3.619848   -0.019806    3.323930
  H      2.645707   -2.215791    2.844271
  H      4.069890   -2.693738    1.908739
  H      4.196602   -2.450034    3.660254
  H     -0.534914   -1.035353    0.863671
  H     -0.691742   -2.595307   -0.028291
  H     -0.191321    2.602096    0.671049
  H     -0.730575    2.492291   -1.026617
  H     -2.358049    3.706513    1.260996
  H     -1.479352    4.632126    0.029912
  H     -2.860464    3.624222   -0.434484
  H     -4.706152   -1.706957    0.675994
  H     -4.918160   -0.672436   -0.767921
  H     -3.168551   -3.183289   -0.645567
  H     -4.747730   -3.058333   -1.434273
  H     -3.377866   -2.128521   -2.056380

 Total Charge           Charge          ....    0
 Multiplicity           Mult            ....    1
 Number of Electrons    NEL             ....  202
 Basis Dimension        Dim             ....  334

ORBITAL ENERGIES
----------------

  NO   OCC          E(Eh)            E(eV)
   0   2.0000     -88.054347     -2396.0806
   1   2.0000     -88.041459     -2395.7299
   2   2.0000     -87.989912     -2394.3272
   3   2.0000     -87.986280     -2394.2284
   4   2.0000     -76.433207     -2079.8533
   5   2.0000     -76.423019     -2079.5761
   6   2.0000     -18.802318      -511.6371
   7   2.0000     -18.796833      -511.4878
   8   2.0000     -18.791606      -511.3456
   9   2.0000     -18.780123      -511.0331
  10   2.0000      -9.959609      -271.0147
  11   2.0000      -9.959253      -271.0050
  12   2.0000      -9.957587      -270.9597
  13   2.0000      -9.953242      -270.8415
  14   2.0000      -9.936490      -270.3856
  15   2.0000      -9.890539      -269.1352
  16   2.0000      -9.890525      -269.1349
  17   2.0000      -9.887071      -269.0409
  18   2.0000      -9.869170      -268.5538
  19   2.0000      -7.699123      -209.5038
  20   2.0000      -7.686228      -209.1529
  21   2.0000      -7.634813      -207.7538
  22   2.0000      -7.631450      -207.6623
  23   2.0000      -6.430566      -174.9846
  24   2.0000      -6.420708      -174.7163
  25   2.0000      -5.726882      -155.8364
  26   2.0000      -5.723582      -155.7466
  27   2.0000      -5.716315      -155.5489
  28   2.0000      -5.714458      -155.4983
  29   2.0000      -5.710551      -155.3920
  30   2.0000      -5.703132      -155.1901
  31   2.0000      -5.663808      -154.1201
  32   2.0000      -5.660355      -154.0261
  33   2.0000      -5.655355      -153.8900
  34   2.0000      -5.654953      -153.8791
  35   2.0000      -5.652174      -153.8035
  36   2.0000      -5.651531      -153.7860
  37   2.0000      -4.653376      -126.6248
  38   2.0000      -4.652364      -126.5972
  39   2.0000      -4.650793      -126.5545
  40   2.0000      -4.643115      -126.3456
  41   2.0000      -4.642724      -126.3350
  42   2.0000      -4.641067      -126.2899
  43   2.0000      -0.993838       -27.0437
  44   2.0000      -0.984958       -26.8021
  45   2.0000      -0.952301       -25.9134
  46   2.0000      -0.940175       -25.5835
  47   2.0000      -0.766088       -20.8463
  48   2.0000      -0.723092       -19.6763
  49   2.0000      -0.710687       -19.3388
  50   2.0000      -0.696411       -18.9503
  51   2.0000      -0.683366       -18.5953
  52   2.0000      -0.673247       -18.3200
  53   2.0000      -0.655393       -17.8342
  54   2.0000      -0.639917       -17.4130
  55   2.0000      -0.603650       -16.4262
  56   2.0000      -0.593220       -16.1423
  57   2.0000      -0.582261       -15.8441
  58   2.0000      -0.566038       -15.4027
  59   2.0000      -0.556834       -15.1522
  60   2.0000      -0.499442       -13.5905
  61   2.0000      -0.494100       -13.4452
  62   2.0000      -0.477349       -12.9893
  63   2.0000      -0.469163       -12.7666
  64   2.0000      -0.457599       -12.4519
  65   2.0000      -0.449940       -12.2435
  66   2.0000      -0.444415       -12.0932
  67   2.0000      -0.439386       -11.9563
  68   2.0000      -0.428613       -11.6632
  69   2.0000      -0.420916       -11.4537
  70   2.0000      -0.414969       -11.2919
  71   2.0000      -0.402598       -10.9552
  72   2.0000      -0.393897       -10.7185
  73   2.0000      -0.387236       -10.5372
  74   2.0000      -0.385041       -10.4775
  75   2.0000      -0.372894       -10.1470
  76   2.0000      -0.369527       -10.0553
  77   2.0000      -0.360260        -9.8032
  78   2.0000      -0.356900        -9.7118
  79   2.0000      -0.353067        -9.6074
  80   2.0000      -0.351145        -9.5551
  81   2.0000      -0.345403        -9.3989
  82   2.0000      -0.341011        -9.2794
  83   2.0000      -0.333928        -9.0866
  84   2.0000      -0.324837        -8.8393
  85   2.0000      -0.322855        -8.7853
  86   2.0000      -0.317473        -8.6389
  87   2.0000      -0.299442        -8.1482
  88   2.0000      -0.297903        -8.1064
  89   2.0000      -0.295143        -8.0312
  90   2.0000      -0.283007        -7.7010
  91   2.0000      -0.276864        -7.5338
  92   2.0000      -0.270137        -7.3508
  93   2.0000      -0.265315        -7.2196
  94   2.0000      -0.255782        -6.9602
  95   2.0000      -0.240842        -6.5537
  96   2.0000      -0.223335        -6.0773
  97   2.0000      -0.209579        -5.7029
  98   2.0000      -0.206798        -5.6273
  99   2.0000      -0.205371        -5.5884
 100   2.0000      -0.197485        -5.3738
 101   0.0000      -0.044751        -1.2177
 102   0.0000      -0.028612        -0.7786
 103   0.0000      -0.023146        -0.6298
 104   0.0000       0.004934         0.1343
 105   0.0000       0.012323         0.3353

MULLIKEN ATOMIC CHARGES
-----------------------
   0 C :   -0.305487
   1 C :   -0.010673
   2 O :   -0.358008
   3 P :    0.606453
   4 S :   -0.300189
   5 O :   -0.372674
   6 C :   -0.002557
   7 C :   -0.322161
   8 S :   -0.104828
   9 C :   -0.362802
  10 S :   -0.093738
  11 P :    0.574925
  12 S :   -0.318107
  13 O :   -0.349228
  14 C :   -0.020043
  15 C :   -0.282622
  16 O :   -0.366714
  17 C :   -0.004310
  18 C :   -0.321802
  19 H :    0.121760
  20 H :    0.116793
  21 H :    0.115989
  22 H :    0.122425
  23 H :    0.111080
  24 H :    0.107431
  25 H :    0.116266
  26 H :    0.130677
  27 H :    0.117536
  28 H :    0.117578
  29 H :    0.213409
  30 H :    0.190074
  31 H :    0.120885
  32 H :    0.091341
  33 H :    0.112755
  34 H :    0.103021
  35 H :    0.118913
  36 H :    0.108890
  37 H :    0.115602
  38 H :    0.115852
  39 H :    0.114332
  40 H :    0.131960
Sum of atomic charges:    0.0000000

LOEWDIN ATOMIC CHARGES
----------------------
   0 C :   -0.366791
   1 C :   -0.116417
   2 O :   -0.233789
   3 P :    0.579536
   4 S :   -0.291931
   5 O :   -0.238565
   6 C :   -0.117402
   7 C :   -0.371587
   8 S :    0.082955
   9 C :   -0.478785
  10 S :    0.065818
  11 P :    0.566861
  12 S :   -0.317223
  13 O :   -0.232472
  14 C :   -0.125510
  15 C :   -0.361094
  16 O :   -0.236654
  17 C :   -0.117937
  18 C :   -0.366752
  19 H :    0.128152
  20 H :    0.117601
  21 H :    0.132830
  22 H :    0.103997
  23 H :    0.123325
  24 H :    0.119992
  25 H :    0.114079
  26 H :    0.122517
  27 H :    0.123394
  28 H :    0.133543
  29 H :    0.128961
  30 H :    0.132713
  31 H :    0.111575
  32 H :    0.101639
  33 H :    0.125642
  34 H :    0.126744
  35 H :    0.121055
  36 H :    0.120218
  37 H :    0.111786
  38 H :    0.121295
  39 H :    0.132303
  40 H :    0.124378

  Mayer bond orders larger than 0.100000
B(  0-C ,  1-C ) :   1.1721 B(  0-C , 19-H ) :   0.9428 B(  0-C , 20-H ) :   0.9384
B(  0-C , 21-H ) :   0.9352 B(  1-C ,  2-O ) :   0.8926 B(  1-C , 22-H ) :   0.9089
B(  1-C , 23-H ) :   0.9340 B(  2-O ,  3-P ) :   1.1456 B(  3-P ,  4-S ) :   1.6241
B(  3-P ,  5-O ) :   1.0989 B(  3-P ,  8-S ) :   0.9324 B(  4-S ,  8-S ) :   0.1058
B(  5-O ,  6-C ) :   0.9011 B(  6-C ,  7-C ) :   1.1659 B(  6-C , 24-H ) :   0.9333
B(  6-C , 25-H ) :   0.9160 B(  7-C , 26-H ) :   0.9339 B(  7-C , 27-H ) :   0.9445
B(  7-C , 28-H ) :   0.9372 B(  8-S ,  9-C ) :   1.0139 B(  9-C , 10-S ) :   0.9575
B(  9-C , 29-H ) :   0.8531 B(  9-C , 30-H ) :   0.9020 B( 10-S , 11-P ) :   0.9694
B( 11-P , 12-S ) :   1.6309 B( 11-P , 13-O ) :   1.1267 B( 11-P , 16-O ) :   1.0921
B( 13-O , 14-C ) :   0.9007 B( 14-C , 15-C ) :   1.1646 B( 14-C , 31-H ) :   0.9125
B( 14-C , 32-H ) :   0.9131 B( 15-C , 33-H ) :   0.9472 B( 15-C , 34-H ) :   0.9414
B( 15-C , 35-H ) :   0.9364 B( 16-O , 17-C ) :   0.9103 B( 17-C , 18-C ) :   1.1616
B( 17-C , 36-H ) :   0.9338 B( 17-C , 37-H ) :   0.9125 B( 18-C , 38-H ) :   0.9424
B( 18-C , 39-H ) :   0.9384 B( 18-C , 40-H ) :   0.9362

Dispersion correction           -0.065861867
FINAL SINGLE POINT ENERGY     -2929.520354369688

DIPOLE MOMENT
-------------

Method             : SCF
Type of density    : Electron Density
Multiplicity       :   1
Irrep              :   0
Energy             : -2929.6412967967462464 Eh
Relativity type    :
Basis              : AO
                                X                 Y                 Z
Electronic contribution:     -6.006212745       1.921978797      -1.740154949
Nuclear contribution   :      7.275861991      -2.950185165       1.873417669
                        -----------------------------------------
Total Dipole Moment    :      1.269649246      -1.028206368       0.133262721
                        -----------------------------------------
Magnitude (a.u.)       :      1.639199956
Magnitude (Debye)      :      4.166515171

Rotational constants in cm-1:             0.012644             0.004872             0.004571
Rotational constants in MHz :           379.045911           146.068300           137.037278

                             ****ORCA TERMINATED NORMALLY****
TOTAL RUN TIME: 0 days 0 hours 0 minutes 21 seconds 378 msec
