                         Program Version 6.0.0  -   RELEASE  -
|  1> ! pbe def2-sv(p) def2/J RI DEFGRID1 loosescf d4 GCP(DFT/SV(P)) printgap
|  2> %output
|  3>     printlevel normal
|  4> end
|  5> * xyz 0 1
|  6> C 1.1976510372 -1.2092156007 -0.0001529854
|  7> C 1.8764665385 -5.6519e-06 -0.0001726643
|  8> C 1.1976604675 1.2092099841 0.0001328569
|  9> C -0.1880078479 1.2006401195 0.0003491468
| 10> C -0.8958639303 4.6294e-06 0.0001308587
| 11> C -0.1880167984 -1.2006356243 -0.0001192167
| 12> Cl -1.0466767402 -2.6924606477 3.1788e-06
| 13> Cl -2.6197107534 2.0689e-06 1.48296e-05
| 14> Cl -1.0466563698 2.6924706056 -0.0001008271
| 15> Cl 3.5983026957 -1.08265e-05 3.43256e-05
| 16> H 1.7312303065 -2.1448826779 7.7992e-05
| 17> H 1.7312439742 2.144866003 -0.000374168
| 18> *
| 19>
| 20>                          ****END OF INPUT****

CARTESIAN COORDINATES (ANGSTROEM)
---------------------------------
  C      1.197651   -1.209216   -0.000153
  C      1.876467   -0.000006   -0.000173
  C      1.197660    1.209210    0.000133
  C     -0.188008    1.200640    0.000349
  C     -0.895864    0.000005    0.000131
  C     -0.188017   -1.200636   -0.000119
  Cl    -1.046677   -2.692461    0.000003
  Cl    -2.619711    0.000002    0.000015
  Cl    -1.046656    2.692471   -0.000101
  Cl     3.598303   -0.000011    0.000034
  H      1.731230   -2.144883    0.000078
  H      1.731244    2.144866   -0.000374

 Total Charge           Charge          ....    0
 Multiplicity           Mult            ....    1
 Number of Electrons    NEL             ....  106
 Basis Dimension        Dim             ....  160

ORBITAL ENERGIES
----------------

  NO   OCC          E(Eh)            E(eV)
   0   2.0000    -100.660016     -2739.0983
   1   2.0000    -100.660008     -2739.0981
   2   2.0000    -100.658547     -2739.0583
   3   2.0000    -100.658358     -2739.0532
   4   2.0000      -9.978807      -271.5371
   5   2.0000      -9.978788      -271.5366
   6   2.0000      -9.977896      -271.5124
   7   2.0000      -9.974319      -271.4150
   8   2.0000      -9.929590      -270.1979
   9   2.0000      -9.929590      -270.1979
  10   2.0000      -9.195817      -250.2309
  11   2.0000      -9.195809      -250.2307
  12   2.0000      -9.194436      -250.1933
  13   2.0000      -9.194105      -250.1843
  14   2.0000      -7.027437      -191.2263
  15   2.0000      -7.027437      -191.2263
  16   2.0000      -7.025939      -191.1855
  17   2.0000      -7.025864      -191.1835
  18   2.0000      -7.015857      -190.9112
  19   2.0000      -7.015856      -190.9112
  20   2.0000      -7.014878      -190.8845
  21   2.0000      -7.014874      -190.8844
  22   2.0000      -7.014401      -190.8716
  23   2.0000      -7.014121      -190.8639
  24   2.0000      -7.013702      -190.8525
  25   2.0000      -7.013051      -190.8348
  26   2.0000      -0.866404       -23.5761
  27   2.0000      -0.825514       -22.4634
  28   2.0000      -0.819806       -22.3080
  29   2.0000      -0.787076       -21.4174
  30   2.0000      -0.753448       -20.5024
  31   2.0000      -0.684461       -18.6251
  32   2.0000      -0.663302       -18.0494
  33   2.0000      -0.572120       -15.5682
  34   2.0000      -0.556945       -15.1552
  35   2.0000      -0.487670       -13.2702
  36   2.0000      -0.480857       -13.0848
  37   2.0000      -0.439009       -11.9460
  38   2.0000      -0.418677       -11.3928
  39   2.0000      -0.418668       -11.3925
  40   2.0000      -0.408048       -11.1036
  41   2.0000      -0.372871       -10.1463
  42   2.0000      -0.368985       -10.0406
  43   2.0000      -0.350431        -9.5357
  44   2.0000      -0.342090        -9.3087
  45   2.0000      -0.305958        -8.3255
  46   2.0000      -0.301375        -8.2008
  47   2.0000      -0.290908        -7.9160
  48   2.0000      -0.285477        -7.7682
  49   2.0000      -0.277003        -7.5376
  50   2.0000      -0.264997        -7.2109
  51   2.0000      -0.238116        -6.4795
  52   2.0000      -0.224845        -6.1184
  53   0.0000      -0.070325        -1.9136
  54   0.0000      -0.067514        -1.8371
  55   0.0000      -0.047201        -1.2844
  56   0.0000       0.010631         0.2893
  57   0.0000       0.024604         0.6695

MULLIKEN ATOMIC CHARGES
-----------------------
   0 C :   -0.100202
   1 C :    0.109394
   2 C :   -0.100201
   3 C :    0.037387
   4 C :    0.068566
   5 C :    0.037385
   6 Cl:   -0.037817
   7 Cl:   -0.020776
   8 Cl:   -0.037817
   9 Cl:   -0.063321
  10 H :    0.053703
  11 H :    0.053699
Sum of atomic charges:   -0.0000000

LOEWDIN ATOMIC CHARGES
----------------------
   0 C :   -0.157936
   1 C :   -0.132752
   2 C :   -0.157936
   3 C :   -0.147552
   4 C :   -0.184782
   5 C :   -0.147552
   6 Cl:    0.163997
   7 Cl:    0.164903
   8 Cl:    0.163998
   9 Cl:    0.151347
  10 H :    0.142133
  11 H :    0.142133

  Mayer bond orders larger than 0.100000
B(  0-C ,  1-C ) :   1.3281 B(  0-C ,  5-C ) :   1.3627 B(  0-C , 10-H ) :   0.9733
B(  1-C ,  2-C ) :   1.3280 B(  1-C ,  9-Cl) :   0.9670 B(  2-C ,  3-C ) :   1.3627
B(  2-C , 11-H ) :   0.9733 B(  3-C ,  4-C ) :   1.3994 B(  3-C ,  8-Cl) :   1.0410
B(  4-C ,  5-C ) :   1.3994 B(  4-C ,  7-Cl) :   1.1157 B(  5-C ,  6-Cl) :   1.0410

Dispersion correction           -0.021233208
FINAL SINGLE POINT ENERGY     -2068.838906988288

DIPOLE MOMENT
-------------

Method             : SCF
Type of density    : Electron Density
Multiplicity       :   1
Irrep              :   0
Energy             : -2068.8544539466456627 Eh
Relativity type    :
Basis              : AO
                                X                 Y                 Z
Electronic contribution:     -4.457113960       0.000016319       0.000149883
Nuclear contribution   :      4.744640619      -0.000017255      -0.000212777
                        -----------------------------------------
Total Dipole Moment    :      0.287526659      -0.000000936      -0.000062894
                        -----------------------------------------
Magnitude (a.u.)       :      0.287526665
Magnitude (Debye)      :      0.730834703

Rotational constants in cm-1:             0.028425             0.019303             0.011496
Rotational constants in MHz :           852.167487           578.696948           344.649510

                             ****ORCA TERMINATED NORMALLY****
TOTAL RUN TIME: 0 days 0 hours 0 minutes 11 seconds 122 msec
