                         Program Version 6.0.0  -   RELEASE  -
|  1> ! wb97x-v def2-tzvp def2/J RIJCOSX DEFGRID2 scfconv7 GCP(DFT/TZ) printgap
|  2> %output
|  3>     printlevel normal
|  4> end
|  5> * xyz 0 1
|  6> C -1.5588155343337545e-06 -2.122710193577963 -3.512179897704502e-06
|  7> C 1.212355231370318 -1.4394775187330475 -3.7208518204173576e-05
|  8> C 1.18693705393252 -0.05055752080763732 -5.158627668672483e-05
|  9> C 2.0597897322592024e-06 0.672528369570113 -3.0498471208909672e-05
| 10> C -1.186934863882425 -0.050554426496704524 2.5107853916400145e-06
| 11> C -1.2123566149554126 -1.4394744032907667 1.5294513893116516e-05
| 12> Cl -2.7052591110106583 0.8359150354627418 3.0066885203396623e-05
| 13> Cl 2.7052634843287113 0.8359080827016231 -0.00010688469645889304
| 14> H -2.959851850830975e-06 -3.2074730561098366 6.513387249180347e-06
| 15> H 2.1530072535093687 -1.9771114561490613 -5.549907421351386e-05
| 16> H 3.445048836599409e-06 1.7554314798491946 -4.272516643671803e-05
| 17> H -2.1530100359787756 -1.9771059300904332 3.966394387008897e-05
| 18> *
| 19>
| 20>                          ****END OF INPUT****

CARTESIAN COORDINATES (ANGSTROEM)
---------------------------------
  C     -0.000002   -2.122710   -0.000004
  C      1.212355   -1.439478   -0.000037
  C      1.186937   -0.050558   -0.000052
  C      0.000002    0.672528   -0.000030
  C     -1.186935   -0.050554    0.000003
  C     -1.212357   -1.439474    0.000015
  Cl    -2.705259    0.835915    0.000030
  Cl     2.705263    0.835908   -0.000107
  H     -0.000003   -3.207473    0.000007
  H      2.153007   -1.977111   -0.000055
  H      0.000003    1.755431   -0.000043
  H     -2.153010   -1.977106    0.000040

 Total Charge           Charge          ....    0
 Multiplicity           Mult            ....    1
 Number of Electrons    NEL             ....   74
 Basis Dimension        Dim             ....  284

ORBITAL ENERGIES
----------------

  NO   OCC          E(Eh)            E(eV)
   0   2.0000    -107.152627     -2915.7712
   1   2.0000    -107.152616     -2915.7709
   2   2.0000     -12.133690      -330.1745
   3   2.0000     -12.133339      -330.1649
   4   2.0000     -12.081973      -328.7672
   5   2.0000     -12.081101      -328.7435
   6   2.0000     -12.077575      -328.6475
   7   2.0000     -12.076752      -328.6251
   8   2.0000     -11.305742      -307.6449
   9   2.0000     -11.305725      -307.6444
  10   2.0000      -9.097473      -247.5548
  11   2.0000      -9.097010      -247.5422
  12   2.0000      -9.094632      -247.4775
  13   2.0000      -9.094615      -247.4770
  14   2.0000      -9.094589      -247.4763
  15   2.0000      -9.094544      -247.4751
  16   2.0000      -1.453500       -39.5517
  17   2.0000      -1.428974       -38.8844
  18   2.0000      -1.380425       -37.5633
  19   2.0000      -1.300760       -35.3955
  20   2.0000      -1.286359       -35.0036
  21   2.0000      -1.140599       -31.0373
  22   2.0000      -1.125638       -30.6302
  23   2.0000      -0.997085       -27.1321
  24   2.0000      -0.996329       -27.1115
  25   2.0000      -0.953578       -25.9482
  26   2.0000      -0.926109       -25.2007
  27   2.0000      -0.911065       -24.7913
  28   2.0000      -0.860440       -23.4138
  29   2.0000      -0.855178       -23.2706
  30   2.0000      -0.845965       -23.0199
  31   2.0000      -0.821643       -22.3580
  32   2.0000      -0.800371       -21.7792
  33   2.0000      -0.797227       -21.6937
  34   2.0000      -0.775058       -21.0904
  35   2.0000      -0.669336       -18.2136
  36   2.0000      -0.668509       -18.1911
  37   0.0000      -0.294924        -8.0253
  38   0.0000      -0.278311        -7.5732
  39   0.0000      -0.270801        -7.3689
  40   0.0000      -0.249632        -6.7928
  41   0.0000      -0.104491        -2.8434

MULLIKEN ATOMIC CHARGES
-----------------------
   0 C :   -0.096739
   1 C :   -0.179493
   2 C :    0.151221
   3 C :   -0.230004
   4 C :    0.151209
   5 C :   -0.179472
   6 Cl:   -0.089865
   7 Cl:   -0.089867
   8 H :    0.131694
   9 H :    0.140169
  10 H :    0.150997
  11 H :    0.140150
Sum of atomic charges:    0.0000000

LOEWDIN ATOMIC CHARGES
----------------------
   0 C :   -0.122074
   1 C :   -0.140704
   2 C :   -0.402150
   3 C :   -0.143168
   4 C :   -0.402150
   5 C :   -0.140703
   6 Cl:    0.375778
   7 Cl:    0.375779
   8 H :    0.148230
   9 H :    0.149219
  10 H :    0.152723
  11 H :    0.149219

  Mayer bond orders larger than 0.100000
B(  0-C ,  1-C ) :   1.4108 B(  0-C ,  5-C ) :   1.4108 B(  0-C ,  8-H ) :   0.9640
B(  1-C ,  2-C ) :   1.3998 B(  1-C ,  9-H ) :   0.9633 B(  2-C ,  3-C ) :   1.3674
B(  2-C ,  7-Cl) :   0.9929 B(  3-C ,  4-C ) :   1.3674 B(  3-C , 10-H ) :   0.9618
B(  4-C ,  5-C ) :   1.3998 B(  4-C ,  6-Cl) :   0.9930 B(  5-C , 11-H ) :   0.9633

FINAL SINGLE POINT ENERGY     -1151.348464558328

DIPOLE MOMENT
-------------

Method             : SCF
Type of density    : Electron Density
Multiplicity       :   1
Irrep              :   0
Energy             : -1151.3541496016277961 Eh
Relativity type    :
Basis              : AO
                                X                 Y                 Z
Electronic contribution:      0.000009183       6.629881972      -0.000075768
Nuclear contribution   :     -0.000009249      -7.320390694       0.000083614
                        -----------------------------------------
Total Dipole Moment    :     -0.000000066      -0.690508723       0.000007846
                        -----------------------------------------
Magnitude (a.u.)       :      0.690508723
Magnitude (Debye)      :      1.755133690

Rotational constants in cm-1:             0.093503             0.028218             0.021676
Rotational constants in MHz :          2803.151192           845.941509           649.833299

                             ****ORCA TERMINATED NORMALLY****
TOTAL RUN TIME: 0 days 0 hours 2 minutes 38 seconds 374 msec
