                         Program Version 6.0.0  -   RELEASE  -
|  1> ! wb97x-v def2-tzvp def2/J RIJCOSX DEFGRID2 scfconv7 GCP(DFT/TZ) printgap
|  2> %output
|  3>     printlevel normal
|  4> end
|  5> %cpcm
|  6>     smd true
|  7>     smdsolvent "water"
|  8> end
|  9> * xyz 0 1
| 10> C -1.5588155343337545e-06 -2.122710193577963 -3.512179897704502e-06
| 11> C 1.212355231370318 -1.4394775187330475 -3.7208518204173576e-05
| 12> C 1.18693705393252 -0.05055752080763732 -5.158627668672483e-05
| 13> C 2.0597897322592024e-06 0.672528369570113 -3.0498471208909672e-05
| 14> C -1.186934863882425 -0.050554426496704524 2.5107853916400145e-06
| 15> C -1.2123566149554126 -1.4394744032907667 1.5294513893116516e-05
| 16> Cl -2.7052591110106583 0.8359150354627418 3.0066885203396623e-05
| 17> Cl 2.7052634843287113 0.8359080827016231 -0.00010688469645889304
| 18> H -2.959851850830975e-06 -3.2074730561098366 6.513387249180347e-06
| 19> H 2.1530072535093687 -1.9771114561490613 -5.549907421351386e-05
| 20> H 3.445048836599409e-06 1.7554314798491946 -4.272516643671803e-05
| 21> H -2.1530100359787756 -1.9771059300904332 3.966394387008897e-05
| 22> *
| 23>
| 24>                          ****END OF INPUT****

CARTESIAN COORDINATES (ANGSTROEM)
---------------------------------
  C     -0.000002   -2.122710   -0.000004
  C      1.212355   -1.439478   -0.000037
  C      1.186937   -0.050558   -0.000052
  C      0.000002    0.672528   -0.000030
  C     -1.186935   -0.050554    0.000003
  C     -1.212357   -1.439474    0.000015
  Cl    -2.705259    0.835915    0.000030
  Cl     2.705263    0.835908   -0.000107
  H     -0.000003   -3.207473    0.000007
  H      2.153007   -1.977111   -0.000055
  H      0.000003    1.755431   -0.000043
  H     -2.153010   -1.977106    0.000040

 Total Charge           Charge          ....    0
 Multiplicity           Mult            ....    1
 Number of Electrons    NEL             ....   74
 Basis Dimension        Dim             ....  284

ORBITAL ENERGIES
----------------

  NO   OCC          E(Eh)            E(eV)
   0   2.0000    -107.151284     -2915.7347
   1   2.0000    -107.151273     -2915.7344
   2   2.0000     -12.126568      -329.9807
   3   2.0000     -12.126212      -329.9710
   4   2.0000     -12.073849      -328.5461
   5   2.0000     -12.068709      -328.4063
   6   2.0000     -12.067171      -328.3644
   7   2.0000     -12.065780      -328.3266
   8   2.0000     -11.304494      -307.6109
   9   2.0000     -11.304478      -307.6105
  10   2.0000      -9.096206      -247.5204
  11   2.0000      -9.095747      -247.5079
  12   2.0000      -9.093424      -247.4447
  13   2.0000      -9.093403      -247.4441
  14   2.0000      -9.093383      -247.4435
  15   2.0000      -9.093345      -247.4425
  16   2.0000      -1.448828       -39.4246
  17   2.0000      -1.426817       -38.8257
  18   2.0000      -1.374708       -37.4077
  19   2.0000      -1.292122       -35.1604
  20   2.0000      -1.278792       -34.7977
  21   2.0000      -1.131028       -30.7768
  22   2.0000      -1.117572       -30.4107
  23   2.0000      -0.988200       -26.8903
  24   2.0000      -0.988004       -26.8850
  25   2.0000      -0.944892       -25.7118
  26   2.0000      -0.920919       -25.0595
  27   2.0000      -0.898850       -24.4589
  28   2.0000      -0.849555       -23.1176
  29   2.0000      -0.843928       -22.9644
  30   2.0000      -0.842344       -22.9213
  31   2.0000      -0.820726       -22.3331
  32   2.0000      -0.798403       -21.7257
  33   2.0000      -0.796055       -21.6618
  34   2.0000      -0.770461       -20.9653
  35   2.0000      -0.662186       -18.0190
  36   2.0000      -0.660546       -17.9744
  37   0.0000      -0.291047        -7.9198
  38   0.0000      -0.270452        -7.3594
  39   0.0000      -0.262076        -7.1314
  40   0.0000      -0.245636        -6.6841
  41   0.0000      -0.095608        -2.6016

MULLIKEN ATOMIC CHARGES
-----------------------
   0 C :   -0.141922
   1 C :   -0.204637
   2 C :    0.153121
   3 C :   -0.245355
   4 C :    0.153114
   5 C :   -0.204622
   6 Cl:   -0.108977
   7 Cl:   -0.108978
   8 H :    0.174786
   9 H :    0.176614
  10 H :    0.180259
  11 H :    0.176597
Sum of atomic charges:    0.0000000

LOEWDIN ATOMIC CHARGES
----------------------
   0 C :   -0.117971
   1 C :   -0.138351
   2 C :   -0.410188
   3 C :   -0.144678
   4 C :   -0.410188
   5 C :   -0.138351
   6 Cl:    0.359990
   7 Cl:    0.359991
   8 H :    0.160325
   9 H :    0.159194
  10 H :    0.161034
  11 H :    0.159194

  Mayer bond orders larger than 0.100000
B(  0-C ,  1-C ) :   1.4023 B(  0-C ,  5-C ) :   1.4022 B(  0-C ,  8-H ) :   0.9639
B(  1-C ,  2-C ) :   1.3676 B(  1-C ,  9-H ) :   0.9658 B(  2-C ,  3-C ) :   1.3571
B(  2-C ,  7-Cl) :   0.9852 B(  3-C ,  4-C ) :   1.3571 B(  3-C , 10-H ) :   0.9605
B(  4-C ,  5-C ) :   1.3675 B(  4-C ,  6-Cl) :   0.9852 B(  5-C , 11-H ) :   0.9658

FINAL SINGLE POINT ENERGY     -1151.350419240838

DIPOLE MOMENT
-------------

Method             : SCF
Type of density    : Electron Density
Multiplicity       :   1
Irrep              :   0
Energy             : -1151.3561042841377002 Eh
Relativity type    :
Basis              : AO
                                X                 Y                 Z
Electronic contribution:      0.000009046       6.345462347      -0.000072672
Nuclear contribution   :     -0.000009249      -7.320390694       0.000083614
                        -----------------------------------------
Total Dipole Moment    :     -0.000000203      -0.974928348       0.000010942
                        -----------------------------------------
Magnitude (a.u.)       :      0.974928348
Magnitude (Debye)      :      2.478070924

Rotational constants in cm-1:             0.093503             0.028218             0.021676
Rotational constants in MHz :          2803.151192           845.941509           649.833299

                             ****ORCA TERMINATED NORMALLY****
TOTAL RUN TIME: 0 days 0 hours 2 minutes 36 seconds 351 msec
