                         Program Version 6.0.0  -   RELEASE  -
|  1> ! pbe def2-sv(p) def2/J RI DEFGRID1 loosescf d4 GCP(DFT/SV(P)) printgap
|  2> %output
|  3>     printlevel normal
|  4> end
|  5> * xyz 0 1
|  6> C 3.4684120247 -0.7190912487 -2.3753099814
|  7> C 2.0219067613 -0.3067831735 -2.2140417062
|  8> O 1.5395702703 -0.6095754119 -0.8910895517
|  9> P 2.0390785549 0.188304821 0.3802057494
| 10> S 2.7099843848 2.0081910603 0.1333272745
| 11> O 3.0732768535 -0.8792926152 0.9655145545
| 12> C 3.8251101915 -0.6183284468 2.1661301847
| 13> C 5.1974463704 -0.0656525308 1.8341720966
| 14> S 0.4008438505 0.0109667041 1.7089178627
| 15> C -0.0859091066 -1.698493706 1.3649994862
| 16> S -1.0368654847 -1.9365182733 -0.1819336301
| 17> P -1.8883039635 -0.0321397336 -0.490389285
| 18> S -0.8594644816 1.4923287818 -1.1686160179
| 19> O -2.6057404667 0.1659803426 0.9242843337
| 20> C -2.8785734698 1.4669413065 1.4754596393
| 21> C -4.063746515 2.1125715817 0.7875421144
| 22> O -3.0164461894 -0.3712839746 -1.5497602534
| 23> C -4.0651270197 -1.3441243513 -1.3010084534
| 24> C -5.3357370019 -0.8477122103 -1.9603519773
| 25> H 3.780739179 -0.542968826 -3.3996623336
| 26> H 4.0915291499 -0.1267887135 -1.7059133298
| 27> H 3.5867565829 -1.771604625 -2.1320627533
| 28> H 1.3553007615 -0.8694440108 -2.8701020893
| 29> H 1.8912315833 0.7654695065 -2.3952460949
| 30> H 3.2652521028 0.0797557282 2.7971471414
| 31> H 3.8979906305 -1.5860787697 2.6660859584
| 32> H 5.7283105768 -0.7522286719 1.1808751856
| 33> H 5.1025856307 0.8955322135 1.3336186305
| 34> H 5.7612285666 0.0674343289 2.7517443839
| 35> H -0.7121232038 -2.0018918269 2.2005625457
| 36> H 0.8004617433 -2.3241622894 1.2803811438
| 37> H -3.0700096834 1.2744235783 2.5318118485
| 38> H -1.982521915 2.0876017319 1.3710839389
| 39> H -3.8380454755 2.2565645556 -0.2691824759
| 40> H -4.9449964113 1.4834018877 0.8823202719
| 41> H -4.2608785455 3.07928151 1.2398661269
| 42> H -3.7342067078 -2.2910897681 -1.7324817542
| 43> H -4.1923202461 -1.4608924814 -0.2221407012
| 44> H -6.1192962418 -1.5858120769 -1.8224604045
| 45> H -5.6478032611 0.0954924846 -1.5201119617
| 46> H -5.1667173298 -0.6954719756 -3.0224933255
| 47> *
| 48>
| 49>                          ****END OF INPUT****

CARTESIAN COORDINATES (ANGSTROEM)
---------------------------------
  C      3.468412   -0.719091   -2.375310
  C      2.021907   -0.306783   -2.214042
  O      1.539570   -0.609575   -0.891090
  P      2.039079    0.188305    0.380206
  S      2.709984    2.008191    0.133327
  O      3.073277   -0.879293    0.965515
  C      3.825110   -0.618328    2.166130
  C      5.197446   -0.065653    1.834172
  S      0.400844    0.010967    1.708918
  C     -0.085909   -1.698494    1.364999
  S     -1.036865   -1.936518   -0.181934
  P     -1.888304   -0.032140   -0.490389
  S     -0.859464    1.492329   -1.168616
  O     -2.605740    0.165980    0.924284
  C     -2.878573    1.466941    1.475460
  C     -4.063747    2.112572    0.787542
  O     -3.016446   -0.371284   -1.549760
  C     -4.065127   -1.344124   -1.301008
  C     -5.335737   -0.847712   -1.960352
  H      3.780739   -0.542969   -3.399662
  H      4.091529   -0.126789   -1.705913
  H      3.586757   -1.771605   -2.132063
  H      1.355301   -0.869444   -2.870102
  H      1.891232    0.765470   -2.395246
  H      3.265252    0.079756    2.797147
  H      3.897991   -1.586079    2.666086
  H      5.728311   -0.752229    1.180875
  H      5.102586    0.895532    1.333619
  H      5.761229    0.067434    2.751744
  H     -0.712123   -2.001892    2.200563
  H      0.800462   -2.324162    1.280381
  H     -3.070010    1.274424    2.531812
  H     -1.982522    2.087602    1.371084
  H     -3.838045    2.256565   -0.269182
  H     -4.944996    1.483402    0.882320
  H     -4.260879    3.079282    1.239866
  H     -3.734207   -2.291090   -1.732482
  H     -4.192320   -1.460892   -0.222141
  H     -6.119296   -1.585812   -1.822460
  H     -5.647803    0.095492   -1.520112
  H     -5.166717   -0.695472   -3.022493

 Total Charge           Charge          ....    0
 Multiplicity           Mult            ....    1
 Number of Electrons    NEL             ....  202
 Basis Dimension        Dim             ....  334

ORBITAL ENERGIES
----------------

  NO   OCC          E(Eh)            E(eV)
   0   2.0000     -88.044574     -2395.8147
   1   2.0000     -88.036638     -2395.5987
   2   2.0000     -87.983554     -2394.1542
   3   2.0000     -87.975090     -2393.9239
   4   2.0000     -76.422840     -2079.5712
   5   2.0000     -76.421091     -2079.5236
   6   2.0000     -18.790646      -511.3195
   7   2.0000     -18.789662      -511.2927
   8   2.0000     -18.787212      -511.2260
   9   2.0000     -18.783286      -511.1192
  10   2.0000      -9.960731      -271.0453
  11   2.0000      -9.954640      -270.8795
  12   2.0000      -9.951938      -270.8060
  13   2.0000      -9.948054      -270.7003
  14   2.0000      -9.941300      -270.5165
  15   2.0000      -9.890055      -269.1221
  16   2.0000      -9.883539      -268.9448
  17   2.0000      -9.878740      -268.8142
  18   2.0000      -9.876057      -268.7412
  19   2.0000      -7.689092      -209.2308
  20   2.0000      -7.681981      -209.0373
  21   2.0000      -7.628704      -207.5876
  22   2.0000      -7.620033      -207.3516
  23   2.0000      -6.420185      -174.7021
  24   2.0000      -6.418300      -174.6508
  25   2.0000      -5.717413      -155.5787
  26   2.0000      -5.713313      -155.4671
  27   2.0000      -5.710184      -155.3820
  28   2.0000      -5.706432      -155.2799
  29   2.0000      -5.705915      -155.2658
  30   2.0000      -5.698627      -155.0675
  31   2.0000      -5.657679      -153.9533
  32   2.0000      -5.649488      -153.7304
  33   2.0000      -5.649281      -153.7247
  34   2.0000      -5.648653      -153.7077
  35   2.0000      -5.640455      -153.4846
  36   2.0000      -5.640048      -153.4735
  37   2.0000      -4.642497      -126.3288
  38   2.0000      -4.642202      -126.3207
  39   2.0000      -4.641433      -126.2998
  40   2.0000      -4.640713      -126.2802
  41   2.0000      -4.639854      -126.2568
  42   2.0000      -4.638529      -126.2208
  43   2.0000      -0.982489       -26.7349
  44   2.0000      -0.981812       -26.7165
  45   2.0000      -0.942387       -25.6436
  46   2.0000      -0.939550       -25.5665
  47   2.0000      -0.762098       -20.7377
  48   2.0000      -0.718739       -19.5579
  49   2.0000      -0.705884       -19.2081
  50   2.0000      -0.689748       -18.7690
  51   2.0000      -0.680232       -18.5100
  52   2.0000      -0.669359       -18.2142
  53   2.0000      -0.650413       -17.6986
  54   2.0000      -0.635855       -17.3025
  55   2.0000      -0.591740       -16.1021
  56   2.0000      -0.585715       -15.9381
  57   2.0000      -0.572668       -15.5831
  58   2.0000      -0.567370       -15.4389
  59   2.0000      -0.560185       -15.2434
  60   2.0000      -0.503861       -13.7108
  61   2.0000      -0.496305       -13.5051
  62   2.0000      -0.478226       -13.0132
  63   2.0000      -0.468483       -12.7481
  64   2.0000      -0.453143       -12.3306
  65   2.0000      -0.441933       -12.0256
  66   2.0000      -0.437525       -11.9057
  67   2.0000      -0.434844       -11.8327
  68   2.0000      -0.421129       -11.4595
  69   2.0000      -0.410857       -11.1800
  70   2.0000      -0.403743       -10.9864
  71   2.0000      -0.396432       -10.7875
  72   2.0000      -0.394366       -10.7312
  73   2.0000      -0.388602       -10.5744
  74   2.0000      -0.380974       -10.3668
  75   2.0000      -0.367457        -9.9990
  76   2.0000      -0.361458        -9.8358
  77   2.0000      -0.357071        -9.7164
  78   2.0000      -0.354717        -9.6523
  79   2.0000      -0.345809        -9.4100
  80   2.0000      -0.345389        -9.3985
  81   2.0000      -0.342835        -9.3290
  82   2.0000      -0.342445        -9.3184
  83   2.0000      -0.333223        -9.0675
  84   2.0000      -0.324183        -8.8215
  85   2.0000      -0.321031        -8.7357
  86   2.0000      -0.312875        -8.5138
  87   2.0000      -0.307022        -8.3545
  88   2.0000      -0.292859        -7.9691
  89   2.0000      -0.284431        -7.7398
  90   2.0000      -0.277984        -7.5643
  91   2.0000      -0.269242        -7.3265
  92   2.0000      -0.266680        -7.2567
  93   2.0000      -0.265022        -7.2116
  94   2.0000      -0.256779        -6.9873
  95   2.0000      -0.232421        -6.3245
  96   2.0000      -0.217350        -5.9144
  97   2.0000      -0.206139        -5.6093
  98   2.0000      -0.196499        -5.3470
  99   2.0000      -0.190486        -5.1834
 100   2.0000      -0.183154        -4.9839
 101   0.0000      -0.048083        -1.3084
 102   0.0000      -0.023022        -0.6264
 103   0.0000      -0.009110        -0.2479
 104   0.0000       0.001055         0.0287
 105   0.0000       0.022403         0.6096

MULLIKEN ATOMIC CHARGES
-----------------------
   0 C :   -0.303107
   1 C :   -0.001581
   2 O :   -0.366864
   3 P :    0.614764
   4 S :   -0.304741
   5 O :   -0.375517
   6 C :   -0.010816
   7 C :   -0.289257
   8 S :   -0.090622
   9 C :   -0.310842
  10 S :   -0.109425
  11 P :    0.606322
  12 S :   -0.295111
  13 O :   -0.393126
  14 C :   -0.007867
  15 C :   -0.313776
  16 O :   -0.367445
  17 C :   -0.026272
  18 C :   -0.282845
  19 H :    0.110222
  20 H :    0.122915
  21 H :    0.110972
  22 H :    0.102597
  23 H :    0.121444
  24 H :    0.098022
  25 H :    0.100909
  26 H :    0.112206
  27 H :    0.128979
  28 H :    0.105914
  29 H :    0.183129
  30 H :    0.182825
  31 H :    0.098813
  32 H :    0.121591
  33 H :    0.132535
  34 H :    0.111697
  35 H :    0.113413
  36 H :    0.110425
  37 H :    0.107458
  38 H :    0.110130
  39 H :    0.118898
  40 H :    0.123035
Sum of atomic charges:   -0.0000000

LOEWDIN ATOMIC CHARGES
----------------------
   0 C :   -0.366036
   1 C :   -0.116475
   2 O :   -0.234417
   3 P :    0.572675
   4 S :   -0.303810
   5 O :   -0.253302
   6 C :   -0.119732
   7 C :   -0.363543
   8 S :    0.101180
   9 C :   -0.466658
  10 S :    0.068599
  11 P :    0.556368
  12 S :   -0.295438
  13 O :   -0.257486
  14 C :   -0.123288
  15 C :   -0.365147
  16 O :   -0.246777
  17 C :   -0.122122
  18 C :   -0.351223
  19 H :    0.129734
  20 H :    0.121107
  21 H :    0.123791
  22 H :    0.118121
  23 H :    0.112338
  24 H :    0.105130
  25 H :    0.115155
  26 H :    0.124542
  27 H :    0.124407
  28 H :    0.127819
  29 H :    0.135841
  30 H :    0.133645
  31 H :    0.115244
  32 H :    0.111930
  33 H :    0.126424
  34 H :    0.120180
  35 H :    0.131673
  36 H :    0.114187
  37 H :    0.108237
  38 H :    0.129779
  39 H :    0.126586
  40 H :    0.130763

  Mayer bond orders larger than 0.100000
B(  0-C ,  1-C ) :   1.1602 B(  0-C , 19-H ) :   0.9395 B(  0-C , 20-H ) :   0.9332
B(  0-C , 21-H ) :   0.9455 B(  1-C ,  2-O ) :   0.8915 B(  1-C , 22-H ) :   0.9333
B(  1-C , 23-H ) :   0.9161 B(  2-O ,  3-P ) :   1.1300 B(  3-P ,  4-S ) :   1.6458
B(  3-P ,  5-O ) :   1.0716 B(  3-P ,  8-S ) :   0.9454 B(  5-O ,  6-C ) :   0.9099
B(  6-C ,  7-C ) :   1.1686 B(  6-C , 24-H ) :   0.9123 B(  6-C , 25-H ) :   0.9358
B(  7-C , 26-H ) :   0.9464 B(  7-C , 27-H ) :   0.9307 B(  7-C , 28-H ) :   0.9399
B(  8-S ,  9-C ) :   1.0082 B(  9-C , 10-S ) :   0.9679 B(  9-C , 29-H ) :   0.9111
B(  9-C , 30-H ) :   0.9029 B( 10-S , 11-P ) :   0.9860 B( 10-S , 12-S ) :   0.1107
B( 11-P , 12-S ) :   1.6291 B( 11-P , 13-O ) :   1.0548 B( 11-P , 16-O ) :   1.1182
B( 13-O , 14-C ) :   0.9010 B( 14-C , 15-C ) :   1.1645 B( 14-C , 31-H ) :   0.9346
B( 14-C , 32-H ) :   0.9096 B( 15-C , 33-H ) :   0.9338 B( 15-C , 34-H ) :   0.9437
B( 15-C , 35-H ) :   0.9391 B( 16-O , 17-C ) :   0.8970 B( 17-C , 18-C ) :   1.1636
B( 17-C , 36-H ) :   0.9317 B( 17-C , 37-H ) :   0.9153 B( 18-C , 38-H ) :   0.9409
B( 18-C , 39-H ) :   0.9475 B( 18-C , 40-H ) :   0.9485

Dispersion correction           -0.067628533
FINAL SINGLE POINT ENERGY     -2929.513345670850

DIPOLE MOMENT
-------------

Method             : SCF
Type of density    : Electron Density
Multiplicity       :   1
Irrep              :   0
Energy             : -2929.6305837386894382 Eh
Relativity type    :
Basis              : AO
                                X                 Y                 Z
Electronic contribution:      3.539421380       2.448387690       1.549448162
Nuclear contribution   :     -4.319845443      -3.891111241      -0.727357665
                        -----------------------------------------
Total Dipole Moment    :     -0.780424063      -1.442723551       0.822090497
                        -----------------------------------------
Magnitude (a.u.)       :      1.834760406
Magnitude (Debye)      :      4.663590331

Rotational constants in cm-1:             0.014572             0.004863             0.004701
Rotational constants in MHz :           436.846889           145.776677           140.919921

                             ****ORCA TERMINATED NORMALLY****
TOTAL RUN TIME: 0 days 0 hours 0 minutes 21 seconds 167 msec
