                         Program Version 6.0.1  -  RELEASE   -
|  1> ! pbe def2-sv(p) def2/J RI DEFGRID1 loosescf d4 GCP(DFT/SV(P)) printgap
|  2> %output
|  3>     printlevel normal
|  4> end
|  5> * xyz 0 1
|  6> C 3.3932601008 -4.1110302325 -0.2897522544
|  7> C 1.9925220887 -3.6162524608 -0.6129684916
|  8> O 1.8170668537 -2.2471569328 -0.2021462497
|  9> C 2.2168773186 -1.2920589145 -1.0176808106
| 10> O 2.7204285483 -1.4723510305 -2.102878975
| 11> C 1.9101219182 0.0784801867 -0.4420052745
| 12> C 0.7433316789 0.6835753661 -1.226990296
| 13> H 1.0463535207 0.8562112717 -2.2635271626
| 14> C 0.2739273152 1.9836590756 -0.6012834493
| 15> O -0.8618519936 2.1316945718 -0.196022361
| 16> O 1.217675498 2.878653442 -0.5618570319
| 17> C 0.9480971875 4.1318959967 0.1077990413
| 18> C 1.2549186416 4.0128547907 1.591323205
| 19> S -0.6873181876 -0.434012226 -1.3369603338
| 20> P -1.5215166178 -0.2398405407 0.6300796353
| 21> S -0.5008442917 0.3924236823 2.1769095172
| 22> O -3.0075155313 0.3177718489 0.450436012
| 23> C -3.4641332579 1.6585996632 0.6245315644
| 24> O -1.8651139773 -1.7687979344 0.9167743298
| 25> C -2.6875392047 -2.5713421642 0.0555418167
| 26> H 4.1282811739 -3.5545580212 -0.8666023714
| 27> H 3.6004322345 -3.9814804716 0.7690970545
| 28> H 3.4681906312 -5.1631499796 -0.5437634514
| 29> H 1.2365063828 -4.1650995818 -0.0510880797
| 30> H 1.7950575855 -3.6822470148 -1.6868496098
| 31> H 2.7789693 0.7273296229 -0.555397607
| 32> H 1.6523226972 -0.027199792 0.6131884733
| 33> H 1.6075860601 4.847331013 -0.3827926432
| 34> H -0.0992662375 4.3973969316 -0.0552273045
| 35> H 0.6399118476 3.2365821615 2.0443219172
| 36> H 2.2997475382 3.7573313229 1.7415853612
| 37> H 1.0439331963 4.9588150809 2.0784066573
| 38> H -2.9013428626 2.1499376107 1.4179145769
| 39> H -4.5142319249 1.5738273133 0.8958096031
| 40> H -3.3452912841 2.2118790288 -0.3048800673
| 41> H -2.2715001018 -2.584813996 -0.9524602672
| 42> H -3.7013735812 -2.1758566078 0.0345121449
| 43> H -2.6704960922 -3.5669222466 0.4917338201
| 44> *
| 45>
| 46>                          ****END OF INPUT****

CARTESIAN COORDINATES (ANGSTROEM)
---------------------------------
  C      3.393260   -4.111030   -0.289752
  C      1.992522   -3.616252   -0.612968
  O      1.817067   -2.247157   -0.202146
  C      2.216877   -1.292059   -1.017681
  O      2.720429   -1.472351   -2.102879
  C      1.910122    0.078480   -0.442005
  C      0.743332    0.683575   -1.226990
  H      1.046354    0.856211   -2.263527
  C      0.273927    1.983659   -0.601283
  O     -0.861852    2.131695   -0.196022
  O      1.217675    2.878653   -0.561857
  C      0.948097    4.131896    0.107799
  C      1.254919    4.012855    1.591323
  S     -0.687318   -0.434012   -1.336960
  P     -1.521517   -0.239841    0.630080
  S     -0.500844    0.392424    2.176910
  O     -3.007516    0.317772    0.450436
  C     -3.464133    1.658600    0.624532
  O     -1.865114   -1.768798    0.916774
  C     -2.687539   -2.571342    0.055542
  H      4.128281   -3.554558   -0.866602
  H      3.600432   -3.981480    0.769097
  H      3.468191   -5.163150   -0.543763
  H      1.236506   -4.165100   -0.051088
  H      1.795058   -3.682247   -1.686850
  H      2.778969    0.727330   -0.555398
  H      1.652323   -0.027200    0.613188
  H      1.607586    4.847331   -0.382793
  H     -0.099266    4.397397   -0.055227
  H      0.639912    3.236582    2.044322
  H      2.299748    3.757331    1.741585
  H      1.043933    4.958815    2.078407
  H     -2.901343    2.149938    1.417915
  H     -4.514232    1.573827    0.895810
  H     -3.345291    2.211879   -0.304880
  H     -2.271500   -2.584814   -0.952460
  H     -3.701374   -2.175857    0.034512
  H     -2.670496   -3.566922    0.491734

 Total Charge           Charge          ....    0
 Multiplicity           Mult            ....    1
 Number of Electrons    NEL             ....  174
 Basis Dimension        Dim             ....  316

ORBITAL ENERGIES
----------------

  NO   OCC          E(Eh)            E(eV)
   0   2.0000     -88.034747     -2395.5472
   1   2.0000     -87.974813     -2393.9164
   2   2.0000     -76.422262     -2079.5555
   3   2.0000     -18.824948      -512.2529
   4   2.0000     -18.797507      -511.5062
   5   2.0000     -18.785079      -511.1680
   6   2.0000     -18.777022      -510.9487
   7   2.0000     -18.759823      -510.4807
   8   2.0000     -18.734164      -509.7825
   9   2.0000     -10.030353      -272.9398
  10   2.0000     -10.005660      -272.2678
  11   2.0000      -9.959705      -271.0173
  12   2.0000      -9.954141      -270.8659
  13   2.0000      -9.943316      -270.5714
  14   2.0000      -9.941724      -270.5281
  15   2.0000      -9.936189      -270.3774
  16   2.0000      -9.903077      -269.4764
  17   2.0000      -9.889271      -269.1007
  18   2.0000      -9.883243      -268.9367
  19   2.0000      -7.679479      -208.9693
  20   2.0000      -7.620091      -207.3532
  21   2.0000      -6.418035      -174.6436
  22   2.0000      -5.707568      -155.3108
  23   2.0000      -5.704187      -155.2188
  24   2.0000      -5.696045      -154.9973
  25   2.0000      -5.649384      -153.7276
  26   2.0000      -5.640842      -153.4951
  27   2.0000      -5.639626      -153.4620
  28   2.0000      -4.640917      -126.2858
  29   2.0000      -4.639953      -126.2595
  30   2.0000      -4.638515      -126.2204
  31   2.0000      -1.034611       -28.1532
  32   2.0000      -1.005593       -27.3636
  33   2.0000      -0.975196       -26.5364
  34   2.0000      -0.940100       -25.5814
  35   2.0000      -0.929732       -25.2993
  36   2.0000      -0.911752       -24.8100
  37   2.0000      -0.767042       -20.8723
  38   2.0000      -0.715366       -19.4661
  39   2.0000      -0.704683       -19.1754
  40   2.0000      -0.689415       -18.7599
  41   2.0000      -0.653473       -17.7819
  42   2.0000      -0.631642       -17.1879
  43   2.0000      -0.627032       -17.0624
  44   2.0000      -0.612048       -16.6547
  45   2.0000      -0.594087       -16.1659
  46   2.0000      -0.566156       -15.4059
  47   2.0000      -0.513333       -13.9685
  48   2.0000      -0.507138       -13.7999
  49   2.0000      -0.493887       -13.4393
  50   2.0000      -0.487923       -13.2771
  51   2.0000      -0.470068       -12.7912
  52   2.0000      -0.459968       -12.5164
  53   2.0000      -0.448512       -12.2046
  54   2.0000      -0.438054       -11.9201
  55   2.0000      -0.427298       -11.6274
  56   2.0000      -0.423345       -11.5198
  57   2.0000      -0.420022       -11.4294
  58   2.0000      -0.415137       -11.2964
  59   2.0000      -0.407335       -11.0842
  60   2.0000      -0.401011       -10.9121
  61   2.0000      -0.396743       -10.7959
  62   2.0000      -0.391866       -10.6632
  63   2.0000      -0.383394       -10.4327
  64   2.0000      -0.382534       -10.4093
  65   2.0000      -0.367906       -10.0112
  66   2.0000      -0.357947        -9.7402
  67   2.0000      -0.353996        -9.6327
  68   2.0000      -0.347901        -9.4669
  69   2.0000      -0.336827        -9.1655
  70   2.0000      -0.335726        -9.1356
  71   2.0000      -0.329085        -8.9548
  72   2.0000      -0.323443        -8.8013
  73   2.0000      -0.308293        -8.3891
  74   2.0000      -0.305854        -8.3227
  75   2.0000      -0.295268        -8.0347
  76   2.0000      -0.292440        -7.9577
  77   2.0000      -0.288456        -7.8493
  78   2.0000      -0.281158        -7.6507
  79   2.0000      -0.263431        -7.1683
  80   2.0000      -0.255524        -6.9532
  81   2.0000      -0.253328        -6.8934
  82   2.0000      -0.247423        -6.7327
  83   2.0000      -0.220521        -6.0007
  84   2.0000      -0.212007        -5.7690
  85   2.0000      -0.193844        -5.2748
  86   2.0000      -0.187611        -5.1052
  87   0.0000      -0.047595        -1.2951
  88   0.0000      -0.040429        -1.1001
  89   0.0000      -0.013742        -0.3739
  90   0.0000      -0.002808        -0.0764
  91   0.0000       0.030205         0.8219

MULLIKEN ATOMIC CHARGES
-----------------------
   0 C :   -0.308202
   1 C :   -0.007177
   2 O :   -0.213690
   3 C :    0.120429
   4 O :   -0.207850
   5 C :   -0.065531
   6 C :   -0.325011
   7 H :    0.156735
   8 C :    0.226429
   9 O :   -0.190882
  10 O :   -0.217222
  11 C :   -0.012435
  12 C :   -0.315575
  13 S :   -0.110961
  14 P :    0.640337
  15 S :   -0.322125
  16 O :   -0.397583
  17 C :   -0.079768
  18 O :   -0.368341
  19 C :   -0.112925
  20 H :    0.126716
  21 H :    0.116797
  22 H :    0.111084
  23 H :    0.104389
  24 H :    0.104835
  25 H :    0.114348
  26 H :    0.120746
  27 H :    0.109407
  28 H :    0.111476
  29 H :    0.146391
  30 H :    0.116494
  31 H :    0.114083
  32 H :    0.114948
  33 H :    0.115883
  34 H :    0.116096
  35 H :    0.120870
  36 H :    0.119813
  37 H :    0.126969
Sum of atomic charges:    0.0000000

LOEWDIN ATOMIC CHARGES
----------------------
   0 C :   -0.356620
   1 C :   -0.109854
   2 O :   -0.048613
   3 C :    0.021661
   4 O :   -0.172800
   5 C :   -0.257176
   6 C :   -0.255498
   7 H :    0.153593
   8 C :    0.024211
   9 O :   -0.157599
  10 O :   -0.034012
  11 C :   -0.105391
  12 C :   -0.359328
  13 S :    0.095890
  14 P :    0.590326
  15 S :   -0.312039
  16 O :   -0.253325
  17 C :   -0.205994
  18 O :   -0.252782
  19 C :   -0.214676
  20 H :    0.130003
  21 H :    0.126039
  22 H :    0.129754
  23 H :    0.119167
  24 H :    0.118438
  25 H :    0.142364
  26 H :    0.129827
  27 H :    0.120989
  28 H :    0.121302
  29 H :    0.131804
  30 H :    0.126706
  31 H :    0.131996
  32 H :    0.111343
  33 H :    0.115813
  34 H :    0.112981
  35 H :    0.104511
  36 H :    0.113465
  37 H :    0.123524

  Mayer bond orders larger than 0.100000
B(  0-C ,  1-C ) :   1.1725 B(  0-C , 20-H ) :   0.9460 B(  0-C , 21-H ) :   0.9482
B(  0-C , 22-H ) :   0.9446 B(  1-C ,  2-O ) :   0.9181 B(  1-C , 23-H ) :   0.9363
B(  1-C , 24-H ) :   0.9155 B(  2-O ,  3-C ) :   1.2425 B(  3-C ,  4-O ) :   2.0422
B(  3-C ,  5-C ) :   1.0083 B(  5-C ,  6-C ) :   1.0558 B(  5-C , 25-H ) :   0.8757
B(  5-C , 26-H ) :   0.8709 B(  6-C ,  7-H ) :   0.8592 B(  6-C ,  8-C ) :   0.9146
B(  6-C , 13-S ) :   1.0500 B(  8-C ,  9-O ) :   1.9463 B(  8-C , 10-O ) :   1.2849
B( 10-O , 11-C ) :   0.8944 B( 11-C , 12-C ) :   1.1784 B( 11-C , 27-H ) :   0.9361
B( 11-C , 28-H ) :   0.9138 B( 12-C , 29-H ) :   0.9297 B( 12-C , 30-H ) :   0.9482
B( 12-C , 31-H ) :   0.9410 B( 13-S , 14-P ) :   0.9133 B( 13-S , 15-S ) :   0.1117
B( 14-P , 15-S ) :   1.5804 B( 14-P , 16-O ) :   1.0909 B( 14-P , 18-O ) :   1.1060
B( 16-O , 17-C ) :   0.9279 B( 17-C , 32-H ) :   0.9421 B( 17-C , 33-H ) :   0.9540
B( 17-C , 34-H ) :   0.9526 B( 18-O , 19-C ) :   0.9344 B( 19-C , 35-H ) :   0.9360
B( 19-C , 36-H ) :   0.9461 B( 19-C , 37-H ) :   0.9605

Dispersion correction           -0.052674444
FINAL SINGLE POINT ENERGY     -1979.011362724939

DIPOLE MOMENT
-------------

Method             : SCF
Type of density    : Electron Density
Multiplicity       :   1
Irrep              :   0
Energy             : -1979.1414827105045333 Eh
Relativity type    :
Basis              : AO
                                X                 Y                 Z
Electronic contribution:     -7.139996811       0.526765386      -2.021446784
Nuclear contribution   :      6.829754805       0.039863201       1.661700488
                        -----------------------------------------
Total Dipole Moment    :     -0.310242005       0.566628587      -0.359746295
                        -----------------------------------------
Magnitude (a.u.)       :      0.739415617
Magnitude (Debye)      :      1.879445137

Rotational constants in cm-1:             0.011825             0.008214             0.005932
Rotational constants in MHz :           354.489819           246.258283           177.851508

                             ****ORCA TERMINATED NORMALLY****
TOTAL RUN TIME: 0 days 0 hours 0 minutes 37 seconds 306 msec
