                         Program Version 6.0.1  -  RELEASE   -
|  1> ! pbe def2-sv(p) def2/J RI DEFGRID1 loosescf d4 GCP(DFT/SV(P)) printgap
|  2> %output
|  3>     printlevel normal
|  4> end
|  5> * xyz 0 1
|  6> C 4.0394921365 -0.1728036532 -2.8871520952
|  7> C 4.1524677666 -1.5424255654 -2.2374924204
|  8> O 2.8797622705 -1.9291463717 -1.6837399488
|  9> C 2.6911022567 -1.8365102432 -0.3851817309
| 10> O 3.5358893189 -1.5280214964 0.4260445329
| 11> C 1.2564963186 -2.175653255 -0.0131325471
| 12> C 0.3546955064 -0.9968687593 -0.403060808
| 13> H 0.3134467029 -0.8944570921 -1.4902418007
| 14> C 0.9636622658 0.2673477649 0.1724416297
| 15> O 1.8784108348 0.837554819 -0.3788375603
| 16> O 0.4775879281 0.5946579075 1.3501341427
| 17> C 1.0931544541 1.7179228697 2.0133217992
| 18> C 0.4860834236 1.8571495616 3.3935288612
| 19> S -1.3221196688 -1.3158337438 0.233041025
| 20> P -2.1279786107 0.6434112499 0.0878584309
| 21> S -1.2134165227 1.8801033476 -1.1280325752
| 22> O -3.653217922 0.3498038479 -0.2945234603
| 23> C -4.0129650243 -0.1607129655 -1.5833689864
| 24> O -2.3085889528 1.2147457197 1.5467294964
| 25> C -3.0156787228 0.4716605092 2.5637653878
| 26> H 5.0111370773 0.1319827352 -3.2609721446
| 27> H 3.3299747174 -0.2029338448 -3.7090819835
| 28> H 3.6913211871 0.5549476319 -2.1563471155
| 29> H 4.8925105542 -1.5360050781 -1.4325403587
| 30> H 4.3934033335 -2.3137555566 -2.9704439772
| 31> H 1.203411589 -2.3436474339 1.0629846447
| 32> H 0.935457512 -3.066747978 -0.5511222837
| 33> H 2.1705504951 1.527112911 2.050830699
| 34> H 0.9204058636 2.6065552655 1.3969340627
| 35> H -0.5695591749 2.0949845521 3.3093134902
| 36> H 0.6043589391 0.9309675553 3.9477894269
| 37> H 0.992511469 2.658673074 3.9207119442
| 38> H -3.7170263902 -1.2065861462 -1.6623599882
| 39> H -3.5312884711 0.4254678989 -2.3674818341
| 40> H -5.093586657 -0.0616074475 -1.6457088931
| 41> H -2.9774582879 1.094488044 3.4534993237
| 42> H -2.517241717 -0.4817237361 2.7368700585
| 43> H -4.0450252891 0.3063827426 2.2533553688
| 44> *
| 45>
| 46>                          ****END OF INPUT****

CARTESIAN COORDINATES (ANGSTROEM)
---------------------------------
  C      4.039492   -0.172804   -2.887152
  C      4.152468   -1.542426   -2.237492
  O      2.879762   -1.929146   -1.683740
  C      2.691102   -1.836510   -0.385182
  O      3.535889   -1.528021    0.426045
  C      1.256496   -2.175653   -0.013133
  C      0.354696   -0.996869   -0.403061
  H      0.313447   -0.894457   -1.490242
  C      0.963662    0.267348    0.172442
  O      1.878411    0.837555   -0.378838
  O      0.477588    0.594658    1.350134
  C      1.093154    1.717923    2.013322
  C      0.486083    1.857150    3.393529
  S     -1.322120   -1.315834    0.233041
  P     -2.127979    0.643411    0.087858
  S     -1.213417    1.880103   -1.128033
  O     -3.653218    0.349804   -0.294523
  C     -4.012965   -0.160713   -1.583369
  O     -2.308589    1.214746    1.546729
  C     -3.015679    0.471661    2.563765
  H      5.011137    0.131983   -3.260972
  H      3.329975   -0.202934   -3.709082
  H      3.691321    0.554948   -2.156347
  H      4.892511   -1.536005   -1.432540
  H      4.393403   -2.313756   -2.970444
  H      1.203412   -2.343647    1.062985
  H      0.935458   -3.066748   -0.551122
  H      2.170550    1.527113    2.050831
  H      0.920406    2.606555    1.396934
  H     -0.569559    2.094985    3.309313
  H      0.604359    0.930968    3.947789
  H      0.992511    2.658673    3.920712
  H     -3.717026   -1.206586   -1.662360
  H     -3.531288    0.425468   -2.367482
  H     -5.093587   -0.061607   -1.645709
  H     -2.977458    1.094488    3.453499
  H     -2.517242   -0.481724    2.736870
  H     -4.045025    0.306383    2.253355

 Total Charge           Charge          ....    0
 Multiplicity           Mult            ....    1
 Number of Electrons    NEL             ....  174
 Basis Dimension        Dim             ....  316

ORBITAL ENERGIES
----------------

  NO   OCC          E(Eh)            E(eV)
   0   2.0000     -88.044520     -2395.8132
   1   2.0000     -87.988348     -2394.2847
   2   2.0000     -76.430987     -2079.7929
   3   2.0000     -18.807836      -511.7872
   4   2.0000     -18.801188      -511.6063
   5   2.0000     -18.799404      -511.5578
   6   2.0000     -18.798009      -511.5198
   7   2.0000     -18.734910      -509.8028
   8   2.0000     -18.732810      -509.7457
   9   2.0000     -10.014408      -272.5059
  10   2.0000     -10.008957      -272.3576
  11   2.0000      -9.955552      -270.9043
  12   2.0000      -9.950573      -270.7689
  13   2.0000      -9.949535      -270.7406
  14   2.0000      -9.943273      -270.5702
  15   2.0000      -9.940202      -270.4866
  16   2.0000      -9.916386      -269.8386
  17   2.0000      -9.885465      -268.9972
  18   2.0000      -9.873897      -268.6824
  19   2.0000      -7.689502      -209.2420
  20   2.0000      -7.633383      -207.7149
  21   2.0000      -6.428160      -174.9191
  22   2.0000      -5.717238      -155.5740
  23   2.0000      -5.714016      -155.4863
  24   2.0000      -5.706640      -155.2856
  25   2.0000      -5.662514      -154.0848
  26   2.0000      -5.653666      -153.8441
  27   2.0000      -5.653650      -153.8436
  28   2.0000      -4.650897      -126.5573
  29   2.0000      -4.650055      -126.5344
  30   2.0000      -4.648422      -126.4900
  31   2.0000      -1.015427       -27.6312
  32   2.0000      -1.006228       -27.3809
  33   2.0000      -0.993980       -27.0476
  34   2.0000      -0.949205       -25.8292
  35   2.0000      -0.916870       -24.9493
  36   2.0000      -0.910527       -24.7767
  37   2.0000      -0.770791       -20.9743
  38   2.0000      -0.713569       -19.4172
  39   2.0000      -0.703248       -19.1364
  40   2.0000      -0.692924       -18.8554
  41   2.0000      -0.661142       -17.9906
  42   2.0000      -0.643216       -17.5028
  43   2.0000      -0.625747       -17.0274
  44   2.0000      -0.611684       -16.6448
  45   2.0000      -0.586296       -15.9539
  46   2.0000      -0.563981       -15.3467
  47   2.0000      -0.521639       -14.1945
  48   2.0000      -0.508326       -13.8323
  49   2.0000      -0.497231       -13.5303
  50   2.0000      -0.481879       -13.1126
  51   2.0000      -0.478609       -13.0236
  52   2.0000      -0.459810       -12.5121
  53   2.0000      -0.445270       -12.1164
  54   2.0000      -0.439791       -11.9673
  55   2.0000      -0.437776       -11.9125
  56   2.0000      -0.428562       -11.6618
  57   2.0000      -0.421043       -11.4572
  58   2.0000      -0.413202       -11.2438
  59   2.0000      -0.408234       -11.1086
  60   2.0000      -0.407316       -11.0836
  61   2.0000      -0.401484       -10.9249
  62   2.0000      -0.385210       -10.4821
  63   2.0000      -0.378039       -10.2870
  64   2.0000      -0.374339       -10.1863
  65   2.0000      -0.359053        -9.7703
  66   2.0000      -0.356086        -9.6896
  67   2.0000      -0.352320        -9.5871
  68   2.0000      -0.345958        -9.4140
  69   2.0000      -0.338529        -9.2118
  70   2.0000      -0.333738        -9.0815
  71   2.0000      -0.325115        -8.8468
  72   2.0000      -0.318471        -8.6660
  73   2.0000      -0.314260        -8.5515
  74   2.0000      -0.311736        -8.4828
  75   2.0000      -0.305570        -8.3150
  76   2.0000      -0.303405        -8.2561
  77   2.0000      -0.287484        -7.8228
  78   2.0000      -0.278051        -7.5662
  79   2.0000      -0.267744        -7.2857
  80   2.0000      -0.260052        -7.0764
  81   2.0000      -0.252323        -6.8661
  82   2.0000      -0.237355        -6.4588
  83   2.0000      -0.220198        -5.9919
  84   2.0000      -0.214716        -5.8427
  85   2.0000      -0.206990        -5.6325
  86   2.0000      -0.204503        -5.5648
  87   0.0000      -0.044952        -1.2232
  88   0.0000      -0.028557        -0.7771
  89   0.0000      -0.023426        -0.6374
  90   0.0000       0.009561         0.2602
  91   0.0000       0.012616         0.3433

MULLIKEN ATOMIC CHARGES
-----------------------
   0 C :   -0.306549
   1 C :   -0.021807
   2 O :   -0.234086
   3 C :    0.094564
   4 O :   -0.194226
   5 C :   -0.057835
   6 C :   -0.252854
   7 H :    0.149108
   8 C :    0.165273
   9 O :   -0.186641
  10 O :   -0.225257
  11 C :   -0.026667
  12 C :   -0.287450
  13 S :   -0.106644
  14 P :    0.608832
  15 S :   -0.293617
  16 O :   -0.388142
  17 C :   -0.100893
  18 O :   -0.360704
  19 C :   -0.115198
  20 H :    0.105832
  21 H :    0.108726
  22 H :    0.147916
  23 H :    0.112905
  24 H :    0.100530
  25 H :    0.110165
  26 H :    0.122087
  27 H :    0.115300
  28 H :    0.112980
  29 H :    0.128866
  30 H :    0.111305
  31 H :    0.110632
  32 H :    0.115996
  33 H :    0.120469
  34 H :    0.127203
  35 H :    0.135159
  36 H :    0.124950
  37 H :    0.129771
Sum of atomic charges:    0.0000000

LOEWDIN ATOMIC CHARGES
----------------------
   0 C :   -0.358140
   1 C :   -0.110570
   2 O :   -0.058191
   3 C :    0.026468
   4 O :   -0.160743
   5 C :   -0.239874
   6 C :   -0.258183
   7 H :    0.143732
   8 C :   -0.002186
   9 O :   -0.143607
  10 O :   -0.058573
  11 C :   -0.105044
  12 C :   -0.353680
  13 S :    0.085324
  14 P :    0.570646
  15 S :   -0.283754
  16 O :   -0.259304
  17 C :   -0.215608
  18 O :   -0.235632
  19 C :   -0.211580
  20 H :    0.127105
  21 H :    0.122898
  22 H :    0.137838
  23 H :    0.120934
  24 H :    0.115317
  25 H :    0.137273
  26 H :    0.140210
  27 H :    0.121470
  28 H :    0.120378
  29 H :    0.126953
  30 H :    0.125146
  31 H :    0.131494
  32 H :    0.109447
  33 H :    0.113199
  34 H :    0.123568
  35 H :    0.124875
  36 H :    0.112584
  37 H :    0.117813

  Mayer bond orders larger than 0.100000
B(  0-C ,  1-C ) :   1.1771 B(  0-C , 20-H ) :   0.9429 B(  0-C , 21-H ) :   0.9506
B(  0-C , 22-H ) :   0.9318 B(  1-C ,  2-O ) :   0.9057 B(  1-C , 23-H ) :   0.9069
B(  1-C , 24-H ) :   0.9374 B(  2-O ,  3-C ) :   1.2238 B(  3-C ,  4-O ) :   2.0600
B(  3-C ,  5-C ) :   1.0109 B(  5-C ,  6-C ) :   1.0544 B(  5-C , 25-H ) :   0.8965
B(  5-C , 26-H ) :   0.8943 B(  6-C ,  7-H ) :   0.8697 B(  6-C ,  8-C ) :   0.9289
B(  6-C , 13-S ) :   0.9970 B(  8-C ,  9-O ) :   1.9840 B(  8-C , 10-O ) :   1.2404
B( 10-O , 11-C ) :   0.8923 B( 11-C , 12-C ) :   1.1547 B( 11-C , 27-H ) :   0.9293
B( 11-C , 28-H ) :   0.9262 B( 12-C , 29-H ) :   0.9397 B( 12-C , 30-H ) :   0.9493
B( 12-C , 31-H ) :   0.9415 B( 13-S , 14-P ) :   0.9601 B( 13-S , 15-S ) :   0.1145
B( 14-P , 15-S ) :   1.6402 B( 14-P , 16-O ) :   1.0721 B( 14-P , 18-O ) :   1.1245
B( 16-O , 17-C ) :   0.9297 B( 17-C , 32-H ) :   0.9463 B( 17-C , 33-H ) :   0.9360
B( 17-C , 34-H ) :   0.9585 B( 18-O , 19-C ) :   0.9126 B( 19-C , 35-H ) :   0.9539
B( 19-C , 36-H ) :   0.9384 B( 19-C , 37-H ) :   0.9466

Dispersion correction           -0.053002713
FINAL SINGLE POINT ENERGY     -1979.018259292892

DIPOLE MOMENT
-------------

Method             : SCF
Type of density    : Electron Density
Multiplicity       :   1
Irrep              :   0
Energy             : -1979.1486850803794368 Eh
Relativity type    :
Basis              : AO
                                X                 Y                 Z
Electronic contribution:     -8.758392753      -0.443621381      -2.295831649
Nuclear contribution   :      7.652256849      -0.387803250       2.669262403
                        -----------------------------------------
Total Dipole Moment    :     -1.106135904      -0.831424631       0.373430754
                        -----------------------------------------
Magnitude (a.u.)       :      1.433266927
Magnitude (Debye)      :      3.643075008

Rotational constants in cm-1:             0.015346             0.006484             0.005793
Rotational constants in MHz :           460.071007           194.381850           173.672386

                             ****ORCA TERMINATED NORMALLY****
TOTAL RUN TIME: 0 days 0 hours 0 minutes 41 seconds 63 msec
