                         Program Version 6.0.0  -   RELEASE  -
|  1> ! r2scan-3c def2/J RI DEFGRID2 scfconv6 printgap
|  2> %output
|  3>     printlevel normal
|  4> end
|  5> * xyz 0 1
|  6> C 2.738752188 -2.5819111465 -2.318921569
|  7> C 3.1844833523 -2.3747307375 -0.8857395423
|  8> O 3.4246978835 -0.9732265458 -0.6023980354
|  9> P 2.3512583008 0.0329958608 -0.0267516806
| 10> S 3.1626056012 1.691662573 0.605278897
| 11> O 1.5592938104 -0.8269909427 1.060854875
| 12> C 1.3662329064 -0.4201078278 2.426705681
| 13> C 2.4486073746 -1.0120958495 3.3065876761
| 14> S 0.9451620606 0.2457569585 -1.6111788264
| 15> C 0.208502361 1.8006420524 -1.0533004433
| 16> S -0.6407338222 1.663013228 0.5434007538
| 17> P -2.060237667 0.2159408093 -0.0647942082
| 18> S -2.7789083078 0.3729618415 -1.884818089
| 19> O -3.1435196908 0.2243198772 1.0967661014
| 20> C -4.3082959838 1.0670645862 1.0637179335
| 21> C -3.9576375895 2.5326720876 1.220769732
| 22> O -1.2588978669 -1.1069118342 0.2763221553
| 23> C -1.5077317632 -2.3549618817 -0.4001588342
| 24> C -2.849614394 -2.9406026351 -0.0143280092
| 25> H 3.4598698933 -2.140350581 -3.0011880769
| 26> H 2.6640838831 -3.6467858578 -2.5161545325
| 27> H 1.7694047763 -2.1187220388 -2.4928146239
| 28> H 4.1516638766 -2.8454416072 -0.7013994851
| 29> H 2.4450517276 -2.7550244782 -0.1783185531
| 30> H 1.3787073879 0.6728661989 2.4828738167
| 31> H 0.3729145377 -0.7877833371 2.6913608665
| 32> H 2.4551094999 -2.095511629 3.2251125806
| 33> H 3.4200879927 -0.6271368578 3.0005472786
| 34> H 2.2648930293 -0.7291693129 4.3380361516
| 35> H -0.5033790362 2.0952894564 -1.823554612
| 36> H 0.9899319125 2.5488682282 -0.9230379338
| 37> H -4.8310493456 0.8969531841 0.1169960331
| 38> H -4.9160207238 0.7067465481 1.8947872124
| 39> H -4.8701384063 3.1132529155 1.311066007
| 40> H -3.3441409993 2.6825220251 2.1057137513
| 41> H -3.4037877104 2.8796442624 0.34931996
| 42> H -1.4543799511 -2.1810573652 -1.4799196052
| 43> H -0.6794978755 -2.9924936712 -0.0873544863
| 44> H -2.9622327266 -3.917905303 -0.4729915295
| 45> H -2.9233944385 -3.034615541 1.0658943559
| 46> H -3.6494704541 -2.289968809 -0.3663307368
| 47> *
| 48>
| 49>                          ****END OF INPUT****

CARTESIAN COORDINATES (ANGSTROEM)
---------------------------------
  C      2.738752   -2.581911   -2.318922
  C      3.184483   -2.374731   -0.885740
  O      3.424698   -0.973227   -0.602398
  P      2.351258    0.032996   -0.026752
  S      3.162606    1.691663    0.605279
  O      1.559294   -0.826991    1.060855
  C      1.366233   -0.420108    2.426706
  C      2.448607   -1.012096    3.306588
  S      0.945162    0.245757   -1.611179
  C      0.208502    1.800642   -1.053300
  S     -0.640734    1.663013    0.543401
  P     -2.060238    0.215941   -0.064794
  S     -2.778908    0.372962   -1.884818
  O     -3.143520    0.224320    1.096766
  C     -4.308296    1.067065    1.063718
  C     -3.957638    2.532672    1.220770
  O     -1.258898   -1.106912    0.276322
  C     -1.507732   -2.354962   -0.400159
  C     -2.849614   -2.940603   -0.014328
  H      3.459870   -2.140351   -3.001188
  H      2.664084   -3.646786   -2.516155
  H      1.769405   -2.118722   -2.492815
  H      4.151664   -2.845442   -0.701399
  H      2.445052   -2.755024   -0.178319
  H      1.378707    0.672866    2.482874
  H      0.372915   -0.787783    2.691361
  H      2.455109   -2.095512    3.225113
  H      3.420088   -0.627137    3.000547
  H      2.264893   -0.729169    4.338036
  H     -0.503379    2.095289   -1.823555
  H      0.989932    2.548868   -0.923038
  H     -4.831049    0.896953    0.116996
  H     -4.916021    0.706747    1.894787
  H     -4.870138    3.113253    1.311066
  H     -3.344141    2.682522    2.105714
  H     -3.403788    2.879644    0.349320
  H     -1.454380   -2.181057   -1.479920
  H     -0.679498   -2.992494   -0.087354
  H     -2.962233   -3.917905   -0.472992
  H     -2.923394   -3.034616    1.065894
  H     -3.649470   -2.289969   -0.366331

 Total Charge           Charge          ....    0
 Multiplicity           Mult            ....    1
 Number of Electrons    NEL             ....  202
 Basis Dimension        Dim             ....  539

ORBITAL ENERGIES
----------------

  NO   OCC          E(Eh)            E(eV)
   0   2.0000     -88.575620     -2410.2652
   1   2.0000     -88.571427     -2410.1511
   2   2.0000     -88.524573     -2408.8761
   3   2.0000     -88.518299     -2408.7054
   4   2.0000     -76.915961     -2092.9897
   5   2.0000     -76.913166     -2092.9136
   6   2.0000     -18.995940      -516.9058
   7   2.0000     -18.992199      -516.8040
   8   2.0000     -18.989205      -516.7225
   9   2.0000     -18.985732      -516.6280
  10   2.0000     -10.106248      -275.0050
  11   2.0000     -10.104595      -274.9600
  12   2.0000     -10.101563      -274.8775
  13   2.0000     -10.099483      -274.8209
  14   2.0000     -10.091634      -274.6073
  15   2.0000     -10.036171      -273.0981
  16   2.0000     -10.031120      -272.9606
  17   2.0000     -10.030907      -272.9549
  18   2.0000     -10.026028      -272.8221
  19   2.0000      -7.870063      -214.1553
  20   2.0000      -7.865810      -214.0396
  21   2.0000      -7.819302      -212.7740
  22   2.0000      -7.813199      -212.6080
  23   2.0000      -6.594548      -179.4468
  24   2.0000      -6.591213      -179.3560
  25   2.0000      -5.816928      -158.2867
  26   2.0000      -5.813999      -158.2070
  27   2.0000      -5.812734      -158.1725
  28   2.0000      -5.809691      -158.0897
  29   2.0000      -5.807098      -158.0192
  30   2.0000      -5.802837      -157.9032
  31   2.0000      -5.766899      -156.9253
  32   2.0000      -5.760942      -156.7632
  33   2.0000      -5.759592      -156.7265
  34   2.0000      -5.759358      -156.7201
  35   2.0000      -5.753399      -156.5580
  36   2.0000      -5.753159      -156.5514
  37   2.0000      -4.739890      -128.9790
  38   2.0000      -4.739433      -128.9665
  39   2.0000      -4.738459      -128.9400
  40   2.0000      -4.737125      -128.9037
  41   2.0000      -4.735761      -128.8666
  42   2.0000      -4.735003      -128.8460
  43   2.0000      -1.052284       -28.6341
  44   2.0000      -1.046889       -28.4873
  45   2.0000      -1.013079       -27.5673
  46   2.0000      -1.006289       -27.3825
  47   2.0000      -0.801981       -21.8230
  48   2.0000      -0.759988       -20.6803
  49   2.0000      -0.751406       -20.4468
  50   2.0000      -0.734077       -19.9753
  51   2.0000      -0.732876       -19.9426
  52   2.0000      -0.710869       -19.3437
  53   2.0000      -0.687822       -18.7166
  54   2.0000      -0.669626       -18.2214
  55   2.0000      -0.634912       -17.2768
  56   2.0000      -0.621152       -16.9024
  57   2.0000      -0.610832       -16.6216
  58   2.0000      -0.607496       -16.5308
  59   2.0000      -0.591937       -16.1074
  60   2.0000      -0.526659       -14.3311
  61   2.0000      -0.518845       -14.1185
  62   2.0000      -0.497518       -13.5381
  63   2.0000      -0.494510       -13.4563
  64   2.0000      -0.473355       -12.8806
  65   2.0000      -0.466263       -12.6877
  66   2.0000      -0.461165       -12.5489
  67   2.0000      -0.456335       -12.4175
  68   2.0000      -0.444162       -12.0863
  69   2.0000      -0.434402       -11.8207
  70   2.0000      -0.425405       -11.5759
  71   2.0000      -0.413833       -11.2610
  72   2.0000      -0.407376       -11.0853
  73   2.0000      -0.406477       -11.0608
  74   2.0000      -0.393734       -10.7141
  75   2.0000      -0.390890       -10.6366
  76   2.0000      -0.386088       -10.5060
  77   2.0000      -0.376072       -10.2334
  78   2.0000      -0.373103       -10.1527
  79   2.0000      -0.372374       -10.1328
  80   2.0000      -0.366255        -9.9663
  81   2.0000      -0.364175        -9.9097
  82   2.0000      -0.360475        -9.8090
  83   2.0000      -0.354969        -9.6592
  84   2.0000      -0.346955        -9.4411
  85   2.0000      -0.335579        -9.1316
  86   2.0000      -0.324609        -8.8330
  87   2.0000      -0.315757        -8.5922
  88   2.0000      -0.311632        -8.4799
  89   2.0000      -0.301397        -8.2014
  90   2.0000      -0.298082        -8.1112
  91   2.0000      -0.292497        -7.9592
  92   2.0000      -0.284930        -7.7534
  93   2.0000      -0.281501        -7.6600
  94   2.0000      -0.270284        -7.3548
  95   2.0000      -0.245193        -6.6720
  96   2.0000      -0.230112        -6.2617
  97   2.0000      -0.227196        -6.1823
  98   2.0000      -0.222395        -6.0517
  99   2.0000      -0.215176        -5.8552
 100   2.0000      -0.210096        -5.7170
 101   0.0000      -0.047938        -1.3045
 102   0.0000      -0.024508        -0.6669
 103   0.0000      -0.001282        -0.0349
 104   0.0000       0.003417         0.0930
 105   0.0000       0.007179         0.1953

MULLIKEN ATOMIC CHARGES
-----------------------
   0 C :   -0.418958
   1 C :   -0.172747
   2 O :   -0.286897
   3 P :    0.694844
   4 S :   -0.455540
   5 O :   -0.271619
   6 C :   -0.143378
   7 C :   -0.464144
   8 S :   -0.155969
   9 C :   -0.235692
  10 S :   -0.133222
  11 P :    0.685097
  12 S :   -0.479396
  13 O :   -0.303972
  14 C :   -0.152439
  15 C :   -0.449045
  16 O :   -0.250361
  17 C :   -0.166378
  18 C :   -0.446052
  19 H :    0.164465
  20 H :    0.147984
  21 H :    0.151818
  22 H :    0.153567
  23 H :    0.162599
  24 H :    0.177652
  25 H :    0.162359
  26 H :    0.146282
  27 H :    0.169537
  28 H :    0.146106
  29 H :    0.211550
  30 H :    0.211530
  31 H :    0.171929
  32 H :    0.148610
  33 H :    0.148760
  34 H :    0.155732
  35 H :    0.176802
  36 H :    0.177216
  37 H :    0.150557
  38 H :    0.146596
  39 H :    0.155152
  40 H :    0.169064
Sum of atomic charges:   -0.0000000

LOEWDIN ATOMIC CHARGES
----------------------
   0 C :   -0.398866
   1 C :    0.027309
   2 O :   -0.649383
   3 P :    0.386988
   4 S :   -0.100657
   5 O :   -0.685622
   6 C :    0.003828
   7 C :   -0.396788
   8 S :    0.150907
   9 C :   -0.420644
  10 S :    0.173987
  11 P :    0.381577
  12 S :   -0.127243
  13 O :   -0.660400
  14 C :    0.019946
  15 C :   -0.406458
  16 O :   -0.675893
  17 C :    0.015170
  18 C :   -0.399055
  19 H :    0.164704
  20 H :    0.159555
  21 H :    0.162593
  22 H :    0.181973
  23 H :    0.178492
  24 H :    0.183278
  25 H :    0.180059
  26 H :    0.155043
  27 H :    0.164962
  28 H :    0.159449
  29 H :    0.189358
  30 H :    0.191854
  31 H :    0.179573
  32 H :    0.179621
  33 H :    0.159645
  34 H :    0.160468
  35 H :    0.165594
  36 H :    0.181456
  37 H :    0.179003
  38 H :    0.159217
  39 H :    0.160163
  40 H :    0.165239

  Mayer bond orders larger than 0.100000
B(  0-C ,  1-C ) :   0.9538 B(  0-C , 19-H ) :   0.9700 B(  0-C , 20-H ) :   0.9657
B(  0-C , 21-H ) :   0.9505 B(  1-C ,  2-O ) :   0.7702 B(  1-C , 22-H ) :   0.9611
B(  1-C , 23-H ) :   0.9708 B(  2-O ,  3-P ) :   1.1479 B(  3-P ,  4-S ) :   1.8343
B(  3-P ,  5-O ) :   1.0392 B(  3-P ,  8-S ) :   1.0098 B(  5-O ,  6-C ) :   0.7459
B(  6-C ,  7-C ) :   0.9340 B(  6-C , 24-H ) :   0.9520 B(  6-C , 25-H ) :   0.9630
B(  7-C , 26-H ) :   0.9786 B(  7-C , 27-H ) :   0.9669 B(  7-C , 28-H ) :   0.9658
B(  8-S ,  9-C ) :   0.8975 B(  9-C , 10-S ) :   0.8860 B(  9-C , 29-H ) :   0.9143
B(  9-C , 30-H ) :   0.9094 B( 10-S , 11-P ) :   1.0854 B( 11-P , 12-S ) :   1.7497
B( 11-P , 13-O ) :   1.0680 B( 11-P , 16-O ) :   1.1404 B( 13-O , 14-C ) :   0.8127
B( 14-C , 15-C ) :   0.9235 B( 14-C , 31-H ) :   0.9673 B( 14-C , 32-H ) :   0.9581
B( 15-C , 33-H ) :   0.9588 B( 15-C , 34-H ) :   0.9682 B( 15-C , 35-H ) :   0.9625
B( 16-O , 17-C ) :   0.7887 B( 17-C , 18-C ) :   0.9248 B( 17-C , 36-H ) :   0.9625
B( 17-C , 37-H ) :   0.9622 B( 18-C , 38-H ) :   0.9626 B( 18-C , 39-H ) :   0.9731
B( 18-C , 40-H ) :   0.9602

Dispersion correction           -0.022177925
FINAL SINGLE POINT ENERGY     -2932.461011843949

DIPOLE MOMENT
-------------

Method             : SCF
Type of density    : Electron Density
Multiplicity       :   1
Irrep              :   0
Energy             : -2932.4853912337166548 Eh
Relativity type    :
Basis              : AO
                                X                 Y                 Z
Electronic contribution:      7.046257250      14.458708609      -7.470315196
Nuclear contribution   :     -7.932232713     -15.918766489       8.187585485
                        -----------------------------------------
Total Dipole Moment    :     -0.885975462      -1.460057879       0.717270289
                        -----------------------------------------
Magnitude (a.u.)       :      1.852349373
Magnitude (Debye)      :      4.708297931

Rotational constants in cm-1:             0.011552             0.005615             0.005151
Rotational constants in MHz :           346.305951           168.341919           154.421094

                             ****ORCA TERMINATED NORMALLY****
TOTAL RUN TIME: 0 days 0 hours 1 minutes 27 seconds 58 msec
