                         Program Version 6.0.0  -   RELEASE  -
|  1> ! r2scan-3c def2/J RI DEFGRID2 scfconv6 printgap
|  2> %output
|  3>     printlevel normal
|  4> end
|  5> %cpcm
|  6>     smd true
|  7>     smdsolvent "water"
|  8> end
|  9> * xyz 0 1
| 10> C 2.738752188 -2.5819111465 -2.318921569
| 11> C 3.1844833523 -2.3747307375 -0.8857395423
| 12> O 3.4246978835 -0.9732265458 -0.6023980354
| 13> P 2.3512583008 0.0329958608 -0.0267516806
| 14> S 3.1626056012 1.691662573 0.605278897
| 15> O 1.5592938104 -0.8269909427 1.060854875
| 16> C 1.3662329064 -0.4201078278 2.426705681
| 17> C 2.4486073746 -1.0120958495 3.3065876761
| 18> S 0.9451620606 0.2457569585 -1.6111788264
| 19> C 0.208502361 1.8006420524 -1.0533004433
| 20> S -0.6407338222 1.663013228 0.5434007538
| 21> P -2.060237667 0.2159408093 -0.0647942082
| 22> S -2.7789083078 0.3729618415 -1.884818089
| 23> O -3.1435196908 0.2243198772 1.0967661014
| 24> C -4.3082959838 1.0670645862 1.0637179335
| 25> C -3.9576375895 2.5326720876 1.220769732
| 26> O -1.2588978669 -1.1069118342 0.2763221553
| 27> C -1.5077317632 -2.3549618817 -0.4001588342
| 28> C -2.849614394 -2.9406026351 -0.0143280092
| 29> H 3.4598698933 -2.140350581 -3.0011880769
| 30> H 2.6640838831 -3.6467858578 -2.5161545325
| 31> H 1.7694047763 -2.1187220388 -2.4928146239
| 32> H 4.1516638766 -2.8454416072 -0.7013994851
| 33> H 2.4450517276 -2.7550244782 -0.1783185531
| 34> H 1.3787073879 0.6728661989 2.4828738167
| 35> H 0.3729145377 -0.7877833371 2.6913608665
| 36> H 2.4551094999 -2.095511629 3.2251125806
| 37> H 3.4200879927 -0.6271368578 3.0005472786
| 38> H 2.2648930293 -0.7291693129 4.3380361516
| 39> H -0.5033790362 2.0952894564 -1.823554612
| 40> H 0.9899319125 2.5488682282 -0.9230379338
| 41> H -4.8310493456 0.8969531841 0.1169960331
| 42> H -4.9160207238 0.7067465481 1.8947872124
| 43> H -4.8701384063 3.1132529155 1.311066007
| 44> H -3.3441409993 2.6825220251 2.1057137513
| 45> H -3.4037877104 2.8796442624 0.34931996
| 46> H -1.4543799511 -2.1810573652 -1.4799196052
| 47> H -0.6794978755 -2.9924936712 -0.0873544863
| 48> H -2.9622327266 -3.917905303 -0.4729915295
| 49> H -2.9233944385 -3.034615541 1.0658943559
| 50> H -3.6494704541 -2.289968809 -0.3663307368
| 51> *
| 52>
| 53>                          ****END OF INPUT****

CARTESIAN COORDINATES (ANGSTROEM)
---------------------------------
  C      2.738752   -2.581911   -2.318922
  C      3.184483   -2.374731   -0.885740
  O      3.424698   -0.973227   -0.602398
  P      2.351258    0.032996   -0.026752
  S      3.162606    1.691663    0.605279
  O      1.559294   -0.826991    1.060855
  C      1.366233   -0.420108    2.426706
  C      2.448607   -1.012096    3.306588
  S      0.945162    0.245757   -1.611179
  C      0.208502    1.800642   -1.053300
  S     -0.640734    1.663013    0.543401
  P     -2.060238    0.215941   -0.064794
  S     -2.778908    0.372962   -1.884818
  O     -3.143520    0.224320    1.096766
  C     -4.308296    1.067065    1.063718
  C     -3.957638    2.532672    1.220770
  O     -1.258898   -1.106912    0.276322
  C     -1.507732   -2.354962   -0.400159
  C     -2.849614   -2.940603   -0.014328
  H      3.459870   -2.140351   -3.001188
  H      2.664084   -3.646786   -2.516155
  H      1.769405   -2.118722   -2.492815
  H      4.151664   -2.845442   -0.701399
  H      2.445052   -2.755024   -0.178319
  H      1.378707    0.672866    2.482874
  H      0.372915   -0.787783    2.691361
  H      2.455109   -2.095512    3.225113
  H      3.420088   -0.627137    3.000547
  H      2.264893   -0.729169    4.338036
  H     -0.503379    2.095289   -1.823555
  H      0.989932    2.548868   -0.923038
  H     -4.831049    0.896953    0.116996
  H     -4.916021    0.706747    1.894787
  H     -4.870138    3.113253    1.311066
  H     -3.344141    2.682522    2.105714
  H     -3.403788    2.879644    0.349320
  H     -1.454380   -2.181057   -1.479920
  H     -0.679498   -2.992494   -0.087354
  H     -2.962233   -3.917905   -0.472992
  H     -2.923394   -3.034616    1.065894
  H     -3.649470   -2.289969   -0.366331

 Total Charge           Charge          ....    0
 Multiplicity           Mult            ....    1
 Number of Electrons    NEL             ....  202
 Basis Dimension        Dim             ....  539

ORBITAL ENERGIES
----------------

  NO   OCC          E(Eh)            E(eV)
   0   2.0000     -88.577654     -2410.3205
   1   2.0000     -88.576259     -2410.2826
   2   2.0000     -88.529582     -2409.0124
   3   2.0000     -88.529003     -2408.9966
   4   2.0000     -76.920415     -2093.1109
   5   2.0000     -76.918593     -2093.0613
   6   2.0000     -18.995828      -516.9028
   7   2.0000     -18.995430      -516.8919
   8   2.0000     -18.990021      -516.7447
   9   2.0000     -18.989320      -516.7257
  10   2.0000     -10.103887      -274.9408
  11   2.0000     -10.092784      -274.6386
  12   2.0000     -10.089855      -274.5589
  13   2.0000     -10.088584      -274.5243
  14   2.0000     -10.086709      -274.4733
  15   2.0000     -10.021100      -272.6880
  16   2.0000     -10.018638      -272.6210
  17   2.0000     -10.018242      -272.6102
  18   2.0000     -10.016746      -272.5695
  19   2.0000      -7.872136      -214.2117
  20   2.0000      -7.870629      -214.1707
  21   2.0000      -7.824847      -212.9249
  22   2.0000      -7.824007      -212.9020
  23   2.0000      -6.598494      -179.5541
  24   2.0000      -6.597217      -179.5194
  25   2.0000      -5.818992      -158.3428
  26   2.0000      -5.817520      -158.3028
  27   2.0000      -5.816075      -158.2635
  28   2.0000      -5.814479      -158.2200
  29   2.0000      -5.809173      -158.0756
  30   2.0000      -5.807729      -158.0364
  31   2.0000      -5.772478      -157.0771
  32   2.0000      -5.771554      -157.0520
  33   2.0000      -5.765049      -156.8750
  34   2.0000      -5.764844      -156.8694
  35   2.0000      -5.764281      -156.8541
  36   2.0000      -5.764076      -156.8485
  37   2.0000      -4.744358      -129.1005
  38   2.0000      -4.743022      -129.0642
  39   2.0000      -4.742514      -129.0504
  40   2.0000      -4.742394      -129.0471
  41   2.0000      -4.742106      -129.0393
  42   2.0000      -4.741196      -129.0145
  43   2.0000      -1.052334       -28.6355
  44   2.0000      -1.049782       -28.5660
  45   2.0000      -1.012527       -27.5523
  46   2.0000      -1.008796       -27.4507
  47   2.0000      -0.803815       -21.8729
  48   2.0000      -0.756086       -20.5741
  49   2.0000      -0.743818       -20.2403
  50   2.0000      -0.725900       -19.7528
  51   2.0000      -0.722815       -19.6688
  52   2.0000      -0.709179       -19.2978
  53   2.0000      -0.690332       -18.7849
  54   2.0000      -0.675159       -18.3720
  55   2.0000      -0.631924       -17.1955
  56   2.0000      -0.618149       -16.8207
  57   2.0000      -0.604001       -16.4357
  58   2.0000      -0.598581       -16.2882
  59   2.0000      -0.589998       -16.0547
  60   2.0000      -0.523062       -14.2332
  61   2.0000      -0.513204       -13.9650
  62   2.0000      -0.493723       -13.4349
  63   2.0000      -0.489489       -13.3197
  64   2.0000      -0.472490       -12.8571
  65   2.0000      -0.461332       -12.5535
  66   2.0000      -0.454648       -12.3716
  67   2.0000      -0.451341       -12.2816
  68   2.0000      -0.439006       -11.9459
  69   2.0000      -0.430420       -11.7123
  70   2.0000      -0.421362       -11.4659
  71   2.0000      -0.407917       -11.1000
  72   2.0000      -0.404815       -11.0156
  73   2.0000      -0.400924       -10.9097
  74   2.0000      -0.393855       -10.7173
  75   2.0000      -0.387198       -10.5362
  76   2.0000      -0.382934       -10.4202
  77   2.0000      -0.370655       -10.0860
  78   2.0000      -0.365726        -9.9519
  79   2.0000      -0.362112        -9.8536
  80   2.0000      -0.358928        -9.7669
  81   2.0000      -0.353271        -9.6130
  82   2.0000      -0.352489        -9.5917
  83   2.0000      -0.347160        -9.4467
  84   2.0000      -0.343409        -9.3446
  85   2.0000      -0.332347        -9.0436
  86   2.0000      -0.320483        -8.7208
  87   2.0000      -0.308546        -8.3960
  88   2.0000      -0.304544        -8.2871
  89   2.0000      -0.298203        -8.1145
  90   2.0000      -0.296655        -8.0724
  91   2.0000      -0.290303        -7.8996
  92   2.0000      -0.284303        -7.7363
  93   2.0000      -0.279627        -7.6090
  94   2.0000      -0.271845        -7.3973
  95   2.0000      -0.248564        -6.7638
  96   2.0000      -0.237588        -6.4651
  97   2.0000      -0.235380        -6.4050
  98   2.0000      -0.229591        -6.2475
  99   2.0000      -0.222868        -6.0645
 100   2.0000      -0.218061        -5.9337
 101   0.0000      -0.052246        -1.4217
 102   0.0000      -0.030427        -0.8280
 103   0.0000      -0.004470        -0.1216
 104   0.0000      -0.000759        -0.0207
 105   0.0000       0.007777         0.2116

MULLIKEN ATOMIC CHARGES
-----------------------
   0 C :   -0.458644
   1 C :   -0.158986
   2 O :   -0.323573
   3 P :    0.705770
   4 S :   -0.509638
   5 O :   -0.291033
   6 C :   -0.122199
   7 C :   -0.502483
   8 S :   -0.169650
   9 C :   -0.248440
  10 S :   -0.140403
  11 P :    0.725422
  12 S :   -0.524113
  13 O :   -0.330893
  14 C :   -0.152892
  15 C :   -0.486022
  16 O :   -0.282220
  17 C :   -0.155582
  18 C :   -0.487917
  19 H :    0.174136
  20 H :    0.174660
  21 H :    0.151887
  22 H :    0.176738
  23 H :    0.180709
  24 H :    0.175167
  25 H :    0.179025
  26 H :    0.166207
  27 H :    0.165057
  28 H :    0.169108
  29 H :    0.234930
  30 H :    0.230141
  31 H :    0.178196
  32 H :    0.175501
  33 H :    0.173043
  34 H :    0.169302
  35 H :    0.172759
  36 H :    0.178380
  37 H :    0.179119
  38 H :    0.171772
  39 H :    0.169591
  40 H :    0.168068
Sum of atomic charges:   -0.0000000

LOEWDIN ATOMIC CHARGES
----------------------
   0 C :   -0.400390
   1 C :    0.035880
   2 O :   -0.670785
   3 P :    0.387366
   4 S :   -0.141359
   5 O :   -0.691035
   6 C :    0.008704
   7 C :   -0.399580
   8 S :    0.145487
   9 C :   -0.416071
  10 S :    0.171102
  11 P :    0.387234
  12 S :   -0.153891
  13 O :   -0.671348
  14 C :    0.025619
  15 C :   -0.409866
  16 O :   -0.689985
  17 C :    0.020868
  18 C :   -0.402572
  19 H :    0.165360
  20 H :    0.170774
  21 H :    0.160828
  22 H :    0.192132
  23 H :    0.187121
  24 H :    0.182334
  25 H :    0.187058
  26 H :    0.162105
  27 H :    0.161760
  28 H :    0.167596
  29 H :    0.196611
  30 H :    0.196920
  31 H :    0.181581
  32 H :    0.191050
  33 H :    0.168447
  34 H :    0.163587
  35 H :    0.161539
  36 H :    0.182268
  37 H :    0.190588
  38 H :    0.168566
  39 H :    0.163917
  40 H :    0.162482

  Mayer bond orders larger than 0.100000
B(  0-C ,  1-C ) :   0.9435 B(  0-C , 19-H ) :   0.9711 B(  0-C , 20-H ) :   0.9580
B(  0-C , 21-H ) :   0.9497 B(  1-C ,  2-O ) :   0.7606 B(  1-C , 22-H ) :   0.9519
B(  1-C , 23-H ) :   0.9585 B(  2-O ,  3-P ) :   1.1545 B(  3-P ,  4-S ) :   1.8116
B(  3-P ,  5-O ) :   1.0463 B(  3-P ,  8-S ) :   1.0259 B(  5-O ,  6-C ) :   0.7333
B(  6-C ,  7-C ) :   0.9334 B(  6-C , 24-H ) :   0.9496 B(  6-C , 25-H ) :   0.9525
B(  7-C , 26-H ) :   0.9732 B(  7-C , 27-H ) :   0.9681 B(  7-C , 28-H ) :   0.9608
B(  8-S ,  9-C ) :   0.8839 B(  9-C , 10-S ) :   0.8790 B(  9-C , 29-H ) :   0.9075
B(  9-C , 30-H ) :   0.9052 B( 10-S , 11-P ) :   1.0936 B( 11-P , 12-S ) :   1.7086
B( 11-P , 13-O ) :   1.0764 B( 11-P , 16-O ) :   1.1474 B( 13-O , 14-C ) :   0.8010
B( 14-C , 15-C ) :   0.9099 B( 14-C , 31-H ) :   0.9660 B( 14-C , 32-H ) :   0.9483
B( 15-C , 33-H ) :   0.9535 B( 15-C , 34-H ) :   0.9656 B( 15-C , 35-H ) :   0.9637
B( 16-O , 17-C ) :   0.7773 B( 17-C , 18-C ) :   0.9140 B( 17-C , 36-H ) :   0.9581
B( 17-C , 37-H ) :   0.9515 B( 18-C , 38-H ) :   0.9568 B( 18-C , 39-H ) :   0.9715
B( 18-C , 40-H ) :   0.9600

Dispersion correction           -0.022177925
FINAL SINGLE POINT ENERGY     -2932.470344046054

DIPOLE MOMENT
-------------

Method             : SCF
Type of density    : Electron Density
Multiplicity       :   1
Irrep              :   0
Energy             : -2932.4947234358223795 Eh
Relativity type    :
Basis              : AO
                                X                 Y                 Z
Electronic contribution:      6.646781812      13.912102195      -7.220793738
Nuclear contribution   :     -7.932232713     -15.918766489       8.187585485
                        -----------------------------------------
Total Dipole Moment    :     -1.285450901      -2.006664293       0.966791747
                        -----------------------------------------
Magnitude (a.u.)       :      2.571725469
Magnitude (Debye)      :      6.536806654

Rotational constants in cm-1:             0.011552             0.005615             0.005151
Rotational constants in MHz :           346.305951           168.341919           154.421094

                             ****ORCA TERMINATED NORMALLY****
TOTAL RUN TIME: 0 days 0 hours 2 minutes 0 seconds 311 msec
