                         Program Version 6.0.0  -   RELEASE  -
|  1> ! pbe def2-sv(p) def2/J RI DEFGRID1 loosescf d4 GCP(DFT/SV(P)) printgap
|  2> %output
|  3>     printlevel normal
|  4> end
|  5> * xyz 0 1
|  6> C 4.8732306701 2.3970061058 -0.4556444623
|  7> C 3.4284179622 1.9402756266 -0.451036299
|  8> O 3.3713157797 0.6539009175 0.1959057319
|  9> P 2.0088825698 0.0872852717 0.7826012181
| 10> S 1.0433171921 1.3508467662 1.927700601
| 11> O 2.4546283683 -1.2130438768 1.5509939511
| 12> C 3.6704933915 -1.967847929 1.3021388551
| 13> C 3.6693780718 -2.6635924307 -0.042709243
| 14> S 0.9976191088 -0.5772583387 -0.9901985572
| 15> C -0.0558577675 -1.8502369717 -0.2528336068
| 16> S -1.2664854863 -1.2175083882 0.948752208
| 17> P -2.3084840318 0.0251834181 -0.3887846196
| 18> S -2.5190654004 -0.5940602144 -2.2395643371
| 19> O -1.5144097988 1.3747867908 -0.1650142268
| 20> C -1.7069340835 2.5351671774 -1.0054764381
| 21> C -0.5667667188 2.6563564636 -1.9967667557
| 22> O -3.6870357664 0.3531517037 0.3359509502
| 23> C -4.8687623392 -0.4430207932 0.1358133108
| 24> C -4.7364106919 -1.8201878829 0.7530620514
| 25> H 5.2359485162 2.4980542787 0.5633586912
| 26> H 5.4903074579 1.6747543383 -0.9817743859
| 27> H 4.9397636018 3.3577604738 -0.9553078382
| 28> H 3.0424778952 1.8247642915 -1.4677595677
| 29> H 2.7892188624 2.6367963142 0.1026783567
| 30> H 4.5158802929 -1.2837302138 1.3839794218
| 31> H 3.6877521609 -2.6823712502 2.1265537146
| 32> H 4.5910384261 -3.2288671948 -0.1421559248
| 33> H 2.8282935758 -3.3468639919 -0.1273152464
| 34> H 3.6149001246 -1.9345468824 -0.8478102276
| 35> H 0.5491901957 -2.5738152686 0.2875643055
| 36> H -0.5814356376 -2.3131236883 -1.0880391386
| 37> H -2.6698070967 2.453799324 -1.5180251229
| 38> H -1.727220582 3.3783816605 -0.3129232807
| 39> H -0.5583446462 1.799480581 -2.6675816964
| 40> H -0.6894732379 3.5655403916 -2.5760601958
| 41> H 0.3797761287 2.692310925 -1.462660573
| 42> H -5.6599724879 0.1392898177 0.6097531265
| 43> H -5.0537405995 -0.5200593785 -0.940650489
| 44> H -5.6866811574 -2.3392854735 0.6809079055
| 45> H -3.9777710449 -2.3937904447 0.2218816884
| 46> H -4.4456666151 -1.7392504919 1.7976527388
| 47> *
| 48>
| 49>                          ****END OF INPUT****

CARTESIAN COORDINATES (ANGSTROEM)
---------------------------------
  C      4.873231    2.397006   -0.455644
  C      3.428418    1.940276   -0.451036
  O      3.371316    0.653901    0.195906
  P      2.008883    0.087285    0.782601
  S      1.043317    1.350847    1.927701
  O      2.454628   -1.213044    1.550994
  C      3.670493   -1.967848    1.302139
  C      3.669378   -2.663592   -0.042709
  S      0.997619   -0.577258   -0.990199
  C     -0.055858   -1.850237   -0.252834
  S     -1.266485   -1.217508    0.948752
  P     -2.308484    0.025183   -0.388785
  S     -2.519065   -0.594060   -2.239564
  O     -1.514410    1.374787   -0.165014
  C     -1.706934    2.535167   -1.005476
  C     -0.566767    2.656356   -1.996767
  O     -3.687036    0.353152    0.335951
  C     -4.868762   -0.443021    0.135813
  C     -4.736411   -1.820188    0.753062
  H      5.235949    2.498054    0.563359
  H      5.490307    1.674754   -0.981774
  H      4.939764    3.357760   -0.955308
  H      3.042478    1.824764   -1.467760
  H      2.789219    2.636796    0.102678
  H      4.515880   -1.283730    1.383979
  H      3.687752   -2.682371    2.126554
  H      4.591038   -3.228867   -0.142156
  H      2.828294   -3.346864   -0.127315
  H      3.614900   -1.934547   -0.847810
  H      0.549190   -2.573815    0.287564
  H     -0.581436   -2.313124   -1.088039
  H     -2.669807    2.453799   -1.518025
  H     -1.727221    3.378382   -0.312923
  H     -0.558345    1.799481   -2.667582
  H     -0.689473    3.565540   -2.576060
  H      0.379776    2.692311   -1.462661
  H     -5.659972    0.139290    0.609753
  H     -5.053741   -0.520059   -0.940650
  H     -5.686681   -2.339285    0.680908
  H     -3.977771   -2.393790    0.221882
  H     -4.445667   -1.739250    1.797653

 Total Charge           Charge          ....    0
 Multiplicity           Mult            ....    1
 Number of Electrons    NEL             ....  202
 Basis Dimension        Dim             ....  334

ORBITAL ENERGIES
----------------

  NO   OCC          E(Eh)            E(eV)
   0   2.0000     -88.037532     -2395.6230
   1   2.0000     -88.037156     -2395.6128
   2   2.0000     -87.983676     -2394.1575
   3   2.0000     -87.974522     -2393.9084
   4   2.0000     -76.423646     -2079.5931
   5   2.0000     -76.420977     -2079.5205
   6   2.0000     -18.796128      -511.4686
   7   2.0000     -18.795349      -511.4474
   8   2.0000     -18.787367      -511.2303
   9   2.0000     -18.778387      -510.9859
  10   2.0000      -9.961747      -271.0729
  11   2.0000      -9.957370      -270.9538
  12   2.0000      -9.956578      -270.9323
  13   2.0000      -9.947429      -270.6833
  14   2.0000      -9.944805      -270.6119
  15   2.0000      -9.892689      -269.1938
  16   2.0000      -9.892229      -269.1812
  17   2.0000      -9.880443      -268.8605
  18   2.0000      -9.874131      -268.6888
  19   2.0000      -7.682918      -209.0628
  20   2.0000      -7.681748      -209.0310
  21   2.0000      -7.628704      -207.5876
  22   2.0000      -7.619774      -207.3446
  23   2.0000      -6.421014      -174.7247
  24   2.0000      -6.418506      -174.6564
  25   2.0000      -5.710806      -155.3989
  26   2.0000      -5.709568      -155.3653
  27   2.0000      -5.707606      -155.3119
  28   2.0000      -5.706498      -155.2817
  29   2.0000      -5.699578      -155.0934
  30   2.0000      -5.698592      -155.0666
  31   2.0000      -5.657412      -153.9460
  32   2.0000      -5.649559      -153.7323
  33   2.0000      -5.648847      -153.7129
  34   2.0000      -5.648834      -153.7126
  35   2.0000      -5.640686      -153.4909
  36   2.0000      -5.639491      -153.4583
  37   2.0000      -4.644467      -126.3824
  38   2.0000      -4.642691      -126.3340
  39   2.0000      -4.640992      -126.2878
  40   2.0000      -4.640701      -126.2799
  41   2.0000      -4.640165      -126.2653
  42   2.0000      -4.639176      -126.2384
  43   2.0000      -0.991458       -26.9789
  44   2.0000      -0.979118       -26.6431
  45   2.0000      -0.948543       -25.8112
  46   2.0000      -0.936709       -25.4891
  47   2.0000      -0.761179       -20.7127
  48   2.0000      -0.721247       -19.6261
  49   2.0000      -0.706744       -19.2315
  50   2.0000      -0.697897       -18.9907
  51   2.0000      -0.680658       -18.5217
  52   2.0000      -0.669548       -18.2193
  53   2.0000      -0.646395       -17.5893
  54   2.0000      -0.634024       -17.2527
  55   2.0000      -0.592925       -16.1343
  56   2.0000      -0.590065       -16.0565
  57   2.0000      -0.578310       -15.7366
  58   2.0000      -0.568869       -15.4797
  59   2.0000      -0.556430       -15.1412
  60   2.0000      -0.508752       -13.8438
  61   2.0000      -0.494230       -13.4487
  62   2.0000      -0.480758       -13.0821
  63   2.0000      -0.464480       -12.6391
  64   2.0000      -0.460394       -12.5279
  65   2.0000      -0.447809       -12.1855
  66   2.0000      -0.438668       -11.9368
  67   2.0000      -0.432836       -11.7781
  68   2.0000      -0.428227       -11.6526
  69   2.0000      -0.413656       -11.2562
  70   2.0000      -0.405491       -11.0340
  71   2.0000      -0.401378       -10.9221
  72   2.0000      -0.389509       -10.5991
  73   2.0000      -0.379819       -10.3354
  74   2.0000      -0.374505       -10.1908
  75   2.0000      -0.372149       -10.1267
  76   2.0000      -0.368917       -10.0387
  77   2.0000      -0.357676        -9.7329
  78   2.0000      -0.355900        -9.6845
  79   2.0000      -0.351364        -9.5611
  80   2.0000      -0.347661        -9.4603
  81   2.0000      -0.345324        -9.3967
  82   2.0000      -0.342776        -9.3274
  83   2.0000      -0.335412        -9.1270
  84   2.0000      -0.329655        -8.9704
  85   2.0000      -0.324689        -8.8352
  86   2.0000      -0.307964        -8.3801
  87   2.0000      -0.301508        -8.2044
  88   2.0000      -0.298455        -8.1214
  89   2.0000      -0.290841        -7.9142
  90   2.0000      -0.280437        -7.6311
  91   2.0000      -0.275656        -7.5010
  92   2.0000      -0.269836        -7.3426
  93   2.0000      -0.258588        -7.0365
  94   2.0000      -0.255721        -6.9585
  95   2.0000      -0.231774        -6.3069
  96   2.0000      -0.213867        -5.8196
  97   2.0000      -0.206899        -5.6300
  98   2.0000      -0.199240        -5.4216
  99   2.0000      -0.190323        -5.1789
 100   2.0000      -0.181483        -4.9384
 101   0.0000      -0.046182        -1.2567
 102   0.0000      -0.021422        -0.5829
 103   0.0000      -0.009761        -0.2656
 104   0.0000       0.001052         0.0286
 105   0.0000       0.019425         0.5286

MULLIKEN ATOMIC CHARGES
-----------------------
   0 C :   -0.273595
   1 C :   -0.035073
   2 O :   -0.389875
   3 P :    0.609697
   4 S :   -0.290090
   5 O :   -0.372919
   6 C :    0.007021
   7 C :   -0.325901
   8 S :   -0.103739
   9 C :   -0.362200
  10 S :   -0.060614
  11 P :    0.614551
  12 S :   -0.350162
  13 O :   -0.345095
  14 C :    0.004668
  15 C :   -0.299561
  16 O :   -0.371500
  17 C :   -0.003987
  18 C :   -0.314134
  19 H :    0.121189
  20 H :    0.113873
  21 H :    0.113503
  22 H :    0.112907
  23 H :    0.116772
  24 H :    0.112995
  25 H :    0.112103
  26 H :    0.114222
  27 H :    0.121661
  28 H :    0.132221
  29 H :    0.183166
  30 H :    0.191762
  31 H :    0.098480
  32 H :    0.107693
  33 H :    0.126416
  34 H :    0.101643
  35 H :    0.114239
  36 H :    0.104390
  37 H :    0.110150
  38 H :    0.111262
  39 H :    0.122579
  40 H :    0.119281
Sum of atomic charges:   -0.0000000

LOEWDIN ATOMIC CHARGES
----------------------
   0 C :   -0.349923
   1 C :   -0.122913
   2 O :   -0.252026
   3 P :    0.563363
   4 S :   -0.300689
   5 O :   -0.241918
   6 C :   -0.106614
   7 C :   -0.367708
   8 S :    0.071353
   9 C :   -0.478665
  10 S :    0.104066
  11 P :    0.572111
  12 S :   -0.335597
  13 O :   -0.230704
  14 C :   -0.108505
  15 C :   -0.362606
  16 O :   -0.245776
  17 C :   -0.120568
  18 C :   -0.369094
  19 H :    0.129565
  20 H :    0.125484
  21 H :    0.132053
  22 H :    0.111187
  23 H :    0.109388
  24 H :    0.116916
  25 H :    0.122794
  26 H :    0.132546
  27 H :    0.124277
  28 H :    0.122383
  29 H :    0.126168
  30 H :    0.131531
  31 H :    0.107003
  32 H :    0.120088
  33 H :    0.124213
  34 H :    0.124935
  35 H :    0.119740
  36 H :    0.118279
  37 H :    0.109097
  38 H :    0.130116
  39 H :    0.119409
  40 H :    0.125242

  Mayer bond orders larger than 0.100000
B(  0-C ,  1-C ) :   1.1584 B(  0-C , 19-H ) :   0.9500 B(  0-C , 20-H ) :   0.9507
B(  0-C , 21-H ) :   0.9415 B(  1-C ,  2-O ) :   0.9077 B(  1-C , 22-H ) :   0.9270
B(  1-C , 23-H ) :   0.9028 B(  2-O ,  3-P ) :   1.0579 B(  3-P ,  4-S ) :   1.7110
B(  3-P ,  5-O ) :   1.1149 B(  3-P ,  8-S ) :   0.9306 B(  4-S ,  8-S ) :   0.1126
B(  5-O ,  6-C ) :   0.8925 B(  6-C ,  7-C ) :   1.1680 B(  6-C , 24-H ) :   0.9269
B(  6-C , 25-H ) :   0.9354 B(  7-C , 26-H ) :   0.9351 B(  7-C , 27-H ) :   0.9430
B(  7-C , 28-H ) :   0.9346 B(  8-S ,  9-C ) :   1.0106 B(  9-C , 10-S ) :   1.0047
B(  9-C , 29-H ) :   0.8932 B(  9-C , 30-H ) :   0.8864 B( 10-S , 11-P ) :   0.9676
B( 10-S , 12-S ) :   0.1117 B( 11-P , 12-S ) :   1.5736 B( 11-P , 13-O ) :   1.1512
B( 11-P , 16-O ) :   1.1093 B( 13-O , 14-C ) :   0.8963 B( 14-C , 15-C ) :   1.1715
B( 14-C , 31-H ) :   0.9157 B( 14-C , 32-H ) :   0.9325 B( 15-C , 33-H ) :   0.9377
B( 15-C , 34-H ) :   0.9394 B( 15-C , 35-H ) :   0.9388 B( 16-O , 17-C ) :   0.9113
B( 17-C , 18-C ) :   1.1646 B( 17-C , 36-H ) :   0.9336 B( 17-C , 37-H ) :   0.9140
B( 18-C , 38-H ) :   0.9384 B( 18-C , 39-H ) :   0.9354 B( 18-C , 40-H ) :   0.9452

Dispersion correction           -0.066366908
FINAL SINGLE POINT ENERGY     -2929.514266702772

DIPOLE MOMENT
-------------

Method             : SCF
Type of density    : Electron Density
Multiplicity       :   1
Irrep              :   0
Energy             : -2929.6317885102857872 Eh
Relativity type    :
Basis              : AO
                                X                 Y                 Z
Electronic contribution:     -9.350863457      -1.819168758       6.819342524
Nuclear contribution   :     10.285608880       1.509135488      -7.174785058
                        -----------------------------------------
Total Dipole Moment    :      0.934745423      -0.310033270      -0.355442534
                        -----------------------------------------
Magnitude (a.u.)       :      1.047000014
Magnitude (Debye)      :      2.661262541

Rotational constants in cm-1:             0.012953             0.005115             0.004548
Rotational constants in MHz :           388.319486           153.330763           136.359802

                             ****ORCA TERMINATED NORMALLY****
TOTAL RUN TIME: 0 days 0 hours 0 minutes 21 seconds 118 msec
