                         Program Version 6.0.0  -   RELEASE  -
|  1> ! pbe def2-sv(p) def2/J RI DEFGRID1 loosescf d4 GCP(DFT/SV(P)) printgap
|  2> %output
|  3>     printlevel normal
|  4> end
|  5> * xyz 0 1
|  6> C 1.3514072209 -1.8091249337 -2.4642623586
|  7> C 2.0082777195 -0.4490514072 -2.5763708928
|  8> O 1.8122033025 0.3718093512 -1.3992521601
|  9> P 2.2398160663 0.0034003564 0.0721339082
| 10> S 2.425119188 1.6156294418 1.1697633702
| 11> O 3.5609741156 -0.8376469157 -0.2113963381
| 12> C 4.2410864683 -1.6782971406 0.7380022923
| 13> C 4.7780357577 -0.90953326 1.927381343
| 14> S 0.9136169394 -1.4725335936 0.8629691147
| 15> C 0.0155222853 -0.4927247352 2.0989330507
| 16> S -1.7772597258 -0.6248031449 1.9082763638
| 17> P -1.9871461084 0.2852582516 0.0099762573
| 18> S -0.8435065828 1.8625026038 -0.2816782998
| 19> O -3.5455102562 0.5621253451 -0.0885171078
| 20> C -4.1538736166 1.6898260625 0.5726597454
| 21> C -5.45715355 1.9994268554 -0.1359781149
| 22> O -1.800366649 -0.9322129554 -0.9841320634
| 23> C -2.5863348581 -1.1189156591 -2.1866034014
| 24> C -2.3248705408 -0.0260677186 -3.2014841853
| 25> H 0.3077039253 -1.7018717078 -2.1801502532
| 26> H 1.4145908372 -2.3131372235 -3.4236672848
| 27> H 1.8528608943 -2.4137906101 -1.7107360738
| 28> H 1.560451941 0.1529378488 -3.3695833648
| 29> H 3.0824672799 -0.5436341263 -2.7465311942
| 30> H 3.5498024957 -2.4612616971 1.0622584587
| 31> H 5.0507897004 -2.1175150147 0.1520877806
| 32> H 5.4095203304 -0.0895683255 1.5942575418
| 33> H 3.9593587296 -0.4921732058 2.5105320422
| 34> H 5.3575831425 -1.5789795971 2.5547614744
| 35> H 0.3334514609 0.5509864966 2.0093327689
| 36> H 0.2390101943 -0.8862697858 3.0874341989
| 37> H -4.3214222627 1.4176109445 1.6175731354
| 38> H -3.4596643602 2.536056217 0.5286540065
| 39> H -5.267980616 2.2733288904 -1.1701591741
| 40> H -6.1072097491 1.1297197947 -0.1128750318
| 41> H -5.946122869 2.8266907936 0.3677100476
| 42> H -2.2672471555 -2.0970451091 -2.5502981357
| 43> H -3.6403433547 -1.1507738388 -1.9070672382
| 44> H -2.9070374442 -0.215711958 -4.097695097
| 45> H -2.6095091803 0.9404424469 -2.7864901437
| 46> H -1.2689967449 0.0125514544 -3.4585874954
| 47> *
| 48>
| 49>                          ****END OF INPUT****

CARTESIAN COORDINATES (ANGSTROEM)
---------------------------------
  C      1.351407   -1.809125   -2.464262
  C      2.008278   -0.449051   -2.576371
  O      1.812203    0.371809   -1.399252
  P      2.239816    0.003400    0.072134
  S      2.425119    1.615629    1.169763
  O      3.560974   -0.837647   -0.211396
  C      4.241086   -1.678297    0.738002
  C      4.778036   -0.909533    1.927381
  S      0.913617   -1.472534    0.862969
  C      0.015522   -0.492725    2.098933
  S     -1.777260   -0.624803    1.908276
  P     -1.987146    0.285258    0.009976
  S     -0.843507    1.862503   -0.281678
  O     -3.545510    0.562125   -0.088517
  C     -4.153874    1.689826    0.572660
  C     -5.457154    1.999427   -0.135978
  O     -1.800367   -0.932213   -0.984132
  C     -2.586335   -1.118916   -2.186603
  C     -2.324871   -0.026068   -3.201484
  H      0.307704   -1.701872   -2.180150
  H      1.414591   -2.313137   -3.423667
  H      1.852861   -2.413791   -1.710736
  H      1.560452    0.152938   -3.369583
  H      3.082467   -0.543634   -2.746531
  H      3.549802   -2.461262    1.062258
  H      5.050790   -2.117515    0.152088
  H      5.409520   -0.089568    1.594258
  H      3.959359   -0.492173    2.510532
  H      5.357583   -1.578980    2.554761
  H      0.333451    0.550986    2.009333
  H      0.239010   -0.886270    3.087434
  H     -4.321422    1.417611    1.617573
  H     -3.459664    2.536056    0.528654
  H     -5.267981    2.273329   -1.170159
  H     -6.107210    1.129720   -0.112875
  H     -5.946123    2.826691    0.367710
  H     -2.267247   -2.097045   -2.550298
  H     -3.640343   -1.150774   -1.907067
  H     -2.907037   -0.215712   -4.097695
  H     -2.609509    0.940442   -2.786490
  H     -1.268997    0.012551   -3.458587

 Total Charge           Charge          ....    0
 Multiplicity           Mult            ....    1
 Number of Electrons    NEL             ....  202
 Basis Dimension        Dim             ....  334

ORBITAL ENERGIES
----------------

  NO   OCC          E(Eh)            E(eV)
   0   2.0000     -88.037668     -2395.6267
   1   2.0000     -88.037632     -2395.6258
   2   2.0000     -87.977383     -2393.9863
   3   2.0000     -87.972872     -2393.8636
   4   2.0000     -76.422799     -2079.5701
   5   2.0000     -76.420010     -2079.4942
   6   2.0000     -18.795971      -511.4644
   7   2.0000     -18.790006      -511.3021
   8   2.0000     -18.787764      -511.2410
   9   2.0000     -18.780902      -511.0543
  10   2.0000      -9.957559      -270.9590
  11   2.0000      -9.954093      -270.8646
  12   2.0000      -9.953126      -270.8383
  13   2.0000      -9.951219      -270.7864
  14   2.0000      -9.948147      -270.7029
  15   2.0000      -9.890884      -269.1446
  16   2.0000      -9.887314      -269.0475
  17   2.0000      -9.885334      -268.9936
  18   2.0000      -9.878254      -268.8010
  19   2.0000      -7.683280      -209.0727
  20   2.0000      -7.682029      -209.0386
  21   2.0000      -7.622053      -207.4066
  22   2.0000      -7.618162      -207.3007
  23   2.0000      -6.420171      -174.7017
  24   2.0000      -6.416795      -174.6099
  25   2.0000      -5.711246      -155.4109
  26   2.0000      -5.709811      -155.3719
  27   2.0000      -5.707691      -155.3142
  28   2.0000      -5.706474      -155.2811
  29   2.0000      -5.700220      -155.1109
  30   2.0000      -5.699257      -155.0847
  31   2.0000      -5.650946      -153.7701
  32   2.0000      -5.647322      -153.6715
  33   2.0000      -5.642877      -153.5505
  34   2.0000      -5.642123      -153.5300
  35   2.0000      -5.638639      -153.4352
  36   2.0000      -5.638151      -153.4219
  37   2.0000      -4.643322      -126.3512
  38   2.0000      -4.641788      -126.3095
  39   2.0000      -4.640200      -126.2663
  40   2.0000      -4.639742      -126.2538
  41   2.0000      -4.638615      -126.2231
  42   2.0000      -4.636986      -126.1788
  43   2.0000      -0.989051       -26.9134
  44   2.0000      -0.982177       -26.7264
  45   2.0000      -0.944507       -25.7013
  46   2.0000      -0.936198       -25.4752
  47   2.0000      -0.758060       -20.6279
  48   2.0000      -0.718607       -19.5543
  49   2.0000      -0.708671       -19.2839
  50   2.0000      -0.693261       -18.8646
  51   2.0000      -0.687150       -18.6983
  52   2.0000      -0.672668       -18.3042
  53   2.0000      -0.646430       -17.5903
  54   2.0000      -0.628119       -17.0920
  55   2.0000      -0.591472       -16.0948
  56   2.0000      -0.585222       -15.9247
  57   2.0000      -0.577115       -15.7041
  58   2.0000      -0.574903       -15.6439
  59   2.0000      -0.559474       -15.2241
  60   2.0000      -0.506128       -13.7724
  61   2.0000      -0.493180       -13.4201
  62   2.0000      -0.476781       -12.9739
  63   2.0000      -0.466300       -12.6887
  64   2.0000      -0.450538       -12.2598
  65   2.0000      -0.447903       -12.1880
  66   2.0000      -0.440796       -11.9947
  67   2.0000      -0.433692       -11.8014
  68   2.0000      -0.425286       -11.5726
  69   2.0000      -0.416451       -11.3322
  70   2.0000      -0.408489       -11.1156
  71   2.0000      -0.402659       -10.9569
  72   2.0000      -0.398564       -10.8455
  73   2.0000      -0.389914       -10.6101
  74   2.0000      -0.380419       -10.3517
  75   2.0000      -0.367382        -9.9970
  76   2.0000      -0.355464        -9.6727
  77   2.0000      -0.352758        -9.5990
  78   2.0000      -0.351127        -9.5546
  79   2.0000      -0.349593        -9.5129
  80   2.0000      -0.344389        -9.3713
  81   2.0000      -0.342568        -9.3218
  82   2.0000      -0.341082        -9.2813
  83   2.0000      -0.336200        -9.1485
  84   2.0000      -0.332599        -9.0505
  85   2.0000      -0.318988        -8.6801
  86   2.0000      -0.313410        -8.5283
  87   2.0000      -0.302912        -8.2427
  88   2.0000      -0.293896        -7.9973
  89   2.0000      -0.290700        -7.9103
  90   2.0000      -0.285059        -7.7569
  91   2.0000      -0.274440        -7.4679
  92   2.0000      -0.270241        -7.3536
  93   2.0000      -0.256662        -6.9841
  94   2.0000      -0.251464        -6.8427
  95   2.0000      -0.232810        -6.3351
  96   2.0000      -0.217126        -5.9083
  97   2.0000      -0.207925        -5.6579
  98   2.0000      -0.192779        -5.2458
  99   2.0000      -0.183638        -4.9971
 100   2.0000      -0.178020        -4.8442
 101   0.0000      -0.041409        -1.1268
 102   0.0000      -0.029133        -0.7927
 103   0.0000      -0.002541        -0.0691
 104   0.0000       0.015952         0.4341
 105   0.0000       0.017638         0.4800

MULLIKEN ATOMIC CHARGES
-----------------------
   0 C :   -0.366274
   1 C :    0.008274
   2 O :   -0.349874
   3 P :    0.620072
   4 S :   -0.293876
   5 O :   -0.387360
   6 C :   -0.006752
   7 C :   -0.302759
   8 S :   -0.127966
   9 C :   -0.348795
  10 S :   -0.104307
  11 P :    0.615959
  12 S :   -0.290799
  13 O :   -0.392335
  14 C :   -0.008635
  15 C :   -0.285872
  16 O :   -0.372120
  17 C :   -0.003854
  18 C :   -0.314899
  19 H :    0.164409
  20 H :    0.110093
  21 H :    0.119170
  22 H :    0.113603
  23 H :    0.107342
  24 H :    0.107078
  25 H :    0.102881
  26 H :    0.122442
  27 H :    0.122943
  28 H :    0.106565
  29 H :    0.211300
  30 H :    0.176868
  31 H :    0.104927
  32 H :    0.108843
  33 H :    0.119398
  34 H :    0.115423
  35 H :    0.114758
  36 H :    0.108927
  37 H :    0.114497
  38 H :    0.109455
  39 H :    0.128172
  40 H :    0.123078
Sum of atomic charges:   -0.0000000

LOEWDIN ATOMIC CHARGES
----------------------
   0 C :   -0.377524
   1 C :   -0.107073
   2 O :   -0.228628
   3 P :    0.570908
   4 S :   -0.292414
   5 O :   -0.247923
   6 C :   -0.118179
   7 C :   -0.368027
   8 S :    0.066981
   9 C :   -0.482454
  10 S :    0.068696
  11 P :    0.559231
  12 S :   -0.291767
  13 O :   -0.250253
  14 C :   -0.120539
  15 C :   -0.351251
  16 O :   -0.244663
  17 C :   -0.110819
  18 C :   -0.364256
  19 H :    0.130266
  20 H :    0.129740
  21 H :    0.117106
  22 H :    0.120478
  23 H :    0.113800
  24 H :    0.103503
  25 H :    0.117715
  26 H :    0.129544
  27 H :    0.120584
  28 H :    0.127765
  29 H :    0.125113
  30 H :    0.134441
  31 H :    0.112195
  32 H :    0.109439
  33 H :    0.127229
  34 H :    0.125872
  35 H :    0.132394
  36 H :    0.118299
  37 H :    0.114197
  38 H :    0.128981
  39 H :    0.124079
  40 H :    0.127214

  Mayer bond orders larger than 0.100000
B(  0-C ,  1-C ) :   1.1686 B(  0-C , 19-H ) :   0.9183 B(  0-C , 20-H ) :   0.9352
B(  0-C , 21-H ) :   0.9365 B(  1-C ,  2-O ) :   0.9076 B(  1-C , 22-H ) :   0.9290
B(  1-C , 23-H ) :   0.9287 B(  2-O ,  3-P ) :   1.1347 B(  3-P ,  4-S ) :   1.6406
B(  3-P ,  5-O ) :   1.0658 B(  3-P ,  8-S ) :   0.9351 B(  4-S ,  8-S ) :   0.1210
B(  4-S , 29-H ) :   0.1042 B(  5-O ,  6-C ) :   0.9148 B(  6-C ,  7-C ) :   1.1676
B(  6-C , 24-H ) :   0.9195 B(  6-C , 25-H ) :   0.9340 B(  7-C , 26-H ) :   0.9455
B(  7-C , 27-H ) :   0.9325 B(  7-C , 28-H ) :   0.9358 B(  8-S ,  9-C ) :   0.9979
B(  9-C , 10-S ) :   1.0033 B(  9-C , 29-H ) :   0.8397 B(  9-C , 30-H ) :   0.9109
B( 10-S , 11-P ) :   0.9445 B( 10-S , 12-S ) :   0.1226 B( 11-P , 12-S ) :   1.6711
B( 11-P , 13-O ) :   1.0696 B( 11-P , 16-O ) :   1.1041 B( 13-O , 14-C ) :   0.9007
B( 14-C , 15-C ) :   1.1593 B( 14-C , 31-H ) :   0.9309 B( 14-C , 32-H ) :   0.9040
B( 15-C , 33-H ) :   0.9516 B( 15-C , 34-H ) :   0.9505 B( 15-C , 35-H ) :   0.9418
B( 16-O , 17-C ) :   0.8933 B( 17-C , 18-C ) :   1.1729 B( 17-C , 36-H ) :   0.9303
B( 17-C , 37-H ) :   0.9264 B( 18-C , 38-H ) :   0.9362 B( 18-C , 39-H ) :   0.9311
B( 18-C , 40-H ) :   0.9450

Dispersion correction           -0.066876357
FINAL SINGLE POINT ENERGY     -2929.510319437323

DIPOLE MOMENT
-------------

Method             : SCF
Type of density    : Electron Density
Multiplicity       :   1
Irrep              :   0
Energy             : -2929.6294548204905368 Eh
Relativity type    :
Basis              : AO
                                X                 Y                 Z
Electronic contribution:      4.798134753       4.727494143      12.586360235
Nuclear contribution   :     -5.573026702      -6.147017382     -13.380869990
                        -----------------------------------------
Total Dipole Moment    :     -0.774891949      -1.419523239      -0.794509755
                        -----------------------------------------
Magnitude (a.u.)       :      1.801873888
Magnitude (Debye)      :      4.579999446

Rotational constants in cm-1:             0.013547             0.005186             0.004683
Rotational constants in MHz :           406.121868           155.475394           140.383017

                             ****ORCA TERMINATED NORMALLY****
TOTAL RUN TIME: 0 days 0 hours 0 minutes 21 seconds 411 msec
