                         Program Version 6.0.0  -   RELEASE  -
|  1> ! wb97x-v def2-tzvp def2/J RIJCOSX DEFGRID2 scfconv7 GCP(DFT/TZ) printgap
|  2> %output
|  3>     printlevel normal
|  4> end
|  5> * xyz 0 1
|  6> C 0.6472579401445206 1.6886903941191953 -0.03254527046938077
|  7> C 1.3977880477622298 0.3853562658404498 -0.26198089090229293
|  8> H 1.6055675417252888 0.2643699638548067 -1.3365356396209565
|  9> C 0.5418514989093116 -0.7799831570229849 0.20697982736834356
| 10> H 0.4019196571570549 -0.7110414882058771 1.2947802157162076
| 11> C -0.8139528215912819 -0.7262110570664414 -0.49620577079525907
| 12> H -0.6510547631380282 -0.8327683734061861 -1.5778492468421192
| 13> C -1.4877403828012223 0.6278834194770299 -0.279533928042997
| 14> H -2.375972406444549 0.7213634807920537 -0.9148623129695052
| 15> O -0.6196771232983109 1.6712469011338436 -0.714379479070025
| 16> O -1.8333931762972961 0.749336489501246 1.0850060262134353
| 17> O -1.698952027334925 -1.74797436371826 -0.028827888254400767
| 18> O 1.2394932137613988 -1.9924425466857392 -0.11973295736350838
| 19> O 2.623418056223187 0.4731324766557041 0.47231112973336953
| 20> H 1.203266516540179 2.531205172185495 -0.4496436749620374
| 21> H 0.5066413783462645 1.854257614429429 1.043790523122695
| 22> H -2.4478203588322875 1.4914205465778834 1.166699763677899
| 23> H -1.3733911210430787 -2.589940504421852 -0.37363008401418046
| 24> H 0.8849659871687109 -2.6966185625841166 0.4381062125599404
| 25> H 3.0739023068377915 -0.3768097898365753 0.37329648730040943
| 26> *
| 27>
| 28>                          ****END OF INPUT****

CARTESIAN COORDINATES (ANGSTROEM)
---------------------------------
  C      0.647258    1.688690   -0.032545
  C      1.397788    0.385356   -0.261981
  H      1.605568    0.264370   -1.336536
  C      0.541851   -0.779983    0.206980
  H      0.401920   -0.711041    1.294780
  C     -0.813953   -0.726211   -0.496206
  H     -0.651055   -0.832768   -1.577849
  C     -1.487740    0.627883   -0.279534
  H     -2.375972    0.721363   -0.914862
  O     -0.619677    1.671247   -0.714379
  O     -1.833393    0.749336    1.085006
  O     -1.698952   -1.747974   -0.028828
  O      1.239493   -1.992443   -0.119733
  O      2.623418    0.473132    0.472311
  H      1.203267    2.531205   -0.449644
  H      0.506641    1.854258    1.043791
  H     -2.447820    1.491421    1.166700
  H     -1.373391   -2.589941   -0.373630
  H      0.884966   -2.696619    0.438106
  H      3.073902   -0.376810    0.373296

 Total Charge           Charge          ....    0
 Multiplicity           Mult            ....    1
 Number of Electrons    NEL             ....   80
 Basis Dimension        Dim             ....  370

ORBITAL ENERGIES
----------------

  NO   OCC          E(Eh)            E(eV)
   0   2.0000     -21.693590      -590.3126
   1   2.0000     -21.687238      -590.1398
   2   2.0000     -21.686817      -590.1283
   3   2.0000     -21.685722      -590.0985
   4   2.0000     -21.675312      -589.8152
   5   2.0000     -12.155229      -330.7606
   6   2.0000     -12.109043      -329.5038
   7   2.0000     -12.105552      -329.4088
   8   2.0000     -12.103095      -329.3420
   9   2.0000     -12.095113      -329.1248
  10   2.0000      -1.717584       -46.7378
  11   2.0000      -1.696703       -46.1696
  12   2.0000      -1.686186       -45.8834
  13   2.0000      -1.677475       -45.6464
  14   2.0000      -1.673114       -45.5277
  15   2.0000      -1.334206       -36.3056
  16   2.0000      -1.305666       -35.5290
  17   2.0000      -1.200492       -32.6671
  18   2.0000      -1.188285       -32.3349
  19   2.0000      -1.126955       -30.6660
  20   2.0000      -1.078381       -29.3442
  21   2.0000      -1.062479       -28.9115
  22   2.0000      -1.044982       -28.4354
  23   2.0000      -1.039652       -28.2904
  24   2.0000      -1.012751       -27.5583
  25   2.0000      -1.001547       -27.2535
  26   2.0000      -0.982072       -26.7235
  27   2.0000      -0.974211       -26.5096
  28   2.0000      -0.969411       -26.3790
  29   2.0000      -0.952066       -25.9070
  30   2.0000      -0.939269       -25.5588
  31   2.0000      -0.926916       -25.2227
  32   2.0000      -0.915905       -24.9231
  33   2.0000      -0.892818       -24.2948
  34   2.0000      -0.879282       -23.9265
  35   2.0000      -0.842969       -22.9383
  36   2.0000      -0.833464       -22.6797
  37   2.0000      -0.824521       -22.4364
  38   2.0000      -0.797117       -21.6906
  39   2.0000      -0.775322       -21.0976
  40   0.0000      -0.236413        -6.4331
  41   0.0000      -0.169327        -4.6076
  42   0.0000      -0.163151        -4.4396
  43   0.0000      -0.157119        -4.2754
  44   0.0000      -0.118071        -3.2129

MULLIKEN ATOMIC CHARGES
-----------------------
   0 C :   -0.006588
   1 C :    0.042488
   2 H :    0.076490
   3 C :   -0.001395
   4 H :    0.110326
   5 C :    0.078994
   6 H :    0.086493
   7 C :    0.105952
   8 H :    0.098929
   9 O :   -0.291024
  10 O :   -0.408794
  11 O :   -0.433704
  12 O :   -0.467469
  13 O :   -0.444326
  14 H :    0.122673
  15 H :    0.099153
  16 H :    0.308456
  17 H :    0.298657
  18 H :    0.311928
  19 H :    0.312762
Sum of atomic charges:   -0.0000000

LOEWDIN ATOMIC CHARGES
----------------------
   0 C :   -0.267257
   1 C :   -0.328575
   2 H :    0.139349
   3 C :   -0.315896
   4 H :    0.147820
   5 C :   -0.313328
   6 H :    0.144944
   7 C :   -0.405794
   8 H :    0.131494
   9 O :    0.160695
  10 O :    0.008417
  11 O :   -0.009344
  12 O :   -0.025212
  13 O :   -0.016445
  14 H :    0.131671
  15 H :    0.127696
  16 H :    0.177681
  17 H :    0.167656
  18 H :    0.169888
  19 H :    0.174539

  Mayer bond orders larger than 0.100000
B(  0-C ,  1-C ) :   0.9607 B(  0-C ,  9-O ) :   0.9764 B(  0-C , 14-H ) :   0.9680
B(  0-C , 15-H ) :   0.9652 B(  1-C ,  2-H ) :   0.9738 B(  1-C ,  3-C ) :   0.9665
B(  1-C , 13-O ) :   1.0885 B(  3-C ,  4-H ) :   0.9710 B(  3-C ,  5-C ) :   0.9414
B(  3-C , 12-O ) :   1.0660 B(  5-C ,  6-H ) :   0.9615 B(  5-C ,  7-C ) :   0.9392
B(  5-C , 11-O ) :   1.0533 B(  7-C ,  8-H ) :   0.9532 B(  7-C ,  9-O ) :   1.0538
B(  7-C , 10-O ) :   1.2487 B( 10-O , 16-H ) :   0.8932 B( 11-O , 17-H ) :   0.8997
B( 12-O , 18-H ) :   0.8982 B( 13-O , 19-H ) :   0.8887

FINAL SINGLE POINT ENERGY      -572.702963078659

DIPOLE MOMENT
-------------

Method             : SCF
Type of density    : Electron Density
Multiplicity       :   1
Irrep              :   0
Energy             :  -572.7185160724585558 Eh
Relativity type    :
Basis              : AO
                                X                 Y                 Z
Electronic contribution:     -1.053208052      -0.191121925       0.135155320
Nuclear contribution   :      0.795562264      -0.365276855      -0.330126388
                        -----------------------------------------
Total Dipole Moment    :     -0.257645788      -0.556398780      -0.194971068
                        -----------------------------------------
Magnitude (a.u.)       :      0.643408635
Magnitude (Debye)      :      1.635414783

Rotational constants in cm-1:             0.056512             0.044101             0.028645
Rotational constants in MHz :          1694.202023          1322.113470           858.762795

                             ****ORCA TERMINATED NORMALLY****
TOTAL RUN TIME: 0 days 0 hours 4 minutes 7 seconds 738 msec
