                         Program Version 6.0.0  -   RELEASE  -
|  1> ! wb97x-v def2-tzvp def2/J RIJCOSX DEFGRID2 scfconv7 GCP(DFT/TZ) printgap
|  2> %output
|  3>     printlevel normal
|  4> end
|  5> %cpcm
|  6>     smd true
|  7>     smdsolvent "water"
|  8> end
|  9> * xyz 0 1
| 10> C 0.6472579401445206 1.6886903941191953 -0.03254527046938077
| 11> C 1.3977880477622298 0.3853562658404498 -0.26198089090229293
| 12> H 1.6055675417252888 0.2643699638548067 -1.3365356396209565
| 13> C 0.5418514989093116 -0.7799831570229849 0.20697982736834356
| 14> H 0.4019196571570549 -0.7110414882058771 1.2947802157162076
| 15> C -0.8139528215912819 -0.7262110570664414 -0.49620577079525907
| 16> H -0.6510547631380282 -0.8327683734061861 -1.5778492468421192
| 17> C -1.4877403828012223 0.6278834194770299 -0.279533928042997
| 18> H -2.375972406444549 0.7213634807920537 -0.9148623129695052
| 19> O -0.6196771232983109 1.6712469011338436 -0.714379479070025
| 20> O -1.8333931762972961 0.749336489501246 1.0850060262134353
| 21> O -1.698952027334925 -1.74797436371826 -0.028827888254400767
| 22> O 1.2394932137613988 -1.9924425466857392 -0.11973295736350838
| 23> O 2.623418056223187 0.4731324766557041 0.47231112973336953
| 24> H 1.203266516540179 2.531205172185495 -0.4496436749620374
| 25> H 0.5066413783462645 1.854257614429429 1.043790523122695
| 26> H -2.4478203588322875 1.4914205465778834 1.166699763677899
| 27> H -1.3733911210430787 -2.589940504421852 -0.37363008401418046
| 28> H 0.8849659871687109 -2.6966185625841166 0.4381062125599404
| 29> H 3.0739023068377915 -0.3768097898365753 0.37329648730040943
| 30> *
| 31>
| 32>                          ****END OF INPUT****

CARTESIAN COORDINATES (ANGSTROEM)
---------------------------------
  C      0.647258    1.688690   -0.032545
  C      1.397788    0.385356   -0.261981
  H      1.605568    0.264370   -1.336536
  C      0.541851   -0.779983    0.206980
  H      0.401920   -0.711041    1.294780
  C     -0.813953   -0.726211   -0.496206
  H     -0.651055   -0.832768   -1.577849
  C     -1.487740    0.627883   -0.279534
  H     -2.375972    0.721363   -0.914862
  O     -0.619677    1.671247   -0.714379
  O     -1.833393    0.749336    1.085006
  O     -1.698952   -1.747974   -0.028828
  O      1.239493   -1.992443   -0.119733
  O      2.623418    0.473132    0.472311
  H      1.203267    2.531205   -0.449644
  H      0.506641    1.854258    1.043791
  H     -2.447820    1.491421    1.166700
  H     -1.373391   -2.589941   -0.373630
  H      0.884966   -2.696619    0.438106
  H      3.073902   -0.376810    0.373296

 Total Charge           Charge          ....    0
 Multiplicity           Mult            ....    1
 Number of Electrons    NEL             ....   80
 Basis Dimension        Dim             ....  370

ORBITAL ENERGIES
----------------

  NO   OCC          E(Eh)            E(eV)
   0   2.0000     -21.691329      -590.2511
   1   2.0000     -21.686795      -590.1277
   2   2.0000     -21.682082      -589.9994
   3   2.0000     -21.681790      -589.9915
   4   2.0000     -21.680364      -589.9527
   5   2.0000     -12.150795      -330.6399
   6   2.0000     -12.101574      -329.3006
   7   2.0000     -12.100018      -329.2582
   8   2.0000     -12.098117      -329.2065
   9   2.0000     -12.092831      -329.0627
  10   2.0000      -1.718979       -46.7758
  11   2.0000      -1.688604       -45.9492
  12   2.0000      -1.684212       -45.8297
  13   2.0000      -1.677102       -45.6363
  14   2.0000      -1.675746       -45.5994
  15   2.0000      -1.329145       -36.1679
  16   2.0000      -1.303943       -35.4821
  17   2.0000      -1.195954       -32.5436
  18   2.0000      -1.187045       -32.3011
  19   2.0000      -1.125402       -30.6238
  20   2.0000      -1.076247       -29.2862
  21   2.0000      -1.057307       -28.7708
  22   2.0000      -1.045091       -28.4384
  23   2.0000      -1.036842       -28.2139
  24   2.0000      -1.013389       -27.5757
  25   2.0000      -1.001851       -27.2618
  26   2.0000      -0.983465       -26.7614
  27   2.0000      -0.974261       -26.5110
  28   2.0000      -0.969072       -26.3698
  29   2.0000      -0.953357       -25.9422
  30   2.0000      -0.939067       -25.5533
  31   2.0000      -0.925523       -25.1847
  32   2.0000      -0.918978       -25.0067
  33   2.0000      -0.892298       -24.2807
  34   2.0000      -0.876035       -23.8381
  35   2.0000      -0.842118       -22.9152
  36   2.0000      -0.830094       -22.5880
  37   2.0000      -0.822134       -22.3714
  38   2.0000      -0.791058       -21.5258
  39   2.0000      -0.771182       -20.9849
  40   0.0000      -0.233291        -6.3482
  41   0.0000      -0.167889        -4.5685
  42   0.0000      -0.158952        -4.3253
  43   0.0000      -0.150202        -4.0872
  44   0.0000      -0.114618        -3.1189

MULLIKEN ATOMIC CHARGES
-----------------------
   0 C :   -0.042040
   1 C :    0.065525
   2 H :    0.100743
   3 C :    0.039586
   4 H :    0.110737
   5 C :    0.079059
   6 H :    0.113602
   7 C :    0.136620
   8 H :    0.137269
   9 O :   -0.358078
  10 O :   -0.501983
  11 O :   -0.533702
  12 O :   -0.541061
  13 O :   -0.533611
  14 H :    0.149855
  15 H :    0.115091
  16 H :    0.368088
  17 H :    0.365537
  18 H :    0.369263
  19 H :    0.359502
Sum of atomic charges:   -0.0000000

LOEWDIN ATOMIC CHARGES
----------------------
   0 C :   -0.270873
   1 C :   -0.325939
   2 H :    0.147245
   3 C :   -0.310832
   4 H :    0.149696
   5 C :   -0.308935
   6 H :    0.154843
   7 C :   -0.400856
   8 H :    0.142284
   9 O :    0.138299
  10 O :   -0.020753
  11 O :   -0.044543
  12 O :   -0.045697
  13 O :   -0.048778
  14 H :    0.137105
  15 H :    0.129779
  16 H :    0.199831
  17 H :    0.194142
  18 H :    0.193691
  19 H :    0.190292

  Mayer bond orders larger than 0.100000
B(  0-C ,  1-C ) :   0.9610 B(  0-C ,  9-O ) :   0.9528 B(  0-C , 14-H ) :   0.9620
B(  0-C , 15-H ) :   0.9670 B(  1-C ,  2-H ) :   0.9710 B(  1-C ,  3-C ) :   0.9695
B(  1-C , 13-O ) :   1.0490 B(  3-C ,  4-H ) :   0.9647 B(  3-C ,  5-C ) :   0.9652
B(  3-C , 12-O ) :   1.0542 B(  5-C ,  6-H ) :   0.9603 B(  5-C ,  7-C ) :   0.9384
B(  5-C , 11-O ) :   1.0325 B(  7-C ,  8-H ) :   0.9607 B(  7-C ,  9-O ) :   1.0216
B(  7-C , 10-O ) :   1.1797 B( 10-O , 16-H ) :   0.8558 B( 11-O , 17-H ) :   0.8594
B( 12-O , 18-H ) :   0.8602 B( 13-O , 19-H ) :   0.8589

FINAL SINGLE POINT ENERGY      -572.736295058920

DIPOLE MOMENT
-------------

Method             : SCF
Type of density    : Electron Density
Multiplicity       :   1
Irrep              :   0
Energy             :  -572.7518480527204474 Eh
Relativity type    :
Basis              : AO
                                X                 Y                 Z
Electronic contribution:     -1.106566516      -0.426337951      -0.041017851
Nuclear contribution   :      0.795562264      -0.365276855      -0.330126388
                        -----------------------------------------
Total Dipole Moment    :     -0.311004252      -0.791614806      -0.371144239
                        -----------------------------------------
Magnitude (a.u.)       :      0.927968584
Magnitude (Debye)      :      2.358708690

Rotational constants in cm-1:             0.056512             0.044101             0.028645
Rotational constants in MHz :          1694.202023          1322.113470           858.762795

                             ****ORCA TERMINATED NORMALLY****
TOTAL RUN TIME: 0 days 0 hours 4 minutes 10 seconds 785 msec
