                         Program Version 6.0.0  -   RELEASE  -
|  1> ! pbe def2-sv(p) def2/J RI DEFGRID1 loosescf d4 GCP(DFT/SV(P)) printgap
|  2> %output
|  3>     printlevel normal
|  4> end
|  5> * xyz 0 1
|  6> C 1.4619079479 0.9547659438 3.2759915308
|  7> C 1.413609206 1.4386335172 1.8390058262
|  8> O 2.3457654452 0.711716966 1.0192648942
|  9> P 2.0231646087 -0.6336504032 0.2347433302
| 10> S 1.0987433061 -2.0638382365 1.2135387107
| 11> O 3.465895861 -1.0212954052 -0.2894471944
| 12> C 4.3601138143 -1.8690455015 0.4585759586
| 13> C 4.8377671082 -1.2069375526 1.7338035644
| 14> S 1.2007104967 -0.0080654543 -1.610269186
| 15> C -0.1173913985 -1.2516638082 -1.8059426642
| 16> S -1.7496048494 -0.5501925623 -2.1860740114
| 17> P -2.1164879687 0.6352452487 -0.4586596711
| 18> S -3.9796881791 1.1945461527 -0.2495128695
| 19> O -1.0248681077 1.7921143179 -0.5222019562
| 20> C -1.0535584347 2.7719494944 -1.5790063489
| 21> C -1.7535042472 4.036019989 -1.1208677572
| 22> O -1.4727478906 -0.1344219019 0.7707990407
| 23> C -2.2901145042 -0.9389543902 1.641614905
| 24> C -2.7005322076 -2.2423040167 0.9873531263
| 25> H 1.1633232556 -0.0899076434 3.3332225237
| 26> H 2.4684692097 1.056217713 3.6730664869
| 27> H 0.7788557283 1.5483817123 3.875148522
| 28> H 1.7387191115 2.4779573931 1.7608029186
| 29> H 0.4067917817 1.3430417175 1.4269474803
| 30> H 3.8419010231 -2.8074537048 0.6808947063
| 31> H 5.1816694706 -2.05452161 -0.2344326296
| 32> H 5.5903985238 -1.8319541922 2.2042960929
| 33> H 5.2621390347 -0.2308951779 1.513332723
| 34> H 4.0023112153 -1.0811032772 2.4210368369
| 35> H -0.1720878687 -1.8431647943 -0.8887425975
| 36> H 0.1174453576 -1.8764268529 -2.6639110764
| 37> H -0.0035342439 2.9553974162 -1.8182161879
| 38> H -1.5518110448 2.3439807603 -2.4559053141
| 39> H -1.7182099309 4.7719855756 -1.9175198551
| 40> H -2.7925420793 3.8223462706 -0.8793105889
| 41> H -1.2644163745 4.4359871324 -0.2373346585
| 42> H -1.6579135183 -1.1142752108 2.5131311876
| 43> H -3.1708677814 -0.3543684397 1.9246761019
| 44> H -3.3137150781 -2.8099811504 1.6796640628
| 45> H -3.2788363835 -2.0402523882 0.0858812164
| 46> H -1.8223787758 -2.8302760048 0.7306283707
| 47> *
| 48>
| 49>                          ****END OF INPUT****

CARTESIAN COORDINATES (ANGSTROEM)
---------------------------------
  C      1.461908    0.954766    3.275992
  C      1.413609    1.438634    1.839006
  O      2.345765    0.711717    1.019265
  P      2.023165   -0.633650    0.234743
  S      1.098743   -2.063838    1.213539
  O      3.465896   -1.021295   -0.289447
  C      4.360114   -1.869046    0.458576
  C      4.837767   -1.206938    1.733804
  S      1.200710   -0.008065   -1.610269
  C     -0.117391   -1.251664   -1.805943
  S     -1.749605   -0.550193   -2.186074
  P     -2.116488    0.635245   -0.458660
  S     -3.979688    1.194546   -0.249513
  O     -1.024868    1.792114   -0.522202
  C     -1.053558    2.771949   -1.579006
  C     -1.753504    4.036020   -1.120868
  O     -1.472748   -0.134422    0.770799
  C     -2.290115   -0.938954    1.641615
  C     -2.700532   -2.242304    0.987353
  H      1.163323   -0.089908    3.333223
  H      2.468469    1.056218    3.673066
  H      0.778856    1.548382    3.875149
  H      1.738719    2.477957    1.760803
  H      0.406792    1.343042    1.426947
  H      3.841901   -2.807454    0.680895
  H      5.181669   -2.054522   -0.234433
  H      5.590399   -1.831954    2.204296
  H      5.262139   -0.230895    1.513333
  H      4.002311   -1.081103    2.421037
  H     -0.172088   -1.843165   -0.888743
  H      0.117445   -1.876427   -2.663911
  H     -0.003534    2.955397   -1.818216
  H     -1.551811    2.343981   -2.455905
  H     -1.718210    4.771986   -1.917520
  H     -2.792542    3.822346   -0.879311
  H     -1.264416    4.435987   -0.237335
  H     -1.657914   -1.114275    2.513131
  H     -3.170868   -0.354368    1.924676
  H     -3.313715   -2.809981    1.679664
  H     -3.278836   -2.040252    0.085881
  H     -1.822379   -2.830276    0.730628

 Total Charge           Charge          ....    0
 Multiplicity           Mult            ....    1
 Number of Electrons    NEL             ....  202
 Basis Dimension        Dim             ....  334

ORBITAL ENERGIES
----------------

  NO   OCC          E(Eh)            E(eV)
   0   2.0000     -88.046745     -2395.8737
   1   2.0000     -88.044612     -2395.8157
   2   2.0000     -87.997050     -2394.5215
   3   2.0000     -87.988803     -2394.2971
   4   2.0000     -76.431243     -2079.7998
   5   2.0000     -76.427673     -2079.7027
   6   2.0000     -18.795153      -511.4421
   7   2.0000     -18.794836      -511.4335
   8   2.0000     -18.791531      -511.3436
   9   2.0000     -18.790400      -511.3128
  10   2.0000      -9.958080      -270.9731
  11   2.0000      -9.954088      -270.8645
  12   2.0000      -9.952388      -270.8183
  13   2.0000      -9.949821      -270.7484
  14   2.0000      -9.948675      -270.7172
  15   2.0000      -9.886598      -269.0280
  16   2.0000      -9.882268      -268.9102
  17   2.0000      -9.880564      -268.8638
  18   2.0000      -9.879670      -268.8395
  19   2.0000      -7.691617      -209.2995
  20   2.0000      -7.689825      -209.2508
  21   2.0000      -7.641768      -207.9431
  22   2.0000      -7.633990      -207.7314
  23   2.0000      -6.428947      -174.9405
  24   2.0000      -6.425208      -174.8388
  25   2.0000      -5.719839      -155.6447
  26   2.0000      -5.717782      -155.5888
  27   2.0000      -5.715663      -155.5311
  28   2.0000      -5.714517      -155.4999
  29   2.0000      -5.708788      -155.3440
  30   2.0000      -5.706455      -155.2805
  31   2.0000      -5.670448      -154.3007
  32   2.0000      -5.662935      -154.0963
  33   2.0000      -5.662610      -154.0875
  34   2.0000      -5.661903      -154.0682
  35   2.0000      -5.654694      -153.8720
  36   2.0000      -5.654033      -153.8540
  37   2.0000      -4.651219      -126.5661
  38   2.0000      -4.650588      -126.5489
  39   2.0000      -4.649827      -126.5282
  40   2.0000      -4.647640      -126.4687
  41   2.0000      -4.647399      -126.4621
  42   2.0000      -4.645379      -126.4072
  43   2.0000      -0.990054       -26.9407
  44   2.0000      -0.988483       -26.8980
  45   2.0000      -0.946464       -25.7546
  46   2.0000      -0.946341       -25.7512
  47   2.0000      -0.762745       -20.7553
  48   2.0000      -0.723283       -19.6815
  49   2.0000      -0.709434       -19.3047
  50   2.0000      -0.687661       -18.7122
  51   2.0000      -0.680914       -18.5286
  52   2.0000      -0.679139       -18.4803
  53   2.0000      -0.657701       -17.8969
  54   2.0000      -0.642189       -17.4748
  55   2.0000      -0.602982       -16.4080
  56   2.0000      -0.594877       -16.1874
  57   2.0000      -0.571758       -15.5583
  58   2.0000      -0.568768       -15.4770
  59   2.0000      -0.561653       -15.2834
  60   2.0000      -0.504830       -13.7371
  61   2.0000      -0.495590       -13.4857
  62   2.0000      -0.476429       -12.9643
  63   2.0000      -0.471233       -12.8229
  64   2.0000      -0.453652       -12.3445
  65   2.0000      -0.447787       -12.1849
  66   2.0000      -0.441507       -12.0140
  67   2.0000      -0.437526       -11.9057
  68   2.0000      -0.421857       -11.4793
  69   2.0000      -0.419303       -11.4098
  70   2.0000      -0.406805       -11.0697
  71   2.0000      -0.403312       -10.9747
  72   2.0000      -0.395953       -10.7744
  73   2.0000      -0.391819       -10.6619
  74   2.0000      -0.389696       -10.6042
  75   2.0000      -0.377721       -10.2783
  76   2.0000      -0.364195        -9.9102
  77   2.0000      -0.359826        -9.7914
  78   2.0000      -0.355817        -9.6823
  79   2.0000      -0.349941        -9.5224
  80   2.0000      -0.347039        -9.4434
  81   2.0000      -0.341114        -9.2822
  82   2.0000      -0.336721        -9.1627
  83   2.0000      -0.335663        -9.1339
  84   2.0000      -0.331733        -9.0269
  85   2.0000      -0.325138        -8.8474
  86   2.0000      -0.316122        -8.6021
  87   2.0000      -0.299443        -8.1482
  88   2.0000      -0.297610        -8.0984
  89   2.0000      -0.290619        -7.9082
  90   2.0000      -0.285842        -7.7781
  91   2.0000      -0.276178        -7.5152
  92   2.0000      -0.271603        -7.3907
  93   2.0000      -0.266868        -7.2619
  94   2.0000      -0.261571        -7.1177
  95   2.0000      -0.235661        -6.4127
  96   2.0000      -0.220718        -6.0060
  97   2.0000      -0.217849        -5.9280
  98   2.0000      -0.210541        -5.7291
  99   2.0000      -0.204929        -5.5764
 100   2.0000      -0.201346        -5.4789
 101   0.0000      -0.042961        -1.1690
 102   0.0000      -0.030708        -0.8356
 103   0.0000      -0.024221        -0.6591
 104   0.0000      -0.003676        -0.1000
 105   0.0000       0.013862         0.3772

MULLIKEN ATOMIC CHARGES
-----------------------
   0 C :   -0.309142
   1 C :   -0.038707
   2 O :   -0.375172
   3 P :    0.633412
   4 S :   -0.336989
   5 O :   -0.367610
   6 C :   -0.003080
   7 C :   -0.315096
   8 S :   -0.085539
   9 C :   -0.363721
  10 S :   -0.091246
  11 P :    0.594795
  12 S :   -0.313027
  13 O :   -0.357066
  14 C :   -0.015197
  15 C :   -0.281360
  16 O :   -0.367142
  17 C :   -0.000670
  18 C :   -0.329797
  19 H :    0.130886
  20 H :    0.113861
  21 H :    0.110059
  22 H :    0.101799
  23 H :    0.146078
  24 H :    0.110936
  25 H :    0.106716
  26 H :    0.112174
  27 H :    0.119113
  28 H :    0.127690
  29 H :    0.212742
  30 H :    0.184640
  31 H :    0.106329
  32 H :    0.100675
  33 H :    0.107321
  34 H :    0.127352
  35 H :    0.109491
  36 H :    0.108749
  37 H :    0.114656
  38 H :    0.111780
  39 H :    0.125502
  40 H :    0.133808
Sum of atomic charges:   -0.0000000

LOEWDIN ATOMIC CHARGES
----------------------
   0 C :   -0.364878
   1 C :   -0.120461
   2 O :   -0.241612
   3 P :    0.576721
   4 S :   -0.297783
   5 O :   -0.244340
   6 C :   -0.116111
   7 C :   -0.366003
   8 S :    0.092705
   9 C :   -0.481022
  10 S :    0.080054
  11 P :    0.564146
  12 S :   -0.312302
  13 O :   -0.237154
  14 C :   -0.123155
  15 C :   -0.361407
  16 O :   -0.232192
  17 C :   -0.123393
  18 C :   -0.369030
  19 H :    0.121569
  20 H :    0.123009
  21 H :    0.129900
  22 H :    0.117570
  23 H :    0.115333
  24 H :    0.110116
  25 H :    0.119772
  26 H :    0.130593
  27 H :    0.127412
  28 H :    0.123069
  29 H :    0.121187
  30 H :    0.138433
  31 H :    0.113966
  32 H :    0.104836
  33 H :    0.128634
  34 H :    0.125144
  35 H :    0.124001
  36 H :    0.117157
  37 H :    0.109430
  38 H :    0.131785
  39 H :    0.121322
  40 H :    0.122981

  Mayer bond orders larger than 0.100000
B(  0-C ,  1-C ) :   1.1669 B(  0-C , 19-H ) :   0.9319 B(  0-C , 20-H ) :   0.9433
B(  0-C , 21-H ) :   0.9401 B(  1-C ,  2-O ) :   0.8939 B(  1-C , 22-H ) :   0.9351
B(  1-C , 23-H ) :   0.8964 B(  2-O ,  3-P ) :   1.1215 B(  3-P ,  4-S ) :   1.5778
B(  3-P ,  5-O ) :   1.1332 B(  3-P ,  8-S ) :   0.9680 B(  4-S ,  8-S ) :   0.1200
B(  5-O ,  6-C ) :   0.9125 B(  6-C ,  7-C ) :   1.1628 B(  6-C , 24-H ) :   0.9178
B(  6-C , 25-H ) :   0.9350 B(  7-C , 26-H ) :   0.9375 B(  7-C , 27-H ) :   0.9459
B(  7-C , 28-H ) :   0.9350 B(  8-S ,  9-C ) :   1.0065 B(  9-C , 10-S ) :   0.9849
B(  9-C , 29-H ) :   0.8466 B(  9-C , 30-H ) :   0.9090 B( 10-S , 11-P ) :   0.9623
B( 11-P , 12-S ) :   1.6585 B( 11-P , 13-O ) :   1.0876 B( 11-P , 16-O ) :   1.0921
B( 13-O , 14-C ) :   0.9013 B( 14-C , 15-C ) :   1.1676 B( 14-C , 31-H ) :   0.9308
B( 14-C , 32-H ) :   0.9100 B( 15-C , 33-H ) :   0.9403 B( 15-C , 34-H ) :   0.9329
B( 15-C , 35-H ) :   0.9484 B( 16-O , 17-C ) :   0.8954 B( 17-C , 18-C ) :   1.1688
B( 17-C , 36-H ) :   0.9230 B( 17-C , 37-H ) :   0.9138 B( 18-C , 38-H ) :   0.9384
B( 18-C , 39-H ) :   0.9356 B( 18-C , 40-H ) :   0.9345

Dispersion correction           -0.067652601
FINAL SINGLE POINT ENERGY     -2929.523043493605

DIPOLE MOMENT
-------------

Method             : SCF
Type of density    : Electron Density
Multiplicity       :   1
Irrep              :   0
Energy             : -2929.6429274450060802 Eh
Relativity type    :
Basis              : AO
                                X                 Y                 Z
Electronic contribution:     -8.160540450      -3.551752806     -15.628060723
Nuclear contribution   :      9.431191999       3.616206655      15.989682635
                        -----------------------------------------
Total Dipole Moment    :      1.270651548       0.064453848       0.361621913
                        -----------------------------------------
Magnitude (a.u.)       :      1.322679123
Magnitude (Debye)      :      3.361983151

Rotational constants in cm-1:             0.012382             0.005354             0.005182
Rotational constants in MHz :           371.204618           160.504398           155.360624

                             ****ORCA TERMINATED NORMALLY****
TOTAL RUN TIME: 0 days 0 hours 0 minutes 22 seconds 276 msec
