                         Program Version 6.0.0  -   RELEASE  -
|  1> ! pbe def2-sv(p) def2/J RI DEFGRID1 loosescf d4 GCP(DFT/SV(P)) printgap
|  2> %output
|  3>     printlevel normal
|  4> end
|  5> * xyz 0 1
|  6> C 3.9252931606 1.1286067697 -1.95308287
|  7> C 2.6182188174 0.3636316398 -1.9754814725
|  8> O 2.5016600133 -0.5092800095 -0.8401348639
|  9> P 2.0951120716 0.019808666 0.6131743996
| 10> S 1.0071194763 1.6485102822 0.6479591138
| 11> O 3.4170190481 0.2661084701 1.4483381856
| 12> C 4.666833727 -0.4634324066 1.367006746
| 13> C 4.5068724492 -1.9641075446 1.4739602159
| 14> S 1.2773349201 -1.7237066361 1.4548917486
| 15> C -0.2697243849 -1.8658292877 0.5225444215
| 16> S -1.5984186887 -0.7726440829 1.1158806918
| 17> P -2.0025596747 0.3562104565 -0.6474402712
| 18> S -0.8655438612 -0.0437714303 -2.1901930329
| 19> O -2.0494049382 1.8836587427 -0.2984323235
| 20> C -2.4263901596 2.4755874332 0.9674542932
| 21> C -3.770747376 1.9934289062 1.4650932608
| 22> O -3.5426085982 0.0553713836 -0.9271454015
| 23> C -3.9800135751 -1.232290858 -1.3984308867
| 24> C -5.407950612 -1.090431521 -1.8854758677
| 25> H 3.9804665851 1.7649879709 -2.8307501359
| 26> H 3.9694863564 1.7547413494 -1.0615556313
| 27> H 4.7675745982 0.4415879163 -1.9565120814
| 28> H 2.5428235879 -0.3018153129 -2.8366210275
| 29> H 1.7665617326 1.0516374751 -1.9819462039
| 30> H 5.1534555769 -0.1913913775 0.427809258
| 31> H 5.2369265683 -0.0604352469 2.2059964123
| 32> H 5.4926460276 -2.417656861 1.5160193432
| 33> H 3.9542331482 -2.2265269237 2.3730582545
| 34> H 3.9749046361 -2.3533415707 0.6085041274
| 35> H -0.5978293451 -2.8915015896 0.6686451408
| 36> H -0.0872571305 -1.6499913821 -0.5344445381
| 37> H -1.6299688639 2.2614491182 1.6857429481
| 38> H -2.432557622 3.5436603425 0.745199197
| 39> H -4.0326760241 2.5460962476 2.3620256837
| 40> H -4.5306406128 2.1541876853 0.7047508844
| 41> H -3.7265284113 0.9320122316 1.7051312418
| 42> H -3.3119695426 -1.5550459584 -2.2045605644
| 43> H -3.9103214231 -1.9415176371 -0.5684445575
| 44> H -6.0460173697 -0.7547371611 -1.0734179074
| 45> H -5.454790646 -0.3653160788 -2.6930327957
| 46> H -5.7584579281 -2.0519512163 -2.2456784346
| 47> *
| 48>
| 49>                          ****END OF INPUT****

CARTESIAN COORDINATES (ANGSTROEM)
---------------------------------
  C      3.925293    1.128607   -1.953083
  C      2.618219    0.363632   -1.975481
  O      2.501660   -0.509280   -0.840135
  P      2.095112    0.019809    0.613174
  S      1.007119    1.648510    0.647959
  O      3.417019    0.266108    1.448338
  C      4.666834   -0.463432    1.367007
  C      4.506872   -1.964108    1.473960
  S      1.277335   -1.723707    1.454892
  C     -0.269724   -1.865829    0.522544
  S     -1.598419   -0.772644    1.115881
  P     -2.002560    0.356210   -0.647440
  S     -0.865544   -0.043771   -2.190193
  O     -2.049405    1.883659   -0.298432
  C     -2.426390    2.475587    0.967454
  C     -3.770747    1.993429    1.465093
  O     -3.542609    0.055371   -0.927145
  C     -3.980014   -1.232291   -1.398431
  C     -5.407951   -1.090432   -1.885476
  H      3.980467    1.764988   -2.830750
  H      3.969486    1.754741   -1.061556
  H      4.767575    0.441588   -1.956512
  H      2.542824   -0.301815   -2.836621
  H      1.766562    1.051637   -1.981946
  H      5.153456   -0.191391    0.427809
  H      5.236927   -0.060435    2.205996
  H      5.492646   -2.417657    1.516019
  H      3.954233   -2.226527    2.373058
  H      3.974905   -2.353342    0.608504
  H     -0.597829   -2.891502    0.668645
  H     -0.087257   -1.649991   -0.534445
  H     -1.629969    2.261449    1.685743
  H     -2.432558    3.543660    0.745199
  H     -4.032676    2.546096    2.362026
  H     -4.530641    2.154188    0.704751
  H     -3.726528    0.932012    1.705131
  H     -3.311970   -1.555046   -2.204561
  H     -3.910321   -1.941518   -0.568445
  H     -6.046017   -0.754737   -1.073418
  H     -5.454791   -0.365316   -2.693033
  H     -5.758458   -2.051951   -2.245678

 Total Charge           Charge          ....    0
 Multiplicity           Mult            ....    1
 Number of Electrons    NEL             ....  202
 Basis Dimension        Dim             ....  334

ORBITAL ENERGIES
----------------

  NO   OCC          E(Eh)            E(eV)
   0   2.0000     -88.039698     -2395.6820
   1   2.0000     -88.039502     -2395.6766
   2   2.0000     -87.980296     -2394.0656
   3   2.0000     -87.974045     -2393.8955
   4   2.0000     -76.421964     -2079.5474
   5   2.0000     -76.420580     -2079.5097
   6   2.0000     -18.789595      -511.2909
   7   2.0000     -18.786935      -511.2185
   8   2.0000     -18.786718      -511.2126
   9   2.0000     -18.782602      -511.1006
  10   2.0000      -9.959076      -271.0002
  11   2.0000      -9.953339      -270.8441
  12   2.0000      -9.950571      -270.7688
  13   2.0000      -9.947367      -270.6816
  14   2.0000      -9.940240      -270.4877
  15   2.0000      -9.889978      -269.1200
  16   2.0000      -9.885870      -269.0082
  17   2.0000      -9.885306      -268.9928
  18   2.0000      -9.882114      -268.9060
  19   2.0000      -7.685057      -209.1210
  20   2.0000      -7.684370      -209.1023
  21   2.0000      -7.625327      -207.4957
  22   2.0000      -7.619002      -207.3236
  23   2.0000      -6.419145      -174.6738
  24   2.0000      -6.418126      -174.6461
  25   2.0000      -5.712979      -155.4581
  26   2.0000      -5.712277      -155.4390
  27   2.0000      -5.709453      -155.3621
  28   2.0000      -5.708845      -155.3456
  29   2.0000      -5.701972      -155.1585
  30   2.0000      -5.701450      -155.1443
  31   2.0000      -5.654189      -153.8583
  32   2.0000      -5.647994      -153.6897
  33   2.0000      -5.646215      -153.6413
  34   2.0000      -5.645163      -153.6127
  35   2.0000      -5.639487      -153.4582
  36   2.0000      -5.639185      -153.4500
  37   2.0000      -4.641737      -126.3081
  38   2.0000      -4.641268      -126.2953
  39   2.0000      -4.641005      -126.2882
  40   2.0000      -4.639552      -126.2486
  41   2.0000      -4.639540      -126.2483
  42   2.0000      -4.638428      -126.2180
  43   2.0000      -0.981767       -26.7152
  44   2.0000      -0.979852       -26.6631
  45   2.0000      -0.940390       -25.5893
  46   2.0000      -0.938945       -25.5500
  47   2.0000      -0.758672       -20.6445
  48   2.0000      -0.719267       -19.5723
  49   2.0000      -0.709922       -19.3180
  50   2.0000      -0.690734       -18.7958
  51   2.0000      -0.688034       -18.7224
  52   2.0000      -0.672538       -18.3007
  53   2.0000      -0.647691       -17.6246
  54   2.0000      -0.631021       -17.1710
  55   2.0000      -0.595759       -16.2114
  56   2.0000      -0.587808       -15.9951
  57   2.0000      -0.578028       -15.7289
  58   2.0000      -0.563346       -15.3294
  59   2.0000      -0.560583       -15.2542
  60   2.0000      -0.500067       -13.6075
  61   2.0000      -0.488828       -13.3017
  62   2.0000      -0.473935       -12.8964
  63   2.0000      -0.470911       -12.8141
  64   2.0000      -0.451373       -12.2825
  65   2.0000      -0.445841       -12.1319
  66   2.0000      -0.441235       -12.0066
  67   2.0000      -0.431419       -11.7395
  68   2.0000      -0.427940       -11.6448
  69   2.0000      -0.414757       -11.2861
  70   2.0000      -0.412702       -11.2302
  71   2.0000      -0.401872       -10.9355
  72   2.0000      -0.391009       -10.6399
  73   2.0000      -0.383604       -10.4384
  74   2.0000      -0.377926       -10.2839
  75   2.0000      -0.366322        -9.9681
  76   2.0000      -0.361747        -9.8436
  77   2.0000      -0.357741        -9.7346
  78   2.0000      -0.354772        -9.6538
  79   2.0000      -0.349168        -9.5014
  80   2.0000      -0.347910        -9.4671
  81   2.0000      -0.345600        -9.4043
  82   2.0000      -0.341514        -9.2931
  83   2.0000      -0.335623        -9.1328
  84   2.0000      -0.333421        -9.0729
  85   2.0000      -0.310032        -8.4364
  86   2.0000      -0.307284        -8.3616
  87   2.0000      -0.305510        -8.3133
  88   2.0000      -0.295132        -8.0309
  89   2.0000      -0.284005        -7.7282
  90   2.0000      -0.274645        -7.4735
  91   2.0000      -0.271017        -7.3747
  92   2.0000      -0.267009        -7.2657
  93   2.0000      -0.262557        -7.1445
  94   2.0000      -0.254713        -6.9311
  95   2.0000      -0.236331        -6.4309
  96   2.0000      -0.217593        -5.9210
  97   2.0000      -0.203558        -5.5391
  98   2.0000      -0.199111        -5.4181
  99   2.0000      -0.187917        -5.1135
 100   2.0000      -0.182152        -4.9566
 101   0.0000      -0.034878        -0.9491
 102   0.0000      -0.026592        -0.7236
 103   0.0000      -0.010139        -0.2759
 104   0.0000       0.007590         0.2065
 105   0.0000       0.022748         0.6190

MULLIKEN ATOMIC CHARGES
-----------------------
   0 C :   -0.312779
   1 C :   -0.022934
   2 O :   -0.390273
   3 P :    0.625565
   4 S :   -0.315711
   5 O :   -0.372125
   6 C :   -0.003408
   7 C :   -0.339447
   8 S :   -0.098960
   9 C :   -0.334563
  10 S :   -0.110896
  11 P :    0.606808
  12 S :   -0.314595
  13 O :   -0.350891
  14 C :   -0.006155
  15 C :   -0.318463
  16 O :   -0.374833
  17 C :   -0.005790
  18 C :   -0.279597
  19 H :    0.115056
  20 H :    0.127134
  21 H :    0.114115
  22 H :    0.102907
  23 H :    0.139485
  24 H :    0.107972
  25 H :    0.111815
  26 H :    0.116691
  27 H :    0.132588
  28 H :    0.136243
  29 H :    0.178891
  30 H :    0.195041
  31 H :    0.129455
  32 H :    0.110913
  33 H :    0.116030
  34 H :    0.124164
  35 H :    0.125375
  36 H :    0.099717
  37 H :    0.091292
  38 H :    0.113898
  39 H :    0.120951
  40 H :    0.109314
Sum of atomic charges:    0.0000000

LOEWDIN ATOMIC CHARGES
----------------------
   0 C :   -0.364663
   1 C :   -0.127437
   2 O :   -0.253320
   3 P :    0.567150
   4 S :   -0.307412
   5 O :   -0.244590
   6 C :   -0.108608
   7 C :   -0.376989
   8 S :    0.091194
   9 C :   -0.482333
  10 S :    0.066608
  11 P :    0.576634
  12 S :   -0.298252
  13 O :   -0.221710
  14 C :   -0.112869
  15 C :   -0.367671
  16 O :   -0.250238
  17 C :   -0.125395
  18 C :   -0.350189
  19 H :    0.132943
  20 H :    0.124984
  21 H :    0.118449
  22 H :    0.117246
  23 H :    0.111284
  24 H :    0.112945
  25 H :    0.123357
  26 H :    0.133337
  27 H :    0.125278
  28 H :    0.124037
  29 H :    0.136235
  30 H :    0.122246
  31 H :    0.113410
  32 H :    0.124069
  33 H :    0.132936
  34 H :    0.129043
  35 H :    0.116215
  36 H :    0.105318
  37 H :    0.102913
  38 H :    0.125306
  39 H :    0.129106
  40 H :    0.129435

  Mayer bond orders larger than 0.100000
B(  0-C ,  1-C ) :   1.1570 B(  0-C , 19-H ) :   0.9386 B(  0-C , 20-H ) :   0.9371
B(  0-C , 21-H ) :   0.9374 B(  1-C ,  2-O ) :   0.8998 B(  1-C , 22-H ) :   0.9354
B(  1-C , 23-H ) :   0.8991 B(  2-O ,  3-P ) :   1.0645 B(  3-P ,  4-S ) :   1.6511
B(  3-P ,  5-O ) :   1.1180 B(  3-P ,  8-S ) :   0.9769 B(  4-S ,  8-S ) :   0.1066
B(  5-O ,  6-C ) :   0.9014 B(  6-C ,  7-C ) :   1.1710 B(  6-C , 24-H ) :   0.9232
B(  6-C , 25-H ) :   0.9348 B(  7-C , 26-H ) :   0.9324 B(  7-C , 27-H ) :   0.9369
B(  7-C , 28-H ) :   0.9354 B(  8-S ,  9-C ) :   0.9975 B(  9-C , 10-S ) :   0.9979
B(  9-C , 29-H ) :   0.9122 B(  9-C , 30-H ) :   0.8424 B( 10-S , 11-P ) :   0.9441
B( 10-S , 12-S ) :   0.1146 B( 11-P , 12-S ) :   1.6063 B( 11-P , 13-O ) :   1.1656
B( 11-P , 16-O ) :   1.0756 B( 12-S , 30-H ) :   0.1235 B( 13-O , 14-C ) :   0.8932
B( 14-C , 15-C ) :   1.1670 B( 14-C , 31-H ) :   0.9152 B( 14-C , 32-H ) :   0.9346
B( 15-C , 33-H ) :   0.9350 B( 15-C , 34-H ) :   0.9414 B( 15-C , 35-H ) :   0.9372
B( 16-O , 17-C ) :   0.9144 B( 17-C , 18-C ) :   1.1607 B( 17-C , 36-H ) :   0.9084
B( 17-C , 37-H ) :   0.9225 B( 18-C , 38-H ) :   0.9517 B( 18-C , 39-H ) :   0.9512
B( 18-C , 40-H ) :   0.9424

Dispersion correction           -0.066777675
FINAL SINGLE POINT ENERGY     -2929.512791617816

DIPOLE MOMENT
-------------

Method             : SCF
Type of density    : Electron Density
Multiplicity       :   1
Irrep              :   0
Energy             : -2929.6316610947369554 Eh
Relativity type    :
Basis              : AO
                                X                 Y                 Z
Electronic contribution:      0.871587247       1.599034391       4.877625185
Nuclear contribution   :     -0.710558604      -2.453040500      -4.684224539
                        -----------------------------------------
Total Dipole Moment    :      0.161028643      -0.854006109       0.193400645
                        -----------------------------------------
Magnitude (a.u.)       :      0.890314814
Magnitude (Debye)      :      2.263000413

Rotational constants in cm-1:             0.013990             0.004695             0.004640
Rotational constants in MHz :           419.414162           140.762750           139.117650

                             ****ORCA TERMINATED NORMALLY****
TOTAL RUN TIME: 0 days 0 hours 0 minutes 21 seconds 58 msec
