                         Program Version 6.0.0  -   RELEASE  -
|  1> ! pbe def2-sv(p) def2/J RI DEFGRID1 loosescf d4 GCP(DFT/SV(P)) printgap
|  2> %output
|  3>     printlevel normal
|  4> end
|  5> * xyz 0 1
|  6> C 4.0721402443 -2.5693200752 -1.4576142358
|  7> C 4.2876734711 -1.1065286753 -1.1242697216
|  8> O 3.1929140449 -0.3104248485 -1.6502758042
|  9> P 2.1096949416 0.3909954914 -0.7449510894
| 10> S 0.8271801908 1.3181558843 -1.8966040177
| 11> O 3.0341747148 1.2720894937 0.1961857587
| 12> C 2.5975920012 2.1850402469 1.2201379272
| 13> C 2.6300061507 1.5234377057 2.5832061515
| 14> S 1.3358015206 -1.1491867841 0.502202354
| 15> C -0.0279865402 -1.6727072909 -0.58690621
| 16> S -1.6150155444 -1.8133023206 0.2666125231
| 17> P -2.1124474222 0.2503426435 0.4711052866
| 18> S -0.8510518729 1.4159681906 1.4058024192
| 19> O -3.5816475893 0.1651953754 1.0710861081
| 20> C -3.9771391854 -0.6505070516 2.1911567323
| 21> C -3.1006178209 -0.444111105 3.4080473612
| 22> O -2.3820736226 0.8416767596 -0.9626774189
| 23> C -3.3708935563 0.3658624555 -1.9078901694
| 24> C -2.7439835242 -0.5599482775 -2.9324892631
| 25> H 4.9573381272 -3.1299249138 -1.174774804
| 26> H 3.2161134711 -2.9617232635 -0.9145931072
| 27> H 3.9000848052 -2.6845960888 -2.5240491017
| 28> H 5.179348732 -0.7127530123 -1.6140115126
| 29> H 4.3616202522 -0.948787255 -0.0465133556
| 30> H 3.3063609964 3.013427715 1.1628002321
| 31> H 1.593261001 2.5477701411 0.9848721659
| 32> H 2.4005719569 2.267952308 3.3382197388
| 33> H 1.8831752759 0.7349417803 2.6388811704
| 34> H 3.6134864516 1.1032164981 2.7734213407
| 35> H 0.1877496018 -2.6689794124 -0.9639436596
| 36> H -0.1095024208 -0.9434265182 -1.3975793429
| 37> H -5.0057766627 -0.33928196 2.3820168211
| 38> H -3.9564217028 -1.6963198439 1.8724254117
| 39> H -3.0748443519 0.6076541866 3.6836963861
| 40> H -3.4922005568 -1.0251464832 4.2366898495
| 41> H -2.0821602326 -0.7679419528 3.1968832747
| 42> H -4.1806251046 -0.1224035141 -1.3624417547
| 43> H -3.7399281129 1.2782916919 -2.3790216496
| 44> H -3.4539284608 -0.7297257217 -3.7356760028
| 45> H -1.8480514045 -0.0978004391 -3.3424274351
| 46> H -2.4820134888 -1.516066689 -2.4859206721
| 47> *
| 48>
| 49>                          ****END OF INPUT****

CARTESIAN COORDINATES (ANGSTROEM)
---------------------------------
  C      4.072140   -2.569320   -1.457614
  C      4.287673   -1.106529   -1.124270
  O      3.192914   -0.310425   -1.650276
  P      2.109695    0.390995   -0.744951
  S      0.827180    1.318156   -1.896604
  O      3.034175    1.272089    0.196186
  C      2.597592    2.185040    1.220138
  C      2.630006    1.523438    2.583206
  S      1.335802   -1.149187    0.502202
  C     -0.027987   -1.672707   -0.586906
  S     -1.615016   -1.813302    0.266613
  P     -2.112447    0.250343    0.471105
  S     -0.851052    1.415968    1.405802
  O     -3.581648    0.165195    1.071086
  C     -3.977139   -0.650507    2.191157
  C     -3.100618   -0.444111    3.408047
  O     -2.382074    0.841677   -0.962677
  C     -3.370894    0.365862   -1.907890
  C     -2.743984   -0.559948   -2.932489
  H      4.957338   -3.129925   -1.174775
  H      3.216113   -2.961723   -0.914593
  H      3.900085   -2.684596   -2.524049
  H      5.179349   -0.712753   -1.614012
  H      4.361620   -0.948787   -0.046513
  H      3.306361    3.013428    1.162800
  H      1.593261    2.547770    0.984872
  H      2.400572    2.267952    3.338220
  H      1.883175    0.734942    2.638881
  H      3.613486    1.103216    2.773421
  H      0.187750   -2.668979   -0.963944
  H     -0.109502   -0.943427   -1.397579
  H     -5.005777   -0.339282    2.382017
  H     -3.956422   -1.696320    1.872425
  H     -3.074844    0.607654    3.683696
  H     -3.492201   -1.025146    4.236690
  H     -2.082160   -0.767942    3.196883
  H     -4.180625   -0.122404   -1.362442
  H     -3.739928    1.278292   -2.379022
  H     -3.453928   -0.729726   -3.735676
  H     -1.848051   -0.097800   -3.342427
  H     -2.482013   -1.516067   -2.485921

 Total Charge           Charge          ....    0
 Multiplicity           Mult            ....    1
 Number of Electrons    NEL             ....  202
 Basis Dimension        Dim             ....  334

ORBITAL ENERGIES
----------------

  NO   OCC          E(Eh)            E(eV)
   0   2.0000     -88.046663     -2395.8715
   1   2.0000     -88.038571     -2395.6513
   2   2.0000     -87.975382     -2393.9319
   3   2.0000     -87.974890     -2393.9185
   4   2.0000     -76.423552     -2079.5906
   5   2.0000     -76.418981     -2079.4662
   6   2.0000     -18.791972      -511.3555
   7   2.0000     -18.788445      -511.2596
   8   2.0000     -18.785027      -511.1666
   9   2.0000     -18.780729      -511.0496
  10   2.0000      -9.959830      -271.0207
  11   2.0000      -9.956859      -270.9399
  12   2.0000      -9.952285      -270.8154
  13   2.0000      -9.952042      -270.8088
  14   2.0000      -9.945603      -270.6336
  15   2.0000      -9.885134      -268.9882
  16   2.0000      -9.882947      -268.9287
  17   2.0000      -9.882584      -268.9188
  18   2.0000      -9.877292      -268.7748
  19   2.0000      -7.691480      -209.2958
  20   2.0000      -7.683259      -209.0721
  21   2.0000      -7.620635      -207.3680
  22   2.0000      -7.620040      -207.3518
  23   2.0000      -6.420527      -174.7114
  24   2.0000      -6.416512      -174.6022
  25   2.0000      -5.719103      -155.6247
  26   2.0000      -5.715957      -155.5391
  27   2.0000      -5.711066      -155.4060
  28   2.0000      -5.708781      -155.3438
  29   2.0000      -5.707901      -155.3199
  30   2.0000      -5.700202      -155.1104
  31   2.0000      -5.649721      -153.7367
  32   2.0000      -5.649117      -153.7203
  33   2.0000      -5.641424      -153.5109
  34   2.0000      -5.640493      -153.4856
  35   2.0000      -5.640387      -153.4827
  36   2.0000      -5.640148      -153.4762
  37   2.0000      -4.643502      -126.3561
  38   2.0000      -4.642683      -126.3338
  39   2.0000      -4.640354      -126.2705
  40   2.0000      -4.639294      -126.2416
  41   2.0000      -4.638368      -126.2164
  42   2.0000      -4.636691      -126.1708
  43   2.0000      -0.985376       -26.8134
  44   2.0000      -0.981306       -26.7027
  45   2.0000      -0.941545       -25.6207
  46   2.0000      -0.936770       -25.4908
  47   2.0000      -0.761330       -20.7168
  48   2.0000      -0.718480       -19.5508
  49   2.0000      -0.710714       -19.3395
  50   2.0000      -0.689100       -18.7514
  51   2.0000      -0.684809       -18.6346
  52   2.0000      -0.676606       -18.4114
  53   2.0000      -0.647370       -17.6158
  54   2.0000      -0.629775       -17.1370
  55   2.0000      -0.588745       -16.0206
  56   2.0000      -0.584479       -15.9045
  57   2.0000      -0.574644       -15.6369
  58   2.0000      -0.570143       -15.5144
  59   2.0000      -0.563580       -15.3358
  60   2.0000      -0.502317       -13.6687
  61   2.0000      -0.497760       -13.5447
  62   2.0000      -0.472837       -12.8665
  63   2.0000      -0.469622       -12.7791
  64   2.0000      -0.454577       -12.3697
  65   2.0000      -0.447941       -12.1891
  66   2.0000      -0.438552       -11.9336
  67   2.0000      -0.434666       -11.8279
  68   2.0000      -0.433052       -11.7839
  69   2.0000      -0.415963       -11.3189
  70   2.0000      -0.411210       -11.1896
  71   2.0000      -0.397504       -10.8166
  72   2.0000      -0.394496       -10.7348
  73   2.0000      -0.383501       -10.4356
  74   2.0000      -0.375493       -10.2177
  75   2.0000      -0.364846        -9.9280
  76   2.0000      -0.354735        -9.6528
  77   2.0000      -0.353564        -9.6210
  78   2.0000      -0.352037        -9.5794
  79   2.0000      -0.347262        -9.4495
  80   2.0000      -0.346596        -9.4313
  81   2.0000      -0.342935        -9.3317
  82   2.0000      -0.340632        -9.2691
  83   2.0000      -0.339643        -9.2422
  84   2.0000      -0.328591        -8.9414
  85   2.0000      -0.317413        -8.6373
  86   2.0000      -0.308948        -8.4069
  87   2.0000      -0.296568        -8.0700
  88   2.0000      -0.293243        -7.9795
  89   2.0000      -0.289907        -7.8888
  90   2.0000      -0.284601        -7.7444
  91   2.0000      -0.273648        -7.4464
  92   2.0000      -0.268993        -7.3197
  93   2.0000      -0.261915        -7.1271
  94   2.0000      -0.255120        -6.9422
  95   2.0000      -0.240801        -6.5525
  96   2.0000      -0.220483        -5.9996
  97   2.0000      -0.200808        -5.4643
  98   2.0000      -0.195780        -5.3274
  99   2.0000      -0.183811        -5.0018
 100   2.0000      -0.177614        -4.8331
 101   0.0000      -0.040188        -1.0936
 102   0.0000      -0.029903        -0.8137
 103   0.0000      -0.016318        -0.4440
 104   0.0000       0.001816         0.0494
 105   0.0000       0.022120         0.6019

MULLIKEN ATOMIC CHARGES
-----------------------
   0 C :   -0.288868
   1 C :   -0.006717
   2 O :   -0.360194
   3 P :    0.598454
   4 S :   -0.293187
   5 O :   -0.379555
   6 C :   -0.011869
   7 C :   -0.311935
   8 S :   -0.100016
   9 C :   -0.351316
  10 S :   -0.133857
  11 P :    0.611694
  12 S :   -0.308982
  13 O :   -0.380974
  14 C :   -0.014038
  15 C :   -0.310049
  16 O :   -0.344028
  17 C :   -0.005274
  18 C :   -0.311841
  19 H :    0.107657
  20 H :    0.114257
  21 H :    0.118523
  22 H :    0.110154
  23 H :    0.101741
  24 H :    0.104120
  25 H :    0.132115
  26 H :    0.111312
  27 H :    0.140519
  28 H :    0.107670
  29 H :    0.180278
  30 H :    0.204200
  31 H :    0.110748
  32 H :    0.113701
  33 H :    0.128733
  34 H :    0.110282
  35 H :    0.127997
  36 H :    0.099996
  37 H :    0.111785
  38 H :    0.109649
  39 H :    0.139667
  40 H :    0.117449
Sum of atomic charges:   -0.0000000

LOEWDIN ATOMIC CHARGES
----------------------
   0 C :   -0.360416
   1 C :   -0.113708
   2 O :   -0.244054
   3 P :    0.565687
   4 S :   -0.295777
   5 O :   -0.241427
   6 C :   -0.114389
   7 C :   -0.365987
   8 S :    0.070143
   9 C :   -0.480559
  10 S :    0.061034
  11 P :    0.567174
  12 S :   -0.300036
  13 O :   -0.246197
  14 C :   -0.114885
  15 C :   -0.370891
  16 O :   -0.225421
  17 C :   -0.110261
  18 C :   -0.367257
  19 H :    0.128675
  20 H :    0.117981
  21 H :    0.128239
  22 H :    0.121312
  23 H :    0.106346
  24 H :    0.118516
  25 H :    0.111896
  26 H :    0.131833
  27 H :    0.122039
  28 H :    0.121201
  29 H :    0.134585
  30 H :    0.122514
  31 H :    0.122061
  32 H :    0.107288
  33 H :    0.131108
  34 H :    0.129571
  35 H :    0.121835
  36 H :    0.107974
  37 H :    0.123496
  38 H :    0.129520
  39 H :    0.132630
  40 H :    0.116610

  Mayer bond orders larger than 0.100000
B(  0-C ,  1-C ) :   1.1629 B(  0-C , 19-H ) :   0.9404 B(  0-C , 20-H ) :   0.9385
B(  0-C , 21-H ) :   0.9465 B(  1-C ,  2-O ) :   0.8941 B(  1-C , 22-H ) :   0.9348
B(  1-C , 23-H ) :   0.9175 B(  2-O ,  3-P ) :   1.1239 B(  3-P ,  4-S ) :   1.6490
B(  3-P ,  5-O ) :   1.1122 B(  3-P ,  8-S ) :   0.9340 B(  4-S ,  8-S ) :   0.1145
B(  4-S , 30-H ) :   0.1109 B(  5-O ,  6-C ) :   0.8949 B(  6-C ,  7-C ) :   1.1709
B(  6-C , 24-H ) :   0.9338 B(  6-C , 25-H ) :   0.9049 B(  7-C , 26-H ) :   0.9401
B(  7-C , 27-H ) :   0.9311 B(  7-C , 28-H ) :   0.9471 B(  8-S ,  9-C ) :   0.9988
B(  9-C , 10-S ) :   0.9979 B(  9-C , 29-H ) :   0.9101 B(  9-C , 30-H ) :   0.8403
B( 10-S , 11-P ) :   0.9310 B( 10-S , 12-S ) :   0.1148 B( 11-P , 12-S ) :   1.6667
B( 11-P , 13-O ) :   1.0833 B( 11-P , 16-O ) :   1.1422 B( 13-O , 14-C ) :   0.9132
B( 14-C , 15-C ) :   1.1677 B( 14-C , 31-H ) :   0.9333 B( 14-C , 32-H ) :   0.9260
B( 15-C , 33-H ) :   0.9415 B( 15-C , 34-H ) :   0.9339 B( 15-C , 35-H ) :   0.9314
B( 16-O , 17-C ) :   0.9001 B( 17-C , 18-C ) :   1.1701 B( 17-C , 36-H ) :   0.9195
B( 17-C , 37-H ) :   0.9347 B( 18-C , 38-H ) :   0.9383 B( 18-C , 39-H ) :   0.9347
B( 18-C , 40-H ) :   0.9340

Dispersion correction           -0.067095302
FINAL SINGLE POINT ENERGY     -2929.508729978606

DIPOLE MOMENT
-------------

Method             : SCF
Type of density    : Electron Density
Multiplicity       :   1
Irrep              :   0
Energy             : -2929.6262909142160424 Eh
Relativity type    :
Basis              : AO
                                X                 Y                 Z
Electronic contribution:     -1.394589487       7.432116815      -3.859976408
Nuclear contribution   :      1.116226316      -8.785326576       4.278007856
                        -----------------------------------------
Total Dipole Moment    :     -0.278363171      -1.353209761       0.418031449
                        -----------------------------------------
Magnitude (a.u.)       :      1.443403271
Magnitude (Debye)      :      3.668839548

Rotational constants in cm-1:             0.011659             0.005487             0.004968
Rotational constants in MHz :           349.513795           164.483180           148.924751

                             ****ORCA TERMINATED NORMALLY****
TOTAL RUN TIME: 0 days 0 hours 0 minutes 21 seconds 461 msec
