                         Program Version 6.0.0  -   RELEASE  -
|  1> ! r2scan-3c def2/J RI DEFGRID2 scfconv6 printgap
|  2> %output
|  3>     printlevel normal
|  4> end
|  5> * xyz 0 1
|  6> C 1.4895647007 -3.5775503503 -0.395015223
|  7> C 2.5185565212 -2.5838156465 -0.894042638
|  8> O 1.8753445577 -1.3198655289 -1.2132669193
|  9> P 2.1483897398 0.0055100995 -0.4038314746
| 10> S 1.1696762858 1.5302705753 -1.143641027
| 11> O 3.7353265078 0.1028527908 -0.4829298083
| 12> C 4.4628312147 1.3172026618 -0.2290062772
| 13> C 4.332231332 1.7827733637 1.2068033133
| 14> S 1.7932707404 -0.4728948109 1.6400232853
| 15> C 0.043921143 -0.0485522547 1.7071110109
| 16> S -0.9611810176 -1.0891822394 0.5842566742
| 17> P -2.4458333812 0.3084619528 -0.0086753922
| 18> S -2.1236165242 2.1882153947 0.4653419689
| 19> O -3.8123789135 -0.2970463081 0.5155256473
| 20> C -4.4005103228 0.0855440082 1.7697129889
| 21> C -3.5693785 -0.3672072851 2.953941591
| 22> O -2.7414113567 -0.0175964485 -1.5284656698
| 23> C -1.9206712582 0.3886418063 -2.6368295812
| 24> C -1.0761182476 -0.7677294687 -3.1355821285
| 25> H 1.0461034418 -3.2350101454 0.5370909688
| 26> H 0.6972073748 -3.6976439672 -1.1283337796
| 27> H 1.9744232026 -4.5342365885 -0.229848342
| 28> H 2.971974168 -2.9136262013 -1.829772046
| 29> H 3.2979575161 -2.4093830271 -0.1495103031
| 30> H 5.492959394 1.0559557449 -0.475733372
| 31> H 4.0997275619 2.0865011177 -0.917562956
| 32> H 4.5777897988 0.9752751669 1.8919223744
| 33> H 5.0066469714 2.6165225433 1.3740885572
| 34> H 3.3128377376 2.1128958536 1.4015547052
| 35> H -0.1018149844 0.9972740422 1.421651474
| 36> H -0.2610332462 -0.2265765277 2.7354978036
| 37> H -4.5229050644 1.1732606511 1.7799455856
| 38> H -5.3784016109 -0.3976053971 1.7544698731
| 39> H -4.1236899375 -0.1913766995 3.8703351533
| 40> H -3.3371740896 -1.4259508201 2.869237188
| 41> H -2.6423470274 0.2039664221 2.9890999429
| 42> H -2.6297155007 0.7143410174 -3.400917552
| 43> H -1.2964185015 1.2390925544 -2.3425708194
| 44> H -1.7074853045 -1.6314498004 -3.3238101594
| 45> H -0.5803791768 -0.4712897097 -4.0545545625
| 46> H -0.3173231405 -1.0338923066 -2.4026311483
| 47> *
| 48>
| 49>                          ****END OF INPUT****

CARTESIAN COORDINATES (ANGSTROEM)
---------------------------------
  C      1.489565   -3.577550   -0.395015
  C      2.518557   -2.583816   -0.894043
  O      1.875345   -1.319866   -1.213267
  P      2.148390    0.005510   -0.403831
  S      1.169676    1.530271   -1.143641
  O      3.735327    0.102853   -0.482930
  C      4.462831    1.317203   -0.229006
  C      4.332231    1.782773    1.206803
  S      1.793271   -0.472895    1.640023
  C      0.043921   -0.048552    1.707111
  S     -0.961181   -1.089182    0.584257
  P     -2.445833    0.308462   -0.008675
  S     -2.123617    2.188215    0.465342
  O     -3.812379   -0.297046    0.515526
  C     -4.400510    0.085544    1.769713
  C     -3.569379   -0.367207    2.953942
  O     -2.741411   -0.017596   -1.528466
  C     -1.920671    0.388642   -2.636830
  C     -1.076118   -0.767729   -3.135582
  H      1.046103   -3.235010    0.537091
  H      0.697207   -3.697644   -1.128334
  H      1.974423   -4.534237   -0.229848
  H      2.971974   -2.913626   -1.829772
  H      3.297958   -2.409383   -0.149510
  H      5.492959    1.055956   -0.475733
  H      4.099728    2.086501   -0.917563
  H      4.577790    0.975275    1.891922
  H      5.006647    2.616523    1.374089
  H      3.312838    2.112896    1.401555
  H     -0.101815    0.997274    1.421651
  H     -0.261033   -0.226577    2.735498
  H     -4.522905    1.173261    1.779946
  H     -5.378402   -0.397605    1.754470
  H     -4.123690   -0.191377    3.870335
  H     -3.337174   -1.425951    2.869237
  H     -2.642347    0.203966    2.989100
  H     -2.629716    0.714341   -3.400918
  H     -1.296419    1.239093   -2.342571
  H     -1.707485   -1.631450   -3.323810
  H     -0.580379   -0.471290   -4.054555
  H     -0.317323   -1.033892   -2.402631

 Total Charge           Charge          ....    0
 Multiplicity           Mult            ....    1
 Number of Electrons    NEL             ....  202
 Basis Dimension        Dim             ....  539

ORBITAL ENERGIES
----------------

  NO   OCC          E(Eh)            E(eV)
   0   2.0000     -88.581189     -2410.4167
   1   2.0000     -88.572268     -2410.1739
   2   2.0000     -88.519887     -2408.7486
   3   2.0000     -88.516369     -2408.6529
   4   2.0000     -76.916515     -2093.0048
   5   2.0000     -76.908527     -2092.7874
   6   2.0000     -18.995550      -516.8952
   7   2.0000     -18.992686      -516.8173
   8   2.0000     -18.982104      -516.5293
   9   2.0000     -18.981232      -516.5056
  10   2.0000     -10.106107      -275.0012
  11   2.0000     -10.105683      -274.9896
  12   2.0000     -10.101882      -274.8862
  13   2.0000     -10.094611      -274.6883
  14   2.0000     -10.085158      -274.4311
  15   2.0000     -10.032502      -272.9983
  16   2.0000     -10.031101      -272.9601
  17   2.0000     -10.028861      -272.8992
  18   2.0000     -10.013317      -272.4762
  19   2.0000      -7.875621      -214.3066
  20   2.0000      -7.866530      -214.0592
  21   2.0000      -7.814564      -212.6451
  22   2.0000      -7.811005      -212.5482
  23   2.0000      -6.594832      -179.4545
  24   2.0000      -6.586836      -179.2369
  25   2.0000      -5.822535      -158.4392
  26   2.0000      -5.819310      -158.3515
  27   2.0000      -5.813332      -158.1888
  28   2.0000      -5.812844      -158.1755
  29   2.0000      -5.810432      -158.1099
  30   2.0000      -5.803669      -157.9259
  31   2.0000      -5.762358      -156.8017
  32   2.0000      -5.758612      -156.6998
  33   2.0000      -5.754685      -156.5929
  34   2.0000      -5.754594      -156.5905
  35   2.0000      -5.751342      -156.5020
  36   2.0000      -5.751020      -156.4932
  37   2.0000      -4.740616      -128.9987
  38   2.0000      -4.739768      -128.9756
  39   2.0000      -4.738316      -128.9361
  40   2.0000      -4.732077      -128.7664
  41   2.0000      -4.731875      -128.7609
  42   2.0000      -4.730723      -128.7295
  43   2.0000      -1.053689       -28.6723
  44   2.0000      -1.044295       -28.4167
  45   2.0000      -1.012265       -27.5451
  46   2.0000      -1.000922       -27.2365
  47   2.0000      -0.800167       -21.7736
  48   2.0000      -0.758235       -20.6326
  49   2.0000      -0.749011       -20.3816
  50   2.0000      -0.736054       -20.0291
  51   2.0000      -0.721587       -19.6354
  52   2.0000      -0.711806       -19.3692
  53   2.0000      -0.686413       -18.6783
  54   2.0000      -0.663520       -18.0553
  55   2.0000      -0.630818       -17.1654
  56   2.0000      -0.623271       -16.9601
  57   2.0000      -0.611210       -16.6319
  58   2.0000      -0.594851       -16.1867
  59   2.0000      -0.590230       -16.0610
  60   2.0000      -0.530850       -14.4452
  61   2.0000      -0.515805       -14.0358
  62   2.0000      -0.494495       -13.4559
  63   2.0000      -0.482024       -13.1166
  64   2.0000      -0.468677       -12.7533
  65   2.0000      -0.466581       -12.6963
  66   2.0000      -0.462276       -12.5792
  67   2.0000      -0.452365       -12.3095
  68   2.0000      -0.448205       -12.1963
  69   2.0000      -0.431941       -11.7537
  70   2.0000      -0.429366       -11.6836
  71   2.0000      -0.413246       -11.2450
  72   2.0000      -0.406135       -11.0515
  73   2.0000      -0.403012       -10.9665
  74   2.0000      -0.393296       -10.7021
  75   2.0000      -0.388440       -10.5700
  76   2.0000      -0.383934       -10.4474
  77   2.0000      -0.375605       -10.2207
  78   2.0000      -0.368305       -10.0221
  79   2.0000      -0.366197        -9.9647
  80   2.0000      -0.359822        -9.7913
  81   2.0000      -0.357383        -9.7249
  82   2.0000      -0.355652        -9.6778
  83   2.0000      -0.350201        -9.5294
  84   2.0000      -0.340710        -9.2712
  85   2.0000      -0.329597        -8.9688
  86   2.0000      -0.321129        -8.7384
  87   2.0000      -0.318999        -8.6804
  88   2.0000      -0.311156        -8.4670
  89   2.0000      -0.305834        -8.3222
  90   2.0000      -0.294169        -8.0047
  91   2.0000      -0.289983        -7.8908
  92   2.0000      -0.279885        -7.6161
  93   2.0000      -0.277876        -7.5614
  94   2.0000      -0.268779        -7.3138
  95   2.0000      -0.245249        -6.6736
  96   2.0000      -0.235969        -6.4210
  97   2.0000      -0.223970        -6.0945
  98   2.0000      -0.215665        -5.8686
  99   2.0000      -0.212577        -5.7845
 100   2.0000      -0.203284        -5.5316
 101   0.0000      -0.047258        -1.2860
 102   0.0000      -0.035330        -0.9614
 103   0.0000      -0.012538        -0.3412
 104   0.0000       0.008244         0.2243
 105   0.0000       0.011864         0.3228

MULLIKEN ATOMIC CHARGES
-----------------------
   0 C :   -0.446571
   1 C :   -0.119167
   2 O :   -0.270206
   3 P :    0.648907
   4 S :   -0.412044
   5 O :   -0.293426
   6 C :   -0.165219
   7 C :   -0.447409
   8 S :   -0.153234
   9 C :   -0.237164
  10 S :   -0.136551
  11 P :    0.672500
  12 S :   -0.448863
  13 O :   -0.289956
  14 C :   -0.143845
  15 C :   -0.457046
  16 O :   -0.300527
  17 C :   -0.138909
  18 C :   -0.446286
  19 H :    0.162257
  20 H :    0.160620
  21 H :    0.145871
  22 H :    0.155147
  23 H :    0.155427
  24 H :    0.148114
  25 H :    0.174993
  26 H :    0.152705
  27 H :    0.149230
  28 H :    0.180687
  29 H :    0.228806
  30 H :    0.185392
  31 H :    0.174377
  32 H :    0.149283
  33 H :    0.148001
  34 H :    0.166034
  35 H :    0.160215
  36 H :    0.145880
  37 H :    0.171374
  38 H :    0.146369
  39 H :    0.144759
  40 H :    0.179475
Sum of atomic charges:   -0.0000000

LOEWDIN ATOMIC CHARGES
----------------------
   0 C :   -0.399854
   1 C :    0.024326
   2 O :   -0.668835
   3 P :    0.378218
   4 S :   -0.080373
   5 O :   -0.672418
   6 C :    0.022623
   7 C :   -0.408493
   8 S :    0.137515
   9 C :   -0.423501
  10 S :    0.142893
  11 P :    0.381798
  12 S :   -0.121069
  13 O :   -0.656668
  14 C :    0.022430
  15 C :   -0.406394
  16 O :   -0.646349
  17 C :    0.023732
  18 C :   -0.406090
  19 H :    0.162869
  20 H :    0.162758
  21 H :    0.158626
  22 H :    0.180777
  23 H :    0.176808
  24 H :    0.179808
  25 H :    0.180706
  26 H :    0.159312
  27 H :    0.159972
  28 H :    0.166471
  29 H :    0.200531
  30 H :    0.175686
  31 H :    0.179177
  32 H :    0.180495
  33 H :    0.158787
  34 H :    0.162743
  35 H :    0.159145
  36 H :    0.176291
  37 H :    0.183640
  38 H :    0.156069
  39 H :    0.160958
  40 H :    0.174881

  Mayer bond orders larger than 0.100000
B(  0-C ,  1-C ) :   0.9498 B(  0-C , 19-H ) :   0.9641 B(  0-C , 20-H ) :   0.9663
B(  0-C , 21-H ) :   0.9638 B(  1-C ,  2-O ) :   0.7399 B(  1-C , 22-H ) :   0.9562
B(  1-C , 23-H ) :   0.9716 B(  2-O ,  3-P ) :   1.1246 B(  3-P ,  4-S ) :   1.8436
B(  3-P ,  5-O ) :   1.0579 B(  3-P ,  8-S ) :   0.9970 B(  5-O ,  6-C ) :   0.8242
B(  6-C ,  7-C ) :   0.9168 B(  6-C , 24-H ) :   0.9610 B(  6-C , 25-H ) :   0.9692
B(  7-C , 26-H ) :   0.9670 B(  7-C , 27-H ) :   0.9566 B(  7-C , 28-H ) :   0.9630
B(  8-S ,  9-C ) :   0.9259 B(  9-C , 10-S ) :   0.8845 B(  9-C , 29-H ) :   0.9010
B(  9-C , 30-H ) :   0.9118 B( 10-S , 11-P ) :   1.0465 B( 11-P , 12-S ) :   1.7669
B( 11-P , 13-O ) :   1.1253 B( 11-P , 16-O ) :   1.1513 B( 13-O , 14-C ) :   0.8217
B( 14-C , 15-C ) :   0.9049 B( 14-C , 31-H ) :   0.9720 B( 14-C , 32-H ) :   0.9593
B( 15-C , 33-H ) :   0.9608 B( 15-C , 34-H ) :   0.9676 B( 15-C , 35-H ) :   0.9673
B( 16-O , 17-C ) :   0.7726 B( 17-C , 18-C ) :   0.9479 B( 17-C , 36-H ) :   0.9651
B( 17-C , 37-H ) :   0.9565 B( 18-C , 38-H ) :   0.9755 B( 18-C , 39-H ) :   0.9647
B( 18-C , 40-H ) :   0.9505

Dispersion correction           -0.022328903
FINAL SINGLE POINT ENERGY     -2932.458902502664

DIPOLE MOMENT
-------------

Method             : SCF
Type of density    : Electron Density
Multiplicity       :   1
Irrep              :   0
Energy             : -2932.4832546349689437 Eh
Relativity type    :
Basis              : AO
                                X                 Y                 Z
Electronic contribution:     -4.462681141       7.614319787      -1.884201664
Nuclear contribution   :      5.489330794      -8.802579635       2.506839805
                        -----------------------------------------
Total Dipole Moment    :      1.026649652      -1.188259848       0.622638142
                        -----------------------------------------
Magnitude (a.u.)       :      1.689274765
Magnitude (Debye)      :      4.293795219

Rotational constants in cm-1:             0.011894             0.005246             0.005126
Rotational constants in MHz :           356.581934           157.279825           153.671659

                             ****ORCA TERMINATED NORMALLY****
TOTAL RUN TIME: 0 days 0 hours 1 minutes 24 seconds 622 msec
