                         Program Version 6.0.0  -   RELEASE  -
|  1> ! r2scan-3c def2/J RI DEFGRID2 scfconv6 printgap
|  2> %output
|  3>     printlevel normal
|  4> end
|  5> %cpcm
|  6>     smd true
|  7>     smdsolvent "water"
|  8> end
|  9> * xyz 0 1
| 10> C 1.4895647007 -3.5775503503 -0.395015223
| 11> C 2.5185565212 -2.5838156465 -0.894042638
| 12> O 1.8753445577 -1.3198655289 -1.2132669193
| 13> P 2.1483897398 0.0055100995 -0.4038314746
| 14> S 1.1696762858 1.5302705753 -1.143641027
| 15> O 3.7353265078 0.1028527908 -0.4829298083
| 16> C 4.4628312147 1.3172026618 -0.2290062772
| 17> C 4.332231332 1.7827733637 1.2068033133
| 18> S 1.7932707404 -0.4728948109 1.6400232853
| 19> C 0.043921143 -0.0485522547 1.7071110109
| 20> S -0.9611810176 -1.0891822394 0.5842566742
| 21> P -2.4458333812 0.3084619528 -0.0086753922
| 22> S -2.1236165242 2.1882153947 0.4653419689
| 23> O -3.8123789135 -0.2970463081 0.5155256473
| 24> C -4.4005103228 0.0855440082 1.7697129889
| 25> C -3.5693785 -0.3672072851 2.953941591
| 26> O -2.7414113567 -0.0175964485 -1.5284656698
| 27> C -1.9206712582 0.3886418063 -2.6368295812
| 28> C -1.0761182476 -0.7677294687 -3.1355821285
| 29> H 1.0461034418 -3.2350101454 0.5370909688
| 30> H 0.6972073748 -3.6976439672 -1.1283337796
| 31> H 1.9744232026 -4.5342365885 -0.229848342
| 32> H 2.971974168 -2.9136262013 -1.829772046
| 33> H 3.2979575161 -2.4093830271 -0.1495103031
| 34> H 5.492959394 1.0559557449 -0.475733372
| 35> H 4.0997275619 2.0865011177 -0.917562956
| 36> H 4.5777897988 0.9752751669 1.8919223744
| 37> H 5.0066469714 2.6165225433 1.3740885572
| 38> H 3.3128377376 2.1128958536 1.4015547052
| 39> H -0.1018149844 0.9972740422 1.421651474
| 40> H -0.2610332462 -0.2265765277 2.7354978036
| 41> H -4.5229050644 1.1732606511 1.7799455856
| 42> H -5.3784016109 -0.3976053971 1.7544698731
| 43> H -4.1236899375 -0.1913766995 3.8703351533
| 44> H -3.3371740896 -1.4259508201 2.869237188
| 45> H -2.6423470274 0.2039664221 2.9890999429
| 46> H -2.6297155007 0.7143410174 -3.400917552
| 47> H -1.2964185015 1.2390925544 -2.3425708194
| 48> H -1.7074853045 -1.6314498004 -3.3238101594
| 49> H -0.5803791768 -0.4712897097 -4.0545545625
| 50> H -0.3173231405 -1.0338923066 -2.4026311483
| 51> *
| 52>
| 53>                          ****END OF INPUT****

CARTESIAN COORDINATES (ANGSTROEM)
---------------------------------
  C      1.489565   -3.577550   -0.395015
  C      2.518557   -2.583816   -0.894043
  O      1.875345   -1.319866   -1.213267
  P      2.148390    0.005510   -0.403831
  S      1.169676    1.530271   -1.143641
  O      3.735327    0.102853   -0.482930
  C      4.462831    1.317203   -0.229006
  C      4.332231    1.782773    1.206803
  S      1.793271   -0.472895    1.640023
  C      0.043921   -0.048552    1.707111
  S     -0.961181   -1.089182    0.584257
  P     -2.445833    0.308462   -0.008675
  S     -2.123617    2.188215    0.465342
  O     -3.812379   -0.297046    0.515526
  C     -4.400510    0.085544    1.769713
  C     -3.569379   -0.367207    2.953942
  O     -2.741411   -0.017596   -1.528466
  C     -1.920671    0.388642   -2.636830
  C     -1.076118   -0.767729   -3.135582
  H      1.046103   -3.235010    0.537091
  H      0.697207   -3.697644   -1.128334
  H      1.974423   -4.534237   -0.229848
  H      2.971974   -2.913626   -1.829772
  H      3.297958   -2.409383   -0.149510
  H      5.492959    1.055956   -0.475733
  H      4.099728    2.086501   -0.917563
  H      4.577790    0.975275    1.891922
  H      5.006647    2.616523    1.374089
  H      3.312838    2.112896    1.401555
  H     -0.101815    0.997274    1.421651
  H     -0.261033   -0.226577    2.735498
  H     -4.522905    1.173261    1.779946
  H     -5.378402   -0.397605    1.754470
  H     -4.123690   -0.191377    3.870335
  H     -3.337174   -1.425951    2.869237
  H     -2.642347    0.203966    2.989100
  H     -2.629716    0.714341   -3.400918
  H     -1.296419    1.239093   -2.342571
  H     -1.707485   -1.631450   -3.323810
  H     -0.580379   -0.471290   -4.054555
  H     -0.317323   -1.033892   -2.402631

 Total Charge           Charge          ....    0
 Multiplicity           Mult            ....    1
 Number of Electrons    NEL             ....  202
 Basis Dimension        Dim             ....  539

ORBITAL ENERGIES
----------------

  NO   OCC          E(Eh)            E(eV)
   0   2.0000     -88.580744     -2410.4046
   1   2.0000     -88.576503     -2410.2892
   2   2.0000     -88.527894     -2408.9665
   3   2.0000     -88.526347     -2408.9244
   4   2.0000     -76.918976     -2093.0718
   5   2.0000     -76.918161     -2093.0496
   6   2.0000     -18.994311      -516.8615
   7   2.0000     -18.993286      -516.8336
   8   2.0000     -18.992548      -516.8135
   9   2.0000     -18.989627      -516.7340
  10   2.0000     -10.103227      -274.9228
  11   2.0000     -10.092674      -274.6356
  12   2.0000     -10.090229      -274.5691
  13   2.0000     -10.088966      -274.5347
  14   2.0000     -10.087627      -274.4983
  15   2.0000     -10.018846      -272.6267
  16   2.0000     -10.018578      -272.6194
  17   2.0000     -10.018345      -272.6130
  18   2.0000     -10.014158      -272.4991
  19   2.0000      -7.875078      -214.2918
  20   2.0000      -7.870688      -214.1723
  21   2.0000      -7.822841      -212.8703
  22   2.0000      -7.821371      -212.8303
  23   2.0000      -6.597347      -179.5229
  24   2.0000      -6.596590      -179.5023
  25   2.0000      -5.822027      -158.4254
  26   2.0000      -5.818806      -158.3378
  27   2.0000      -5.817514      -158.3026
  28   2.0000      -5.814596      -158.2232
  29   2.0000      -5.812243      -158.1592
  30   2.0000      -5.807820      -158.0388
  31   2.0000      -5.770370      -157.0198
  32   2.0000      -5.769050      -156.9838
  33   2.0000      -5.763181      -156.8241
  34   2.0000      -5.762873      -156.8158
  35   2.0000      -5.761528      -156.7791
  36   2.0000      -5.761411      -156.7760
  37   2.0000      -4.743085      -129.0659
  38   2.0000      -4.742261      -129.0435
  39   2.0000      -4.741893      -129.0335
  40   2.0000      -4.741593      -129.0253
  41   2.0000      -4.740938      -129.0075
  42   2.0000      -4.740462      -128.9945
  43   2.0000      -1.054070       -28.6827
  44   2.0000      -1.052772       -28.6474
  45   2.0000      -1.010706       -27.5027
  46   2.0000      -1.009826       -27.4787
  47   2.0000      -0.799897       -21.7663
  48   2.0000      -0.755215       -20.5505
  49   2.0000      -0.746138       -20.3035
  50   2.0000      -0.724940       -19.7266
  51   2.0000      -0.718542       -19.5525
  52   2.0000      -0.713038       -19.4027
  53   2.0000      -0.689430       -18.7603
  54   2.0000      -0.670522       -18.2458
  55   2.0000      -0.631640       -17.1878
  56   2.0000      -0.620125       -16.8745
  57   2.0000      -0.602452       -16.3936
  58   2.0000      -0.592909       -16.1339
  59   2.0000      -0.589489       -16.0408
  60   2.0000      -0.524485       -14.2719
  61   2.0000      -0.518079       -14.0976
  62   2.0000      -0.488211       -13.2849
  63   2.0000      -0.485191       -13.2027
  64   2.0000      -0.471004       -12.8167
  65   2.0000      -0.466242       -12.6871
  66   2.0000      -0.455926       -12.4064
  67   2.0000      -0.450475       -12.2580
  68   2.0000      -0.441571       -12.0158
  69   2.0000      -0.432275       -11.7628
  70   2.0000      -0.424440       -11.5496
  71   2.0000      -0.410809       -11.1787
  72   2.0000      -0.407347       -11.0845
  73   2.0000      -0.401455       -10.9242
  74   2.0000      -0.389548       -10.6001
  75   2.0000      -0.386619       -10.5204
  76   2.0000      -0.381834       -10.3902
  77   2.0000      -0.369213       -10.0468
  78   2.0000      -0.362969        -9.8769
  79   2.0000      -0.359144        -9.7728
  80   2.0000      -0.356410        -9.6984
  81   2.0000      -0.353061        -9.6073
  82   2.0000      -0.348772        -9.4906
  83   2.0000      -0.345179        -9.3928
  84   2.0000      -0.342278        -9.3139
  85   2.0000      -0.325061        -8.8454
  86   2.0000      -0.323476        -8.8022
  87   2.0000      -0.312658        -8.5078
  88   2.0000      -0.305146        -8.3034
  89   2.0000      -0.304824        -8.2947
  90   2.0000      -0.299275        -8.1437
  91   2.0000      -0.287441        -7.8217
  92   2.0000      -0.281564        -7.6617
  93   2.0000      -0.278562        -7.5801
  94   2.0000      -0.274581        -7.4717
  95   2.0000      -0.247469        -6.7340
  96   2.0000      -0.242534        -6.5997
  97   2.0000      -0.233561        -6.3555
  98   2.0000      -0.222919        -6.0659
  99   2.0000      -0.220589        -6.0025
 100   2.0000      -0.212765        -5.7896
 101   0.0000      -0.049132        -1.3370
 102   0.0000      -0.041444        -1.1278
 103   0.0000      -0.014930        -0.4063
 104   0.0000       0.003806         0.1036
 105   0.0000       0.012066         0.3283

MULLIKEN ATOMIC CHARGES
-----------------------
   0 C :   -0.487709
   1 C :   -0.114771
   2 O :   -0.297696
   3 P :    0.667804
   4 S :   -0.468081
   5 O :   -0.313731
   6 C :   -0.161289
   7 C :   -0.484453
   8 S :   -0.145836
   9 C :   -0.231531
  10 S :   -0.140431
  11 P :    0.697488
  12 S :   -0.499005
  13 O :   -0.327084
  14 C :   -0.144865
  15 C :   -0.484029
  16 O :   -0.330515
  17 C :   -0.128843
  18 C :   -0.492350
  19 H :    0.160596
  20 H :    0.171022
  21 H :    0.171114
  22 H :    0.179169
  23 H :    0.173907
  24 H :    0.174926
  25 H :    0.178822
  26 H :    0.168343
  27 H :    0.172926
  28 H :    0.174703
  29 H :    0.220135
  30 H :    0.231348
  31 H :    0.177106
  32 H :    0.174038
  33 H :    0.172316
  34 H :    0.171930
  35 H :    0.170745
  36 H :    0.171498
  37 H :    0.167206
  38 H :    0.163561
  39 H :    0.169082
  40 H :    0.172436
Sum of atomic charges:   -0.0000000

LOEWDIN ATOMIC CHARGES
----------------------
   0 C :   -0.402300
   1 C :    0.030419
   2 O :   -0.685359
   3 P :    0.381356
   4 S :   -0.120511
   5 O :   -0.680295
   6 C :    0.026988
   7 C :   -0.411465
   8 S :    0.150037
   9 C :   -0.414740
  10 S :    0.147263
  11 P :    0.383850
  12 S :   -0.155556
  13 O :   -0.677258
  14 C :    0.025987
  15 C :   -0.406551
  16 O :   -0.666414
  17 C :    0.025085
  18 C :   -0.410497
  19 H :    0.160279
  20 H :    0.164064
  21 H :    0.168368
  22 H :    0.190816
  23 H :    0.183861
  24 H :    0.191145
  25 H :    0.181214
  26 H :    0.163547
  27 H :    0.168412
  28 H :    0.161677
  29 H :    0.198009
  30 H :    0.193292
  31 H :    0.180332
  32 H :    0.190764
  33 H :    0.168041
  34 H :    0.164826
  35 H :    0.161705
  36 H :    0.186385
  37 H :    0.182467
  38 H :    0.162204
  39 H :    0.168304
  40 H :    0.170252

  Mayer bond orders larger than 0.100000
B(  0-C ,  1-C ) :   0.9384 B(  0-C , 19-H ) :   0.9643 B(  0-C , 20-H ) :   0.9657
B(  0-C , 21-H ) :   0.9583 B(  1-C ,  2-O ) :   0.7272 B(  1-C , 22-H ) :   0.9457
B(  1-C , 23-H ) :   0.9627 B(  2-O ,  3-P ) :   1.1316 B(  3-P ,  4-S ) :   1.8123
B(  3-P ,  5-O ) :   1.0644 B(  3-P ,  8-S ) :   1.0125 B(  5-O ,  6-C ) :   0.8134
B(  6-C ,  7-C ) :   0.9053 B(  6-C , 24-H ) :   0.9508 B(  6-C , 25-H ) :   0.9679
B(  7-C , 26-H ) :   0.9641 B(  7-C , 27-H ) :   0.9516 B(  7-C , 28-H ) :   0.9651
B(  8-S ,  9-C ) :   0.9202 B(  9-C , 10-S ) :   0.8776 B(  9-C , 29-H ) :   0.9055
B(  9-C , 30-H ) :   0.8968 B( 10-S , 11-P ) :   1.0710 B( 11-P , 12-S ) :   1.7354
B( 11-P , 13-O ) :   1.1264 B( 11-P , 16-O ) :   1.1440 B( 13-O , 14-C ) :   0.8092
B( 14-C , 15-C ) :   0.8985 B( 14-C , 31-H ) :   0.9673 B( 14-C , 32-H ) :   0.9490
B( 15-C , 33-H ) :   0.9554 B( 15-C , 34-H ) :   0.9658 B( 15-C , 35-H ) :   0.9629
B( 16-O , 17-C ) :   0.7650 B( 17-C , 18-C ) :   0.9356 B( 17-C , 36-H ) :   0.9557
B( 17-C , 37-H ) :   0.9529 B( 18-C , 38-H ) :   0.9713 B( 18-C , 39-H ) :   0.9622
B( 18-C , 40-H ) :   0.9552

Dispersion correction           -0.022328903
FINAL SINGLE POINT ENERGY     -2932.467707924129

DIPOLE MOMENT
-------------

Method             : SCF
Type of density    : Electron Density
Multiplicity       :   1
Irrep              :   0
Energy             : -2932.4920600564337292 Eh
Relativity type    :
Basis              : AO
                                X                 Y                 Z
Electronic contribution:     -4.030229682       7.086304801      -1.382147376
Nuclear contribution   :      5.489330794      -8.802579635       2.506839805
                        -----------------------------------------
Total Dipole Moment    :      1.459101112      -1.716274834       1.124692429
                        -----------------------------------------
Magnitude (a.u.)       :      2.517838045
Magnitude (Debye)      :      6.399835707

Rotational constants in cm-1:             0.011894             0.005246             0.005126
Rotational constants in MHz :           356.581934           157.279825           153.671659

                             ****ORCA TERMINATED NORMALLY****
TOTAL RUN TIME: 0 days 0 hours 1 minutes 54 seconds 820 msec
