                         Program Version 6.0.1  -  RELEASE   -
|  1> ! r2scan-3c def2/J RI DEFGRID2 scfconv6 printgap
|  2> %output
|  3>     printlevel normal
|  4> end
|  5> * xyz 0 1
|  6> C 3.1830593956 -4.0299205203 -0.9809191795
|  7> C 3.9741173382 -2.7368101258 -1.0960039202
|  8> O 3.1908297592 -1.7221498667 -1.7557523831
|  9> C 2.4112056024 -0.9547848967 -1.0314005078
| 10> O 2.3186918227 -1.0014056382 0.1799361911
| 11> C 1.6405193189 0.0360696599 -1.8784254374
| 12> C 0.4408374091 0.5374509678 -1.0892266875
| 13> H -0.0380988413 1.3851797914 -1.5882479952
| 14> C 0.8327147 0.9783253618 0.309356844
| 15> O 0.1907126519 0.6621687546 1.2928565579
| 16> O 1.8532785103 1.7936305021 0.2999577622
| 17> C 2.2647780508 2.3761822356 1.5545226429
| 18> C 1.4480931871 3.6210431215 1.8597880599
| 19> S -0.8075905228 -0.7828242748 -0.9110309552
| 20> P -2.1630570173 0.2094212221 0.3868082682
| 21> S -2.2575743096 2.1616894046 0.2827839681
| 22> O -3.5347724243 -0.4729449512 -0.1206193649
| 23> C -4.0872608105 -0.1774355697 -1.4052972476
| 24> O -2.1663269872 -0.3895278134 1.8504052841
| 25> C -1.8848633737 -1.7729907615 2.1234795634
| 26> H 2.305664927 -3.8770508496 -0.3561644298
| 27> H 2.8615501853 -4.3602704634 -1.9644766924
| 28> H 3.8073020211 -4.7948501142 -0.531121858
| 29> H 4.8514539105 -2.8612830945 -1.7306783389
| 30> H 4.2649114068 -2.3685910437 -0.1081314988
| 31> H 1.3316572363 -0.4373826102 -2.8093611221
| 32> H 2.3006846642 0.875286369 -2.1074723462
| 33> H 2.146414188 1.6245392502 2.3396016822
| 34> H 3.3185208354 2.6130633047 1.4079220889
| 35> H 1.5592268846 4.3488666256 1.0610193827
| 36> H 0.3936421404 3.3659113623 1.9527954099
| 37> H 1.7886480814 4.0550842133 2.7938105625
| 38> H -4.1122394688 0.9026902491 -1.5607205938
| 39> H -5.0958872663 -0.5821790578 -1.390879753
| 40> H -3.4908571165 -0.6530115958 -2.1839576012
| 41> H -2.1615730276 -1.9183707504 3.1644534675
| 42> H -0.8192303715 -1.9577325835 1.9827419062
| 43> H -2.4735955764 -2.4163478171 1.470797562
| 44> *
| 45>
| 46>                          ****END OF INPUT****

CARTESIAN COORDINATES (ANGSTROEM)
---------------------------------
  C      3.183059   -4.029921   -0.980919
  C      3.974117   -2.736810   -1.096004
  O      3.190830   -1.722150   -1.755752
  C      2.411206   -0.954785   -1.031401
  O      2.318692   -1.001406    0.179936
  C      1.640519    0.036070   -1.878425
  C      0.440837    0.537451   -1.089227
  H     -0.038099    1.385180   -1.588248
  C      0.832715    0.978325    0.309357
  O      0.190713    0.662169    1.292857
  O      1.853279    1.793631    0.299958
  C      2.264778    2.376182    1.554523
  C      1.448093    3.621043    1.859788
  S     -0.807591   -0.782824   -0.911031
  P     -2.163057    0.209421    0.386808
  S     -2.257574    2.161689    0.282784
  O     -3.534772   -0.472945   -0.120619
  C     -4.087261   -0.177436   -1.405297
  O     -2.166327   -0.389528    1.850405
  C     -1.884863   -1.772991    2.123480
  H      2.305665   -3.877051   -0.356164
  H      2.861550   -4.360270   -1.964477
  H      3.807302   -4.794850   -0.531122
  H      4.851454   -2.861283   -1.730678
  H      4.264911   -2.368591   -0.108131
  H      1.331657   -0.437383   -2.809361
  H      2.300685    0.875286   -2.107472
  H      2.146414    1.624539    2.339602
  H      3.318521    2.613063    1.407922
  H      1.559227    4.348867    1.061019
  H      0.393642    3.365911    1.952795
  H      1.788648    4.055084    2.793811
  H     -4.112239    0.902690   -1.560721
  H     -5.095887   -0.582179   -1.390880
  H     -3.490857   -0.653012   -2.183958
  H     -2.161573   -1.918371    3.164453
  H     -0.819230   -1.957733    1.982742
  H     -2.473596   -2.416348    1.470798

 Total Charge           Charge          ....    0
 Multiplicity           Mult            ....    1
 Number of Electrons    NEL             ....  174
 Basis Dimension        Dim             ....  510

ORBITAL ENERGIES
----------------

  NO   OCC          E(Eh)            E(eV)
   0   2.0000     -88.567815     -2410.0528
   1   2.0000     -88.501054     -2408.2361
   2   2.0000     -76.901994     -2092.6096
   3   2.0000     -19.015532      -517.4389
   4   2.0000     -19.003082      -517.1002
   5   2.0000     -18.974610      -516.3254
   6   2.0000     -18.970645      -516.2175
   7   2.0000     -18.946906      -515.5715
   8   2.0000     -18.929514      -515.0983
   9   2.0000     -10.172324      -276.8030
  10   2.0000     -10.160948      -276.4934
  11   2.0000     -10.104770      -274.9648
  12   2.0000     -10.094564      -274.6871
  13   2.0000     -10.091317      -274.5987
  14   2.0000     -10.082834      -274.3679
  15   2.0000     -10.075689      -274.1734
  16   2.0000     -10.071234      -274.0522
  17   2.0000     -10.039081      -273.1773
  18   2.0000     -10.021256      -272.6922
  19   2.0000      -7.862205      -213.9415
  20   2.0000      -7.796115      -212.1431
  21   2.0000      -6.579353      -179.0333
  22   2.0000      -5.809084      -158.0732
  23   2.0000      -5.806136      -157.9930
  24   2.0000      -5.799243      -157.8054
  25   2.0000      -5.744050      -156.3036
  26   2.0000      -5.736630      -156.1016
  27   2.0000      -5.735536      -156.0719
  28   2.0000      -4.724946      -128.5723
  29   2.0000      -4.724725      -128.5663
  30   2.0000      -4.722798      -128.5139
  31   2.0000      -1.093188       -29.7471
  32   2.0000      -1.081100       -29.4182
  33   2.0000      -1.031846       -28.0780
  34   2.0000      -0.996355       -27.1122
  35   2.0000      -0.989318       -26.9207
  36   2.0000      -0.982090       -26.7240
  37   2.0000      -0.812359       -22.1054
  38   2.0000      -0.761713       -20.7273
  39   2.0000      -0.741636       -20.1809
  40   2.0000      -0.724507       -19.7148
  41   2.0000      -0.695524       -18.9262
  42   2.0000      -0.659730       -17.9522
  43   2.0000      -0.655560       -17.8387
  44   2.0000      -0.641306       -17.4508
  45   2.0000      -0.633906       -17.2495
  46   2.0000      -0.595398       -16.2016
  47   2.0000      -0.539479       -14.6800
  48   2.0000      -0.531784       -14.4706
  49   2.0000      -0.521157       -14.1814
  50   2.0000      -0.506834       -13.7917
  51   2.0000      -0.485265       -13.2047
  52   2.0000      -0.476873       -12.9764
  53   2.0000      -0.469198       -12.7675
  54   2.0000      -0.458297       -12.4709
  55   2.0000      -0.454226       -12.3601
  56   2.0000      -0.449206       -12.2235
  57   2.0000      -0.434473       -11.8226
  58   2.0000      -0.432581       -11.7711
  59   2.0000      -0.418216       -11.3802
  60   2.0000      -0.416555       -11.3350
  61   2.0000      -0.416043       -11.3211
  62   2.0000      -0.404421       -11.0049
  63   2.0000      -0.400757       -10.9052
  64   2.0000      -0.397376       -10.8132
  65   2.0000      -0.389312       -10.5937
  66   2.0000      -0.381278       -10.3751
  67   2.0000      -0.364228        -9.9112
  68   2.0000      -0.362111        -9.8535
  69   2.0000      -0.350657        -9.5419
  70   2.0000      -0.347544        -9.4572
  71   2.0000      -0.343706        -9.3527
  72   2.0000      -0.339747        -9.2450
  73   2.0000      -0.323683        -8.8078
  74   2.0000      -0.320423        -8.7191
  75   2.0000      -0.309664        -8.4264
  76   2.0000      -0.302153        -8.2220
  77   2.0000      -0.299012        -8.1365
  78   2.0000      -0.290233        -7.8976
  79   2.0000      -0.278351        -7.5743
  80   2.0000      -0.270117        -7.3503
  81   2.0000      -0.261104        -7.1050
  82   2.0000      -0.255433        -6.9507
  83   2.0000      -0.242979        -6.6118
  84   2.0000      -0.229042        -6.2326
  85   2.0000      -0.203790        -5.5454
  86   2.0000      -0.194520        -5.2932
  87   0.0000      -0.041204        -1.1212
  88   0.0000      -0.027270        -0.7420
  89   0.0000      -0.014813        -0.4031
  90   0.0000       0.011464         0.3120
  91   0.0000       0.033711         0.9173

MULLIKEN ATOMIC CHARGES
-----------------------
   0 C :   -0.462048
   1 C :   -0.142679
   2 O :   -0.159374
   3 C :    0.387183
   4 O :   -0.386186
   5 C :   -0.421186
   6 C :   -0.039372
   7 H :    0.236702
   8 C :    0.326860
   9 O :   -0.394505
  10 O :   -0.142234
  11 C :   -0.135835
  12 C :   -0.474195
  13 S :   -0.212642
  14 P :    0.811838
  15 S :   -0.474816
  16 O :   -0.370779
  17 C :   -0.304012
  18 O :   -0.296339
  19 C :   -0.300969
  20 H :    0.171824
  21 H :    0.154597
  22 H :    0.150373
  23 H :    0.151612
  24 H :    0.169742
  25 H :    0.189310
  26 H :    0.197462
  27 H :    0.172048
  28 H :    0.146772
  29 H :    0.148895
  30 H :    0.194763
  31 H :    0.145683
  32 H :    0.174959
  33 H :    0.147774
  34 H :    0.151425
  35 H :    0.152234
  36 H :    0.178791
  37 H :    0.156325
Sum of atomic charges:   -0.0000000

LOEWDIN ATOMIC CHARGES
----------------------
   0 C :   -0.386162
   1 C :    0.032144
   2 O :   -0.573299
   3 C :    0.367469
   4 O :   -0.424268
   5 C :   -0.206498
   6 C :   -0.197976
   7 H :    0.204876
   8 C :    0.351086
   9 O :   -0.455646
  10 O :   -0.570363
  11 C :    0.036445
  12 C :   -0.389539
  13 S :    0.209138
  14 P :    0.411531
  15 S :   -0.097380
  16 O :   -0.695520
  17 C :   -0.069916
  18 O :   -0.638868
  19 C :   -0.052746
  20 H :    0.165859
  21 H :    0.158678
  22 H :    0.160907
  23 H :    0.179725
  24 H :    0.189366
  25 H :    0.189829
  26 H :    0.201535
  27 H :    0.191318
  28 H :    0.177688
  29 H :    0.156767
  30 H :    0.175497
  31 H :    0.158561
  32 H :    0.175623
  33 H :    0.174415
  34 H :    0.164980
  35 H :    0.179478
  36 H :    0.177335
  37 H :    0.167928

  Mayer bond orders larger than 0.100000
B(  0-C ,  1-C ) :   0.9460 B(  0-C , 20-H ) :   0.9686 B(  0-C , 21-H ) :   0.9728
B(  0-C , 22-H ) :   0.9641 B(  1-C ,  2-O ) :   0.7970 B(  1-C , 23-H ) :   0.9612
B(  1-C , 24-H ) :   0.9649 B(  2-O ,  3-C ) :   1.1420 B(  3-C ,  4-O ) :   1.7651
B(  3-C ,  5-C ) :   0.9703 B(  4-O ,  8-C ) :   0.1486 B(  5-C ,  6-C ) :   0.8897
B(  5-C , 10-O ) :   0.1183 B(  5-C , 25-H ) :   0.9701 B(  5-C , 26-H ) :   0.9246
B(  6-C ,  7-H ) :   0.9082 B(  6-C ,  8-C ) :   0.8796 B(  6-C , 13-S ) :   0.9573
B(  8-C ,  9-O ) :   1.7630 B(  8-C , 10-O ) :   1.1489 B(  9-O , 14-P ) :   0.1209
B( 10-O , 11-C ) :   0.7945 B( 11-C , 12-C ) :   0.9399 B( 11-C , 27-H ) :   0.9709
B( 11-C , 28-H ) :   0.9619 B( 12-C , 29-H ) :   0.9718 B( 12-C , 30-H ) :   0.9611
B( 12-C , 31-H ) :   0.9655 B( 13-S , 14-P ) :   0.9665 B( 14-P , 15-S ) :   1.7692
B( 14-P , 16-O ) :   0.9990 B( 14-P , 18-O ) :   1.2061 B( 16-O , 17-C ) :   0.8426
B( 17-C , 32-H ) :   0.9588 B( 17-C , 33-H ) :   0.9698 B( 17-C , 34-H ) :   0.9578
B( 18-O , 19-C ) :   0.7966 B( 19-C , 35-H ) :   0.9655 B( 19-C , 36-H ) :   0.9564
B( 19-C , 37-H ) :   0.9653

Dispersion correction           -0.017254895
FINAL SINGLE POINT ENERGY     -1981.446112772270

DIPOLE MOMENT
-------------

Method             : SCF
Type of density    : Electron Density
Multiplicity       :   1
Irrep              :   0
Energy             : -1981.4668605116444269 Eh
Relativity type    :
Basis              : AO
                                X                 Y                 Z
Electronic contribution:    -12.243232263       5.642944207      -0.481238529
Nuclear contribution   :     13.999481570      -6.863932422      -0.449855595
                        -----------------------------------------
Total Dipole Moment    :      1.756249308      -1.220988215      -0.931094125
                        -----------------------------------------
Magnitude (a.u.)       :      2.332843784
Magnitude (Debye)      :      5.929617665

Rotational constants in cm-1:             0.012742             0.007198             0.005636
Rotational constants in MHz :           381.987832           215.793286           168.951581

                             ****ORCA TERMINATED NORMALLY****
TOTAL RUN TIME: 0 days 0 hours 1 minutes 15 seconds 194 msec
