                         Program Version 6.0.1  -  RELEASE   -
|  1> ! r2scan-3c def2/J RI DEFGRID2 scfconv6 printgap
|  2> %output
|  3>     printlevel normal
|  4> end
|  5> %cpcm
|  6>     smd true
|  7>     smdsolvent "water"
|  8> end
|  9> * xyz 0 1
| 10> C 3.1830593956 -4.0299205203 -0.9809191795
| 11> C 3.9741173382 -2.7368101258 -1.0960039202
| 12> O 3.1908297592 -1.7221498667 -1.7557523831
| 13> C 2.4112056024 -0.9547848967 -1.0314005078
| 14> O 2.3186918227 -1.0014056382 0.1799361911
| 15> C 1.6405193189 0.0360696599 -1.8784254374
| 16> C 0.4408374091 0.5374509678 -1.0892266875
| 17> H -0.0380988413 1.3851797914 -1.5882479952
| 18> C 0.8327147 0.9783253618 0.309356844
| 19> O 0.1907126519 0.6621687546 1.2928565579
| 20> O 1.8532785103 1.7936305021 0.2999577622
| 21> C 2.2647780508 2.3761822356 1.5545226429
| 22> C 1.4480931871 3.6210431215 1.8597880599
| 23> S -0.8075905228 -0.7828242748 -0.9110309552
| 24> P -2.1630570173 0.2094212221 0.3868082682
| 25> S -2.2575743096 2.1616894046 0.2827839681
| 26> O -3.5347724243 -0.4729449512 -0.1206193649
| 27> C -4.0872608105 -0.1774355697 -1.4052972476
| 28> O -2.1663269872 -0.3895278134 1.8504052841
| 29> C -1.8848633737 -1.7729907615 2.1234795634
| 30> H 2.305664927 -3.8770508496 -0.3561644298
| 31> H 2.8615501853 -4.3602704634 -1.9644766924
| 32> H 3.8073020211 -4.7948501142 -0.531121858
| 33> H 4.8514539105 -2.8612830945 -1.7306783389
| 34> H 4.2649114068 -2.3685910437 -0.1081314988
| 35> H 1.3316572363 -0.4373826102 -2.8093611221
| 36> H 2.3006846642 0.875286369 -2.1074723462
| 37> H 2.146414188 1.6245392502 2.3396016822
| 38> H 3.3185208354 2.6130633047 1.4079220889
| 39> H 1.5592268846 4.3488666256 1.0610193827
| 40> H 0.3936421404 3.3659113623 1.9527954099
| 41> H 1.7886480814 4.0550842133 2.7938105625
| 42> H -4.1122394688 0.9026902491 -1.5607205938
| 43> H -5.0958872663 -0.5821790578 -1.390879753
| 44> H -3.4908571165 -0.6530115958 -2.1839576012
| 45> H -2.1615730276 -1.9183707504 3.1644534675
| 46> H -0.8192303715 -1.9577325835 1.9827419062
| 47> H -2.4735955764 -2.4163478171 1.470797562
| 48> *
| 49>
| 50>                          ****END OF INPUT****

CARTESIAN COORDINATES (ANGSTROEM)
---------------------------------
  C      3.183059   -4.029921   -0.980919
  C      3.974117   -2.736810   -1.096004
  O      3.190830   -1.722150   -1.755752
  C      2.411206   -0.954785   -1.031401
  O      2.318692   -1.001406    0.179936
  C      1.640519    0.036070   -1.878425
  C      0.440837    0.537451   -1.089227
  H     -0.038099    1.385180   -1.588248
  C      0.832715    0.978325    0.309357
  O      0.190713    0.662169    1.292857
  O      1.853279    1.793631    0.299958
  C      2.264778    2.376182    1.554523
  C      1.448093    3.621043    1.859788
  S     -0.807591   -0.782824   -0.911031
  P     -2.163057    0.209421    0.386808
  S     -2.257574    2.161689    0.282784
  O     -3.534772   -0.472945   -0.120619
  C     -4.087261   -0.177436   -1.405297
  O     -2.166327   -0.389528    1.850405
  C     -1.884863   -1.772991    2.123480
  H      2.305665   -3.877051   -0.356164
  H      2.861550   -4.360270   -1.964477
  H      3.807302   -4.794850   -0.531122
  H      4.851454   -2.861283   -1.730678
  H      4.264911   -2.368591   -0.108131
  H      1.331657   -0.437383   -2.809361
  H      2.300685    0.875286   -2.107472
  H      2.146414    1.624539    2.339602
  H      3.318521    2.613063    1.407922
  H      1.559227    4.348867    1.061019
  H      0.393642    3.365911    1.952795
  H      1.788648    4.055084    2.793811
  H     -4.112239    0.902690   -1.560721
  H     -5.095887   -0.582179   -1.390880
  H     -3.490857   -0.653012   -2.183958
  H     -2.161573   -1.918371    3.164453
  H     -0.819230   -1.957733    1.982742
  H     -2.473596   -2.416348    1.470798

 Total Charge           Charge          ....    0
 Multiplicity           Mult            ....    1
 Number of Electrons    NEL             ....  174
 Basis Dimension        Dim             ....  510

ORBITAL ENERGIES
----------------

  NO   OCC          E(Eh)            E(eV)
   0   2.0000     -88.576913     -2410.3003
   1   2.0000     -88.521477     -2408.7918
   2   2.0000     -76.918442     -2093.0572
   3   2.0000     -19.011318      -517.3243
   4   2.0000     -19.010994      -517.3154
   5   2.0000     -18.992130      -516.8021
   6   2.0000     -18.984531      -516.5954
   7   2.0000     -18.952505      -515.7239
   8   2.0000     -18.947342      -515.5834
   9   2.0000     -10.174520      -276.8628
  10   2.0000     -10.173983      -276.8481
  11   2.0000     -10.096414      -274.7374
  12   2.0000     -10.087876      -274.5050
  13   2.0000     -10.087376      -274.4915
  14   2.0000     -10.083789      -274.3938
  15   2.0000     -10.076591      -274.1980
  16   2.0000     -10.061488      -273.7870
  17   2.0000     -10.020091      -272.6605
  18   2.0000     -10.019164      -272.6353
  19   2.0000      -7.871219      -214.1868
  20   2.0000      -7.816872      -212.7079
  21   2.0000      -6.595978      -179.4857
  22   2.0000      -5.818104      -158.3187
  23   2.0000      -5.815164      -158.2387
  24   2.0000      -5.808249      -158.0505
  25   2.0000      -5.764675      -156.8648
  26   2.0000      -5.757414      -156.6672
  27   2.0000      -5.756329      -156.6377
  28   2.0000      -4.741585      -129.0251
  29   2.0000      -4.741232      -129.0155
  30   2.0000      -4.739529      -128.9691
  31   2.0000      -1.093736       -29.7621
  32   2.0000      -1.088125       -29.6094
  33   2.0000      -1.047828       -28.5129
  34   2.0000      -1.004068       -27.3221
  35   2.0000      -1.000192       -27.2166
  36   2.0000      -0.997721       -27.1494
  37   2.0000      -0.813005       -22.1230
  38   2.0000      -0.751471       -20.4486
  39   2.0000      -0.744108       -20.2482
  40   2.0000      -0.727752       -19.8031
  41   2.0000      -0.696461       -18.9517
  42   2.0000      -0.663404       -18.0522
  43   2.0000      -0.659343       -17.9416
  44   2.0000      -0.653306       -17.7774
  45   2.0000      -0.626071       -17.0363
  46   2.0000      -0.594558       -16.1787
  47   2.0000      -0.537643       -14.6300
  48   2.0000      -0.529485       -14.4080
  49   2.0000      -0.525418       -14.2974
  50   2.0000      -0.507850       -13.8193
  51   2.0000      -0.487438       -13.2639
  52   2.0000      -0.487093       -13.2545
  53   2.0000      -0.469644       -12.7797
  54   2.0000      -0.464572       -12.6417
  55   2.0000      -0.456519       -12.4225
  56   2.0000      -0.452003       -12.2996
  57   2.0000      -0.442576       -12.0431
  58   2.0000      -0.437595       -11.9076
  59   2.0000      -0.423675       -11.5288
  60   2.0000      -0.419759       -11.4222
  61   2.0000      -0.414867       -11.2891
  62   2.0000      -0.407710       -11.0944
  63   2.0000      -0.396344       -10.7851
  64   2.0000      -0.394804       -10.7432
  65   2.0000      -0.389862       -10.6087
  66   2.0000      -0.372937       -10.1481
  67   2.0000      -0.364640        -9.9224
  68   2.0000      -0.357081        -9.7167
  69   2.0000      -0.352252        -9.5853
  70   2.0000      -0.347236        -9.4488
  71   2.0000      -0.345897        -9.4123
  72   2.0000      -0.338836        -9.2202
  73   2.0000      -0.328820        -8.9476
  74   2.0000      -0.314117        -8.5476
  75   2.0000      -0.311602        -8.4791
  76   2.0000      -0.308684        -8.3997
  77   2.0000      -0.307547        -8.3688
  78   2.0000      -0.291534        -7.9331
  79   2.0000      -0.288134        -7.8405
  80   2.0000      -0.279932        -7.6173
  81   2.0000      -0.273532        -7.4432
  82   2.0000      -0.262650        -7.1471
  83   2.0000      -0.258063        -7.0223
  84   2.0000      -0.240864        -6.5543
  85   2.0000      -0.223998        -6.0953
  86   2.0000      -0.216124        -5.8810
  87   0.0000      -0.049080        -1.3355
  88   0.0000      -0.032627        -0.8878
  89   0.0000      -0.024662        -0.6711
  90   0.0000       0.003451         0.0939
  91   0.0000       0.020421         0.5557

MULLIKEN ATOMIC CHARGES
-----------------------
   0 C :   -0.493395
   1 C :   -0.144123
   2 O :   -0.169197
   3 C :    0.416092
   4 O :   -0.452448
   5 C :   -0.448091
   6 C :   -0.019815
   7 H :    0.265266
   8 C :    0.314231
   9 O :   -0.448798
  10 O :   -0.154520
  11 C :   -0.128158
  12 C :   -0.508326
  13 S :   -0.204901
  14 P :    0.808917
  15 S :   -0.519132
  16 O :   -0.405550
  17 C :   -0.310858
  18 O :   -0.348958
  19 C :   -0.304752
  20 H :    0.169543
  21 H :    0.167760
  22 H :    0.172622
  23 H :    0.177552
  24 H :    0.175703
  25 H :    0.221558
  26 H :    0.237660
  27 H :    0.177001
  28 H :    0.178717
  29 H :    0.170130
  30 H :    0.172356
  31 H :    0.172764
  32 H :    0.174951
  33 H :    0.175605
  34 H :    0.171134
  35 H :    0.180861
  36 H :    0.180170
  37 H :    0.180427
Sum of atomic charges:   -0.0000000

LOEWDIN ATOMIC CHARGES
----------------------
   0 C :   -0.389794
   1 C :    0.037986
   2 O :   -0.571310
   3 C :    0.377016
   4 O :   -0.471871
   5 C :   -0.195305
   6 C :   -0.188889
   7 H :    0.215619
   8 C :    0.352290
   9 O :   -0.503804
  10 O :   -0.569252
  11 C :    0.041730
  12 C :   -0.393039
  13 S :    0.221447
  14 P :    0.406237
  15 S :   -0.135246
  16 O :   -0.712923
  17 C :   -0.064751
  18 O :   -0.672944
  19 C :   -0.046171
  20 H :    0.163056
  21 H :    0.162783
  22 H :    0.169047
  23 H :    0.191030
  24 H :    0.191388
  25 H :    0.203347
  26 H :    0.216984
  27 H :    0.192272
  28 H :    0.191688
  29 H :    0.162989
  30 H :    0.164514
  31 H :    0.168726
  32 H :    0.175820
  33 H :    0.186194
  34 H :    0.173621
  35 H :    0.191370
  36 H :    0.179343
  37 H :    0.178803

  Mayer bond orders larger than 0.100000
B(  0-C ,  1-C ) :   0.9392 B(  0-C , 20-H ) :   0.9680 B(  0-C , 21-H ) :   0.9697
B(  0-C , 22-H ) :   0.9590 B(  1-C ,  2-O ) :   0.7810 B(  1-C , 23-H ) :   0.9516
B(  1-C , 24-H ) :   0.9614 B(  2-O ,  3-C ) :   1.1587 B(  3-C ,  4-O ) :   1.7138
B(  3-C ,  5-C ) :   0.9557 B(  4-O ,  8-C ) :   0.1465 B(  5-C ,  6-C ) :   0.8804
B(  5-C , 10-O ) :   0.1051 B(  5-C , 25-H ) :   0.9647 B(  5-C , 26-H ) :   0.9199
B(  6-C ,  7-H ) :   0.8893 B(  6-C ,  8-C ) :   0.8815 B(  6-C , 13-S ) :   0.9394
B(  8-C ,  9-O ) :   1.7242 B(  8-C , 10-O ) :   1.1528 B(  9-O , 14-P ) :   0.1213
B( 10-O , 11-C ) :   0.7779 B( 11-C , 12-C ) :   0.9297 B( 11-C , 27-H ) :   0.9636
B( 11-C , 28-H ) :   0.9501 B( 12-C , 29-H ) :   0.9697 B( 12-C , 30-H ) :   0.9669
B( 12-C , 31-H ) :   0.9594 B( 13-S , 14-P ) :   0.9962 B( 14-P , 15-S ) :   1.7726
B( 14-P , 16-O ) :   0.9964 B( 14-P , 18-O ) :   1.1908 B( 16-O , 17-C ) :   0.8349
B( 17-C , 32-H ) :   0.9553 B( 17-C , 33-H ) :   0.9594 B( 17-C , 34-H ) :   0.9508
B( 18-O , 19-C ) :   0.7907 B( 19-C , 35-H ) :   0.9544 B( 19-C , 36-H ) :   0.9495
B( 19-C , 37-H ) :   0.9546

Dispersion correction           -0.017254895
FINAL SINGLE POINT ENERGY     -1981.462115531384

DIPOLE MOMENT
-------------

Method             : SCF
Type of density    : Electron Density
Multiplicity       :   1
Irrep              :   0
Energy             : -1981.4828632707592533 Eh
Relativity type    :
Basis              : AO
                                X                 Y                 Z
Electronic contribution:    -11.612449163       5.319391683      -1.351296223
Nuclear contribution   :     13.999481570      -6.863932422      -0.449855595
                        -----------------------------------------
Total Dipole Moment    :      2.387032407      -1.544540739      -1.801151818
                        -----------------------------------------
Magnitude (a.u.)       :      3.365661551
Magnitude (Debye)      :      8.554831800

Rotational constants in cm-1:             0.012742             0.007198             0.005636
Rotational constants in MHz :           381.987832           215.793286           168.951581

                             ****ORCA TERMINATED NORMALLY****
TOTAL RUN TIME: 0 days 0 hours 1 minutes 56 seconds 215 msec
