                         Program Version 6.0.0  -   RELEASE  -
|  1> ! pbe def2-sv(p) def2/J RI DEFGRID1 loosescf d4 GCP(DFT/SV(P)) printgap
|  2> %output
|  3>     printlevel normal
|  4> end
|  5> * xyz 0 1
|  6> C 4.3744046094 2.1271889813 -0.9479615536
|  7> C 4.6342271115 0.6434802522 -0.785872005
|  8> O 3.4275640439 -0.1332653267 -0.8982699657
|  9> P 2.2805856855 -0.0826799398 0.1977282426
| 10> S 2.9041160076 0.0316989951 2.0554458498
| 11> O 1.4128022207 -1.3535815195 -0.1725952663
| 12> C 1.6129097905 -2.6424255194 0.4373194011
| 13> C 2.9479566822 -3.2457197205 0.0569442054
| 14> S 0.978613336 1.4335475971 -0.4724380241
| 15> C 0.0594841534 1.6110929895 1.0801029376
| 16> S -0.8897130851 0.1299959326 1.5407328628
| 17> P -2.0386520133 -0.1463057037 -0.2248462829
| 18> S -1.3500999449 -1.1079007661 -1.7780369562
| 19> O -2.4566488389 1.3767247787 -0.4711580674
| 20> C -2.8068310454 1.860305819 -1.7827709726
| 21> C -4.1920652462 1.3957741674 -2.1828787354
| 22> O -3.3075800524 -0.9146821928 0.3347748329
| 23> C -4.1418962589 -0.3927985297 1.4003413172
| 24> C -5.5641575715 -0.850272517 1.1483406402
| 25> H 3.7886576781 2.4969089789 -0.1072704066
| 26> H 5.3216341375 2.6560363393 -0.9775738194
| 27> H 3.8251367563 2.3158428321 -1.8670633369
| 28> H 5.0871797293 0.4369203808 0.1892392316
| 29> H 5.2699824961 0.2544745245 -1.5822447879
| 30> H 1.5306488171 -2.5252600499 1.5234026136
| 31> H 0.7756382425 -3.2357551327 0.0647870616
| 32> H 3.0493874335 -3.2741536836 -1.0249829741
| 33> H 3.7565745345 -2.6454569311 0.4731211761
| 34> H 3.0135335476 -4.2533441414 0.4552307213
| 35> H -0.6137383407 2.4544257769 0.9548900793
| 36> H 0.7576350357 1.7755389575 1.9016114361
| 37> H -2.7488236448 2.9457363527 -1.6923030874
| 38> H -2.0577233654 1.5055910715 -2.4973513636
| 39> H -4.4414491845 1.8028348509 -3.1575970146
| 40> H -4.2092424892 0.3074581878 -2.2391569282
| 41> H -4.9284366109 1.7275593798 -1.4553008273
| 42> H -3.7543645913 -0.7895864268 2.3412636429
| 43> H -4.0662561765 0.6972613424 1.4089782362
| 44> H -5.9302900836 -0.4481939648 0.2076692926
| 45> H -5.6006415395 -1.9347620354 1.1001419902
| 46> H -6.1976942892 -0.5044858688 1.9587758529
| 47> *
| 48>
| 49>                          ****END OF INPUT****

CARTESIAN COORDINATES (ANGSTROEM)
---------------------------------
  C      4.374405    2.127189   -0.947962
  C      4.634227    0.643480   -0.785872
  O      3.427564   -0.133265   -0.898270
  P      2.280586   -0.082680    0.197728
  S      2.904116    0.031699    2.055446
  O      1.412802   -1.353582   -0.172595
  C      1.612910   -2.642426    0.437319
  C      2.947957   -3.245720    0.056944
  S      0.978613    1.433548   -0.472438
  C      0.059484    1.611093    1.080103
  S     -0.889713    0.129996    1.540733
  P     -2.038652   -0.146306   -0.224846
  S     -1.350100   -1.107901   -1.778037
  O     -2.456649    1.376725   -0.471158
  C     -2.806831    1.860306   -1.782771
  C     -4.192065    1.395774   -2.182879
  O     -3.307580   -0.914682    0.334775
  C     -4.141896   -0.392799    1.400341
  C     -5.564158   -0.850273    1.148341
  H      3.788658    2.496909   -0.107270
  H      5.321634    2.656036   -0.977574
  H      3.825137    2.315843   -1.867063
  H      5.087180    0.436920    0.189239
  H      5.269982    0.254475   -1.582245
  H      1.530649   -2.525260    1.523403
  H      0.775638   -3.235755    0.064787
  H      3.049387   -3.274154   -1.024983
  H      3.756575   -2.645457    0.473121
  H      3.013534   -4.253344    0.455231
  H     -0.613738    2.454426    0.954890
  H      0.757635    1.775539    1.901611
  H     -2.748824    2.945736   -1.692303
  H     -2.057723    1.505591   -2.497351
  H     -4.441449    1.802835   -3.157597
  H     -4.209242    0.307458   -2.239157
  H     -4.928437    1.727559   -1.455301
  H     -3.754365   -0.789586    2.341264
  H     -4.066256    0.697261    1.408978
  H     -5.930290   -0.448194    0.207669
  H     -5.600642   -1.934762    1.100142
  H     -6.197694   -0.504486    1.958776

 Total Charge           Charge          ....    0
 Multiplicity           Mult            ....    1
 Number of Electrons    NEL             ....  202
 Basis Dimension        Dim             ....  334

ORBITAL ENERGIES
----------------

  NO   OCC          E(Eh)            E(eV)
   0   2.0000     -88.040959     -2395.7163
   1   2.0000     -88.038084     -2395.6380
   2   2.0000     -87.986438     -2394.2327
   3   2.0000     -87.976875     -2393.9725
   4   2.0000     -76.423221     -2079.5816
   5   2.0000     -76.421174     -2079.5259
   6   2.0000     -18.795199      -511.4434
   7   2.0000     -18.791578      -511.3448
   8   2.0000     -18.790306      -511.3102
   9   2.0000     -18.779340      -511.0118
  10   2.0000      -9.955697      -270.9083
  11   2.0000      -9.955554      -270.9044
  12   2.0000      -9.952501      -270.8213
  13   2.0000      -9.951397      -270.7913
  14   2.0000      -9.940109      -270.4841
  15   2.0000      -9.890912      -269.1454
  16   2.0000      -9.887141      -269.0428
  17   2.0000      -9.883539      -268.9448
  18   2.0000      -9.875905      -268.7370
  19   2.0000      -7.686118      -209.1499
  20   2.0000      -7.683098      -209.0677
  21   2.0000      -7.631389      -207.6607
  22   2.0000      -7.622225      -207.4113
  23   2.0000      -6.420744      -174.7173
  24   2.0000      -6.418812      -174.6648
  25   2.0000      -5.713938      -155.4842
  26   2.0000      -5.711180      -155.4091
  27   2.0000      -5.710791      -155.3985
  28   2.0000      -5.707525      -155.3097
  29   2.0000      -5.702906      -155.1840
  30   2.0000      -5.699942      -155.1033
  31   2.0000      -5.660117      -154.0196
  32   2.0000      -5.652160      -153.8031
  33   2.0000      -5.651620      -153.7884
  34   2.0000      -5.651337      -153.7807
  35   2.0000      -5.642681      -153.5452
  36   2.0000      -5.642301      -153.5348
  37   2.0000      -4.643082      -126.3447
  38   2.0000      -4.642450      -126.3275
  39   2.0000      -4.641983      -126.3148
  40   2.0000      -4.641492      -126.3014
  41   2.0000      -4.640338      -126.2700
  42   2.0000      -4.638950      -126.2323
  43   2.0000      -0.984622       -26.7929
  44   2.0000      -0.982072       -26.7235
  45   2.0000      -0.945217       -25.7207
  46   2.0000      -0.940081       -25.5809
  47   2.0000      -0.762494       -20.7485
  48   2.0000      -0.720111       -19.5952
  49   2.0000      -0.706203       -19.2168
  50   2.0000      -0.692750       -18.8507
  51   2.0000      -0.682596       -18.5744
  52   2.0000      -0.668929       -18.2025
  53   2.0000      -0.648197       -17.6383
  54   2.0000      -0.637468       -17.3464
  55   2.0000      -0.598722       -16.2921
  56   2.0000      -0.587430       -15.9848
  57   2.0000      -0.571854       -15.5610
  58   2.0000      -0.567512       -15.4428
  59   2.0000      -0.561204       -15.2711
  60   2.0000      -0.504405       -13.7256
  61   2.0000      -0.488126       -13.2826
  62   2.0000      -0.481941       -13.1143
  63   2.0000      -0.468232       -12.7412
  64   2.0000      -0.455227       -12.3874
  65   2.0000      -0.442683       -12.0460
  66   2.0000      -0.439859       -11.9692
  67   2.0000      -0.435623       -11.8539
  68   2.0000      -0.422769       -11.5041
  69   2.0000      -0.408884       -11.1263
  70   2.0000      -0.403341       -10.9755
  71   2.0000      -0.396591       -10.7918
  72   2.0000      -0.391866       -10.6632
  73   2.0000      -0.386628       -10.5207
  74   2.0000      -0.382177       -10.3996
  75   2.0000      -0.375259       -10.2113
  76   2.0000      -0.364714        -9.9244
  77   2.0000      -0.358300        -9.7498
  78   2.0000      -0.355600        -9.6764
  79   2.0000      -0.348167        -9.4741
  80   2.0000      -0.347023        -9.4430
  81   2.0000      -0.343843        -9.3565
  82   2.0000      -0.343500        -9.3471
  83   2.0000      -0.337036        -9.1712
  84   2.0000      -0.330059        -8.9814
  85   2.0000      -0.318915        -8.6781
  86   2.0000      -0.310193        -8.4408
  87   2.0000      -0.306819        -8.3490
  88   2.0000      -0.293321        -7.9817
  89   2.0000      -0.281387        -7.6569
  90   2.0000      -0.277020        -7.5381
  91   2.0000      -0.269313        -7.3284
  92   2.0000      -0.266853        -7.2614
  93   2.0000      -0.265887        -7.2351
  94   2.0000      -0.261720        -7.1218
  95   2.0000      -0.233164        -6.3447
  96   2.0000      -0.216172        -5.8823
  97   2.0000      -0.207613        -5.6494
  98   2.0000      -0.203554        -5.5390
  99   2.0000      -0.192899        -5.2490
 100   2.0000      -0.187777        -5.1097
 101   0.0000      -0.045757        -1.2451
 102   0.0000      -0.019358        -0.5268
 103   0.0000      -0.008744        -0.2379
 104   0.0000       0.006557         0.1784
 105   0.0000       0.022650         0.6163

MULLIKEN ATOMIC CHARGES
-----------------------
   0 C :   -0.314790
   1 C :   -0.004459
   2 O :   -0.367933
   3 P :    0.621205
   4 S :   -0.343600
   5 O :   -0.343305
   6 C :    0.003229
   7 C :   -0.310010
   8 S :   -0.079945
   9 C :   -0.346291
  10 S :   -0.098522
  11 P :    0.614507
  12 S :   -0.289961
  13 O :   -0.395807
  14 C :   -0.009339
  15 C :   -0.317463
  16 O :   -0.370635
  17 C :   -0.023872
  18 C :   -0.282488
  19 H :    0.124600
  20 H :    0.112889
  21 H :    0.119151
  22 H :    0.111011
  23 H :    0.106688
  24 H :    0.107696
  25 H :    0.107390
  26 H :    0.118951
  27 H :    0.117603
  28 H :    0.109632
  29 H :    0.184077
  30 H :    0.190084
  31 H :    0.100609
  32 H :    0.118165
  33 H :    0.114515
  34 H :    0.133064
  35 H :    0.113389
  36 H :    0.112347
  37 H :    0.105532
  38 H :    0.117811
  39 H :    0.123371
  40 H :    0.110905
Sum of atomic charges:   -0.0000000

LOEWDIN ATOMIC CHARGES
----------------------
   0 C :   -0.369483
   1 C :   -0.118784
   2 O :   -0.240302
   3 P :    0.576610
   4 S :   -0.329393
   5 O :   -0.226761
   6 C :   -0.116403
   7 C :   -0.365438
   8 S :    0.096771
   9 C :   -0.476953
  10 S :    0.077422
  11 P :    0.561634
  12 S :   -0.294508
  13 O :   -0.255548
  14 C :   -0.122273
  15 C :   -0.365838
  16 O :   -0.247441
  17 C :   -0.121590
  18 C :   -0.351000
  19 H :    0.120243
  20 H :    0.130980
  21 H :    0.124994
  22 H :    0.110395
  23 H :    0.119466
  24 H :    0.108923
  25 H :    0.119555
  26 H :    0.127218
  27 H :    0.119559
  28 H :    0.129124
  29 H :    0.132154
  30 H :    0.129433
  31 H :    0.115424
  32 H :    0.112316
  33 H :    0.132173
  34 H :    0.126608
  35 H :    0.121337
  36 H :    0.114654
  37 H :    0.107485
  38 H :    0.126195
  39 H :    0.130930
  40 H :    0.130113

  Mayer bond orders larger than 0.100000
B(  0-C ,  1-C ) :   1.1663 B(  0-C , 19-H ) :   0.9352 B(  0-C , 20-H ) :   0.9380
B(  0-C , 21-H ) :   0.9447 B(  1-C ,  2-O ) :   0.9078 B(  1-C , 22-H ) :   0.9155
B(  1-C , 23-H ) :   0.9338 B(  2-O ,  3-P ) :   1.1136 B(  3-P ,  4-S ) :   1.5810
B(  3-P ,  5-O ) :   1.1492 B(  3-P ,  8-S ) :   0.9515 B(  4-S ,  8-S ) :   0.1091
B(  5-O ,  6-C ) :   0.9060 B(  6-C ,  7-C ) :   1.1634 B(  6-C , 24-H ) :   0.9197
B(  6-C , 25-H ) :   0.9291 B(  7-C , 26-H ) :   0.9457 B(  7-C , 27-H ) :   0.9370
B(  7-C , 28-H ) :   0.9399 B(  8-S ,  9-C ) :   1.0128 B(  9-C , 10-S ) :   0.9983
B(  9-C , 29-H ) :   0.9031 B(  9-C , 30-H ) :   0.8815 B( 10-S , 11-P ) :   0.9551
B( 10-S , 12-S ) :   0.1053 B( 11-P , 12-S ) :   1.6712 B( 11-P , 13-O ) :   1.0509
B( 11-P , 16-O ) :   1.1171 B( 13-O , 14-C ) :   0.9033 B( 14-C , 15-C ) :   1.1634
B( 14-C , 31-H ) :   0.9335 B( 14-C , 32-H ) :   0.9100 B( 15-C , 33-H ) :   0.9387
B( 15-C , 34-H ) :   0.9331 B( 15-C , 35-H ) :   0.9442 B( 16-O , 17-C ) :   0.8960
B( 17-C , 18-C ) :   1.1622 B( 17-C , 36-H ) :   0.9312 B( 17-C , 37-H ) :   0.9164
B( 18-C , 38-H ) :   0.9482 B( 18-C , 39-H ) :   0.9485 B( 18-C , 40-H ) :   0.9409

Dispersion correction           -0.066333604
FINAL SINGLE POINT ENERGY     -2929.520564227253

DIPOLE MOMENT
-------------

Method             : SCF
Type of density    : Electron Density
Multiplicity       :   1
Irrep              :   0
Energy             : -2929.6385346013848903 Eh
Relativity type    :
Basis              : AO
                                X                 Y                 Z
Electronic contribution:      7.449276867      -0.957109807       3.794600981
Nuclear contribution   :     -8.132395281       1.831742552      -3.805680568
                        -----------------------------------------
Total Dipole Moment    :     -0.683118414       0.874632746      -0.011079586
                        -----------------------------------------
Magnitude (a.u.)       :      1.109845018
Magnitude (Debye)      :      2.821001848

Rotational constants in cm-1:             0.013820             0.004772             0.004477
Rotational constants in MHz :           414.322390           143.072798           134.229165

                             ****ORCA TERMINATED NORMALLY****
TOTAL RUN TIME: 0 days 0 hours 0 minutes 20 seconds 726 msec
