                         Program Version 6.0.0  -   RELEASE  -
|  1> ! wb97x-v def2-tzvp def2/J RIJCOSX DEFGRID2 scfconv7 GCP(DFT/TZ) printgap
|  2> %output
|  3>     printlevel normal
|  4> end
|  5> * xyz 0 1
|  6> C 2.4332387562776665 1.0895144069903406 -9.262585107542676e-05
|  7> C 1.1592487506649585 0.29785270469655206 0.00020261906970632333
|  8> C 1.1963379643133223 -1.0972566035645166 0.0002225119878300501
|  9> C 6.905736235634865e-06 -1.8016121539888068 4.192571665950019e-06
| 10> C -1.1963259728412066 -1.097259899447833 -0.0001448793439121609
| 11> C -1.1592408569175212 0.297849649446724 -5.607382262566107e-05
| 12> N 2.900162630006623e-06 0.9818224142002504 8.666089517089371e-05
| 13> C -2.433233516587568 1.0895070721337745 3.027179945778689e-06
| 14> H 3.036193897368104 0.8511326317143906 -0.8829318396130121
| 15> H 2.227596062156755 2.161087534165578 0.004478592844732765
| 16> H 3.0411529041133645 0.8442491431759557 0.8773928830424276
| 17> H 2.1505470063536687 -1.614598510434104 0.0003673727156901143
| 18> H 8.20627599475185e-06 -2.8873590320409557 -1.8503858955502566e-05
| 19> H -2.1505333295295292 -1.6146048988767079 -0.0002610834281980775
| 20> H -3.0391497797047453 0.8470310232387963 -0.8796569426813308
| 21> H -3.0381933304286934 0.84832113856546 0.8806861256496716
| 22> H -2.2275884570758087 2.1610888382625144 -0.0008505307901009217
| 23> *
| 24>
| 25>                          ****END OF INPUT****

CARTESIAN COORDINATES (ANGSTROEM)
---------------------------------
  C      2.433239    1.089514   -0.000093
  C      1.159249    0.297853    0.000203
  C      1.196338   -1.097257    0.000223
  C      0.000007   -1.801612    0.000004
  C     -1.196326   -1.097260   -0.000145
  C     -1.159241    0.297850   -0.000056
  N      0.000003    0.981822    0.000087
  C     -2.433234    1.089507    0.000003
  H      3.036194    0.851133   -0.882932
  H      2.227596    2.161088    0.004479
  H      3.041153    0.844249    0.877393
  H      2.150547   -1.614599    0.000367
  H      0.000008   -2.887359   -0.000019
  H     -2.150533   -1.614605   -0.000261
  H     -3.039150    0.847031   -0.879657
  H     -3.038193    0.848321    0.880686
  H     -2.227588    2.161089   -0.000851

 Total Charge           Charge          ....    0
 Multiplicity           Mult            ....    1
 Number of Electrons    NEL             ....   58
 Basis Dimension        Dim             ....  302

ORBITAL ENERGIES
----------------

  NO   OCC          E(Eh)            E(eV)
   0   2.0000     -16.515672      -449.4143
   1   2.0000     -12.089279      -328.9660
   2   2.0000     -12.089011      -328.9587
   3   2.0000     -12.066452      -328.3448
   4   2.0000     -12.049678      -327.8884
   5   2.0000     -12.049287      -327.8778
   6   2.0000     -12.038906      -327.5953
   7   2.0000     -12.038889      -327.5948
   8   2.0000      -1.511914       -41.1413
   9   2.0000      -1.338462       -36.4214
  10   2.0000      -1.321927       -35.9715
  11   2.0000      -1.229257       -33.4498
  12   2.0000      -1.195583       -32.5335
  13   2.0000      -1.118442       -30.4343
  14   2.0000      -1.115219       -30.3467
  15   2.0000      -0.993418       -27.0323
  16   2.0000      -0.957796       -26.0629
  17   2.0000      -0.911789       -24.8110
  18   2.0000      -0.873772       -23.7765
  19   2.0000      -0.871506       -23.7149
  20   2.0000      -0.859826       -23.3971
  21   2.0000      -0.833965       -22.6933
  22   2.0000      -0.832817       -22.6621
  23   2.0000      -0.819172       -22.2908
  24   2.0000      -0.814783       -22.1714
  25   2.0000      -0.789498       -21.4833
  26   2.0000      -0.756886       -20.5959
  27   2.0000      -0.693806       -18.8794
  28   2.0000      -0.637452       -17.3459
  29   0.0000      -0.284247        -7.7347
  30   0.0000      -0.244259        -6.6466
  31   0.0000      -0.095381        -2.5954
  32   0.0000      -0.051964        -1.4140
  33   0.0000      -0.039089        -1.0637

MULLIKEN ATOMIC CHARGES
-----------------------
   0 C :   -0.369164
   1 C :    0.170474
   2 C :   -0.192685
   3 C :   -0.082174
   4 C :   -0.192703
   5 C :    0.170455
   6 N :   -0.253309
   7 C :   -0.369120
   8 H :    0.120485
   9 H :    0.134108
  10 H :    0.120455
  11 H :    0.121253
  12 H :    0.125622
  13 H :    0.121278
  14 H :    0.120463
  15 H :    0.120465
  16 H :    0.134097
Sum of atomic charges:   -0.0000000

LOEWDIN ATOMIC CHARGES
----------------------
   0 C :   -0.255051
   1 C :   -0.232145
   2 C :   -0.134509
   3 C :   -0.118909
   4 C :   -0.134509
   5 C :   -0.232145
   6 N :    0.161388
   7 C :   -0.255051
   8 H :    0.127858
   9 H :    0.128322
  10 H :    0.127788
  11 H :    0.144512
  12 H :    0.143971
  13 H :    0.144512
  14 H :    0.127815
  15 H :    0.127830
  16 H :    0.128321

  Mayer bond orders larger than 0.100000
B(  0-C ,  1-C ) :   0.9262 B(  0-C ,  8-H ) :   0.9731 B(  0-C ,  9-H ) :   0.9943
B(  0-C , 10-H ) :   0.9735 B(  1-C ,  2-C ) :   1.3832 B(  1-C ,  6-N ) :   1.5084
B(  2-C ,  3-C ) :   1.4483 B(  2-C , 11-H ) :   0.9640 B(  3-C ,  4-C ) :   1.4483
B(  3-C , 12-H ) :   0.9670 B(  4-C ,  5-C ) :   1.3833 B(  4-C , 13-H ) :   0.9640
B(  5-C ,  6-N ) :   1.5083 B(  5-C ,  7-C ) :   0.9263 B(  7-C , 14-H ) :   0.9734
B(  7-C , 15-H ) :   0.9733 B(  7-C , 16-H ) :   0.9943

FINAL SINGLE POINT ENERGY      -326.934452428359

DIPOLE MOMENT
-------------

Method             : SCF
Type of density    : Electron Density
Multiplicity       :   1
Irrep              :   0
Energy             :  -326.9441509728590063 Eh
Relativity type    :
Basis              : AO
                                X                 Y                 Z
Electronic contribution:      0.000006313      -2.077643611       0.000701566
Nuclear contribution   :     -0.000005031       1.448561429      -0.000908400
                        -----------------------------------------
Total Dipole Moment    :      0.000001282      -0.629082182      -0.000206834
                        -----------------------------------------
Magnitude (a.u.)       :      0.629082216
Magnitude (Debye)      :      1.598999918

Rotational constants in cm-1:             0.119434             0.062768             0.041782
Rotational constants in MHz :          3580.528516          1881.751836          1252.588696

                             ****ORCA TERMINATED NORMALLY****
TOTAL RUN TIME: 0 days 0 hours 2 minutes 20 seconds 298 msec
