                         Program Version 6.0.0  -   RELEASE  -
|  1> ! wb97x-v def2-tzvp def2/J RIJCOSX DEFGRID2 scfconv7 GCP(DFT/TZ) printgap
|  2> %output
|  3>     printlevel normal
|  4> end
|  5> %cpcm
|  6>     smd true
|  7>     smdsolvent "water"
|  8> end
|  9> * xyz 0 1
| 10> C 2.4332387562776665 1.0895144069903406 -9.262585107542676e-05
| 11> C 1.1592487506649585 0.29785270469655206 0.00020261906970632333
| 12> C 1.1963379643133223 -1.0972566035645166 0.0002225119878300501
| 13> C 6.905736235634865e-06 -1.8016121539888068 4.192571665950019e-06
| 14> C -1.1963259728412066 -1.097259899447833 -0.0001448793439121609
| 15> C -1.1592408569175212 0.297849649446724 -5.607382262566107e-05
| 16> N 2.900162630006623e-06 0.9818224142002504 8.666089517089371e-05
| 17> C -2.433233516587568 1.0895070721337745 3.027179945778689e-06
| 18> H 3.036193897368104 0.8511326317143906 -0.8829318396130121
| 19> H 2.227596062156755 2.161087534165578 0.004478592844732765
| 20> H 3.0411529041133645 0.8442491431759557 0.8773928830424276
| 21> H 2.1505470063536687 -1.614598510434104 0.0003673727156901143
| 22> H 8.20627599475185e-06 -2.8873590320409557 -1.8503858955502566e-05
| 23> H -2.1505333295295292 -1.6146048988767079 -0.0002610834281980775
| 24> H -3.0391497797047453 0.8470310232387963 -0.8796569426813308
| 25> H -3.0381933304286934 0.84832113856546 0.8806861256496716
| 26> H -2.2275884570758087 2.1610888382625144 -0.0008505307901009217
| 27> *
| 28>
| 29>                          ****END OF INPUT****

CARTESIAN COORDINATES (ANGSTROEM)
---------------------------------
  C      2.433239    1.089514   -0.000093
  C      1.159249    0.297853    0.000203
  C      1.196338   -1.097257    0.000223
  C      0.000007   -1.801612    0.000004
  C     -1.196326   -1.097260   -0.000145
  C     -1.159241    0.297850   -0.000056
  N      0.000003    0.981822    0.000087
  C     -2.433234    1.089507    0.000003
  H      3.036194    0.851133   -0.882932
  H      2.227596    2.161088    0.004479
  H      3.041153    0.844249    0.877393
  H      2.150547   -1.614599    0.000367
  H      0.000008   -2.887359   -0.000019
  H     -2.150533   -1.614605   -0.000261
  H     -3.039150    0.847031   -0.879657
  H     -3.038193    0.848321    0.880686
  H     -2.227588    2.161089   -0.000851

 Total Charge           Charge          ....    0
 Multiplicity           Mult            ....    1
 Number of Electrons    NEL             ....   58
 Basis Dimension        Dim             ....  302

ORBITAL ENERGIES
----------------

  NO   OCC          E(Eh)            E(eV)
   0   2.0000     -16.520082      -449.5343
   1   2.0000     -12.089281      -328.9661
   2   2.0000     -12.089022      -328.9590
   3   2.0000     -12.061726      -328.2163
   4   2.0000     -12.045255      -327.7681
   5   2.0000     -12.044865      -327.7574
   6   2.0000     -12.033277      -327.4421
   7   2.0000     -12.033260      -327.4416
   8   2.0000      -1.515628       -41.2423
   9   2.0000      -1.336142       -36.3583
  10   2.0000      -1.320836       -35.9418
  11   2.0000      -1.225539       -33.3486
  12   2.0000      -1.191932       -32.4341
  13   2.0000      -1.117851       -30.4183
  14   2.0000      -1.112051       -30.2605
  15   2.0000      -0.991016       -26.9669
  16   2.0000      -0.953129       -25.9360
  17   2.0000      -0.906080       -24.6557
  18   2.0000      -0.869447       -23.6589
  19   2.0000      -0.868027       -23.6202
  20   2.0000      -0.859373       -23.3847
  21   2.0000      -0.828234       -22.5374
  22   2.0000      -0.827900       -22.5283
  23   2.0000      -0.815341       -22.1865
  24   2.0000      -0.810432       -22.0530
  25   2.0000      -0.787938       -21.4409
  26   2.0000      -0.760150       -20.6847
  27   2.0000      -0.693889       -18.8817
  28   2.0000      -0.635934       -17.3046
  29   0.0000      -0.284415        -7.7393
  30   0.0000      -0.242932        -6.6105
  31   0.0000      -0.092960        -2.5296
  32   0.0000      -0.050380        -1.3709
  33   0.0000      -0.028704        -0.7811

MULLIKEN ATOMIC CHARGES
-----------------------
   0 C :   -0.398218
   1 C :    0.182148
   2 C :   -0.237269
   3 C :   -0.107924
   4 C :   -0.237286
   5 C :    0.182131
   6 N :   -0.331773
   7 C :   -0.398173
   8 H :    0.144827
   9 H :    0.132849
  10 H :    0.144864
  11 H :    0.165297
  12 H :    0.170690
  13 H :    0.165320
  14 H :    0.144846
  15 H :    0.144833
  16 H :    0.132837
Sum of atomic charges:   -0.0000000

LOEWDIN ATOMIC CHARGES
----------------------
   0 C :   -0.258110
   1 C :   -0.239574
   2 C :   -0.134893
   3 C :   -0.116410
   4 C :   -0.134893
   5 C :   -0.239574
   6 N :    0.123653
   7 C :   -0.258110
   8 H :    0.134998
   9 H :    0.125549
  10 H :    0.134957
  11 H :    0.155604
  12 H :    0.155696
  13 H :    0.155604
  14 H :    0.134973
  15 H :    0.134982
  16 H :    0.125548

  Mayer bond orders larger than 0.100000
B(  0-C ,  1-C ) :   0.9339 B(  0-C ,  8-H ) :   0.9656 B(  0-C ,  9-H ) :   0.9919
B(  0-C , 10-H ) :   0.9660 B(  1-C ,  2-C ) :   1.3853 B(  1-C ,  6-N ) :   1.4904
B(  2-C ,  3-C ) :   1.4276 B(  2-C , 11-H ) :   0.9652 B(  3-C ,  4-C ) :   1.4277
B(  3-C , 12-H ) :   0.9647 B(  4-C ,  5-C ) :   1.3854 B(  4-C , 13-H ) :   0.9651
B(  5-C ,  6-N ) :   1.4904 B(  5-C ,  7-C ) :   0.9340 B(  7-C , 14-H ) :   0.9659
B(  7-C , 15-H ) :   0.9658 B(  7-C , 16-H ) :   0.9919

FINAL SINGLE POINT ENERGY      -326.940220250741

DIPOLE MOMENT
-------------

Method             : SCF
Type of density    : Electron Density
Multiplicity       :   1
Irrep              :   0
Energy             :  -326.9499187952414445 Eh
Relativity type    :
Basis              : AO
                                X                 Y                 Z
Electronic contribution:      0.000006616      -2.467611346       0.000593998
Nuclear contribution   :     -0.000005031       1.448561429      -0.000908400
                        -----------------------------------------
Total Dipole Moment    :      0.000001586      -1.019049916      -0.000314402
                        -----------------------------------------
Magnitude (a.u.)       :      1.019049965
Magnitude (Debye)      :      2.590219163

Rotational constants in cm-1:             0.119434             0.062768             0.041782
Rotational constants in MHz :          3580.528516          1881.751836          1252.588696

                             ****ORCA TERMINATED NORMALLY****
TOTAL RUN TIME: 0 days 0 hours 2 minutes 25 seconds 579 msec
