                         Program Version 6.0.0  -   RELEASE  -
|  1> ! pbe def2-sv(p) def2/J RI DEFGRID1 loosescf d4 GCP(DFT/SV(P)) printgap
|  2> %output
|  3>     printlevel normal
|  4> end
|  5> * xyz 0 1
|  6> C 4.1533740352 -1.3231300105 -2.4489751967
|  7> C 4.2108663263 0.0844081868 -1.8925226111
|  8> O 3.5318208296 0.2037555213 -0.6276556254
|  9> P 1.9612132342 0.0299220265 -0.4777755018
| 10> S 0.8841650284 0.8192650314 -1.9048886935
| 11> O 1.6643925848 0.6670064856 0.9329971538
| 12> C 2.3215334841 0.2761635417 2.1637420376
| 13> C 3.5123598195 1.1662906272 2.4488055727
| 14> S 1.6864845399 -2.057261853 -0.2036883322
| 15> C -0.1175523543 -2.0284271785 -0.3089522083
| 16> S -0.9150492837 -1.3713623957 1.198155442
| 17> P -1.8833381131 0.4135336018 0.5956325378
| 18> S -1.090688708 2.189027977 0.8070988065
| 19> O -3.1764361676 0.3906880055 1.5171302535
| 20> C -3.9691853992 -0.7506901008 1.9182880499
| 21> C -4.61867755 -1.4577844892 0.7472917813
| 22> O -2.2968125638 0.0075769919 -0.8944934441
| 23> C -2.5918061759 1.0004337195 -1.8906395441
| 24> C -3.9513867751 1.6247331773 -1.6595690009
| 25> H 4.7989133274 -1.3876060547 -3.3189979168
| 26> H 4.4818495075 -2.0404634418 -1.7010990655
| 27> H 3.1351266765 -1.5660682765 -2.7475094049
| 28> H 3.7607634063 0.7951452502 -2.5922438045
| 29> H 5.234050815 0.3867020352 -1.6647775684
| 30> H 1.5470716432 0.3894563622 2.9258974117
| 31> H 2.6164121583 -0.7749012731 2.0892971871
| 32> H 4.2743010126 1.0354596743 1.6851448448
| 33> H 3.2001029643 2.2074273407 2.4600556663
| 34> H 3.9242493147 0.9040909378 3.4183403527
| 35> H -0.4357444326 -3.0625403534 -0.4079656847
| 36> H -0.4208442893 -1.4272340572 -1.1661007626
| 37> H -3.3292873191 -1.4335935923 2.481912478
| 38> H -4.7139068943 -0.3114747313 2.5843316076
| 39> H -3.8606149465 -1.8663094057 0.0828276091
| 40> H -5.2340638319 -2.2689780324 1.1238983028
| 41> H -5.2433893592 -0.7660602119 0.1884195872
| 42> H -1.8057421803 1.7624958211 -1.8719268036
| 43> H -2.5417660894 0.4566819083 -2.83522104
| 44> H -3.9660669677 2.1133359572 -0.6853611363
| 45> H -4.1399004093 2.3659983487 -2.4295854261
| 46> H -4.7277898433 0.8652381092 -1.6916875117
| 47> *
| 48>
| 49>                          ****END OF INPUT****

CARTESIAN COORDINATES (ANGSTROEM)
---------------------------------
  C      4.153374   -1.323130   -2.448975
  C      4.210866    0.084408   -1.892523
  O      3.531821    0.203756   -0.627656
  P      1.961213    0.029922   -0.477776
  S      0.884165    0.819265   -1.904889
  O      1.664393    0.667006    0.932997
  C      2.321533    0.276164    2.163742
  C      3.512360    1.166291    2.448806
  S      1.686485   -2.057262   -0.203688
  C     -0.117552   -2.028427   -0.308952
  S     -0.915049   -1.371362    1.198155
  P     -1.883338    0.413534    0.595633
  S     -1.090689    2.189028    0.807099
  O     -3.176436    0.390688    1.517130
  C     -3.969185   -0.750690    1.918288
  C     -4.618678   -1.457784    0.747292
  O     -2.296813    0.007577   -0.894493
  C     -2.591806    1.000434   -1.890640
  C     -3.951387    1.624733   -1.659569
  H      4.798913   -1.387606   -3.318998
  H      4.481850   -2.040463   -1.701099
  H      3.135127   -1.566068   -2.747509
  H      3.760763    0.795145   -2.592244
  H      5.234051    0.386702   -1.664778
  H      1.547072    0.389456    2.925897
  H      2.616412   -0.774901    2.089297
  H      4.274301    1.035460    1.685145
  H      3.200103    2.207427    2.460056
  H      3.924249    0.904091    3.418340
  H     -0.435744   -3.062540   -0.407966
  H     -0.420844   -1.427234   -1.166101
  H     -3.329287   -1.433594    2.481912
  H     -4.713907   -0.311475    2.584332
  H     -3.860615   -1.866309    0.082828
  H     -5.234064   -2.268978    1.123898
  H     -5.243389   -0.766060    0.188420
  H     -1.805742    1.762496   -1.871927
  H     -2.541766    0.456682   -2.835221
  H     -3.966067    2.113336   -0.685361
  H     -4.139900    2.365998   -2.429585
  H     -4.727790    0.865238   -1.691688

 Total Charge           Charge          ....    0
 Multiplicity           Mult            ....    1
 Number of Electrons    NEL             ....  202
 Basis Dimension        Dim             ....  334

ORBITAL ENERGIES
----------------

  NO   OCC          E(Eh)            E(eV)
   0   2.0000     -88.044728     -2395.8188
   1   2.0000     -88.040681     -2395.7087
   2   2.0000     -87.984265     -2394.1736
   3   2.0000     -87.965642     -2393.6668
   4   2.0000     -76.424953     -2079.6287
   5   2.0000     -76.415728     -2079.3777
   6   2.0000     -18.795718      -511.4575
   7   2.0000     -18.785193      -511.1711
   8   2.0000     -18.784295      -511.1467
   9   2.0000     -18.781743      -511.0772
  10   2.0000      -9.959223      -271.0042
  11   2.0000      -9.955709      -270.9086
  12   2.0000      -9.951800      -270.8023
  13   2.0000      -9.947696      -270.6906
  14   2.0000      -9.940371      -270.4912
  15   2.0000      -9.887354      -269.0486
  16   2.0000      -9.886118      -269.0150
  17   2.0000      -9.880123      -268.8518
  18   2.0000      -9.877429      -268.7785
  19   2.0000      -7.689928      -209.2536
  20   2.0000      -7.685770      -209.1404
  21   2.0000      -7.629241      -207.6022
  22   2.0000      -7.610959      -207.1047
  23   2.0000      -6.422505      -174.7652
  24   2.0000      -6.413108      -174.5095
  25   2.0000      -5.717630      -155.5846
  26   2.0000      -5.714372      -155.4960
  27   2.0000      -5.713944      -155.4843
  28   2.0000      -5.709897      -155.3742
  29   2.0000      -5.707096      -155.2980
  30   2.0000      -5.702782      -155.1806
  31   2.0000      -5.658094      -153.9646
  32   2.0000      -5.649871      -153.7408
  33   2.0000      -5.649405      -153.7281
  34   2.0000      -5.640244      -153.4788
  35   2.0000      -5.631621      -153.2442
  36   2.0000      -5.630656      -153.2179
  37   2.0000      -4.645391      -126.4075
  38   2.0000      -4.644240      -126.3762
  39   2.0000      -4.642699      -126.3343
  40   2.0000      -4.636043      -126.1532
  41   2.0000      -4.635025      -126.1255
  42   2.0000      -4.633126      -126.0738
  43   2.0000      -0.986774       -26.8515
  44   2.0000      -0.974513       -26.5178
  45   2.0000      -0.943167       -25.6649
  46   2.0000      -0.937495       -25.5105
  47   2.0000      -0.762356       -20.7448
  48   2.0000      -0.717289       -19.5184
  49   2.0000      -0.707573       -19.2540
  50   2.0000      -0.689837       -18.7714
  51   2.0000      -0.686630       -18.6841
  52   2.0000      -0.671179       -18.2637
  53   2.0000      -0.647592       -17.6219
  54   2.0000      -0.631130       -17.1739
  55   2.0000      -0.597276       -16.2527
  56   2.0000      -0.582783       -15.8583
  57   2.0000      -0.572545       -15.5797
  58   2.0000      -0.569921       -15.5083
  59   2.0000      -0.563066       -15.3218
  60   2.0000      -0.498424       -13.5628
  61   2.0000      -0.488169       -13.2838
  62   2.0000      -0.473792       -12.8925
  63   2.0000      -0.469188       -12.7672
  64   2.0000      -0.452831       -12.3222
  65   2.0000      -0.446229       -12.1425
  66   2.0000      -0.441670       -12.0185
  67   2.0000      -0.429325       -11.6825
  68   2.0000      -0.425049       -11.5662
  69   2.0000      -0.418182       -11.3793
  70   2.0000      -0.407528       -11.0894
  71   2.0000      -0.404096       -10.9960
  72   2.0000      -0.388030       -10.5588
  73   2.0000      -0.383677       -10.4404
  74   2.0000      -0.380439       -10.3523
  75   2.0000      -0.368341       -10.0231
  76   2.0000      -0.362854        -9.8738
  77   2.0000      -0.356547        -9.7021
  78   2.0000      -0.350692        -9.5428
  79   2.0000      -0.349582        -9.5126
  80   2.0000      -0.344200        -9.3662
  81   2.0000      -0.343467        -9.3462
  82   2.0000      -0.340360        -9.2617
  83   2.0000      -0.334570        -9.1041
  84   2.0000      -0.328668        -8.9435
  85   2.0000      -0.316217        -8.6047
  86   2.0000      -0.307144        -8.3578
  87   2.0000      -0.300960        -8.1895
  88   2.0000      -0.296007        -8.0547
  89   2.0000      -0.288512        -7.8508
  90   2.0000      -0.271394        -7.3850
  91   2.0000      -0.269195        -7.3252
  92   2.0000      -0.264371        -7.1939
  93   2.0000      -0.261527        -7.1165
  94   2.0000      -0.255235        -6.9453
  95   2.0000      -0.238175        -6.4811
  96   2.0000      -0.219324        -5.9681
  97   2.0000      -0.210169        -5.7190
  98   2.0000      -0.201650        -5.4872
  99   2.0000      -0.184318        -5.0156
 100   2.0000      -0.171480        -4.6662
 101   0.0000      -0.040169        -1.0930
 102   0.0000      -0.024539        -0.6677
 103   0.0000      -0.019333        -0.5261
 104   0.0000       0.003464         0.0943
 105   0.0000       0.021866         0.5950

MULLIKEN ATOMIC CHARGES
-----------------------
   0 C :   -0.321885
   1 C :   -0.000420
   2 O :   -0.377802
   3 P :    0.605178
   4 S :   -0.307271
   5 O :   -0.332209
   6 C :   -0.006740
   7 C :   -0.290827
   8 S :   -0.098052
   9 C :   -0.353176
  10 S :   -0.122263
  11 P :    0.622282
  12 S :   -0.293299
  13 O :   -0.372715
  14 C :   -0.012924
  15 C :   -0.313511
  16 O :   -0.390100
  17 C :   -0.017222
  18 C :   -0.309515
  19 H :    0.115676
  20 H :    0.117585
  21 H :    0.129062
  22 H :    0.115182
  23 H :    0.106173
  24 H :    0.110813
  25 H :    0.096720
  26 H :    0.117241
  27 H :    0.124912
  28 H :    0.107245
  29 H :    0.181905
  30 H :    0.208803
  31 H :    0.113830
  32 H :    0.109050
  33 H :    0.119566
  34 H :    0.109492
  35 H :    0.124174
  36 H :    0.132559
  37 H :    0.098917
  38 H :    0.129065
  39 H :    0.110503
  40 H :    0.113997
Sum of atomic charges:   -0.0000000

LOEWDIN ATOMIC CHARGES
----------------------
   0 C :   -0.372346
   1 C :   -0.116247
   2 O :   -0.244093
   3 P :    0.572304
   4 S :   -0.293680
   5 O :   -0.219740
   6 C :   -0.115952
   7 C :   -0.360241
   8 S :    0.075072
   9 C :   -0.476200
  10 S :    0.070516
  11 P :    0.560739
  12 S :   -0.297579
  13 O :   -0.246010
  14 C :   -0.118728
  15 C :   -0.367005
  16 O :   -0.248313
  17 C :   -0.126056
  18 C :   -0.365074
  19 H :    0.132530
  20 H :    0.123264
  21 H :    0.121681
  22 H :    0.114221
  23 H :    0.119033
  24 H :    0.120903
  25 H :    0.100116
  26 H :    0.123522
  27 H :    0.131235
  28 H :    0.128474
  29 H :    0.137021
  30 H :    0.130508
  31 H :    0.106410
  32 H :    0.121393
  33 H :    0.120882
  34 H :    0.129564
  35 H :    0.125853
  36 H :    0.110473
  37 H :    0.114942
  38 H :    0.126298
  39 H :    0.130657
  40 H :    0.119655

  Mayer bond orders larger than 0.100000
B(  0-C ,  1-C ) :   1.1662 B(  0-C , 19-H ) :   0.9370 B(  0-C , 20-H ) :   0.9437
B(  0-C , 21-H ) :   0.9338 B(  1-C ,  2-O ) :   0.9034 B(  1-C , 22-H ) :   0.9180
B(  1-C , 23-H ) :   0.9338 B(  2-O ,  3-P ) :   1.0904 B(  3-P ,  4-S ) :   1.6290
B(  3-P ,  5-O ) :   1.1619 B(  3-P ,  8-S ) :   0.9401 B(  4-S ,  8-S ) :   0.1044
B(  5-O ,  6-C ) :   0.8905 B(  6-C ,  7-C ) :   1.1637 B(  6-C , 24-H ) :   0.9304
B(  6-C , 25-H ) :   0.9116 B(  7-C , 26-H ) :   0.9422 B(  7-C , 27-H ) :   0.9464
B(  7-C , 28-H ) :   0.9399 B(  8-S ,  9-C ) :   1.0081 B(  9-C , 10-S ) :   0.9902
B(  9-C , 29-H ) :   0.9116 B(  9-C , 30-H ) :   0.8589 B( 10-S , 11-P ) :   0.9377
B( 10-S , 12-S ) :   0.1015 B( 11-P , 12-S ) :   1.6744 B( 11-P , 13-O ) :   1.1019
B( 11-P , 16-O ) :   1.0658 B( 13-O , 14-C ) :   0.9107 B( 14-C , 15-C ) :   1.1644
B( 14-C , 31-H ) :   0.9207 B( 14-C , 32-H ) :   0.9341 B( 15-C , 33-H ) :   0.9371
B( 15-C , 34-H ) :   0.9364 B( 15-C , 35-H ) :   0.9401 B( 16-O , 17-C ) :   0.8951
B( 17-C , 18-C ) :   1.1622 B( 17-C , 36-H ) :   0.9034 B( 17-C , 37-H ) :   0.9347
B( 18-C , 38-H ) :   0.9350 B( 18-C , 39-H ) :   0.9393 B( 18-C , 40-H ) :   0.9397

Dispersion correction           -0.068349408
FINAL SINGLE POINT ENERGY     -2929.510750405194

DIPOLE MOMENT
-------------

Method             : SCF
Type of density    : Electron Density
Multiplicity       :   1
Irrep              :   0
Energy             : -2929.6289212578767547 Eh
Relativity type    :
Basis              : AO
                                X                 Y                 Z
Electronic contribution:      3.506369359       2.302250195       3.754063610
Nuclear contribution   :     -3.323235978      -3.764449874      -3.909136337
                        -----------------------------------------
Total Dipole Moment    :      0.183133381      -1.462199679      -0.155072727
                        -----------------------------------------
Magnitude (a.u.)       :      1.481760198
Magnitude (Debye)      :      3.766335109

Rotational constants in cm-1:             0.013038             0.005247             0.005069
Rotational constants in MHz :           390.866010           157.291480           151.978504

                             ****ORCA TERMINATED NORMALLY****
TOTAL RUN TIME: 0 days 0 hours 0 minutes 21 seconds 706 msec
