                         Program Version 6.0.1  -  RELEASE   -
|  1> ! pbe def2-sv(p) def2/J RI DEFGRID1 loosescf d4 GCP(DFT/SV(P)) printgap
|  2> %output
|  3>     printlevel normal
|  4> end
|  5> * xyz 0 1
|  6> C 2.1235345832 -3.2395539963 -2.8324469187
|  7> C 3.0891792465 -3.0535858364 -1.6727468388
|  8> O 2.8894746265 -1.7663209343 -1.05735171
|  9> C 2.0410890235 -1.672322546 -0.0550335721
| 10> O 1.4585288145 -2.6053767186 0.4511729157
| 11> C 1.8509644399 -0.2277477217 0.3705367455
| 12> C 0.9868287458 0.475060775 -0.6777396619
| 13> H 1.5519979694 0.5945029298 -1.6072489976
| 14> C 0.4938337465 1.8421669007 -0.2327852986
| 15> O -0.6265483913 2.2438132543 -0.4796910795
| 16> O 1.4143264164 2.5157478696 0.3958767804
| 17> C 1.0643847234 3.8216047408 0.9035600654
| 18> C 2.3369028836 4.4945749238 1.3758755953
| 19> S -0.4731075854 -0.5061743985 -1.165253061
| 20> P -1.7926370636 -0.0600293261 0.4391772609
| 21> S -1.0919490442 0.6252229273 2.1341008754
| 22> O -2.9938809069 0.7984306512 -0.1156641515
| 23> C -3.6881930938 0.478074384 -1.3367678406
| 24> O -2.5251475738 -1.4802477247 0.6029518694
| 25> C -1.8733733488 -2.5776933219 1.2499378762
| 26> H 2.2964024493 -4.2065285268 -3.2927651393
| 27> H 1.0969115632 -3.1930420393 -2.4753960872
| 28> H 2.2698942732 -2.4582661026 -3.5725951561
| 29> H 4.1247252225 -3.0423203988 -2.0131026658
| 30> H 2.9443074311 -3.8288682803 -0.9153925954
| 31> H 2.8145360557 0.2765657825 0.4287516849
| 32> H 1.3607494552 -0.2096264096 1.3454748634
| 33> H 0.571079659 4.3824456654 0.1040123776
| 34> H 0.3489795348 3.6779477457 1.7197273361
| 35> H 2.094337721 5.47509859 1.7712963882
| 36> H 2.8030273984 3.9001740302 2.1555126847
| 37> H 3.0323105174 4.602796625 0.5489920271
| 38> H -2.9917293229 0.5034508715 -2.1748408095
| 39> H -4.4422473767 1.2536982426 -1.4416179052
| 40> H -4.1470747748 -0.5058085285 -1.2559565143
| 41> H -0.9327760629 -2.8205421388 0.7530760768
| 42> H -2.5684437709 -3.4099695768 1.1832054361
| 43> H -1.6727068118 -2.3261331422 2.2920312636
| 44> *
| 45>
| 46>                          ****END OF INPUT****

CARTESIAN COORDINATES (ANGSTROEM)
---------------------------------
  C      2.123535   -3.239554   -2.832447
  C      3.089179   -3.053586   -1.672747
  O      2.889475   -1.766321   -1.057352
  C      2.041089   -1.672323   -0.055034
  O      1.458529   -2.605377    0.451173
  C      1.850964   -0.227748    0.370537
  C      0.986829    0.475061   -0.677740
  H      1.551998    0.594503   -1.607249
  C      0.493834    1.842167   -0.232785
  O     -0.626548    2.243813   -0.479691
  O      1.414326    2.515748    0.395877
  C      1.064385    3.821605    0.903560
  C      2.336903    4.494575    1.375876
  S     -0.473108   -0.506174   -1.165253
  P     -1.792637   -0.060029    0.439177
  S     -1.091949    0.625223    2.134101
  O     -2.993881    0.798431   -0.115664
  C     -3.688193    0.478074   -1.336768
  O     -2.525148   -1.480248    0.602952
  C     -1.873373   -2.577693    1.249938
  H      2.296402   -4.206529   -3.292765
  H      1.096912   -3.193042   -2.475396
  H      2.269894   -2.458266   -3.572595
  H      4.124725   -3.042320   -2.013103
  H      2.944307   -3.828868   -0.915393
  H      2.814536    0.276566    0.428752
  H      1.360749   -0.209626    1.345475
  H      0.571080    4.382446    0.104012
  H      0.348980    3.677948    1.719727
  H      2.094338    5.475099    1.771296
  H      2.803027    3.900174    2.155513
  H      3.032311    4.602797    0.548992
  H     -2.991729    0.503451   -2.174841
  H     -4.442247    1.253698   -1.441618
  H     -4.147075   -0.505809   -1.255957
  H     -0.932776   -2.820542    0.753076
  H     -2.568444   -3.409970    1.183205
  H     -1.672707   -2.326133    2.292031

 Total Charge           Charge          ....    0
 Multiplicity           Mult            ....    1
 Number of Electrons    NEL             ....  174
 Basis Dimension        Dim             ....  316

ORBITAL ENERGIES
----------------

  NO   OCC          E(Eh)            E(eV)
   0   2.0000     -88.037889     -2395.6327
   1   2.0000     -87.977748     -2393.9962
   2   2.0000     -76.420543     -2079.5087
   3   2.0000     -18.813882      -511.9517
   4   2.0000     -18.806317      -511.7459
   5   2.0000     -18.783553      -511.1265
   6   2.0000     -18.779918      -511.0275
   7   2.0000     -18.740557      -509.9565
   8   2.0000     -18.739489      -509.9274
   9   2.0000     -10.019183      -272.6358
  10   2.0000     -10.011154      -272.4173
  11   2.0000      -9.953201      -270.8404
  12   2.0000      -9.950816      -270.7755
  13   2.0000      -9.950516      -270.7673
  14   2.0000      -9.942125      -270.5390
  15   2.0000      -9.926395      -270.1109
  16   2.0000      -9.903487      -269.4876
  17   2.0000      -9.891449      -269.1600
  18   2.0000      -9.890124      -269.1240
  19   2.0000      -7.682558      -209.0530
  20   2.0000      -7.622950      -207.4310
  21   2.0000      -6.417149      -174.6195
  22   2.0000      -5.710563      -155.3923
  23   2.0000      -5.707127      -155.2988
  24   2.0000      -5.699332      -155.0867
  25   2.0000      -5.652120      -153.8020
  26   2.0000      -5.643603      -153.5702
  27   2.0000      -5.642720      -153.5462
  28   2.0000      -4.639803      -126.2554
  29   2.0000      -4.639138      -126.2374
  30   2.0000      -4.637582      -126.1950
  31   2.0000      -1.022235       -27.8164
  32   2.0000      -1.013903       -27.5897
  33   2.0000      -0.976440       -26.5703
  34   2.0000      -0.931241       -25.3404
  35   2.0000      -0.921827       -25.0842
  36   2.0000      -0.917394       -24.9636
  37   2.0000      -0.766745       -20.8642
  38   2.0000      -0.714050       -19.4303
  39   2.0000      -0.710531       -19.3345
  40   2.0000      -0.688045       -18.7227
  41   2.0000      -0.655433       -17.8352
  42   2.0000      -0.625837       -17.0299
  43   2.0000      -0.620284       -16.8788
  44   2.0000      -0.615305       -16.7433
  45   2.0000      -0.592691       -16.1279
  46   2.0000      -0.564733       -15.3672
  47   2.0000      -0.515672       -14.0322
  48   2.0000      -0.504754       -13.7351
  49   2.0000      -0.501469       -13.6457
  50   2.0000      -0.481619       -13.1055
  51   2.0000      -0.464459       -12.6386
  52   2.0000      -0.456108       -12.4113
  53   2.0000      -0.450011       -12.2454
  54   2.0000      -0.440726       -11.9928
  55   2.0000      -0.430518       -11.7150
  56   2.0000      -0.421877       -11.4799
  57   2.0000      -0.417004       -11.3472
  58   2.0000      -0.410722       -11.1763
  59   2.0000      -0.405361       -11.0304
  60   2.0000      -0.398728       -10.8499
  61   2.0000      -0.392079       -10.6690
  62   2.0000      -0.391168       -10.6442
  63   2.0000      -0.380684       -10.3589
  64   2.0000      -0.375382       -10.2147
  65   2.0000      -0.365987        -9.9590
  66   2.0000      -0.361833        -9.8460
  67   2.0000      -0.360301        -9.8043
  68   2.0000      -0.346142        -9.4190
  69   2.0000      -0.336802        -9.1649
  70   2.0000      -0.335257        -9.1228
  71   2.0000      -0.330196        -8.9851
  72   2.0000      -0.323256        -8.7963
  73   2.0000      -0.310727        -8.4553
  74   2.0000      -0.307616        -8.3707
  75   2.0000      -0.297758        -8.1024
  76   2.0000      -0.292457        -7.9581
  77   2.0000      -0.287255        -7.8166
  78   2.0000      -0.269354        -7.3295
  79   2.0000      -0.264480        -7.1969
  80   2.0000      -0.261619        -7.1190
  81   2.0000      -0.249817        -6.7979
  82   2.0000      -0.238013        -6.4767
  83   2.0000      -0.220021        -5.9871
  84   2.0000      -0.215137        -5.8542
  85   2.0000      -0.196884        -5.3575
  86   2.0000      -0.192131        -5.2282
  87   0.0000      -0.043925        -1.1953
  88   0.0000      -0.031497        -0.8571
  89   0.0000      -0.018305        -0.4981
  90   0.0000       0.006013         0.1636
  91   0.0000       0.024730         0.6729

MULLIKEN ATOMIC CHARGES
-----------------------
   0 C :   -0.304940
   1 C :   -0.017206
   2 O :   -0.234897
   3 C :    0.116706
   4 O :   -0.189252
   5 C :   -0.028515
   6 C :   -0.331751
   7 H :    0.154123
   8 C :    0.191629
   9 O :   -0.187088
  10 O :   -0.220322
  11 C :   -0.028645
  12 C :   -0.274948
  13 S :   -0.097663
  14 P :    0.622786
  15 S :   -0.320089
  16 O :   -0.352225
  17 C :   -0.104658
  18 O :   -0.392550
  19 C :   -0.124689
  20 H :    0.113835
  21 H :    0.128530
  22 H :    0.112293
  23 H :    0.104446
  24 H :    0.112693
  25 H :    0.109557
  26 H :    0.116557
  27 H :    0.110339
  28 H :    0.121595
  29 H :    0.114692
  30 H :    0.119602
  31 H :    0.113081
  32 H :    0.122588
  33 H :    0.131071
  34 H :    0.121323
  35 H :    0.141528
  36 H :    0.113768
  37 H :    0.116699
Sum of atomic charges:    0.0000000

LOEWDIN ATOMIC CHARGES
----------------------
   0 C :   -0.356655
   1 C :   -0.112171
   2 O :   -0.061568
   3 C :    0.023406
   4 O :   -0.160207
   5 C :   -0.255306
   6 C :   -0.258567
   7 H :    0.150243
   8 C :   -0.001258
   9 O :   -0.164793
  10 O :   -0.040748
  11 C :   -0.103711
  12 C :   -0.350827
  13 S :    0.108613
  14 P :    0.590388
  15 S :   -0.302670
  16 O :   -0.229727
  17 C :   -0.208453
  18 O :   -0.264939
  19 C :   -0.224889
  20 H :    0.131027
  21 H :    0.129014
  22 H :    0.123668
  23 H :    0.118076
  24 H :    0.121327
  25 H :    0.140858
  26 H :    0.133404
  27 H :    0.119199
  28 H :    0.124307
  29 H :    0.132833
  30 H :    0.128847
  31 H :    0.125575
  32 H :    0.111326
  33 H :    0.126579
  34 H :    0.114347
  35 H :    0.114045
  36 H :    0.117306
  37 H :    0.112100

  Mayer bond orders larger than 0.100000
B(  0-C ,  1-C ) :   1.1750 B(  0-C , 20-H ) :   0.9433 B(  0-C , 21-H ) :   0.9426
B(  0-C , 22-H ) :   0.9498 B(  1-C ,  2-O ) :   0.9117 B(  1-C , 23-H ) :   0.9369
B(  1-C , 24-H ) :   0.9105 B(  2-O ,  3-C ) :   1.2170 B(  3-C ,  4-O ) :   2.0109
B(  3-C ,  5-C ) :   1.0230 B(  5-C ,  6-C ) :   1.0519 B(  5-C , 25-H ) :   0.8714
B(  5-C , 26-H ) :   0.8744 B(  6-C ,  7-H ) :   0.8564 B(  6-C ,  8-C ) :   0.9087
B(  6-C , 13-S ) :   1.0308 B(  8-C ,  9-O ) :   2.0292 B(  8-C , 10-O ) :   1.2705
B( 10-O , 11-C ) :   0.8910 B( 11-C , 12-C ) :   1.1534 B( 11-C , 27-H ) :   0.9273
B( 11-C , 28-H ) :   0.9280 B( 12-C , 29-H ) :   0.9430 B( 12-C , 30-H ) :   0.9484
B( 12-C , 31-H ) :   0.9510 B( 13-S , 14-P ) :   0.9408 B( 13-S , 15-S ) :   0.1128
B( 14-P , 15-S ) :   1.5948 B( 14-P , 16-O ) :   1.1449 B( 14-P , 18-O ) :   1.0746
B( 16-O , 17-C ) :   0.9208 B( 17-C , 32-H ) :   0.9392 B( 17-C , 33-H ) :   0.9599
B( 17-C , 34-H ) :   0.9463 B( 18-O , 19-C ) :   0.9240 B( 19-C , 35-H ) :   0.9242
B( 19-C , 36-H ) :   0.9564 B( 19-C , 37-H ) :   0.9436

Dispersion correction           -0.052802958
FINAL SINGLE POINT ENERGY     -1979.017253145742

DIPOLE MOMENT
-------------

Method             : SCF
Type of density    : Electron Density
Multiplicity       :   1
Irrep              :   0
Energy             : -1979.1463860634416960 Eh
Relativity type    :
Basis              : AO
                                X                 Y                 Z
Electronic contribution:    -10.579447845       1.217871390       5.206421599
Nuclear contribution   :     11.543087161      -1.206082092      -6.471693202
                        -----------------------------------------
Total Dipole Moment    :      0.963639315       0.011789298      -1.265271603
                        -----------------------------------------
Magnitude (a.u.)       :      1.590487959
Magnitude (Debye)      :      4.042699112

Rotational constants in cm-1:             0.010563             0.008551             0.005957
Rotational constants in MHz :           316.656804           256.348397           178.574833

                             ****ORCA TERMINATED NORMALLY****
TOTAL RUN TIME: 0 days 0 hours 0 minutes 51 seconds 152 msec
