                         Program Version 6.0.0  -   RELEASE  -
|  1> ! pbe def2-sv(p) def2/J RI DEFGRID1 loosescf d4 GCP(DFT/SV(P)) printgap
|  2> %output
|  3>     printlevel normal
|  4> end
|  5> * xyz 0 1
|  6> C 4.2047970583 0.0859400477 -2.2120863728
|  7> C 4.4692193031 0.1288474277 -0.7201189936
|  8> O 3.3419943985 0.6779819365 0.0131908766
|  9> P 2.1927762269 -0.1629091198 0.6957360008
| 10> S 1.3478058865 0.8327729745 2.1525490458
| 11> O 2.9440660641 -1.4884178705 1.1553648384
| 12> C 2.4024050957 -2.3518151511 2.1697366582
| 13> C 1.1421226937 -3.0498420746 1.7018630475
| 14> S 0.9847511444 -0.8818358874 -0.920317863
| 15> C 0.5908268443 0.6940189331 -1.7171996689
| 16> S -0.4705135172 1.7831203241 -0.7201679532
| 17> P -2.0370462175 0.3980183735 -0.4088901901
| 18> S -2.4723690323 -0.7410977349 -1.9486516501
| 19> O -3.2551765884 1.2617023705 0.1332379916
| 20> C -4.2411956893 1.8247813471 -0.750586405
| 21> C -3.6843603006 2.9788150574 -1.558193326
| 22> O -1.5223615798 -0.3029248122 0.9164974737
| 23> C -2.3747744408 -0.9081221344 1.912355887
| 24> C -3.0529465286 -2.1584073022 1.3912901006
| 25> H 3.4002760706 -0.6080254004 -2.4433974985
| 26> H 3.9434211688 1.0751036677 -2.5793468174
| 27> H 5.1082362387 -0.2460950959 -2.7143884042
| 28> H 5.2861608699 0.8127516639 -0.4837513823
| 29> H 4.6928456361 -0.8639356504 -0.3284688341
| 30> H 3.2076408723 -3.0601138615 2.3691616338
| 31> H 2.2019047676 -1.7507822747 3.0625368394
| 32> H 0.3572585614 -2.3132177345 1.5323904194
| 33> H 1.3248384617 -3.5820327189 0.7714079654
| 34> H 0.8122379378 -3.7503885036 2.4622730658
| 35> H 0.0743360031 0.4328737286 -2.6405372802
| 36> H 1.4998202378 1.2574040115 -1.9150057846
| 37> H -4.6037974238 1.0316682945 -1.4127651768
| 38> H -5.0397813525 2.1476929052 -0.0813935182
| 39> H -3.2256021356 3.7134849519 -0.9010351832
| 40> H -2.9310416656 2.6149793851 -2.2555088315
| 41> H -4.4878852669 3.4458603713 -2.1184471741
| 42> H -1.6883114421 -1.1266019587 2.733076335
| 43> H -3.106728922 -0.1657349706 2.2373346315
| 44> H -3.6150190306 -2.6236473059 2.1947422546
| 45> H -3.7333400222 -1.9044968753 0.5794869777
| 46> H -2.3141645498 -2.8611458621 1.0127794857
| 47> *
| 48>
| 49>                          ****END OF INPUT****

CARTESIAN COORDINATES (ANGSTROEM)
---------------------------------
  C      4.204797    0.085940   -2.212086
  C      4.469219    0.128847   -0.720119
  O      3.341994    0.677982    0.013191
  P      2.192776   -0.162909    0.695736
  S      1.347806    0.832773    2.152549
  O      2.944066   -1.488418    1.155365
  C      2.402405   -2.351815    2.169737
  C      1.142123   -3.049842    1.701863
  S      0.984751   -0.881836   -0.920318
  C      0.590827    0.694019   -1.717200
  S     -0.470514    1.783120   -0.720168
  P     -2.037046    0.398018   -0.408890
  S     -2.472369   -0.741098   -1.948652
  O     -3.255177    1.261702    0.133238
  C     -4.241196    1.824781   -0.750586
  C     -3.684360    2.978815   -1.558193
  O     -1.522362   -0.302925    0.916497
  C     -2.374774   -0.908122    1.912356
  C     -3.052947   -2.158407    1.391290
  H      3.400276   -0.608025   -2.443397
  H      3.943421    1.075104   -2.579347
  H      5.108236   -0.246095   -2.714388
  H      5.286161    0.812752   -0.483751
  H      4.692846   -0.863936   -0.328469
  H      3.207641   -3.060114    2.369162
  H      2.201905   -1.750782    3.062537
  H      0.357259   -2.313218    1.532390
  H      1.324838   -3.582033    0.771408
  H      0.812238   -3.750389    2.462273
  H      0.074336    0.432874   -2.640537
  H      1.499820    1.257404   -1.915006
  H     -4.603797    1.031668   -1.412765
  H     -5.039781    2.147693   -0.081394
  H     -3.225602    3.713485   -0.901035
  H     -2.931042    2.614979   -2.255509
  H     -4.487885    3.445860   -2.118447
  H     -1.688311   -1.126602    2.733076
  H     -3.106729   -0.165735    2.237335
  H     -3.615019   -2.623647    2.194742
  H     -3.733340   -1.904497    0.579487
  H     -2.314165   -2.861146    1.012779

 Total Charge           Charge          ....    0
 Multiplicity           Mult            ....    1
 Number of Electrons    NEL             ....  202
 Basis Dimension        Dim             ....  334

ORBITAL ENERGIES
----------------

  NO   OCC          E(Eh)            E(eV)
   0   2.0000     -88.038232     -2395.6421
   1   2.0000     -88.034937     -2395.5524
   2   2.0000     -87.983244     -2394.1458
   3   2.0000     -87.975738     -2393.9415
   4   2.0000     -76.424071     -2079.6047
   5   2.0000     -76.421976     -2079.5477
   6   2.0000     -18.794451      -511.4230
   7   2.0000     -18.792637      -511.3736
   8   2.0000     -18.790163      -511.3063
   9   2.0000     -18.781401      -511.0679
  10   2.0000      -9.956985      -270.9433
  11   2.0000      -9.955166      -270.8938
  12   2.0000      -9.952913      -270.8325
  13   2.0000      -9.951588      -270.7965
  14   2.0000      -9.948548      -270.7138
  15   2.0000      -9.889988      -269.1203
  16   2.0000      -9.885631      -269.0017
  17   2.0000      -9.882527      -268.9172
  18   2.0000      -9.879563      -268.8366
  19   2.0000      -7.682519      -209.0520
  20   2.0000      -7.680234      -208.9898
  21   2.0000      -7.628305      -207.5767
  22   2.0000      -7.620946      -207.3765
  23   2.0000      -6.421160      -174.7286
  24   2.0000      -6.419288      -174.6777
  25   2.0000      -5.710349      -155.3865
  26   2.0000      -5.708238      -155.3290
  27   2.0000      -5.707195      -155.3007
  28   2.0000      -5.704922      -155.2388
  29   2.0000      -5.699473      -155.0905
  30   2.0000      -5.696818      -155.0183
  31   2.0000      -5.657085      -153.9371
  32   2.0000      -5.650029      -153.7451
  33   2.0000      -5.649101      -153.7199
  34   2.0000      -5.648454      -153.7023
  35   2.0000      -5.641701      -153.5185
  36   2.0000      -5.640801      -153.4940
  37   2.0000      -4.644223      -126.3757
  38   2.0000      -4.642656      -126.3331
  39   2.0000      -4.642626      -126.3323
  40   2.0000      -4.641509      -126.3019
  41   2.0000      -4.640895      -126.2852
  42   2.0000      -4.639202      -126.2391
  43   2.0000      -0.986615       -26.8472
  44   2.0000      -0.984925       -26.8012
  45   2.0000      -0.943918       -25.6853
  46   2.0000      -0.940072       -25.5807
  47   2.0000      -0.760523       -20.6949
  48   2.0000      -0.717982       -19.5373
  49   2.0000      -0.707684       -19.2571
  50   2.0000      -0.691132       -18.8067
  51   2.0000      -0.685835       -18.6625
  52   2.0000      -0.671229       -18.2651
  53   2.0000      -0.648241       -17.6395
  54   2.0000      -0.634463       -17.2646
  55   2.0000      -0.594973       -16.1901
  56   2.0000      -0.587663       -15.9911
  57   2.0000      -0.579979       -15.7820
  58   2.0000      -0.574608       -15.6359
  59   2.0000      -0.556768       -15.1504
  60   2.0000      -0.500279       -13.6133
  61   2.0000      -0.494472       -13.4553
  62   2.0000      -0.472812       -12.8659
  63   2.0000      -0.468892       -12.7592
  64   2.0000      -0.458590       -12.4789
  65   2.0000      -0.446615       -12.1530
  66   2.0000      -0.440054       -11.9745
  67   2.0000      -0.430284       -11.7086
  68   2.0000      -0.426025       -11.5927
  69   2.0000      -0.416877       -11.3438
  70   2.0000      -0.408614       -11.1189
  71   2.0000      -0.403661       -10.9842
  72   2.0000      -0.394266       -10.7285
  73   2.0000      -0.375965       -10.2305
  74   2.0000      -0.374852       -10.2002
  75   2.0000      -0.370562       -10.0835
  76   2.0000      -0.366551        -9.9744
  77   2.0000      -0.360431        -9.8078
  78   2.0000      -0.357397        -9.7253
  79   2.0000      -0.351697        -9.5702
  80   2.0000      -0.349962        -9.5229
  81   2.0000      -0.343918        -9.3585
  82   2.0000      -0.339041        -9.2258
  83   2.0000      -0.337602        -9.1866
  84   2.0000      -0.330390        -8.9904
  85   2.0000      -0.322413        -8.7733
  86   2.0000      -0.310165        -8.4400
  87   2.0000      -0.301648        -8.2083
  88   2.0000      -0.294497        -8.0137
  89   2.0000      -0.290352        -7.9009
  90   2.0000      -0.285023        -7.7559
  91   2.0000      -0.272435        -7.4133
  92   2.0000      -0.268030        -7.2935
  93   2.0000      -0.257151        -6.9974
  94   2.0000      -0.256957        -6.9922
  95   2.0000      -0.236880        -6.4458
  96   2.0000      -0.212414        -5.7801
  97   2.0000      -0.205168        -5.5829
  98   2.0000      -0.197978        -5.3873
  99   2.0000      -0.189799        -5.1647
 100   2.0000      -0.181923        -4.9504
 101   0.0000      -0.044670        -1.2155
 102   0.0000      -0.024090        -0.6555
 103   0.0000      -0.004032        -0.1097
 104   0.0000       0.002070         0.0563
 105   0.0000       0.018833         0.5125

MULLIKEN ATOMIC CHARGES
-----------------------
   0 C :   -0.317510
   1 C :   -0.008558
   2 O :   -0.370319
   3 P :    0.609433
   4 S :   -0.297564
   5 O :   -0.388059
   6 C :    0.006321
   7 C :   -0.369014
   8 S :   -0.098178
   9 C :   -0.356367
  10 S :   -0.066564
  11 P :    0.633941
  12 S :   -0.341897
  13 O :   -0.379829
  14 C :   -0.005869
  15 C :   -0.313492
  16 O :   -0.357462
  17 C :   -0.001849
  18 C :   -0.311234
  19 H :    0.127991
  20 H :    0.124021
  21 H :    0.113384
  22 H :    0.111670
  23 H :    0.115648
  24 H :    0.103467
  25 H :    0.110270
  26 H :    0.170913
  27 H :    0.121708
  28 H :    0.114406
  29 H :    0.191061
  30 H :    0.184739
  31 H :    0.111549
  32 H :    0.103818
  33 H :    0.119547
  34 H :    0.125357
  35 H :    0.112470
  36 H :    0.108323
  37 H :    0.111016
  38 H :    0.106704
  39 H :    0.123323
  40 H :    0.122686
Sum of atomic charges:   -0.0000000

LOEWDIN ATOMIC CHARGES
----------------------
   0 C :   -0.366334
   1 C :   -0.109534
   2 O :   -0.245767
   3 P :    0.566135
   4 S :   -0.303952
   5 O :   -0.249748
   6 C :   -0.118122
   7 C :   -0.376493
   8 S :    0.085529
   9 C :   -0.478581
  10 S :    0.095709
  11 P :    0.575027
  12 S :   -0.329893
  13 O :   -0.243218
  14 C :   -0.120768
  15 C :   -0.368692
  16 O :   -0.235675
  17 C :   -0.111187
  18 C :   -0.365424
  19 H :    0.120364
  20 H :    0.125147
  21 H :    0.132054
  22 H :    0.122201
  23 H :    0.115220
  24 H :    0.117666
  25 H :    0.110757
  26 H :    0.126959
  27 H :    0.125750
  28 H :    0.131499
  29 H :    0.132293
  30 H :    0.129354
  31 H :    0.109581
  32 H :    0.117668
  33 H :    0.125837
  34 H :    0.120805
  35 H :    0.130975
  36 H :    0.117240
  37 H :    0.112647
  38 H :    0.127337
  39 H :    0.121684
  40 H :    0.127951

  Mayer bond orders larger than 0.100000
B(  0-C ,  1-C ) :   1.1696 B(  0-C , 19-H ) :   0.9312 B(  0-C , 20-H ) :   0.9396
B(  0-C , 21-H ) :   0.9372 B(  1-C ,  2-O ) :   0.9011 B(  1-C , 22-H ) :   0.9354
B(  1-C , 23-H ) :   0.9178 B(  2-O ,  3-P ) :   1.1125 B(  3-P ,  4-S ) :   1.6871
B(  3-P ,  5-O ) :   1.0672 B(  3-P ,  8-S ) :   0.9358 B(  4-S ,  8-S ) :   0.1143
B(  5-O ,  6-C ) :   0.9076 B(  6-C ,  7-C ) :   1.1626 B(  6-C , 24-H ) :   0.9326
B(  6-C , 25-H ) :   0.9131 B(  7-C , 26-H ) :   0.9164 B(  7-C , 27-H ) :   0.9419
B(  7-C , 28-H ) :   0.9376 B(  8-S ,  9-C ) :   1.0011 B(  9-C , 10-S ) :   1.0053
B(  9-C , 29-H ) :   0.8902 B(  9-C , 30-H ) :   0.8927 B( 10-S , 11-P ) :   0.9602
B( 10-S , 12-S ) :   0.1182 B( 11-P , 12-S ) :   1.5948 B( 11-P , 13-O ) :   1.0911
B( 11-P , 16-O ) :   1.1242 B( 13-O , 14-C ) :   0.9062 B( 14-C , 15-C ) :   1.1666
B( 14-C , 31-H ) :   0.9122 B( 14-C , 32-H ) :   0.9328 B( 15-C , 33-H ) :   0.9455
B( 15-C , 34-H ) :   0.9345 B( 15-C , 35-H ) :   0.9381 B( 16-O , 17-C ) :   0.9001
B( 17-C , 18-C ) :   1.1676 B( 17-C , 36-H ) :   0.9264 B( 17-C , 37-H ) :   0.9288
B( 18-C , 38-H ) :   0.9377 B( 18-C , 39-H ) :   0.9347 B( 18-C , 40-H ) :   0.9478

Dispersion correction           -0.067569460
FINAL SINGLE POINT ENERGY     -2929.512895542826

DIPOLE MOMENT
-------------

Method             : SCF
Type of density    : Electron Density
Multiplicity       :   1
Irrep              :   0
Energy             : -2929.6305895470050018 Eh
Relativity type    :
Basis              : AO
                                X                 Y                 Z
Electronic contribution:      3.024496355       7.596410058       0.963558000
Nuclear contribution   :     -2.760444140      -8.046334457      -1.043904605
                        -----------------------------------------
Total Dipole Moment    :      0.264052216      -0.449924399      -0.080346604
                        -----------------------------------------
Magnitude (a.u.)       :      0.527836257
Magnitude (Debye)      :      1.341653142

Rotational constants in cm-1:             0.012168             0.005575             0.004835
Rotational constants in MHz :           364.797719           167.125257           144.948128

                             ****ORCA TERMINATED NORMALLY****
TOTAL RUN TIME: 0 days 0 hours 0 minutes 21 seconds 536 msec
