                         Program Version 6.0.0  -   RELEASE  -
|  1> ! pbe def2-sv(p) def2/J RI DEFGRID1 loosescf d4 GCP(DFT/SV(P)) printgap
|  2> %output
|  3>     printlevel normal
|  4> end
|  5> * xyz 0 1
|  6> C 2.7377739397 -2.788673866 1.4000110557
|  7> C 1.5075537978 -2.2498941836 0.6987298133
|  8> O 1.4513831234 -0.8163226945 0.8000771951
|  9> P 2.2668681159 0.1616781868 -0.1707898735
| 10> S 3.1444175168 -0.6603300454 -1.7058698011
| 11> O 3.2935598703 0.913956131 0.7652242306
| 12> C 2.8973741674 1.6019381556 1.9800405377
| 13> C 4.1342788968 2.2606565322 2.5533039783
| 14> S 0.8013255634 1.6555201908 -0.5611533465
| 15> C 0.1356358527 0.8991898835 -2.0648716651
| 16> S -0.5417036241 -0.7580173389 -1.7801159678
| 17> P -2.0946941899 -0.1799958499 -0.4637155248
| 18> S -2.9119643055 1.571036607 -0.8098582904
| 19> O -1.5564710677 -0.3727294197 1.0225260553
| 20> C -1.3656682916 0.689644481 1.9726692909
| 21> C -2.4245215551 0.6038983813 3.0542157729
| 22> O -2.9452954371 -1.4966744632 -0.6883584832
| 23> C -4.0060626421 -1.9184619088 0.1966858343
| 24> C -5.2780194817 -1.1242051533 -0.0251031399
| 25> H 3.6324676542 -2.3939367142 0.9196135369
| 26> H 2.7391406199 -2.4952728821 2.4463208132
| 27> H 2.7473510323 -3.871588854 1.3292192648
| 28> H 0.5829794352 -2.5919557017 1.1671752225
| 29> H 1.5081153703 -2.5317362221 -0.3589528338
| 30> H 2.1317666788 2.3391905697 1.7222244831
| 31> H 2.4766371631 0.8661311745 2.6691414718
| 32> H 3.8686049581 2.7841785738 3.465930576
| 33> H 4.8889765442 1.5109688318 2.7727254144
| 34> H 4.5435837218 2.9682661012 1.8383010974
| 35> H 0.9299965256 0.7878016249 -2.801843329
| 36> H -0.650538625 1.5647873731 -2.4210840219
| 37> H -0.3612559407 0.5466534006 2.3756402177
| 38> H -1.4179135579 1.65195427 1.453519044
| 39> H -3.4094889329 0.7702654541 2.6230014857
| 40> H -2.4028974682 -0.3732504323 3.5288772438
| 41> H -2.2327209318 1.3689413071 3.7993558454
| 42> H -4.1468375653 -2.9713438708 -0.054165232
| 43> H -3.6596935144 -1.8280783867 1.2293287453
| 44> H -6.0630783923 -1.517601251 0.6130359566
| 45> H -5.1180580865 -0.0739913787 0.212069369
| 46> H -5.5889613742 -1.196746409 -1.0640208984
| 47> *
| 48>
| 49>                          ****END OF INPUT****

CARTESIAN COORDINATES (ANGSTROEM)
---------------------------------
  C      2.737774   -2.788674    1.400011
  C      1.507554   -2.249894    0.698730
  O      1.451383   -0.816323    0.800077
  P      2.266868    0.161678   -0.170790
  S      3.144418   -0.660330   -1.705870
  O      3.293560    0.913956    0.765224
  C      2.897374    1.601938    1.980041
  C      4.134279    2.260657    2.553304
  S      0.801326    1.655520   -0.561153
  C      0.135636    0.899190   -2.064872
  S     -0.541704   -0.758017   -1.780116
  P     -2.094694   -0.179996   -0.463716
  S     -2.911964    1.571037   -0.809858
  O     -1.556471   -0.372729    1.022526
  C     -1.365668    0.689644    1.972669
  C     -2.424522    0.603898    3.054216
  O     -2.945295   -1.496674   -0.688358
  C     -4.006063   -1.918462    0.196686
  C     -5.278019   -1.124205   -0.025103
  H      3.632468   -2.393937    0.919614
  H      2.739141   -2.495273    2.446321
  H      2.747351   -3.871589    1.329219
  H      0.582979   -2.591956    1.167175
  H      1.508115   -2.531736   -0.358953
  H      2.131767    2.339191    1.722224
  H      2.476637    0.866131    2.669141
  H      3.868605    2.784179    3.465931
  H      4.888977    1.510969    2.772725
  H      4.543584    2.968266    1.838301
  H      0.929997    0.787802   -2.801843
  H     -0.650539    1.564787   -2.421084
  H     -0.361256    0.546653    2.375640
  H     -1.417914    1.651954    1.453519
  H     -3.409489    0.770265    2.623001
  H     -2.402897   -0.373250    3.528877
  H     -2.232721    1.368941    3.799356
  H     -4.146838   -2.971344   -0.054165
  H     -3.659694   -1.828078    1.229329
  H     -6.063078   -1.517601    0.613036
  H     -5.118058   -0.073991    0.212069
  H     -5.588961   -1.196746   -1.064021

 Total Charge           Charge          ....    0
 Multiplicity           Mult            ....    1
 Number of Electrons    NEL             ....  202
 Basis Dimension        Dim             ....  334

ORBITAL ENERGIES
----------------

  NO   OCC          E(Eh)            E(eV)
   0   2.0000     -88.041387     -2395.7279
   1   2.0000     -88.039869     -2395.6866
   2   2.0000     -87.989571     -2394.3179
   3   2.0000     -87.988252     -2394.2821
   4   2.0000     -76.427774     -2079.7055
   5   2.0000     -76.426605     -2079.6736
   6   2.0000     -18.796930      -511.4905
   7   2.0000     -18.794847      -511.4338
   8   2.0000     -18.793630      -511.4007
   9   2.0000     -18.789305      -511.2830
  10   2.0000      -9.964638      -271.1516
  11   2.0000      -9.959404      -271.0092
  12   2.0000      -9.952846      -270.8307
  13   2.0000      -9.950241      -270.7598
  14   2.0000      -9.947204      -270.6772
  15   2.0000      -9.895056      -269.2582
  16   2.0000      -9.889540      -269.1081
  17   2.0000      -9.885492      -268.9979
  18   2.0000      -9.883034      -268.9310
  19   2.0000      -7.686134      -209.1503
  20   2.0000      -7.684751      -209.1127
  21   2.0000      -7.634479      -207.7447
  22   2.0000      -7.633525      -207.7188
  23   2.0000      -6.425232      -174.8395
  24   2.0000      -6.424244      -174.8126
  25   2.0000      -5.713886      -155.4827
  26   2.0000      -5.712742      -155.4516
  27   2.0000      -5.710806      -155.3989
  28   2.0000      -5.709359      -155.3596
  29   2.0000      -5.703105      -155.1894
  30   2.0000      -5.701507      -155.1459
  31   2.0000      -5.663274      -154.1055
  32   2.0000      -5.662634      -154.0881
  33   2.0000      -5.655347      -153.8898
  34   2.0000      -5.654521      -153.8673
  35   2.0000      -5.654112      -153.8562
  36   2.0000      -5.653472      -153.8388
  37   2.0000      -4.648025      -126.4792
  38   2.0000      -4.647052      -126.4527
  39   2.0000      -4.646721      -126.4437
  40   2.0000      -4.645766      -126.4177
  41   2.0000      -4.645675      -126.4153
  42   2.0000      -4.644829      -126.3922
  43   2.0000      -0.989028       -26.9128
  44   2.0000      -0.986820       -26.8527
  45   2.0000      -0.946074       -25.7440
  46   2.0000      -0.944355       -25.6972
  47   2.0000      -0.764882       -20.8135
  48   2.0000      -0.725938       -19.7538
  49   2.0000      -0.713715       -19.4212
  50   2.0000      -0.691140       -18.8069
  51   2.0000      -0.690901       -18.8004
  52   2.0000      -0.671751       -18.2793
  53   2.0000      -0.652712       -17.7612
  54   2.0000      -0.640976       -17.4418
  55   2.0000      -0.598021       -16.2730
  56   2.0000      -0.587231       -15.9794
  57   2.0000      -0.579313       -15.7639
  58   2.0000      -0.577229       -15.7072
  59   2.0000      -0.561422       -15.2771
  60   2.0000      -0.509933       -13.8760
  61   2.0000      -0.500857       -13.6290
  62   2.0000      -0.481057       -13.0902
  63   2.0000      -0.478649       -13.0247
  64   2.0000      -0.459903       -12.5146
  65   2.0000      -0.448722       -12.2103
  66   2.0000      -0.442996       -12.0545
  67   2.0000      -0.435132       -11.8405
  68   2.0000      -0.430462       -11.7135
  69   2.0000      -0.412374       -11.2213
  70   2.0000      -0.404284       -11.0011
  71   2.0000      -0.394217       -10.7272
  72   2.0000      -0.391411       -10.6508
  73   2.0000      -0.390428       -10.6241
  74   2.0000      -0.380782       -10.3616
  75   2.0000      -0.377224       -10.2648
  76   2.0000      -0.370376       -10.0784
  77   2.0000      -0.361492        -9.8367
  78   2.0000      -0.356176        -9.6920
  79   2.0000      -0.354852        -9.6560
  80   2.0000      -0.352072        -9.5804
  81   2.0000      -0.346931        -9.4405
  82   2.0000      -0.342116        -9.3094
  83   2.0000      -0.341312        -9.2876
  84   2.0000      -0.335364        -9.1257
  85   2.0000      -0.323540        -8.8040
  86   2.0000      -0.315737        -8.5916
  87   2.0000      -0.313870        -8.5408
  88   2.0000      -0.295794        -8.0490
  89   2.0000      -0.293839        -7.9958
  90   2.0000      -0.283555        -7.7159
  91   2.0000      -0.279672        -7.6103
  92   2.0000      -0.273542        -7.4435
  93   2.0000      -0.270628        -7.3642
  94   2.0000      -0.257309        -7.0017
  95   2.0000      -0.231187        -6.2909
  96   2.0000      -0.216512        -5.8916
  97   2.0000      -0.215071        -5.8524
  98   2.0000      -0.207923        -5.6579
  99   2.0000      -0.200222        -5.4483
 100   2.0000      -0.198426        -5.3995
 101   0.0000      -0.046214        -1.2576
 102   0.0000      -0.025568        -0.6957
 103   0.0000      -0.001506        -0.0410
 104   0.0000       0.004771         0.1298
 105   0.0000       0.009243         0.2515

MULLIKEN ATOMIC CHARGES
-----------------------
   0 C :   -0.297286
   1 C :   -0.008308
   2 O :   -0.387331
   3 P :    0.624335
   4 S :   -0.305043
   5 O :   -0.366777
   6 C :   -0.048359
   7 C :   -0.269103
   8 S :   -0.120287
   9 C :   -0.345450
  10 S :   -0.078789
  11 P :    0.647418
  12 S :   -0.334831
  13 O :   -0.377493
  14 C :   -0.022526
  15 C :   -0.288106
  16 O :   -0.375343
  17 C :   -0.015278
  18 C :   -0.309821
  19 H :    0.123645
  20 H :    0.105213
  21 H :    0.110855
  22 H :    0.099803
  23 H :    0.118009
  24 H :    0.118178
  25 H :    0.115288
  26 H :    0.111531
  27 H :    0.122566
  28 H :    0.125562
  29 H :    0.192747
  30 H :    0.193449
  31 H :    0.102435
  32 H :    0.118329
  33 H :    0.115515
  34 H :    0.113093
  35 H :    0.110029
  36 H :    0.109921
  37 H :    0.107509
  38 H :    0.108830
  39 H :    0.133417
  40 H :    0.122454
Sum of atomic charges:    0.0000000

LOEWDIN ATOMIC CHARGES
----------------------
   0 C :   -0.362919
   1 C :   -0.123865
   2 O :   -0.249952
   3 P :    0.570678
   4 S :   -0.301686
   5 O :   -0.244896
   6 C :   -0.117887
   7 C :   -0.348260
   8 S :    0.075149
   9 C :   -0.479022
  10 S :    0.102157
  11 P :    0.569877
  12 S :   -0.316490
  13 O :   -0.239036
  14 C :   -0.128541
  15 C :   -0.358009
  16 O :   -0.245308
  17 C :   -0.112162
  18 C :   -0.365648
  19 H :    0.124450
  20 H :    0.119847
  21 H :    0.130140
  22 H :    0.114534
  23 H :    0.107504
  24 H :    0.107985
  25 H :    0.111370
  26 H :    0.130959
  27 H :    0.130705
  28 H :    0.132279
  29 H :    0.132837
  30 H :    0.131158
  31 H :    0.109378
  32 H :    0.103918
  33 H :    0.123494
  34 H :    0.122184
  35 H :    0.130198
  36 H :    0.121387
  37 H :    0.109656
  38 H :    0.128957
  39 H :    0.122248
  40 H :    0.130632

  Mayer bond orders larger than 0.100000
B(  0-C ,  1-C ) :   1.1618 B(  0-C , 19-H ) :   0.9384 B(  0-C , 20-H ) :   0.9480
B(  0-C , 21-H ) :   0.9412 B(  1-C ,  2-O ) :   0.8985 B(  1-C , 22-H ) :   0.9316
B(  1-C , 23-H ) :   0.9087 B(  2-O ,  3-P ) :   1.0672 B(  3-P ,  4-S ) :   1.6384
B(  3-P ,  5-O ) :   1.1281 B(  3-P ,  8-S ) :   0.9444 B(  4-S ,  8-S ) :   0.1012
B(  5-O ,  6-C ) :   0.9031 B(  6-C ,  7-C ) :   1.1620 B(  6-C , 24-H ) :   0.9181
B(  6-C , 25-H ) :   0.9211 B(  7-C , 26-H ) :   0.9402 B(  7-C , 27-H ) :   0.9498
B(  7-C , 28-H ) :   0.9491 B(  8-S ,  9-C ) :   1.0026 B(  9-C , 10-S ) :   1.0080
B(  9-C , 29-H ) :   0.8876 B(  9-C , 30-H ) :   0.8825 B( 10-S , 11-P ) :   0.9478
B( 10-S , 12-S ) :   0.1084 B( 11-P , 12-S ) :   1.6085 B( 11-P , 13-O ) :   1.0883
B( 11-P , 16-O ) :   1.1255 B( 13-O , 14-C ) :   0.9034 B( 14-C , 15-C ) :   1.1605
B( 14-C , 31-H ) :   0.9246 B( 14-C , 32-H ) :   0.8998 B( 15-C , 33-H ) :   0.9426
B( 15-C , 34-H ) :   0.9463 B( 15-C , 35-H ) :   0.9409 B( 16-O , 17-C ) :   0.9100
B( 17-C , 18-C ) :   1.1651 B( 17-C , 36-H ) :   0.9356 B( 17-C , 37-H ) :   0.9217
B( 18-C , 38-H ) :   0.9381 B( 18-C , 39-H ) :   0.9334 B( 18-C , 40-H ) :   0.9459

Dispersion correction           -0.066396506
FINAL SINGLE POINT ENERGY     -2929.524040212400

DIPOLE MOMENT
-------------

Method             : SCF
Type of density    : Electron Density
Multiplicity       :   1
Irrep              :   0
Energy             : -2929.6430352839583975 Eh
Relativity type    :
Basis              : AO
                                X                 Y                 Z
Electronic contribution:      4.402487783       4.065764915     -24.440023289
Nuclear contribution   :     -4.857051919      -4.458830016      26.502938485
                        -----------------------------------------
Total Dipole Moment    :     -0.454564135      -0.393065101       2.062915196
                        -----------------------------------------
Magnitude (a.u.)       :      2.148661870
Magnitude (Debye)      :      5.461464443

Rotational constants in cm-1:             0.012094             0.005197             0.004952
Rotational constants in MHz :           362.579365           155.802263           148.456014

                             ****ORCA TERMINATED NORMALLY****
TOTAL RUN TIME: 0 days 0 hours 0 minutes 21 seconds 563 msec
