                         Program Version 6.0.0  -   RELEASE  -
|  1> ! pbe def2-sv(p) def2/J RI DEFGRID1 loosescf d4 GCP(DFT/SV(P)) printgap
|  2> %output
|  3>     printlevel normal
|  4> end
|  5> * xyz 0 1
|  6> C 2.4929603457 2.4863057136 2.2587901146
|  7> C 1.4708547699 2.0220273306 1.2415202028
|  8> O 0.9801948436 0.6984920416 1.5630609385
|  9> P 1.5520283198 -0.6133999343 0.8985834977
| 10> S 0.7938064222 -2.2598362644 1.6345692939
| 11> O 3.1149104428 -0.4390708202 1.1719968596
| 12> C 4.0432756308 -1.5346308222 1.1193916134
| 13> C 4.1824693416 -2.1201208695 -0.2712155546
| 14> S 1.4209127358 -0.3290169749 -1.2119542102
| 15> C 0.1926895264 -1.5897920761 -1.6220092095
| 16> S -1.3771546636 -0.9336301114 -2.2724294358
| 17> P -2.0041760822 0.3523180452 -0.7222233684
| 18> S -3.888358349 0.872858562 -0.80185615
| 19> O -0.9858154372 1.5806982976 -0.6779256086
| 20> C -1.1684931369 2.7473411864 -1.4997142093
| 21> C -0.8307079808 2.476148505 -2.9524253856
| 22> O -1.5238725484 -0.4629316343 0.5556639274
| 23> C -2.3098803589 -0.487453761 1.7651588816
| 24> C -2.2071604623 0.8162874209 2.5263975236
| 25> H 3.3753784458 1.8536666526 2.2245375438
| 26> H 2.7761772657 3.5095145942 2.032276891
| 27> H 2.0701514947 2.4451354138 3.2589866452
| 28> H 1.891821663 2.0081152406 0.2323913561
| 29> H 0.5797825706 2.652824915 1.2575725844
| 30> H 4.9810733666 -1.0967721151 1.4644511654
| 31> H 3.7101836786 -2.3008045776 1.826295184
| 32> H 4.3911202984 -1.3363421521 -0.9949254157
| 33> H 4.9954783176 -2.8391272596 -0.2736410431
| 34> H 3.2634606316 -2.6304316825 -0.5553719394
| 35> H 0.0015623913 -2.1965414275 -0.7334025659
| 36> H 0.5875142094 -2.1933367439 -2.4358743954
| 37> H -2.2064062092 3.0812753882 -1.3978571594
| 38> H -0.4950741191 3.4871709157 -1.0642881643
| 39> H 0.1613377395 2.03769553 -3.0334898967
| 40> H -1.5557600207 1.7875595599 -3.3846584695
| 41> H -0.8588278077 3.4093819783 -3.5055831179
| 42> H -3.3495523657 -0.6985071004 1.4966303773
| 43> H -1.8946098138 -1.3237163198 2.3307917974
| 44> H -2.780123891 0.7385648435 3.4449681209
| 45> H -1.1679467261 1.0277973226 2.7628136674
| 46> H -2.611254959 1.6269314744 1.9209726556
| 47> *
| 48>
| 49>                          ****END OF INPUT****

CARTESIAN COORDINATES (ANGSTROEM)
---------------------------------
  C      2.492960    2.486306    2.258790
  C      1.470855    2.022027    1.241520
  O      0.980195    0.698492    1.563061
  P      1.552028   -0.613400    0.898583
  S      0.793806   -2.259836    1.634569
  O      3.114910   -0.439071    1.171997
  C      4.043276   -1.534631    1.119392
  C      4.182469   -2.120121   -0.271216
  S      1.420913   -0.329017   -1.211954
  C      0.192690   -1.589792   -1.622009
  S     -1.377155   -0.933630   -2.272429
  P     -2.004176    0.352318   -0.722223
  S     -3.888358    0.872859   -0.801856
  O     -0.985815    1.580698   -0.677926
  C     -1.168493    2.747341   -1.499714
  C     -0.830708    2.476149   -2.952425
  O     -1.523873   -0.462932    0.555664
  C     -2.309880   -0.487454    1.765159
  C     -2.207160    0.816287    2.526398
  H      3.375378    1.853667    2.224538
  H      2.776177    3.509515    2.032277
  H      2.070151    2.445135    3.258987
  H      1.891822    2.008115    0.232391
  H      0.579783    2.652825    1.257573
  H      4.981073   -1.096772    1.464451
  H      3.710184   -2.300805    1.826295
  H      4.391120   -1.336342   -0.994925
  H      4.995478   -2.839127   -0.273641
  H      3.263461   -2.630432   -0.555372
  H      0.001562   -2.196541   -0.733403
  H      0.587514   -2.193337   -2.435874
  H     -2.206406    3.081275   -1.397857
  H     -0.495074    3.487171   -1.064288
  H      0.161338    2.037696   -3.033490
  H     -1.555760    1.787560   -3.384658
  H     -0.858828    3.409382   -3.505583
  H     -3.349552   -0.698507    1.496630
  H     -1.894610   -1.323716    2.330792
  H     -2.780124    0.738565    3.444968
  H     -1.167947    1.027797    2.762814
  H     -2.611255    1.626931    1.920973

 Total Charge           Charge          ....    0
 Multiplicity           Mult            ....    1
 Number of Electrons    NEL             ....  202
 Basis Dimension        Dim             ....  334

ORBITAL ENERGIES
----------------

  NO   OCC          E(Eh)            E(eV)
   0   2.0000     -88.047565     -2395.8961
   1   2.0000     -88.040365     -2395.7001
   2   2.0000     -87.993558     -2394.4264
   3   2.0000     -87.986371     -2394.2309
   4   2.0000     -76.432431     -2079.8322
   5   2.0000     -76.423605     -2079.5920
   6   2.0000     -18.797829      -511.5149
   7   2.0000     -18.796070      -511.4671
   8   2.0000     -18.789044      -511.2759
   9   2.0000     -18.785758      -511.1865
  10   2.0000      -9.960441      -271.0374
  11   2.0000      -9.957057      -270.9453
  12   2.0000      -9.956946      -270.9423
  13   2.0000      -9.951753      -270.8010
  14   2.0000      -9.940125      -270.4846
  15   2.0000      -9.889818      -269.1156
  16   2.0000      -9.888005      -269.0663
  17   2.0000      -9.882959      -268.9290
  18   2.0000      -9.871983      -268.6303
  19   2.0000      -7.692152      -209.3141
  20   2.0000      -7.685805      -209.1414
  21   2.0000      -7.638519      -207.8547
  22   2.0000      -7.631519      -207.6642
  23   2.0000      -6.429716      -174.9615
  24   2.0000      -6.421439      -174.7362
  25   2.0000      -5.720028      -155.6499
  26   2.0000      -5.716757      -155.5609
  27   2.0000      -5.714125      -155.4892
  28   2.0000      -5.709934      -155.3752
  29   2.0000      -5.709022      -155.3504
  30   2.0000      -5.702655      -155.1771
  31   2.0000      -5.667558      -154.2221
  32   2.0000      -5.660453      -154.0288
  33   2.0000      -5.659141      -153.9931
  34   2.0000      -5.658487      -153.9753
  35   2.0000      -5.652241      -153.8053
  36   2.0000      -5.651556      -153.7867
  37   2.0000      -4.652476      -126.6003
  38   2.0000      -4.651302      -126.5684
  39   2.0000      -4.650223      -126.5390
  40   2.0000      -4.643712      -126.3618
  41   2.0000      -4.643400      -126.3533
  42   2.0000      -4.641946      -126.3138
  43   2.0000      -0.993323       -27.0297
  44   2.0000      -0.982104       -26.7244
  45   2.0000      -0.948944       -25.8221
  46   2.0000      -0.941334       -25.6150
  47   2.0000      -0.763161       -20.7667
  48   2.0000      -0.722651       -19.6643
  49   2.0000      -0.708337       -19.2748
  50   2.0000      -0.694117       -18.8879
  51   2.0000      -0.683551       -18.6004
  52   2.0000      -0.674582       -18.3563
  53   2.0000      -0.655143       -17.8274
  54   2.0000      -0.640838       -17.4381
  55   2.0000      -0.601111       -16.3571
  56   2.0000      -0.594348       -16.1730
  57   2.0000      -0.579770       -15.7763
  58   2.0000      -0.564900       -15.3717
  59   2.0000      -0.563384       -15.3305
  60   2.0000      -0.506535       -13.7835
  61   2.0000      -0.489509       -13.3202
  62   2.0000      -0.478473       -13.0199
  63   2.0000      -0.468759       -12.7556
  64   2.0000      -0.455258       -12.3882
  65   2.0000      -0.450640       -12.2625
  66   2.0000      -0.444355       -12.0915
  67   2.0000      -0.438841       -11.9415
  68   2.0000      -0.430657       -11.7188
  69   2.0000      -0.416598       -11.3362
  70   2.0000      -0.411879       -11.2078
  71   2.0000      -0.397338       -10.8121
  72   2.0000      -0.395245       -10.7552
  73   2.0000      -0.388167       -10.5626
  74   2.0000      -0.383597       -10.4382
  75   2.0000      -0.372523       -10.1369
  76   2.0000      -0.365101        -9.9349
  77   2.0000      -0.361640        -9.8407
  78   2.0000      -0.356746        -9.7076
  79   2.0000      -0.352687        -9.5971
  80   2.0000      -0.350246        -9.5307
  81   2.0000      -0.344835        -9.3834
  82   2.0000      -0.340481        -9.2650
  83   2.0000      -0.337433        -9.1820
  84   2.0000      -0.325649        -8.8614
  85   2.0000      -0.318945        -8.6789
  86   2.0000      -0.317416        -8.6373
  87   2.0000      -0.303344        -8.2544
  88   2.0000      -0.298467        -8.1217
  89   2.0000      -0.294926        -8.0253
  90   2.0000      -0.282705        -7.6928
  91   2.0000      -0.274154        -7.4601
  92   2.0000      -0.269067        -7.3217
  93   2.0000      -0.262805        -7.1513
  94   2.0000      -0.260006        -7.0751
  95   2.0000      -0.227938        -6.2025
  96   2.0000      -0.222985        -6.0677
  97   2.0000      -0.213841        -5.8189
  98   2.0000      -0.208647        -5.6776
  99   2.0000      -0.203781        -5.5451
 100   2.0000      -0.198591        -5.4039
 101   0.0000      -0.043298        -1.1782
 102   0.0000      -0.034026        -0.9259
 103   0.0000      -0.021156        -0.5757
 104   0.0000       0.001270         0.0345
 105   0.0000       0.009784         0.2662

MULLIKEN ATOMIC CHARGES
-----------------------
   0 C :   -0.280815
   1 C :   -0.025833
   2 O :   -0.355284
   3 P :    0.620844
   4 S :   -0.299245
   5 O :   -0.384825
   6 C :    0.000761
   7 C :   -0.312196
   8 S :   -0.109892
   9 C :   -0.342583
  10 S :   -0.088396
  11 P :    0.621822
  12 S :   -0.322195
  13 O :   -0.367149
  14 C :   -0.009541
  15 C :   -0.310783
  16 O :   -0.377728
  17 C :   -0.004776
  18 C :   -0.318424
  19 H :    0.122450
  20 H :    0.108458
  21 H :    0.118898
  22 H :    0.106057
  23 H :    0.120795
  24 H :    0.103985
  25 H :    0.112946
  26 H :    0.118081
  27 H :    0.113766
  28 H :    0.120153
  29 H :    0.203483
  30 H :    0.180664
  31 H :    0.111354
  32 H :    0.096911
  33 H :    0.117185
  34 H :    0.126630
  35 H :    0.110144
  36 H :    0.110898
  37 H :    0.112430
  38 H :    0.106779
  39 H :    0.131156
  40 H :    0.113016
Sum of atomic charges:    0.0000000

LOEWDIN ATOMIC CHARGES
----------------------
   0 C :   -0.359191
   1 C :   -0.114813
   2 O :   -0.226006
   3 P :    0.583572
   4 S :   -0.283759
   5 O :   -0.251291
   6 C :   -0.117519
   7 C :   -0.370786
   8 S :    0.082478
   9 C :   -0.481507
  10 S :    0.085029
  11 P :    0.568497
  12 S :   -0.315686
  13 O :   -0.242571
  14 C :   -0.121504
  15 C :   -0.368522
  16 O :   -0.241888
  17 C :   -0.119562
  18 C :   -0.369462
  19 H :    0.126573
  20 H :    0.129311
  21 H :    0.128696
  22 H :    0.104374
  23 H :    0.120191
  24 H :    0.117908
  25 H :    0.112107
  26 H :    0.123126
  27 H :    0.131030
  28 H :    0.119278
  29 H :    0.125220
  30 H :    0.138115
  31 H :    0.109174
  32 H :    0.111898
  33 H :    0.121272
  34 H :    0.121157
  35 H :    0.129172
  36 H :    0.109051
  37 H :    0.114837
  38 H :    0.128776
  39 H :    0.125636
  40 H :    0.117588

  Mayer bond orders larger than 0.100000
B(  0-C ,  1-C ) :   1.1605 B(  0-C , 19-H ) :   0.9394 B(  0-C , 20-H ) :   0.9397
B(  0-C , 21-H ) :   0.9473 B(  1-C ,  2-O ) :   0.8829 B(  1-C , 22-H ) :   0.9165
B(  1-C , 23-H ) :   0.9260 B(  2-O ,  3-P ) :   1.1297 B(  3-P ,  4-S ) :   1.6094
B(  3-P ,  5-O ) :   1.0712 B(  3-P ,  8-S ) :   0.9583 B(  4-S ,  8-S ) :   0.1142
B(  4-S , 29-H ) :   0.1092 B(  5-O ,  6-C ) :   0.9120 B(  6-C ,  7-C ) :   1.1669
B(  6-C , 24-H ) :   0.9339 B(  6-C , 25-H ) :   0.9182 B(  7-C , 26-H ) :   0.9420
B(  7-C , 27-H ) :   0.9368 B(  7-C , 28-H ) :   0.9387 B(  8-S ,  9-C ) :   1.0118
B(  9-C , 10-S ) :   0.9820 B(  9-C , 29-H ) :   0.8504 B(  9-C , 30-H ) :   0.9095
B( 10-S , 11-P ) :   0.9818 B( 11-P , 12-S ) :   1.6329 B( 11-P , 13-O ) :   1.0740
B( 11-P , 16-O ) :   1.1091 B( 13-O , 14-C ) :   0.9165 B( 14-C , 15-C ) :   1.1659
B( 14-C , 31-H ) :   0.9125 B( 14-C , 32-H ) :   0.9295 B( 15-C , 33-H ) :   0.9433
B( 15-C , 34-H ) :   0.9374 B( 15-C , 35-H ) :   0.9385 B( 16-O , 17-C ) :   0.8899
B( 17-C , 18-C ) :   1.1672 B( 17-C , 36-H ) :   0.9177 B( 17-C , 37-H ) :   0.9185
B( 18-C , 38-H ) :   0.9383 B( 18-C , 39-H ) :   0.9336 B( 18-C , 40-H ) :   0.9353

Dispersion correction           -0.070093945
FINAL SINGLE POINT ENERGY     -2929.518135700251

DIPOLE MOMENT
-------------

Method             : SCF
Type of density    : Electron Density
Multiplicity       :   1
Irrep              :   0
Energy             : -2929.6383202215001802 Eh
Relativity type    :
Basis              : AO
                                X                 Y                 Z
Electronic contribution:    -13.514155003     -11.791917624      -6.385254776
Nuclear contribution   :     15.400340386      12.573566904       6.406489553
                        -----------------------------------------
Total Dipole Moment    :      1.886185383       0.781649280       0.021234778
                        -----------------------------------------
Magnitude (a.u.)       :      2.041842749
Magnitude (Debye)      :      5.189951815

Rotational constants in cm-1:             0.011731             0.005969             0.005767
Rotational constants in MHz :           351.672910           178.951444           172.886120

                             ****ORCA TERMINATED NORMALLY****
TOTAL RUN TIME: 0 days 0 hours 0 minutes 23 seconds 491 msec
