                         Program Version 6.0.0  -   RELEASE  -
|  1> ! pbe def2-sv(p) def2/J RI DEFGRID1 loosescf d4 GCP(DFT/SV(P)) printgap
|  2> %output
|  3>     printlevel normal
|  4> end
|  5> * xyz 0 1
|  6> C 3.7705813302 -1.1206922381 -2.0442674459
|  7> C 2.7215006985 -0.0481560988 -2.2483711436
|  8> O 2.4558576132 0.7134593568 -1.0469543846
|  9> P 1.9803115771 0.129263325 0.3466935717
| 10> S 1.1205916694 1.5157267203 1.4309762904
| 11> O 3.2898057823 -0.4569332495 1.0619721602
| 12> C 4.3107703576 0.431695203 1.5534654952
| 13> C 5.3762617085 -0.414709073 2.2189087284
| 14> S 1.0027445033 -1.706545343 0.0568623372
| 15> C -0.3305155271 -1.5172423531 1.2846692124
| 16> S -1.98994423 -1.570915997 0.5632333304
| 17> P -2.0438780793 0.3220089886 -0.4094487904
| 18> S -0.6866600697 0.7282257788 -1.7597980513
| 19> O -2.0414782254 1.3842230948 0.7520671574
| 20> C -2.9389669238 1.3795001014 1.8890775062
| 21> C -4.1668543776 2.2228540867 1.615373672
| 22> O -3.5351599824 0.371538493 -0.9546038734
| 23> C -3.9073330877 -0.146644305 -2.2454598862
| 24> C -3.7268724598 -1.6476006915 -2.3368308052
| 25> H 4.6973585225 -0.6815876313 -1.6827552547
| 26> H 3.4222949111 -1.8601111019 -1.3244119981
| 27> H 3.9553914423 -1.6139898782 -2.9933722963
| 28> H 1.77451722 -0.4733278511 -2.5915917819
| 29> H 3.0502872218 0.714947657 -2.9557198557
| 30> H 4.7143728805 1.0040296699 0.7118684949
| 31> H 3.8492894339 1.1307600574 2.2592731083
| 32> H 6.1573014604 0.2329507529 2.6034688191
| 33> H 4.9400208994 -0.9796558678 3.0373051639
| 34> H 5.8022481534 -1.1092734368 1.5008239792
| 35> H -0.1829052593 -0.5687160372 1.8092838595
| 36> H -0.2786649239 -2.3625991035 1.965526633
| 37> H -3.2141900246 0.3464031254 2.1200012662
| 38> H -2.3375970583 1.7967627514 2.6997393264
| 39> H -4.7714570626 2.2672865069 2.5158368019
| 40> H -3.8707941737 3.229251032 1.331794963
| 41> H -4.7516280593 1.7877115247 0.8094927485
| 42> H -4.9543814135 0.1417858501 -2.3477206823
| 43> H -3.3046431904 0.3606901098 -3.0049211261
| 44> H -4.2322588297 -2.1416829184 -1.5107907688
| 45> H -4.1388363289 -2.0006506871 -3.2767283457
| 46> H -2.6673140443 -1.8971302499 -2.3010900774
| 47> *
| 48>
| 49>                          ****END OF INPUT****

CARTESIAN COORDINATES (ANGSTROEM)
---------------------------------
  C      3.770581   -1.120692   -2.044267
  C      2.721501   -0.048156   -2.248371
  O      2.455858    0.713459   -1.046954
  P      1.980312    0.129263    0.346694
  S      1.120592    1.515727    1.430976
  O      3.289806   -0.456933    1.061972
  C      4.310770    0.431695    1.553465
  C      5.376262   -0.414709    2.218909
  S      1.002745   -1.706545    0.056862
  C     -0.330516   -1.517242    1.284669
  S     -1.989944   -1.570916    0.563233
  P     -2.043878    0.322009   -0.409449
  S     -0.686660    0.728226   -1.759798
  O     -2.041478    1.384223    0.752067
  C     -2.938967    1.379500    1.889078
  C     -4.166854    2.222854    1.615374
  O     -3.535160    0.371538   -0.954604
  C     -3.907333   -0.146644   -2.245460
  C     -3.726872   -1.647601   -2.336831
  H      4.697359   -0.681588   -1.682755
  H      3.422295   -1.860111   -1.324412
  H      3.955391   -1.613990   -2.993372
  H      1.774517   -0.473328   -2.591592
  H      3.050287    0.714948   -2.955720
  H      4.714373    1.004030    0.711868
  H      3.849289    1.130760    2.259273
  H      6.157301    0.232951    2.603469
  H      4.940021   -0.979656    3.037305
  H      5.802248   -1.109273    1.500824
  H     -0.182905   -0.568716    1.809284
  H     -0.278665   -2.362599    1.965527
  H     -3.214190    0.346403    2.120001
  H     -2.337597    1.796763    2.699739
  H     -4.771457    2.267287    2.515837
  H     -3.870794    3.229251    1.331795
  H     -4.751628    1.787712    0.809493
  H     -4.954381    0.141786   -2.347721
  H     -3.304643    0.360690   -3.004921
  H     -4.232259   -2.141683   -1.510791
  H     -4.138836   -2.000651   -3.276728
  H     -2.667314   -1.897130   -2.301090

 Total Charge           Charge          ....    0
 Multiplicity           Mult            ....    1
 Number of Electrons    NEL             ....  202
 Basis Dimension        Dim             ....  334

ORBITAL ENERGIES
----------------

  NO   OCC          E(Eh)            E(eV)
   0   2.0000     -88.042370     -2395.7547
   1   2.0000     -88.038933     -2395.6612
   2   2.0000     -87.978206     -2394.0087
   3   2.0000     -87.973588     -2393.8830
   4   2.0000     -76.422004     -2079.5485
   5   2.0000     -76.416149     -2079.3891
   6   2.0000     -18.790735      -511.3219
   7   2.0000     -18.784712      -511.1580
   8   2.0000     -18.784702      -511.1577
   9   2.0000     -18.776243      -510.9275
  10   2.0000      -9.955615      -270.9061
  11   2.0000      -9.952113      -270.8108
  12   2.0000      -9.950851      -270.7764
  13   2.0000      -9.950074      -270.7553
  14   2.0000      -9.942805      -270.5575
  15   2.0000      -9.888226      -269.0723
  16   2.0000      -9.884125      -268.9607
  17   2.0000      -9.882773      -268.9239
  18   2.0000      -9.881777      -268.8968
  19   2.0000      -7.687288      -209.1817
  20   2.0000      -7.684290      -209.1002
  21   2.0000      -7.623119      -207.4356
  22   2.0000      -7.618892      -207.3206
  23   2.0000      -6.419388      -174.6804
  24   2.0000      -6.413994      -174.5336
  25   2.0000      -5.714947      -155.5116
  26   2.0000      -5.712200      -155.4369
  27   2.0000      -5.711722      -155.4238
  28   2.0000      -5.708980      -155.3492
  29   2.0000      -5.704558      -155.2289
  30   2.0000      -5.700946      -155.1306
  31   2.0000      -5.652104      -153.8016
  32   2.0000      -5.647930      -153.6880
  33   2.0000      -5.643610      -153.5704
  34   2.0000      -5.643332      -153.5629
  35   2.0000      -5.639997      -153.4721
  36   2.0000      -5.638331      -153.4268
  37   2.0000      -4.642385      -126.3257
  38   2.0000      -4.641222      -126.2941
  39   2.0000      -4.639429      -126.2453
  40   2.0000      -4.636868      -126.1756
  41   2.0000      -4.635632      -126.1420
  42   2.0000      -4.634273      -126.1050
  43   2.0000      -0.984114       -26.7791
  44   2.0000      -0.974206       -26.5095
  45   2.0000      -0.942045       -25.6343
  46   2.0000      -0.933277       -25.3958
  47   2.0000      -0.760700       -20.6997
  48   2.0000      -0.717176       -19.5153
  49   2.0000      -0.707492       -19.2518
  50   2.0000      -0.689362       -18.7585
  51   2.0000      -0.688153       -18.7256
  52   2.0000      -0.672049       -18.2874
  53   2.0000      -0.646464       -17.5912
  54   2.0000      -0.630251       -17.1500
  55   2.0000      -0.594411       -16.1747
  56   2.0000      -0.584646       -15.9090
  57   2.0000      -0.574570       -15.6348
  58   2.0000      -0.569064       -15.4850
  59   2.0000      -0.554095       -15.0777
  60   2.0000      -0.498622       -13.5682
  61   2.0000      -0.494332       -13.4515
  62   2.0000      -0.472181       -12.8487
  63   2.0000      -0.471232       -12.8229
  64   2.0000      -0.447795       -12.1851
  65   2.0000      -0.446029       -12.1371
  66   2.0000      -0.440532       -11.9875
  67   2.0000      -0.430776       -11.7220
  68   2.0000      -0.426538       -11.6067
  69   2.0000      -0.420792       -11.4503
  70   2.0000      -0.404908       -11.0181
  71   2.0000      -0.400124       -10.8879
  72   2.0000      -0.388964       -10.5843
  73   2.0000      -0.379722       -10.3328
  74   2.0000      -0.375129       -10.2078
  75   2.0000      -0.362864        -9.8740
  76   2.0000      -0.359619        -9.7857
  77   2.0000      -0.355849        -9.6831
  78   2.0000      -0.353285        -9.6134
  79   2.0000      -0.350584        -9.5399
  80   2.0000      -0.349497        -9.5103
  81   2.0000      -0.345044        -9.3891
  82   2.0000      -0.343521        -9.3477
  83   2.0000      -0.335306        -9.1241
  84   2.0000      -0.330822        -9.0021
  85   2.0000      -0.313385        -8.5276
  86   2.0000      -0.307396        -8.3647
  87   2.0000      -0.304503        -8.2860
  88   2.0000      -0.292389        -7.9563
  89   2.0000      -0.287381        -7.8200
  90   2.0000      -0.273594        -7.4449
  91   2.0000      -0.266434        -7.2500
  92   2.0000      -0.263912        -7.1814
  93   2.0000      -0.259403        -7.0587
  94   2.0000      -0.256334        -6.9752
  95   2.0000      -0.240628        -6.5478
  96   2.0000      -0.217754        -5.9254
  97   2.0000      -0.201307        -5.4778
  98   2.0000      -0.195431        -5.3180
  99   2.0000      -0.187073        -5.0905
 100   2.0000      -0.178944        -4.8693
 101   0.0000      -0.038882        -1.0580
 102   0.0000      -0.027816        -0.7569
 103   0.0000      -0.009192        -0.2501
 104   0.0000       0.003531         0.0961
 105   0.0000       0.028803         0.7838

MULLIKEN ATOMIC CHARGES
-----------------------
   0 C :   -0.324158
   1 C :   -0.012479
   2 O :   -0.371727
   3 P :    0.614702
   4 S :   -0.307593
   5 O :   -0.383142
   6 C :   -0.017445
   7 C :   -0.274031
   8 S :   -0.087198
   9 C :   -0.339595
  10 S :   -0.111731
  11 P :    0.608603
  12 S :   -0.304341
  13 O :   -0.340536
  14 C :   -0.014512
  15 C :   -0.290370
  16 O :   -0.381255
  17 C :    0.001764
  18 C :   -0.325783
  19 H :    0.118077
  20 H :    0.134227
  21 H :    0.115733
  22 H :    0.127285
  23 H :    0.110534
  24 H :    0.096265
  25 H :    0.104790
  26 H :    0.108535
  27 H :    0.116883
  28 H :    0.111366
  29 H :    0.191325
  30 H :    0.183804
  31 H :    0.097890
  32 H :    0.111798
  33 H :    0.107355
  34 H :    0.121939
  35 H :    0.120688
  36 H :    0.103989
  37 H :    0.113155
  38 H :    0.118639
  39 H :    0.114584
  40 H :    0.131966
Sum of atomic charges:    0.0000000

LOEWDIN ATOMIC CHARGES
----------------------
   0 C :   -0.367942
   1 C :   -0.117321
   2 O :   -0.236555
   3 P :    0.570791
   4 S :   -0.300997
   5 O :   -0.264182
   6 C :   -0.124032
   7 C :   -0.350689
   8 S :    0.086327
   9 C :   -0.480158
  10 S :    0.074166
  11 P :    0.568273
  12 S :   -0.298890
  13 O :   -0.223310
  14 C :   -0.116635
  15 C :   -0.360050
  16 O :   -0.247548
  17 C :   -0.117661
  18 C :   -0.373540
  19 H :    0.125533
  20 H :    0.119534
  21 H :    0.132877
  22 H :    0.110875
  23 H :    0.123150
  24 H :    0.105035
  25 H :    0.107706
  26 H :    0.128874
  27 H :    0.127841
  28 H :    0.123836
  29 H :    0.122107
  30 H :    0.138564
  31 H :    0.100607
  32 H :    0.121392
  33 H :    0.128545
  34 H :    0.129710
  35 H :    0.125186
  36 H :    0.117952
  37 H :    0.112924
  38 H :    0.122795
  39 H :    0.132022
  40 H :    0.122890

  Mayer bond orders larger than 0.100000
B(  0-C ,  1-C ) :   1.1605 B(  0-C , 19-H ) :   0.9436 B(  0-C , 20-H ) :   0.9350
B(  0-C , 21-H ) :   0.9361 B(  1-C ,  2-O ) :   0.9037 B(  1-C , 22-H ) :   0.9142
B(  1-C , 23-H ) :   0.9357 B(  2-O ,  3-P ) :   1.1183 B(  3-P ,  4-S ) :   1.6260
B(  3-P ,  5-O ) :   1.0705 B(  3-P ,  8-S ) :   0.9591 B(  4-S ,  8-S ) :   0.1122
B(  4-S , 29-H ) :   0.1208 B(  5-O ,  6-C ) :   0.9149 B(  6-C ,  7-C ) :   1.1568
B(  6-C , 24-H ) :   0.9239 B(  6-C , 25-H ) :   0.9148 B(  7-C , 26-H ) :   0.9428
B(  7-C , 27-H ) :   0.9502 B(  7-C , 28-H ) :   0.9520 B(  8-S ,  9-C ) :   1.0053
B(  9-C , 10-S ) :   0.9892 B(  9-C , 29-H ) :   0.8477 B(  9-C , 30-H ) :   0.9117
B( 10-S , 11-P ) :   0.9476 B( 10-S , 12-S ) :   0.1137 B( 11-P , 12-S ) :   1.6451
B( 11-P , 13-O ) :   1.1461 B( 11-P , 16-O ) :   1.0808 B( 13-O , 14-C ) :   0.8985
B( 14-C , 15-C ) :   1.1669 B( 14-C , 31-H ) :   0.9074 B( 14-C , 32-H ) :   0.9322
B( 15-C , 33-H ) :   0.9395 B( 15-C , 34-H ) :   0.9474 B( 15-C , 35-H ) :   0.9413
B( 16-O , 17-C ) :   0.9051 B( 17-C , 18-C ) :   1.1657 B( 17-C , 36-H ) :   0.9336
B( 17-C , 37-H ) :   0.9166 B( 18-C , 38-H ) :   0.9425 B( 18-C , 39-H ) :   0.9370
B( 18-C , 40-H ) :   0.9326

Dispersion correction           -0.066730952
FINAL SINGLE POINT ENERGY     -2929.509471967493

DIPOLE MOMENT
-------------

Method             : SCF
Type of density    : Electron Density
Multiplicity       :   1
Irrep              :   0
Energy             : -2929.6278230460893610 Eh
Relativity type    :
Basis              : AO
                                X                 Y                 Z
Electronic contribution:     -3.691952001       2.005716814       0.529258679
Nuclear contribution   :      3.507534564      -2.854179063      -0.541200546
                        -----------------------------------------
Total Dipole Moment    :     -0.184417437      -0.848462250      -0.011941867
                        -----------------------------------------
Magnitude (a.u.)       :      0.868355105
Magnitude (Debye)      :      2.207183269

Rotational constants in cm-1:             0.013424             0.005069             0.004534
Rotational constants in MHz :           402.435609           151.952509           135.923367

                             ****ORCA TERMINATED NORMALLY****
TOTAL RUN TIME: 0 days 0 hours 0 minutes 20 seconds 803 msec
