                         Program Version 6.0.0  -   RELEASE  -
|  1> ! r2scan-3c def2/J RI DEFGRID2 scfconv6 printgap
|  2> %output
|  3>     printlevel normal
|  4> end
|  5> * xyz 0 1
|  6> C 0.8364933499 -1.6671369256 2.3584647873
|  7> C 1.9245312419 -2.0389077099 1.3701293001
|  8> O 2.7279161003 -0.8862358776 1.0544425971
|  9> P 2.7496247963 -0.1903891577 -0.3792807499
| 10> S 2.9068092501 -1.4275733381 -1.884258954
| 11> O 3.982483726 0.7764133207 -0.2678198928
| 12> C 4.0810921881 1.8999870533 0.6435916484
| 13> C 4.6309687017 1.4771193987 1.9899017643
| 14> S 1.0693870051 1.1424593635 -0.4476169028
| 15> C 0.0701613062 0.2325254838 -1.6467013578
| 16> S -0.9039044019 -1.1021813799 -0.9013733877
| 17> P -2.3707296625 0.1577774525 -0.0489023386
| 18> S -3.0272498034 1.6346472485 -1.1678778826
| 19> O -1.6188511967 0.5796957635 1.2793309759
| 20> C -1.9600884291 1.773346778 2.0136747394
| 21> C -3.3062021614 1.6431591231 2.6940906238
| 22> O -3.48355167 -0.8309015878 0.5018417394
| 23> C -4.6070318587 -1.2511955627 -0.2905885505
| 24> C -4.1921721675 -2.1577905279 -1.4314896676
| 25> H 1.2772580382 -1.2497170978 3.2592683421
| 26> H 0.1575032115 -0.9355057906 1.9275184376
| 27> H 0.2723310319 -2.5582383669 2.6139603039
| 28> H 1.5053393765 -2.4541565962 0.4476427698
| 29> H 2.6179760985 -2.7630741577 1.8029395696
| 30> H 4.7579359015 2.5888168434 0.1351351944
| 31> H 3.0934197448 2.3589431779 0.7421523724
| 32> H 4.7655560131 2.3588764583 2.6087207058
| 33> H 3.9455887298 0.7934657314 2.4825383228
| 34> H 5.5884529922 0.9799159738 1.8607743513
| 35> H 0.7269697967 -0.2301130775 -2.3845841972
| 36> H -0.605680389 0.9533451401 -2.1077906836
| 37> H -1.1476376899 1.879801383 2.7333427936
| 38> H -1.9533074898 2.6202656143 1.3200637706
| 39> H -3.4816788575 2.5152837484 3.316045597
| 40> H -4.0943034362 1.5787791364 1.9448181463
| 41> H -3.3313902494 0.7470581153 3.3083403372
| 42> H -5.2511721485 -1.7688009336 0.4214444767
| 43> H -5.1142567602 -0.3597095435 -0.6736138337
| 44> H -3.5947264398 -2.985877391 -1.0583597692
| 45> H -5.0780040861 -2.5449529697 -1.9247861996
| 46> H -3.6007938298 -1.599873814 -2.1566615692
| 47> *
| 48>
| 49>                          ****END OF INPUT****

CARTESIAN COORDINATES (ANGSTROEM)
---------------------------------
  C      0.836493   -1.667137    2.358465
  C      1.924531   -2.038908    1.370129
  O      2.727916   -0.886236    1.054443
  P      2.749625   -0.190389   -0.379281
  S      2.906809   -1.427573   -1.884259
  O      3.982484    0.776413   -0.267820
  C      4.081092    1.899987    0.643592
  C      4.630969    1.477119    1.989902
  S      1.069387    1.142459   -0.447617
  C      0.070161    0.232525   -1.646701
  S     -0.903904   -1.102181   -0.901373
  P     -2.370730    0.157777   -0.048902
  S     -3.027250    1.634647   -1.167878
  O     -1.618851    0.579696    1.279331
  C     -1.960088    1.773347    2.013675
  C     -3.306202    1.643159    2.694091
  O     -3.483552   -0.830902    0.501842
  C     -4.607032   -1.251196   -0.290589
  C     -4.192172   -2.157791   -1.431490
  H      1.277258   -1.249717    3.259268
  H      0.157503   -0.935506    1.927518
  H      0.272331   -2.558238    2.613960
  H      1.505339   -2.454157    0.447643
  H      2.617976   -2.763074    1.802940
  H      4.757936    2.588817    0.135135
  H      3.093420    2.358943    0.742152
  H      4.765556    2.358876    2.608721
  H      3.945589    0.793466    2.482538
  H      5.588453    0.979916    1.860774
  H      0.726970   -0.230113   -2.384584
  H     -0.605680    0.953345   -2.107791
  H     -1.147638    1.879801    2.733343
  H     -1.953307    2.620266    1.320064
  H     -3.481679    2.515284    3.316046
  H     -4.094303    1.578779    1.944818
  H     -3.331390    0.747058    3.308340
  H     -5.251172   -1.768801    0.421444
  H     -5.114257   -0.359710   -0.673614
  H     -3.594726   -2.985877   -1.058360
  H     -5.078004   -2.544953   -1.924786
  H     -3.600794   -1.599874   -2.156662

 Total Charge           Charge          ....    0
 Multiplicity           Mult            ....    1
 Number of Electrons    NEL             ....  202
 Basis Dimension        Dim             ....  539

ORBITAL ENERGIES
----------------

  NO   OCC          E(Eh)            E(eV)
   0   2.0000     -88.577782     -2410.3240
   1   2.0000     -88.573454     -2410.2062
   2   2.0000     -88.526452     -2408.9272
   3   2.0000     -88.519937     -2408.7499
   4   2.0000     -76.918603     -2093.0616
   5   2.0000     -76.914354     -2092.9460
   6   2.0000     -18.999443      -517.0011
   7   2.0000     -18.994764      -516.8738
   8   2.0000     -18.993618      -516.8426
   9   2.0000     -18.988581      -516.7056
  10   2.0000     -10.107983      -275.0522
  11   2.0000     -10.103833      -274.9393
  12   2.0000     -10.102406      -274.9004
  13   2.0000     -10.101641      -274.8796
  14   2.0000     -10.094538      -274.6863
  15   2.0000     -10.033866      -273.0354
  16   2.0000     -10.033162      -273.0162
  17   2.0000     -10.032506      -272.9984
  18   2.0000     -10.022720      -272.7321
  19   2.0000      -7.872153      -214.2122
  20   2.0000      -7.867728      -214.0918
  21   2.0000      -7.821117      -212.8234
  22   2.0000      -7.814774      -212.6508
  23   2.0000      -6.597276      -179.5210
  24   2.0000      -6.592652      -179.3952
  25   2.0000      -5.818952      -158.3417
  26   2.0000      -5.816074      -158.2634
  27   2.0000      -5.814555      -158.2221
  28   2.0000      -5.811602      -158.1417
  29   2.0000      -5.809274      -158.0784
  30   2.0000      -5.804882      -157.9589
  31   2.0000      -5.768670      -156.9735
  32   2.0000      -5.762477      -156.8050
  33   2.0000      -5.761434      -156.7766
  34   2.0000      -5.761199      -156.7702
  35   2.0000      -5.755102      -156.6043
  36   2.0000      -5.754648      -156.5919
  37   2.0000      -4.742699      -129.0554
  38   2.0000      -4.742161      -129.0408
  39   2.0000      -4.741085      -129.0115
  40   2.0000      -4.738420      -128.9390
  41   2.0000      -4.737475      -128.9133
  42   2.0000      -4.736252      -128.8800
  43   2.0000      -1.056121       -28.7385
  44   2.0000      -1.050344       -28.5813
  45   2.0000      -1.017624       -27.6910
  46   2.0000      -1.009571       -27.4718
  47   2.0000      -0.801749       -21.8167
  48   2.0000      -0.761875       -20.7317
  49   2.0000      -0.753108       -20.4931
  50   2.0000      -0.736172       -20.0323
  51   2.0000      -0.733118       -19.9491
  52   2.0000      -0.713381       -19.4121
  53   2.0000      -0.686575       -18.6827
  54   2.0000      -0.670532       -18.2461
  55   2.0000      -0.637390       -17.3443
  56   2.0000      -0.624641       -16.9974
  57   2.0000      -0.610544       -16.6137
  58   2.0000      -0.606896       -16.5145
  59   2.0000      -0.590861       -16.0781
  60   2.0000      -0.529690       -14.4136
  61   2.0000      -0.521093       -14.1797
  62   2.0000      -0.500568       -13.6211
  63   2.0000      -0.498357       -13.5610
  64   2.0000      -0.477965       -13.0061
  65   2.0000      -0.465679       -12.6718
  66   2.0000      -0.463245       -12.6055
  67   2.0000      -0.459878       -12.5139
  68   2.0000      -0.445471       -12.1219
  69   2.0000      -0.438364       -11.9285
  70   2.0000      -0.421785       -11.4774
  71   2.0000      -0.415374       -11.3029
  72   2.0000      -0.412302       -11.2193
  73   2.0000      -0.406503       -11.0615
  74   2.0000      -0.402223       -10.9451
  75   2.0000      -0.392511       -10.6808
  76   2.0000      -0.382189       -10.3999
  77   2.0000      -0.375719       -10.2238
  78   2.0000      -0.372604       -10.1391
  79   2.0000      -0.368911       -10.0386
  80   2.0000      -0.367597       -10.0028
  81   2.0000      -0.362543        -9.8653
  82   2.0000      -0.360450        -9.8083
  83   2.0000      -0.355012        -9.6604
  84   2.0000      -0.346722        -9.4348
  85   2.0000      -0.337192        -9.1755
  86   2.0000      -0.330400        -8.9906
  87   2.0000      -0.314853        -8.5676
  88   2.0000      -0.308717        -8.4006
  89   2.0000      -0.304788        -8.2937
  90   2.0000      -0.302615        -8.2346
  91   2.0000      -0.294793        -8.0217
  92   2.0000      -0.292365        -7.9557
  93   2.0000      -0.284324        -7.7369
  94   2.0000      -0.271303        -7.3825
  95   2.0000      -0.247277        -6.7287
  96   2.0000      -0.232064        -6.3148
  97   2.0000      -0.229347        -6.2408
  98   2.0000      -0.219573        -5.9749
  99   2.0000      -0.218682        -5.9506
 100   2.0000      -0.213757        -5.8166
 101   0.0000      -0.047860        -1.3023
 102   0.0000      -0.029599        -0.8054
 103   0.0000      -0.009180        -0.2498
 104   0.0000      -0.001380        -0.0376
 105   0.0000       0.014075         0.3830

MULLIKEN ATOMIC CHARGES
-----------------------
   0 C :   -0.453364
   1 C :   -0.132237
   2 O :   -0.254162
   3 P :    0.642021
   4 S :   -0.443999
   5 O :   -0.283966
   6 C :   -0.126713
   7 C :   -0.436292
   8 S :   -0.164304
   9 C :   -0.243025
  10 S :   -0.118876
  11 P :    0.666483
  12 S :   -0.479789
  13 O :   -0.266986
  14 C :   -0.149678
  15 C :   -0.441009
  16 O :   -0.308680
  17 C :   -0.147706
  18 C :   -0.456713
  19 H :    0.143325
  20 H :    0.181991
  21 H :    0.145014
  22 H :    0.164936
  23 H :    0.150273
  24 H :    0.156985
  25 H :    0.146229
  26 H :    0.146480
  27 H :    0.164683
  28 H :    0.157810
  29 H :    0.222529
  30 H :    0.216412
  31 H :    0.152402
  32 H :    0.172855
  33 H :    0.147815
  34 H :    0.166247
  35 H :    0.156846
  36 H :    0.149216
  37 H :    0.171153
  38 H :    0.156869
  39 H :    0.149512
  40 H :    0.179412
Sum of atomic charges:    0.0000000

LOEWDIN ATOMIC CHARGES
----------------------
   0 C :   -0.404421
   1 C :    0.018510
   2 O :   -0.673115
   3 P :    0.390946
   4 S :   -0.101406
   5 O :   -0.647695
   6 C :    0.028809
   7 C :   -0.394209
   8 S :    0.132236
   9 C :   -0.426033
  10 S :    0.165901
  11 P :    0.376251
  12 S :   -0.134171
  13 O :   -0.691082
  14 C :    0.019229
  15 C :   -0.397859
  16 O :   -0.659041
  17 C :    0.021242
  18 C :   -0.405603
  19 H :    0.154517
  20 H :    0.177945
  21 H :    0.160366
  22 H :    0.180287
  23 H :    0.176601
  24 H :    0.183245
  25 H :    0.174621
  26 H :    0.158400
  27 H :    0.167862
  28 H :    0.163284
  29 H :    0.196669
  30 H :    0.193259
  31 H :    0.180290
  32 H :    0.181134
  33 H :    0.159885
  34 H :    0.164539
  35 H :    0.161158
  36 H :    0.180063
  37 H :    0.179770
  38 H :    0.160572
  39 H :    0.160409
  40 H :    0.166638

  Mayer bond orders larger than 0.100000
B(  0-C ,  1-C ) :   0.9456 B(  0-C , 19-H ) :   0.9736 B(  0-C , 20-H ) :   0.9502
B(  0-C , 21-H ) :   0.9678 B(  1-C ,  2-O ) :   0.7522 B(  1-C , 22-H ) :   0.9564
B(  1-C , 23-H ) :   0.9653 B(  2-O ,  3-P ) :   1.0392 B(  3-P ,  4-S ) :   1.8440
B(  3-P ,  5-O ) :   1.2058 B(  3-P ,  8-S ) :   0.9804 B(  5-O ,  6-C ) :   0.7636
B(  6-C ,  7-C ) :   0.9497 B(  6-C , 24-H ) :   0.9639 B(  6-C , 25-H ) :   0.9615
B(  7-C , 26-H ) :   0.9659 B(  7-C , 27-H ) :   0.9601 B(  7-C , 28-H ) :   0.9698
B(  8-S ,  9-C ) :   0.9306 B(  9-C , 10-S ) :   0.8977 B(  9-C , 29-H ) :   0.8962
B(  9-C , 30-H ) :   0.9051 B( 10-S , 11-P ) :   1.0929 B( 11-P , 12-S ) :   1.7645
B( 11-P , 13-O ) :   1.1231 B( 11-P , 16-O ) :   1.0738 B( 13-O , 14-C ) :   0.7872
B( 14-C , 15-C ) :   0.9259 B( 14-C , 31-H ) :   0.9621 B( 14-C , 32-H ) :   0.9614
B( 15-C , 33-H ) :   0.9623 B( 15-C , 34-H ) :   0.9598 B( 15-C , 35-H ) :   0.9724
B( 16-O , 17-C ) :   0.8102 B( 17-C , 18-C ) :   0.9236 B( 17-C , 36-H ) :   0.9581
B( 17-C , 37-H ) :   0.9650 B( 18-C , 38-H ) :   0.9693 B( 18-C , 39-H ) :   0.9577
B( 18-C , 40-H ) :   0.9609

Dispersion correction           -0.021311345
FINAL SINGLE POINT ENERGY     -2932.461099564047

DIPOLE MOMENT
-------------

Method             : SCF
Type of density    : Electron Density
Multiplicity       :   1
Irrep              :   0
Energy             : -2932.4866283503388331 Eh
Relativity type    :
Basis              : AO
                                X                 Y                 Z
Electronic contribution:      7.587733082       0.270247029     -18.062211975
Nuclear contribution   :     -8.332355872      -0.054170650      19.892093053
                        -----------------------------------------
Total Dipole Moment    :     -0.744622790       0.216076379       1.829881078
                        -----------------------------------------
Magnitude (a.u.)       :      1.987364300
Magnitude (Debye)      :      5.051478603

Rotational constants in cm-1:             0.012661             0.004716             0.004335
Rotational constants in MHz :           379.561213           141.377864           129.953851

                             ****ORCA TERMINATED NORMALLY****
TOTAL RUN TIME: 0 days 0 hours 1 minutes 19 seconds 486 msec
