                         Program Version 6.0.0  -   RELEASE  -
|  1> ! r2scan-3c def2/J RI DEFGRID2 scfconv6 printgap
|  2> %output
|  3>     printlevel normal
|  4> end
|  5> %cpcm
|  6>     smd true
|  7>     smdsolvent "water"
|  8> end
|  9> * xyz 0 1
| 10> C 0.8364933499 -1.6671369256 2.3584647873
| 11> C 1.9245312419 -2.0389077099 1.3701293001
| 12> O 2.7279161003 -0.8862358776 1.0544425971
| 13> P 2.7496247963 -0.1903891577 -0.3792807499
| 14> S 2.9068092501 -1.4275733381 -1.884258954
| 15> O 3.982483726 0.7764133207 -0.2678198928
| 16> C 4.0810921881 1.8999870533 0.6435916484
| 17> C 4.6309687017 1.4771193987 1.9899017643
| 18> S 1.0693870051 1.1424593635 -0.4476169028
| 19> C 0.0701613062 0.2325254838 -1.6467013578
| 20> S -0.9039044019 -1.1021813799 -0.9013733877
| 21> P -2.3707296625 0.1577774525 -0.0489023386
| 22> S -3.0272498034 1.6346472485 -1.1678778826
| 23> O -1.6188511967 0.5796957635 1.2793309759
| 24> C -1.9600884291 1.773346778 2.0136747394
| 25> C -3.3062021614 1.6431591231 2.6940906238
| 26> O -3.48355167 -0.8309015878 0.5018417394
| 27> C -4.6070318587 -1.2511955627 -0.2905885505
| 28> C -4.1921721675 -2.1577905279 -1.4314896676
| 29> H 1.2772580382 -1.2497170978 3.2592683421
| 30> H 0.1575032115 -0.9355057906 1.9275184376
| 31> H 0.2723310319 -2.5582383669 2.6139603039
| 32> H 1.5053393765 -2.4541565962 0.4476427698
| 33> H 2.6179760985 -2.7630741577 1.8029395696
| 34> H 4.7579359015 2.5888168434 0.1351351944
| 35> H 3.0934197448 2.3589431779 0.7421523724
| 36> H 4.7655560131 2.3588764583 2.6087207058
| 37> H 3.9455887298 0.7934657314 2.4825383228
| 38> H 5.5884529922 0.9799159738 1.8607743513
| 39> H 0.7269697967 -0.2301130775 -2.3845841972
| 40> H -0.605680389 0.9533451401 -2.1077906836
| 41> H -1.1476376899 1.879801383 2.7333427936
| 42> H -1.9533074898 2.6202656143 1.3200637706
| 43> H -3.4816788575 2.5152837484 3.316045597
| 44> H -4.0943034362 1.5787791364 1.9448181463
| 45> H -3.3313902494 0.7470581153 3.3083403372
| 46> H -5.2511721485 -1.7688009336 0.4214444767
| 47> H -5.1142567602 -0.3597095435 -0.6736138337
| 48> H -3.5947264398 -2.985877391 -1.0583597692
| 49> H -5.0780040861 -2.5449529697 -1.9247861996
| 50> H -3.6007938298 -1.599873814 -2.1566615692
| 51> *
| 52>
| 53>                          ****END OF INPUT****

CARTESIAN COORDINATES (ANGSTROEM)
---------------------------------
  C      0.836493   -1.667137    2.358465
  C      1.924531   -2.038908    1.370129
  O      2.727916   -0.886236    1.054443
  P      2.749625   -0.190389   -0.379281
  S      2.906809   -1.427573   -1.884259
  O      3.982484    0.776413   -0.267820
  C      4.081092    1.899987    0.643592
  C      4.630969    1.477119    1.989902
  S      1.069387    1.142459   -0.447617
  C      0.070161    0.232525   -1.646701
  S     -0.903904   -1.102181   -0.901373
  P     -2.370730    0.157777   -0.048902
  S     -3.027250    1.634647   -1.167878
  O     -1.618851    0.579696    1.279331
  C     -1.960088    1.773347    2.013675
  C     -3.306202    1.643159    2.694091
  O     -3.483552   -0.830902    0.501842
  C     -4.607032   -1.251196   -0.290589
  C     -4.192172   -2.157791   -1.431490
  H      1.277258   -1.249717    3.259268
  H      0.157503   -0.935506    1.927518
  H      0.272331   -2.558238    2.613960
  H      1.505339   -2.454157    0.447643
  H      2.617976   -2.763074    1.802940
  H      4.757936    2.588817    0.135135
  H      3.093420    2.358943    0.742152
  H      4.765556    2.358876    2.608721
  H      3.945589    0.793466    2.482538
  H      5.588453    0.979916    1.860774
  H      0.726970   -0.230113   -2.384584
  H     -0.605680    0.953345   -2.107791
  H     -1.147638    1.879801    2.733343
  H     -1.953307    2.620266    1.320064
  H     -3.481679    2.515284    3.316046
  H     -4.094303    1.578779    1.944818
  H     -3.331390    0.747058    3.308340
  H     -5.251172   -1.768801    0.421444
  H     -5.114257   -0.359710   -0.673614
  H     -3.594726   -2.985877   -1.058360
  H     -5.078004   -2.544953   -1.924786
  H     -3.600794   -1.599874   -2.156662

 Total Charge           Charge          ....    0
 Multiplicity           Mult            ....    1
 Number of Electrons    NEL             ....  202
 Basis Dimension        Dim             ....  539

ORBITAL ENERGIES
----------------

  NO   OCC          E(Eh)            E(eV)
   0   2.0000     -88.579812     -2410.3792
   1   2.0000     -88.578600     -2410.3462
   2   2.0000     -88.532507     -2409.0920
   3   2.0000     -88.530253     -2409.0307
   4   2.0000     -76.922506     -2093.1678
   5   2.0000     -76.920268     -2093.1069
   6   2.0000     -18.998335      -516.9710
   7   2.0000     -18.998088      -516.9643
   8   2.0000     -18.993360      -516.8356
   9   2.0000     -18.993024      -516.8264
  10   2.0000     -10.103728      -274.9364
  11   2.0000     -10.096509      -274.7400
  12   2.0000     -10.090875      -274.5867
  13   2.0000     -10.089564      -274.5510
  14   2.0000     -10.089480      -274.5487
  15   2.0000     -10.019347      -272.6403
  16   2.0000     -10.019228      -272.6371
  17   2.0000     -10.018948      -272.6294
  18   2.0000     -10.015132      -272.5256
  19   2.0000      -7.874243      -214.2690
  20   2.0000      -7.872810      -214.2301
  21   2.0000      -7.827702      -213.0026
  22   2.0000      -7.825205      -212.9347
  23   2.0000      -6.600863      -179.6186
  24   2.0000      -6.598961      -179.5669
  25   2.0000      -5.821031      -158.3983
  26   2.0000      -5.819647      -158.3606
  27   2.0000      -5.818169      -158.3204
  28   2.0000      -5.816666      -158.2795
  29   2.0000      -5.811361      -158.1352
  30   2.0000      -5.809984      -158.0977
  31   2.0000      -5.775278      -157.1533
  32   2.0000      -5.772701      -157.0832
  33   2.0000      -5.768025      -156.9559
  34   2.0000      -5.767638      -156.9454
  35   2.0000      -5.765519      -156.8877
  36   2.0000      -5.765293      -156.8816
  37   2.0000      -4.746599      -129.1615
  38   2.0000      -4.745632      -129.1352
  39   2.0000      -4.744587      -129.1068
  40   2.0000      -4.744319      -129.0995
  41   2.0000      -4.743840      -129.0865
  42   2.0000      -4.742873      -129.0601
  43   2.0000      -1.054740       -28.7009
  44   2.0000      -1.054363       -28.6907
  45   2.0000      -1.015143       -27.6235
  46   2.0000      -1.013256       -27.5721
  47   2.0000      -0.804204       -21.8835
  48   2.0000      -0.758429       -20.6379
  49   2.0000      -0.745824       -20.2949
  50   2.0000      -0.726206       -19.7611
  51   2.0000      -0.724228       -19.7073
  52   2.0000      -0.711551       -19.3623
  53   2.0000      -0.689793       -18.7702
  54   2.0000      -0.676041       -18.3960
  55   2.0000      -0.633370       -17.2349
  56   2.0000      -0.622233       -16.9318
  57   2.0000      -0.601319       -16.3627
  58   2.0000      -0.600307       -16.3352
  59   2.0000      -0.589780       -16.0487
  60   2.0000      -0.527263       -14.3476
  61   2.0000      -0.514918       -14.0116
  62   2.0000      -0.498446       -13.5634
  63   2.0000      -0.491870       -13.3845
  64   2.0000      -0.476699       -12.9716
  65   2.0000      -0.461193       -12.5497
  66   2.0000      -0.455945       -12.4069
  67   2.0000      -0.455237       -12.3876
  68   2.0000      -0.441463       -12.0128
  69   2.0000      -0.433817       -11.8048
  70   2.0000      -0.418090       -11.3768
  71   2.0000      -0.406997       -11.0749
  72   2.0000      -0.406413       -11.0591
  73   2.0000      -0.404858       -11.0167
  74   2.0000      -0.401052       -10.9132
  75   2.0000      -0.390060       -10.6141
  76   2.0000      -0.379141       -10.3169
  77   2.0000      -0.367159        -9.9909
  78   2.0000      -0.366509        -9.9732
  79   2.0000      -0.363354        -9.8874
  80   2.0000      -0.357750        -9.7349
  81   2.0000      -0.354041        -9.6340
  82   2.0000      -0.352699        -9.5974
  83   2.0000      -0.347741        -9.4625
  84   2.0000      -0.342169        -9.3109
  85   2.0000      -0.333986        -9.0882
  86   2.0000      -0.325389        -8.8543
  87   2.0000      -0.306130        -8.3302
  88   2.0000      -0.304931        -8.2976
  89   2.0000      -0.301910        -8.2154
  90   2.0000      -0.298704        -8.1282
  91   2.0000      -0.292901        -7.9702
  92   2.0000      -0.290007        -7.8915
  93   2.0000      -0.281238        -7.6529
  94   2.0000      -0.274398        -7.4668
  95   2.0000      -0.249850        -6.7988
  96   2.0000      -0.240228        -6.5369
  97   2.0000      -0.236705        -6.4411
  98   2.0000      -0.229083        -6.2337
  99   2.0000      -0.227100        -6.1797
 100   2.0000      -0.220958        -6.0126
 101   0.0000      -0.052909        -1.4397
 102   0.0000      -0.034951        -0.9511
 103   0.0000      -0.011574        -0.3149
 104   0.0000      -0.005375        -0.1463
 105   0.0000       0.012646         0.3441

MULLIKEN ATOMIC CHARGES
-----------------------
   0 C :   -0.489962
   1 C :   -0.120278
   2 O :   -0.273000
   3 P :    0.652692
   4 S :   -0.498908
   5 O :   -0.320738
   6 C :   -0.107130
   7 C :   -0.481032
   8 S :   -0.166076
   9 C :   -0.253405
  10 S :   -0.124379
  11 P :    0.703579
  12 S :   -0.528030
  13 O :   -0.288251
  14 C :   -0.145215
  15 C :   -0.482659
  16 O :   -0.331535
  17 C :   -0.148100
  18 C :   -0.492592
  19 H :    0.164420
  20 H :    0.169506
  21 H :    0.169624
  22 H :    0.163406
  23 H :    0.174669
  24 H :    0.180653
  25 H :    0.159150
  26 H :    0.172183
  27 H :    0.168719
  28 H :    0.168591
  29 H :    0.233056
  30 H :    0.233318
  31 H :    0.178722
  32 H :    0.176420
  33 H :    0.172242
  34 H :    0.167547
  35 H :    0.170437
  36 H :    0.176414
  37 H :    0.177825
  38 H :    0.171324
  39 H :    0.173716
  40 H :    0.173081
Sum of atomic charges:    0.0000000

LOEWDIN ATOMIC CHARGES
----------------------
   0 C :   -0.406877
   1 C :    0.022602
   2 O :   -0.679215
   3 P :    0.390538
   4 S :   -0.144546
   5 O :   -0.669712
   6 C :    0.037139
   7 C :   -0.396116
   8 S :    0.136129
   9 C :   -0.423407
  10 S :    0.162161
  11 P :    0.382023
  12 S :   -0.163467
  13 O :   -0.699608
  14 C :    0.024229
  15 C :   -0.401423
  16 O :   -0.668471
  17 C :    0.027058
  18 C :   -0.409128
  19 H :    0.161622
  20 H :    0.172396
  21 H :    0.168979
  22 H :    0.179618
  23 H :    0.186778
  24 H :    0.193420
  25 H :    0.181328
  26 H :    0.169209
  27 H :    0.167214
  28 H :    0.164937
  29 H :    0.199217
  30 H :    0.197837
  31 H :    0.190846
  32 H :    0.182180
  33 H :    0.168915
  34 H :    0.162620
  35 H :    0.164464
  36 H :    0.191623
  37 H :    0.181921
  38 H :    0.164041
  39 H :    0.169120
  40 H :    0.161806

  Mayer bond orders larger than 0.100000
B(  0-C ,  1-C ) :   0.9420 B(  0-C , 19-H ) :   0.9696 B(  0-C , 20-H ) :   0.9541
B(  0-C , 21-H ) :   0.9630 B(  1-C ,  2-O ) :   0.7401 B(  1-C , 22-H ) :   0.9537
B(  1-C , 23-H ) :   0.9542 B(  2-O ,  3-P ) :   1.0443 B(  3-P ,  4-S ) :   1.8202
B(  3-P ,  5-O ) :   1.2103 B(  3-P ,  8-S ) :   0.9980 B(  5-O ,  6-C ) :   0.7552
B(  6-C ,  7-C ) :   0.9379 B(  6-C , 24-H ) :   0.9535 B(  6-C , 25-H ) :   0.9503
B(  7-C , 26-H ) :   0.9587 B(  7-C , 27-H ) :   0.9602 B(  7-C , 28-H ) :   0.9696
B(  8-S ,  9-C ) :   0.9184 B(  9-C , 10-S ) :   0.8931 B(  9-C , 29-H ) :   0.8948
B(  9-C , 30-H ) :   0.9010 B( 10-S , 11-P ) :   1.1005 B( 11-P , 12-S ) :   1.7213
B( 11-P , 13-O ) :   1.1360 B( 11-P , 16-O ) :   1.0835 B( 13-O , 14-C ) :   0.7757
B( 14-C , 15-C ) :   0.9152 B( 14-C , 31-H ) :   0.9522 B( 14-C , 32-H ) :   0.9577
B( 15-C , 33-H ) :   0.9564 B( 15-C , 34-H ) :   0.9590 B( 15-C , 35-H ) :   0.9712
B( 16-O , 17-C ) :   0.7985 B( 17-C , 18-C ) :   0.9098 B( 17-C , 36-H ) :   0.9484
B( 17-C , 37-H ) :   0.9641 B( 18-C , 38-H ) :   0.9662 B( 18-C , 39-H ) :   0.9526
B( 18-C , 40-H ) :   0.9627

Dispersion correction           -0.021311345
FINAL SINGLE POINT ENERGY     -2932.469401234751

DIPOLE MOMENT
-------------

Method             : SCF
Type of density    : Electron Density
Multiplicity       :   1
Irrep              :   0
Energy             : -2932.4949300210423644 Eh
Relativity type    :
Basis              : AO
                                X                 Y                 Z
Electronic contribution:      7.277260102       0.411179138     -17.391664286
Nuclear contribution   :     -8.332355872      -0.054170650      19.892093053
                        -----------------------------------------
Total Dipole Moment    :     -1.055095770       0.357008488       2.500428767
                        -----------------------------------------
Magnitude (a.u.)       :      2.737302717
Magnitude (Debye)      :      6.957670571

Rotational constants in cm-1:             0.012661             0.004716             0.004335
Rotational constants in MHz :           379.561213           141.377864           129.953851

                             ****ORCA TERMINATED NORMALLY****
TOTAL RUN TIME: 0 days 0 hours 1 minutes 49 seconds 913 msec
