                         Program Version 6.0.0  -   RELEASE  -
|  1> ! pbe def2-sv(p) def2/J RI DEFGRID1 loosescf d4 GCP(DFT/SV(P)) printgap
|  2> %output
|  3>     printlevel normal
|  4> end
|  5> * xyz 0 1
|  6> C 4.6650906315 -1.1931048116 -1.8320311742
|  7> C 4.077655115 -1.8575628909 -0.6050353347
|  8> O 3.5490136118 -0.9114753325 0.3430252684
|  9> P 2.4431991172 0.1827739474 0.0251260078
| 10> S 2.9780741907 1.8077782639 -0.9335619975
| 11> O 1.9626241624 0.5851799334 1.4710908203
| 12> C 1.8927158993 -0.2732620484 2.6360112964
| 13> C 0.9826971186 -1.4671127085 2.437119484
| 14> S 0.8985947807 -0.9297846342 -0.9489875103
| 15> C 0.0120343248 0.5012916859 -1.5857432347
| 16> S -0.8133461363 1.4585963991 -0.2858010056
| 17> P -2.5502987879 0.2621865314 -0.1883621189
| 18> S -3.3439550998 -0.2964085078 -1.8831726742
| 19> O -3.597807588 1.093675415 0.663617636
| 20> C -3.3596323794 1.5450278619 2.0192410501
| 21> C -2.8865687912 2.9846856373 2.038321178
| 22> O -2.0335367425 -0.9119172173 0.7706859117
| 23> C -2.6210456677 -2.2339864435 0.7490405766
| 24> C -1.8152611962 -3.1685384822 -0.1295784049
| 25> H 5.1285789744 -1.9448448111 -2.462693459
| 26> H 3.8835936883 -0.6879363126 -2.3976923238
| 27> H 5.4094843751 -0.4544509225 -1.5443832866
| 28> H 4.8417078141 -2.3897435422 -0.0355646341
| 29> H 3.2749978702 -2.5447311646 -0.8864721606
| 30> H 2.9074474283 -0.5914090639 2.8825115355
| 31> H 1.5145521181 0.3960088761 3.4105988411
| 32> H 1.4021849118 -2.144527458 1.6959321202
| 33> H 0.8819428649 -1.9947007819 3.3806303228
| 34> H 0.0004336021 -1.1439554649 2.100925463
| 35> H -0.7347114444 0.1401498328 -2.2942263853
| 36> H 0.7230883017 1.1773470629 -2.0629744837
| 37> H -4.3295165506 1.4430739308 2.5093379243
| 38> H -2.6320674609 0.8820575957 2.4932891266
| 39> H -1.9087646259 3.0753115134 1.5688090392
| 40> H -3.5900526263 3.6143277986 1.5005458352
| 41> H -2.8180807305 3.3222184978 3.0677883679
| 42> H -2.6108529363 -2.5572293941 1.7911797858
| 43> H -3.6529518753 -2.1605714052 0.393920498
| 44> H -2.2401671242 -4.1651696634 -0.0707480285
| 45> H -1.8467153357 -2.8303153148 -1.1629771385
| 46> H -0.7795079762 -3.1946309735 0.1950464024
| 47> *
| 48>
| 49>                          ****END OF INPUT****

CARTESIAN COORDINATES (ANGSTROEM)
---------------------------------
  C      4.665091   -1.193105   -1.832031
  C      4.077655   -1.857563   -0.605035
  O      3.549014   -0.911475    0.343025
  P      2.443199    0.182774    0.025126
  S      2.978074    1.807778   -0.933562
  O      1.962624    0.585180    1.471091
  C      1.892716   -0.273262    2.636011
  C      0.982697   -1.467113    2.437119
  S      0.898595   -0.929785   -0.948988
  C      0.012034    0.501292   -1.585743
  S     -0.813346    1.458596   -0.285801
  P     -2.550299    0.262187   -0.188362
  S     -3.343955   -0.296409   -1.883173
  O     -3.597808    1.093675    0.663618
  C     -3.359632    1.545028    2.019241
  C     -2.886569    2.984686    2.038321
  O     -2.033537   -0.911917    0.770686
  C     -2.621046   -2.233986    0.749041
  C     -1.815261   -3.168538   -0.129578
  H      5.128579   -1.944845   -2.462693
  H      3.883594   -0.687936   -2.397692
  H      5.409484   -0.454451   -1.544383
  H      4.841708   -2.389744   -0.035565
  H      3.274998   -2.544731   -0.886472
  H      2.907447   -0.591409    2.882512
  H      1.514552    0.396009    3.410599
  H      1.402185   -2.144527    1.695932
  H      0.881943   -1.994701    3.380630
  H      0.000434   -1.143955    2.100925
  H     -0.734711    0.140150   -2.294226
  H      0.723088    1.177347   -2.062974
  H     -4.329517    1.443074    2.509338
  H     -2.632067    0.882058    2.493289
  H     -1.908765    3.075312    1.568809
  H     -3.590053    3.614328    1.500546
  H     -2.818081    3.322218    3.067788
  H     -2.610853   -2.557229    1.791180
  H     -3.652952   -2.160571    0.393920
  H     -2.240167   -4.165170   -0.070748
  H     -1.846715   -2.830315   -1.162977
  H     -0.779508   -3.194631    0.195046

 Total Charge           Charge          ....    0
 Multiplicity           Mult            ....    1
 Number of Electrons    NEL             ....  202
 Basis Dimension        Dim             ....  334

ORBITAL ENERGIES
----------------

  NO   OCC          E(Eh)            E(eV)
   0   2.0000     -88.043256     -2395.7788
   1   2.0000     -88.042211     -2395.7504
   2   2.0000     -87.986881     -2394.2448
   3   2.0000     -87.982130     -2394.1155
   4   2.0000     -76.428514     -2079.7256
   5   2.0000     -76.427020     -2079.6849
   6   2.0000     -18.800701      -511.5931
   7   2.0000     -18.796126      -511.4686
   8   2.0000     -18.794629      -511.4279
   9   2.0000     -18.789446      -511.2868
  10   2.0000      -9.963425      -271.1186
  11   2.0000      -9.961754      -271.0731
  12   2.0000      -9.957647      -270.9614
  13   2.0000      -9.956155      -270.9208
  14   2.0000      -9.951192      -270.7857
  15   2.0000      -9.891204      -269.1534
  16   2.0000      -9.888548      -269.0811
  17   2.0000      -9.885502      -268.9982
  18   2.0000      -9.882643      -268.9204
  19   2.0000      -7.687986      -209.2007
  20   2.0000      -7.687338      -209.1831
  21   2.0000      -7.632222      -207.6833
  22   2.0000      -7.627402      -207.5521
  23   2.0000      -6.425427      -174.8447
  24   2.0000      -6.425123      -174.8365
  25   2.0000      -5.715621      -155.5300
  26   2.0000      -5.715151      -155.5172
  27   2.0000      -5.712570      -155.4469
  28   2.0000      -5.712054      -155.4329
  29   2.0000      -5.705168      -155.2455
  30   2.0000      -5.704147      -155.2177
  31   2.0000      -5.661279      -154.0512
  32   2.0000      -5.656471      -153.9204
  33   2.0000      -5.652900      -153.8232
  34   2.0000      -5.652105      -153.8016
  35   2.0000      -5.648000      -153.6899
  36   2.0000      -5.647398      -153.6735
  37   2.0000      -4.648565      -126.4939
  38   2.0000      -4.648193      -126.4838
  39   2.0000      -4.647243      -126.4579
  40   2.0000      -4.646429      -126.4358
  41   2.0000      -4.645518      -126.4110
  42   2.0000      -4.645405      -126.4079
  43   2.0000      -0.991557       -26.9816
  44   2.0000      -0.987677       -26.8761
  45   2.0000      -0.946535       -25.7565
  46   2.0000      -0.946321       -25.7507
  47   2.0000      -0.765801       -20.8385
  48   2.0000      -0.724636       -19.7183
  49   2.0000      -0.713989       -19.4286
  50   2.0000      -0.694602       -18.9011
  51   2.0000      -0.694431       -18.8964
  52   2.0000      -0.678125       -18.4527
  53   2.0000      -0.651882       -17.7386
  54   2.0000      -0.637959       -17.3597
  55   2.0000      -0.595680       -16.2093
  56   2.0000      -0.589853       -16.0507
  57   2.0000      -0.584339       -15.9007
  58   2.0000      -0.581324       -15.8186
  59   2.0000      -0.558979       -15.2106
  60   2.0000      -0.510365       -13.8877
  61   2.0000      -0.500212       -13.6115
  62   2.0000      -0.478907       -13.0317
  63   2.0000      -0.473367       -12.8810
  64   2.0000      -0.463483       -12.6120
  65   2.0000      -0.450678       -12.2636
  66   2.0000      -0.444950       -12.1077
  67   2.0000      -0.436650       -11.8819
  68   2.0000      -0.435108       -11.8399
  69   2.0000      -0.420507       -11.4426
  70   2.0000      -0.413355       -11.2480
  71   2.0000      -0.408566       -11.1176
  72   2.0000      -0.392839       -10.6897
  73   2.0000      -0.389865       -10.6088
  74   2.0000      -0.378431       -10.2976
  75   2.0000      -0.373887       -10.1740
  76   2.0000      -0.362114        -9.8536
  77   2.0000      -0.361028        -9.8241
  78   2.0000      -0.356640        -9.7047
  79   2.0000      -0.355079        -9.6622
  80   2.0000      -0.353702        -9.6247
  81   2.0000      -0.346884        -9.4392
  82   2.0000      -0.343941        -9.3591
  83   2.0000      -0.343512        -9.3474
  84   2.0000      -0.336655        -9.1608
  85   2.0000      -0.327804        -8.9200
  86   2.0000      -0.312618        -8.5068
  87   2.0000      -0.305179        -8.3043
  88   2.0000      -0.300583        -8.1793
  89   2.0000      -0.293430        -7.9846
  90   2.0000      -0.287027        -7.8104
  91   2.0000      -0.281055        -7.6479
  92   2.0000      -0.275349        -7.4926
  93   2.0000      -0.273178        -7.4336
  94   2.0000      -0.256441        -6.9781
  95   2.0000      -0.233393        -6.3510
  96   2.0000      -0.219385        -5.9698
  97   2.0000      -0.209952        -5.7131
  98   2.0000      -0.201039        -5.4706
  99   2.0000      -0.199530        -5.4295
 100   2.0000      -0.195733        -5.3262
 101   0.0000      -0.045932        -1.2499
 102   0.0000      -0.026296        -0.7156
 103   0.0000      -0.008859        -0.2411
 104   0.0000      -0.001279        -0.0348
 105   0.0000       0.007071         0.1924

MULLIKEN ATOMIC CHARGES
-----------------------
   0 C :   -0.307401
   1 C :   -0.011611
   2 O :   -0.385031
   3 P :    0.609315
   4 S :   -0.311601
   5 O :   -0.353174
   6 C :    0.015112
   7 C :   -0.365660
   8 S :   -0.108877
   9 C :   -0.362491
  10 S :   -0.081072
  11 P :    0.616669
  12 S :   -0.309974
  13 O :   -0.364651
  14 C :   -0.027505
  15 C :   -0.303817
  16 O :   -0.387081
  17 C :   -0.007351
  18 C :   -0.295881
  19 H :    0.112068
  20 H :    0.127876
  21 H :    0.127352
  22 H :    0.108718
  23 H :    0.112568
  24 H :    0.108453
  25 H :    0.106251
  26 H :    0.120477
  27 H :    0.108818
  28 H :    0.160199
  29 H :    0.187241
  30 H :    0.200737
  31 H :    0.111605
  32 H :    0.108088
  33 H :    0.140467
  34 H :    0.126392
  35 H :    0.112605
  36 H :    0.100631
  37 H :    0.109999
  38 H :    0.107602
  39 H :    0.120945
  40 H :    0.122991
Sum of atomic charges:    0.0000000

LOEWDIN ATOMIC CHARGES
----------------------
   0 C :   -0.368356
   1 C :   -0.114645
   2 O :   -0.245222
   3 P :    0.569848
   4 S :   -0.306796
   5 O :   -0.234434
   6 C :   -0.106044
   7 C :   -0.379233
   8 S :    0.077557
   9 C :   -0.488838
  10 S :    0.095643
  11 P :    0.571817
  12 S :   -0.307792
  13 O :   -0.243534
  14 C :   -0.117083
  15 C :   -0.360953
  16 O :   -0.254910
  17 C :   -0.116645
  18 C :   -0.364456
  19 H :    0.130662
  20 H :    0.122658
  21 H :    0.131125
  22 H :    0.120846
  23 H :    0.107327
  24 H :    0.114239
  25 H :    0.121215
  26 H :    0.115629
  27 H :    0.128890
  28 H :    0.129029
  29 H :    0.127773
  30 H :    0.129895
  31 H :    0.121865
  32 H :    0.109234
  33 H :    0.121909
  34 H :    0.132116
  35 H :    0.131646
  36 H :    0.114793
  37 H :    0.110859
  38 H :    0.128733
  39 H :    0.122653
  40 H :    0.120979

  Mayer bond orders larger than 0.100000
B(  0-C ,  1-C ) :   1.1687 B(  0-C , 19-H ) :   0.9349 B(  0-C , 20-H ) :   0.9319
B(  0-C , 21-H ) :   0.9434 B(  1-C ,  2-O ) :   0.9086 B(  1-C , 22-H ) :   0.9333
B(  1-C , 23-H ) :   0.9248 B(  2-O ,  3-P ) :   1.0791 B(  3-P ,  4-S ) :   1.6415
B(  3-P ,  5-O ) :   1.1386 B(  3-P ,  8-S ) :   0.9328 B(  4-S ,  8-S ) :   0.1125
B(  5-O ,  6-C ) :   0.9010 B(  6-C ,  7-C ) :   1.1690 B(  6-C , 24-H ) :   0.9299
B(  6-C , 25-H ) :   0.9345 B(  7-C , 26-H ) :   0.9379 B(  7-C , 27-H ) :   0.9339
B(  7-C , 28-H ) :   0.9177 B(  8-S ,  9-C ) :   1.0115 B(  9-C , 10-S ) :   1.0047
B(  9-C , 29-H ) :   0.8647 B(  9-C , 30-H ) :   0.8651 B( 10-S , 11-P ) :   0.9761
B( 10-S , 12-S ) :   0.1021 B( 11-P , 12-S ) :   1.6239 B( 11-P , 13-O ) :   1.1294
B( 11-P , 16-O ) :   1.0622 B( 13-O , 14-C ) :   0.9027 B( 14-C , 15-C ) :   1.1679
B( 14-C , 31-H ) :   0.9338 B( 14-C , 32-H ) :   0.9168 B( 15-C , 33-H ) :   0.9336
B( 15-C , 34-H ) :   0.9459 B( 15-C , 35-H ) :   0.9381 B( 16-O , 17-C ) :   0.8840
B( 17-C , 18-C ) :   1.1757 B( 17-C , 36-H ) :   0.9325 B( 17-C , 37-H ) :   0.9126
B( 18-C , 38-H ) :   0.9380 B( 18-C , 39-H ) :   0.9352 B( 18-C , 40-H ) :   0.9419

Dispersion correction           -0.066047903
FINAL SINGLE POINT ENERGY     -2929.513973885377

DIPOLE MOMENT
-------------

Method             : SCF
Type of density    : Electron Density
Multiplicity       :   1
Irrep              :   0
Energy             : -2929.6341055075827171 Eh
Relativity type    :
Basis              : AO
                                X                 Y                 Z
Electronic contribution:     -2.518561601      12.780240840     -11.695643891
Nuclear contribution   :      2.752026656     -14.300297977      13.513931024
                        -----------------------------------------
Total Dipole Moment    :      0.233465054      -1.520057138       1.818287133
                        -----------------------------------------
Magnitude (a.u.)       :      2.381438165
Magnitude (Debye)      :      6.053134764

Rotational constants in cm-1:             0.012026             0.005055             0.004813
Rotational constants in MHz :           360.541590           151.533935           144.301662

                             ****ORCA TERMINATED NORMALLY****
TOTAL RUN TIME: 0 days 0 hours 0 minutes 21 seconds 973 msec
