                         Program Version 6.0.0  -   RELEASE  -
|  1> ! r2scan-3c def2/J RI DEFGRID2 scfconv6 printgap
|  2> %output
|  3>     printlevel normal
|  4> end
|  5> * xyz 0 1
|  6> C 0.2768568053 -1.3878865441 3.0168647652
|  7> C 1.4258099889 -0.5504287572 2.4952352637
|  8> O 1.9194213008 -1.1698299624 1.2799522435
|  9> P 2.6054593061 -0.3479436998 0.1236015201
| 10> S 3.3357839094 -1.503514039 -1.2722590757
| 11> O 3.6533844575 0.5331936645 0.9316144367
| 12> C 4.7817174183 1.1749140598 0.3071032671
| 13> C 4.3651061162 2.2367361981 -0.689357466
| 14> S 1.1377787151 1.0711646138 -0.5134100211
| 15> C 0.3683866456 -0.0007256673 -1.7477090125
| 16> S -0.5923260202 -1.3452600453 -0.9992094582
| 17> P -2.2281525601 -0.1391412106 -0.4150668116
| 18> S -2.7689950426 1.2359209281 -1.7089052499
| 19> O -1.8887157555 0.4305946176 1.0343033979
| 20> C -1.7837861841 1.8313687557 1.3514647816
| 21> C -3.1002279906 2.3456181515 1.8990726235
| 22> O -3.1951819931 -1.3543104778 -0.1067659124
| 23> C -4.4264835106 -1.2158774758 0.6364775325
| 24> C -5.5470423186 -0.6701103953 -0.2263780661
| 25> H -0.5413103381 -1.3955254422 2.3004304119
| 26> H 0.6070385484 -2.410481569 3.1752998125
| 27> H -0.0721454517 -0.9706943544 3.9560095056
| 28> H 2.2557496939 -0.5179671117 3.2034891448
| 29> H 1.1103895025 0.4713129726 2.2628701615
| 30> H 5.3307615771 1.6027452144 1.1470614454
| 31> H 5.386306666 0.4052625022 -0.1817109885
| 32> H 3.8819546306 1.7727135178 -1.5479730187
| 33> H 3.6710440464 2.9370583964 -0.2315705693
| 34> H 5.2457522617 2.7713882726 -1.0305126382
| 35> H 1.1466068957 -0.4659426588 -2.3532238115
| 36> H -0.2884415257 0.6252833516 -2.3535123988
| 37> H -0.9872516154 1.8953280212 2.0937154427
| 38> H -1.4945188443 2.3850709735 0.4536806066
| 39> H -2.9831277125 3.3846724753 2.1890226949
| 40> H -3.8710351751 2.2794362835 1.1335045177
| 41> H -3.4041994369 1.7640716846 2.7651689614
| 42> H -4.6426178807 -2.2322674129 0.9704972261
| 43> H -4.2458770592 -0.5738998475 1.5023886797
| 44> H -5.6886665878 -1.301406823 -1.0997147315
| 45> H -6.4655854078 -0.6454547561 0.3514304338
| 46> H -5.3123856971 0.3369513395 -0.5657151037
| 47> *
| 48>
| 49>                          ****END OF INPUT****

CARTESIAN COORDINATES (ANGSTROEM)
---------------------------------
  C      0.276857   -1.387887    3.016865
  C      1.425810   -0.550429    2.495235
  O      1.919421   -1.169830    1.279952
  P      2.605459   -0.347944    0.123602
  S      3.335784   -1.503514   -1.272259
  O      3.653384    0.533194    0.931614
  C      4.781717    1.174914    0.307103
  C      4.365106    2.236736   -0.689357
  S      1.137779    1.071165   -0.513410
  C      0.368387   -0.000726   -1.747709
  S     -0.592326   -1.345260   -0.999209
  P     -2.228153   -0.139141   -0.415067
  S     -2.768995    1.235921   -1.708905
  O     -1.888716    0.430595    1.034303
  C     -1.783786    1.831369    1.351465
  C     -3.100228    2.345618    1.899073
  O     -3.195182   -1.354310   -0.106766
  C     -4.426484   -1.215877    0.636478
  C     -5.547042   -0.670110   -0.226378
  H     -0.541310   -1.395525    2.300430
  H      0.607039   -2.410482    3.175300
  H     -0.072145   -0.970694    3.956010
  H      2.255750   -0.517967    3.203489
  H      1.110390    0.471313    2.262870
  H      5.330762    1.602745    1.147061
  H      5.386307    0.405263   -0.181711
  H      3.881955    1.772714   -1.547973
  H      3.671044    2.937058   -0.231571
  H      5.245752    2.771388   -1.030513
  H      1.146607   -0.465943   -2.353224
  H     -0.288442    0.625283   -2.353512
  H     -0.987252    1.895328    2.093715
  H     -1.494519    2.385071    0.453681
  H     -2.983128    3.384672    2.189023
  H     -3.871035    2.279436    1.133505
  H     -3.404199    1.764072    2.765169
  H     -4.642618   -2.232267    0.970497
  H     -4.245877   -0.573900    1.502389
  H     -5.688667   -1.301407   -1.099715
  H     -6.465585   -0.645455    0.351430
  H     -5.312386    0.336951   -0.565715

 Total Charge           Charge          ....    0
 Multiplicity           Mult            ....    1
 Number of Electrons    NEL             ....  202
 Basis Dimension        Dim             ....  539

ORBITAL ENERGIES
----------------

  NO   OCC          E(Eh)            E(eV)
   0   2.0000     -88.574108     -2410.2240
   1   2.0000     -88.571887     -2410.1636
   2   2.0000     -88.523979     -2408.8599
   3   2.0000     -88.521712     -2408.7982
   4   2.0000     -76.917127     -2093.0214
   5   2.0000     -76.914360     -2092.9461
   6   2.0000     -18.996864      -516.9309
   7   2.0000     -18.996482      -516.9205
   8   2.0000     -18.996005      -516.9076
   9   2.0000     -18.989295      -516.7250
  10   2.0000     -10.107075      -275.0275
  11   2.0000     -10.102827      -274.9119
  12   2.0000     -10.102130      -274.8929
  13   2.0000     -10.101940      -274.8878
  14   2.0000     -10.099926      -274.8330
  15   2.0000     -10.036366      -273.1034
  16   2.0000     -10.031270      -272.9647
  17   2.0000     -10.030492      -272.9436
  18   2.0000     -10.029111      -272.9060
  19   2.0000      -7.868604      -214.1156
  20   2.0000      -7.865881      -214.0415
  21   2.0000      -7.818845      -212.7616
  22   2.0000      -7.816428      -212.6958
  23   2.0000      -6.595446      -179.4712
  24   2.0000      -6.592902      -179.4020
  25   2.0000      -5.815332      -158.2432
  26   2.0000      -5.812831      -158.1752
  27   2.0000      -5.812459      -158.1650
  28   2.0000      -5.809870      -158.0946
  29   2.0000      -5.805858      -157.9854
  30   2.0000      -5.802844      -157.9034
  31   2.0000      -5.766437      -156.9127
  32   2.0000      -5.764125      -156.8498
  33   2.0000      -5.759360      -156.7201
  34   2.0000      -5.758653      -156.7009
  35   2.0000      -5.756615      -156.6455
  36   2.0000      -5.756480      -156.6418
  37   2.0000      -4.741246      -129.0159
  38   2.0000      -4.740069      -128.9838
  39   2.0000      -4.739201      -128.9602
  40   2.0000      -4.738765      -128.9483
  41   2.0000      -4.737747      -128.9206
  42   2.0000      -4.736391      -128.8837
  43   2.0000      -1.054296       -28.6888
  44   2.0000      -1.052457       -28.6388
  45   2.0000      -1.014759       -27.6130
  46   2.0000      -1.010545       -27.4983
  47   2.0000      -0.800875       -21.7929
  48   2.0000      -0.762804       -20.7569
  49   2.0000      -0.752588       -20.4790
  50   2.0000      -0.737700       -20.0738
  51   2.0000      -0.734887       -19.9973
  52   2.0000      -0.711933       -19.3727
  53   2.0000      -0.687547       -18.7091
  54   2.0000      -0.669151       -18.2085
  55   2.0000      -0.632211       -17.2033
  56   2.0000      -0.623810       -16.9747
  57   2.0000      -0.615546       -16.7499
  58   2.0000      -0.605307       -16.4712
  59   2.0000      -0.588754       -16.0208
  60   2.0000      -0.533727       -14.5234
  61   2.0000      -0.526388       -14.3237
  62   2.0000      -0.501120       -13.6362
  63   2.0000      -0.495200       -13.4751
  64   2.0000      -0.480083       -13.0637
  65   2.0000      -0.467065       -12.7095
  66   2.0000      -0.459928       -12.5153
  67   2.0000      -0.457555       -12.4507
  68   2.0000      -0.450766       -12.2660
  69   2.0000      -0.436305       -11.8725
  70   2.0000      -0.428947       -11.6722
  71   2.0000      -0.415925       -11.3179
  72   2.0000      -0.408732       -11.1222
  73   2.0000      -0.400073       -10.8865
  74   2.0000      -0.395029       -10.7493
  75   2.0000      -0.388994       -10.5851
  76   2.0000      -0.382710       -10.4141
  77   2.0000      -0.377821       -10.2810
  78   2.0000      -0.371927       -10.1207
  79   2.0000      -0.371367       -10.1054
  80   2.0000      -0.368195       -10.0191
  81   2.0000      -0.360912        -9.8209
  82   2.0000      -0.358400        -9.7526
  83   2.0000      -0.354463        -9.6454
  84   2.0000      -0.351920        -9.5762
  85   2.0000      -0.337486        -9.1834
  86   2.0000      -0.323099        -8.7920
  87   2.0000      -0.319178        -8.6853
  88   2.0000      -0.313672        -8.5354
  89   2.0000      -0.311819        -8.4850
  90   2.0000      -0.311271        -8.4701
  91   2.0000      -0.297979        -8.1084
  92   2.0000      -0.288217        -7.8428
  93   2.0000      -0.281387        -7.6569
  94   2.0000      -0.272466        -7.4142
  95   2.0000      -0.245965        -6.6930
  96   2.0000      -0.231305        -6.2941
  97   2.0000      -0.227839        -6.1998
  98   2.0000      -0.219345        -5.9687
  99   2.0000      -0.216826        -5.9001
 100   2.0000      -0.211916        -5.7665
 101   0.0000      -0.047723        -1.2986
 102   0.0000      -0.024922        -0.6782
 103   0.0000      -0.003097        -0.0843
 104   0.0000      -0.000840        -0.0228
 105   0.0000       0.013558         0.3689

MULLIKEN ATOMIC CHARGES
-----------------------
   0 C :   -0.460976
   1 C :   -0.096444
   2 O :   -0.262210
   3 P :    0.648074
   4 S :   -0.438830
   5 O :   -0.288059
   6 C :   -0.165639
   7 C :   -0.443399
   8 S :   -0.177476
   9 C :   -0.236572
  10 S :   -0.098539
  11 P :    0.670058
  12 S :   -0.477184
  13 O :   -0.276405
  14 C :   -0.097547
  15 C :   -0.495545
  16 O :   -0.308428
  17 C :   -0.165508
  18 C :   -0.422659
  19 H :    0.178137
  20 H :    0.155411
  21 H :    0.141382
  22 H :    0.155294
  23 H :    0.139954
  24 H :    0.148025
  25 H :    0.173701
  26 H :    0.180368
  27 H :    0.152818
  28 H :    0.148453
  29 H :    0.221362
  30 H :    0.214008
  31 H :    0.149465
  32 H :    0.175785
  33 H :    0.149809
  34 H :    0.173801
  35 H :    0.153943
  36 H :    0.152745
  37 H :    0.156640
  38 H :    0.158917
  39 H :    0.145674
  40 H :    0.167592
Sum of atomic charges:    0.0000000

LOEWDIN ATOMIC CHARGES
----------------------
   0 C :   -0.390716
   1 C :    0.024566
   2 O :   -0.652133
   3 P :    0.380330
   4 S :   -0.098211
   5 O :   -0.666481
   6 C :    0.023330
   7 C :   -0.408796
   8 S :    0.132391
   9 C :   -0.426258
  10 S :    0.191936
  11 P :    0.384528
  12 S :   -0.132820
  13 O :   -0.684242
  14 C :    0.002441
  15 C :   -0.400663
  16 O :   -0.663758
  17 C :    0.030642
  18 C :   -0.401025
  19 H :    0.172281
  20 H :    0.162288
  21 H :    0.158334
  22 H :    0.174499
  23 H :    0.172013
  24 H :    0.179577
  25 H :    0.180364
  26 H :    0.166914
  27 H :    0.159673
  28 H :    0.159672
  29 H :    0.193140
  30 H :    0.192361
  31 H :    0.175384
  32 H :    0.183120
  33 H :    0.161580
  34 H :    0.163820
  35 H :    0.156098
  36 H :    0.181943
  37 H :    0.174229
  38 H :    0.163630
  39 H :    0.158090
  40 H :    0.165929

  Mayer bond orders larger than 0.100000
B(  0-C ,  1-C ) :   0.9510 B(  0-C , 19-H ) :   0.9608 B(  0-C , 20-H ) :   0.9693
B(  0-C , 21-H ) :   0.9671 B(  1-C ,  2-O ) :   0.7384 B(  1-C , 22-H ) :   0.9485
B(  1-C , 23-H ) :   0.9535 B(  2-O ,  3-P ) :   1.1601 B(  3-P ,  4-S ) :   1.8406
B(  3-P ,  5-O ) :   1.0360 B(  3-P ,  8-S ) :   0.9984 B(  5-O ,  6-C ) :   0.8198
B(  6-C ,  7-C ) :   0.9185 B(  6-C , 24-H ) :   0.9613 B(  6-C , 25-H ) :   0.9688
B(  7-C , 26-H ) :   0.9629 B(  7-C , 27-H ) :   0.9675 B(  7-C , 28-H ) :   0.9558
B(  8-S ,  9-C ) :   0.9004 B(  9-C , 10-S ) :   0.9093 B(  9-C , 29-H ) :   0.9030
B(  9-C , 30-H ) :   0.9027 B( 10-S , 11-P ) :   1.1050 B( 11-P , 12-S ) :   1.7645
B( 11-P , 13-O ) :   1.0235 B( 11-P , 16-O ) :   1.1538 B( 13-O , 14-C ) :   0.7405
B( 14-C , 15-C ) :   0.9205 B( 14-C , 31-H ) :   0.9619 B( 14-C , 32-H ) :   0.9498
B( 15-C , 33-H ) :   0.9618 B( 15-C , 34-H ) :   0.9691 B( 15-C , 35-H ) :   0.9798
B( 16-O , 17-C ) :   0.7899 B( 17-C , 18-C ) :   0.9472 B( 17-C , 36-H ) :   0.9595
B( 17-C , 37-H ) :   0.9684 B( 18-C , 38-H ) :   0.9690 B( 18-C , 39-H ) :   0.9660
B( 18-C , 40-H ) :   0.9536

Dispersion correction           -0.021784248
FINAL SINGLE POINT ENERGY     -2932.463060093572

DIPOLE MOMENT
-------------

Method             : SCF
Type of density    : Electron Density
Multiplicity       :   1
Irrep              :   0
Energy             : -2932.4878602282146858 Eh
Relativity type    :
Basis              : AO
                                X                 Y                 Z
Electronic contribution:     10.536943607     -10.673380371     -15.537689740
Nuclear contribution   :    -11.021175169      11.796226475      17.456032116
                        -----------------------------------------
Total Dipole Moment    :     -0.484231562       1.122846103       1.918342376
                        -----------------------------------------
Magnitude (a.u.)       :      2.274928801
Magnitude (Debye)      :      5.782409476

Rotational constants in cm-1:             0.013874             0.004572             0.004507
Rotational constants in MHz :           415.921017           137.066777           135.106358

                             ****ORCA TERMINATED NORMALLY****
TOTAL RUN TIME: 0 days 0 hours 1 minutes 24 seconds 508 msec
