                         Program Version 6.0.0  -   RELEASE  -
|  1> ! r2scan-3c def2/J RI DEFGRID2 scfconv6 printgap
|  2> %output
|  3>     printlevel normal
|  4> end
|  5> %cpcm
|  6>     smd true
|  7>     smdsolvent "water"
|  8> end
|  9> * xyz 0 1
| 10> C 0.2768568053 -1.3878865441 3.0168647652
| 11> C 1.4258099889 -0.5504287572 2.4952352637
| 12> O 1.9194213008 -1.1698299624 1.2799522435
| 13> P 2.6054593061 -0.3479436998 0.1236015201
| 14> S 3.3357839094 -1.503514039 -1.2722590757
| 15> O 3.6533844575 0.5331936645 0.9316144367
| 16> C 4.7817174183 1.1749140598 0.3071032671
| 17> C 4.3651061162 2.2367361981 -0.689357466
| 18> S 1.1377787151 1.0711646138 -0.5134100211
| 19> C 0.3683866456 -0.0007256673 -1.7477090125
| 20> S -0.5923260202 -1.3452600453 -0.9992094582
| 21> P -2.2281525601 -0.1391412106 -0.4150668116
| 22> S -2.7689950426 1.2359209281 -1.7089052499
| 23> O -1.8887157555 0.4305946176 1.0343033979
| 24> C -1.7837861841 1.8313687557 1.3514647816
| 25> C -3.1002279906 2.3456181515 1.8990726235
| 26> O -3.1951819931 -1.3543104778 -0.1067659124
| 27> C -4.4264835106 -1.2158774758 0.6364775325
| 28> C -5.5470423186 -0.6701103953 -0.2263780661
| 29> H -0.5413103381 -1.3955254422 2.3004304119
| 30> H 0.6070385484 -2.410481569 3.1752998125
| 31> H -0.0721454517 -0.9706943544 3.9560095056
| 32> H 2.2557496939 -0.5179671117 3.2034891448
| 33> H 1.1103895025 0.4713129726 2.2628701615
| 34> H 5.3307615771 1.6027452144 1.1470614454
| 35> H 5.386306666 0.4052625022 -0.1817109885
| 36> H 3.8819546306 1.7727135178 -1.5479730187
| 37> H 3.6710440464 2.9370583964 -0.2315705693
| 38> H 5.2457522617 2.7713882726 -1.0305126382
| 39> H 1.1466068957 -0.4659426588 -2.3532238115
| 40> H -0.2884415257 0.6252833516 -2.3535123988
| 41> H -0.9872516154 1.8953280212 2.0937154427
| 42> H -1.4945188443 2.3850709735 0.4536806066
| 43> H -2.9831277125 3.3846724753 2.1890226949
| 44> H -3.8710351751 2.2794362835 1.1335045177
| 45> H -3.4041994369 1.7640716846 2.7651689614
| 46> H -4.6426178807 -2.2322674129 0.9704972261
| 47> H -4.2458770592 -0.5738998475 1.5023886797
| 48> H -5.6886665878 -1.301406823 -1.0997147315
| 49> H -6.4655854078 -0.6454547561 0.3514304338
| 50> H -5.3123856971 0.3369513395 -0.5657151037
| 51> *
| 52>
| 53>                          ****END OF INPUT****

CARTESIAN COORDINATES (ANGSTROEM)
---------------------------------
  C      0.276857   -1.387887    3.016865
  C      1.425810   -0.550429    2.495235
  O      1.919421   -1.169830    1.279952
  P      2.605459   -0.347944    0.123602
  S      3.335784   -1.503514   -1.272259
  O      3.653384    0.533194    0.931614
  C      4.781717    1.174914    0.307103
  C      4.365106    2.236736   -0.689357
  S      1.137779    1.071165   -0.513410
  C      0.368387   -0.000726   -1.747709
  S     -0.592326   -1.345260   -0.999209
  P     -2.228153   -0.139141   -0.415067
  S     -2.768995    1.235921   -1.708905
  O     -1.888716    0.430595    1.034303
  C     -1.783786    1.831369    1.351465
  C     -3.100228    2.345618    1.899073
  O     -3.195182   -1.354310   -0.106766
  C     -4.426484   -1.215877    0.636478
  C     -5.547042   -0.670110   -0.226378
  H     -0.541310   -1.395525    2.300430
  H      0.607039   -2.410482    3.175300
  H     -0.072145   -0.970694    3.956010
  H      2.255750   -0.517967    3.203489
  H      1.110390    0.471313    2.262870
  H      5.330762    1.602745    1.147061
  H      5.386307    0.405263   -0.181711
  H      3.881955    1.772714   -1.547973
  H      3.671044    2.937058   -0.231571
  H      5.245752    2.771388   -1.030513
  H      1.146607   -0.465943   -2.353224
  H     -0.288442    0.625283   -2.353512
  H     -0.987252    1.895328    2.093715
  H     -1.494519    2.385071    0.453681
  H     -2.983128    3.384672    2.189023
  H     -3.871035    2.279436    1.133505
  H     -3.404199    1.764072    2.765169
  H     -4.642618   -2.232267    0.970497
  H     -4.245877   -0.573900    1.502389
  H     -5.688667   -1.301407   -1.099715
  H     -6.465585   -0.645455    0.351430
  H     -5.312386    0.336951   -0.565715

 Total Charge           Charge          ....    0
 Multiplicity           Mult            ....    1
 Number of Electrons    NEL             ....  202
 Basis Dimension        Dim             ....  539

ORBITAL ENERGIES
----------------

  NO   OCC          E(Eh)            E(eV)
   0   2.0000     -88.578526     -2410.3442
   1   2.0000     -88.577210     -2410.3084
   2   2.0000     -88.532330     -2409.0872
   3   2.0000     -88.529466     -2409.0093
   4   2.0000     -76.920768     -2093.1205
   5   2.0000     -76.920494     -2093.1131
   6   2.0000     -18.997142      -516.9385
   7   2.0000     -18.996428      -516.9191
   8   2.0000     -18.994116      -516.8562
   9   2.0000     -18.994052      -516.8544
  10   2.0000     -10.102144      -274.8933
  11   2.0000     -10.092203      -274.6228
  12   2.0000     -10.091907      -274.6147
  13   2.0000     -10.091328      -274.5990
  14   2.0000     -10.088324      -274.5173
  15   2.0000     -10.018857      -272.6270
  16   2.0000     -10.018757      -272.6242
  17   2.0000     -10.017614      -272.5931
  18   2.0000     -10.017468      -272.5892
  19   2.0000      -7.872706      -214.2272
  20   2.0000      -7.871637      -214.1981
  21   2.0000      -7.827411      -212.9947
  22   2.0000      -7.824619      -212.9187
  23   2.0000      -6.599356      -179.5776
  24   2.0000      -6.598784      -179.5620
  25   2.0000      -5.819543      -158.3578
  26   2.0000      -5.818414      -158.3271
  27   2.0000      -5.816632      -158.2786
  28   2.0000      -5.815529      -158.2486
  29   2.0000      -5.809838      -158.0937
  30   2.0000      -5.808805      -158.0656
  31   2.0000      -5.774986      -157.1453
  32   2.0000      -5.772157      -157.0684
  33   2.0000      -5.767583      -156.9439
  34   2.0000      -5.767532      -156.9425
  35   2.0000      -5.765049      -156.8750
  36   2.0000      -5.764512      -156.8603
  37   2.0000      -4.745165      -129.1225
  38   2.0000      -4.744478      -129.1038
  39   2.0000      -4.744153      -129.0950
  40   2.0000      -4.743437      -129.0755
  41   2.0000      -4.742980      -129.0630
  42   2.0000      -4.742657      -129.0543
  43   2.0000      -1.054978       -28.7074
  44   2.0000      -1.052391       -28.6370
  45   2.0000      -1.012638       -27.5553
  46   2.0000      -1.011898       -27.5351
  47   2.0000      -0.804359       -21.8877
  48   2.0000      -0.758150       -20.6303
  49   2.0000      -0.745572       -20.2880
  50   2.0000      -0.725783       -19.7496
  51   2.0000      -0.723578       -19.6896
  52   2.0000      -0.710090       -19.3225
  53   2.0000      -0.690532       -18.7903
  54   2.0000      -0.675488       -18.3810
  55   2.0000      -0.629090       -17.1184
  56   2.0000      -0.617481       -16.8025
  57   2.0000      -0.604042       -16.4368
  58   2.0000      -0.599968       -16.3260
  59   2.0000      -0.587153       -15.9772
  60   2.0000      -0.528553       -14.3826
  61   2.0000      -0.519853       -14.1459
  62   2.0000      -0.492456       -13.4004
  63   2.0000      -0.490962       -13.3598
  64   2.0000      -0.479452       -13.0466
  65   2.0000      -0.460616       -12.5340
  66   2.0000      -0.453223       -12.3328
  67   2.0000      -0.449152       -12.2221
  68   2.0000      -0.445943       -12.1347
  69   2.0000      -0.432093       -11.7578
  70   2.0000      -0.424124       -11.5410
  71   2.0000      -0.407075       -11.0771
  72   2.0000      -0.404214       -10.9992
  73   2.0000      -0.395742       -10.7687
  74   2.0000      -0.391447       -10.6518
  75   2.0000      -0.387599       -10.5471
  76   2.0000      -0.381515       -10.3815
  77   2.0000      -0.373626       -10.1669
  78   2.0000      -0.361595        -9.8395
  79   2.0000      -0.359452        -9.7812
  80   2.0000      -0.356689        -9.7060
  81   2.0000      -0.352291        -9.5863
  82   2.0000      -0.351224        -9.5573
  83   2.0000      -0.347188        -9.4475
  84   2.0000      -0.345173        -9.3926
  85   2.0000      -0.332212        -9.0399
  86   2.0000      -0.319349        -8.6899
  87   2.0000      -0.316688        -8.6175
  88   2.0000      -0.307851        -8.3770
  89   2.0000      -0.305875        -8.3233
  90   2.0000      -0.301691        -8.2094
  91   2.0000      -0.292603        -7.9621
  92   2.0000      -0.287056        -7.8112
  93   2.0000      -0.280394        -7.6299
  94   2.0000      -0.273114        -7.4318
  95   2.0000      -0.250256        -6.8098
  96   2.0000      -0.239435        -6.5154
  97   2.0000      -0.236037        -6.4229
  98   2.0000      -0.227387        -6.1875
  99   2.0000      -0.226142        -6.1536
 100   2.0000      -0.218669        -5.9503
 101   0.0000      -0.053627        -1.4593
 102   0.0000      -0.031627        -0.8606
 103   0.0000      -0.008163        -0.2221
 104   0.0000      -0.003875        -0.1054
 105   0.0000       0.013297         0.3618

MULLIKEN ATOMIC CHARGES
-----------------------
   0 C :   -0.503451
   1 C :   -0.097590
   2 O :   -0.294536
   3 P :    0.661836
   4 S :   -0.496429
   5 O :   -0.306625
   6 C :   -0.158726
   7 C :   -0.481220
   8 S :   -0.164422
   9 C :   -0.244861
  10 S :   -0.140864
  11 P :    0.699412
  12 S :   -0.517448
  13 O :   -0.289906
  14 C :   -0.096670
  15 C :   -0.518134
  16 O :   -0.342398
  17 C :   -0.147004
  18 C :   -0.476213
  19 H :    0.170882
  20 H :    0.166912
  21 H :    0.172432
  22 H :    0.177301
  23 H :    0.166920
  24 H :    0.176236
  25 H :    0.179283
  26 H :    0.174119
  27 H :    0.168909
  28 H :    0.173113
  29 H :    0.235301
  30 H :    0.232340
  31 H :    0.182509
  32 H :    0.170019
  33 H :    0.170340
  34 H :    0.170252
  35 H :    0.169765
  36 H :    0.175673
  37 H :    0.177830
  38 H :    0.168274
  39 H :    0.170928
  40 H :    0.165909
Sum of atomic charges:    0.0000000

LOEWDIN ATOMIC CHARGES
----------------------
   0 C :   -0.394315
   1 C :    0.030834
   2 O :   -0.675902
   3 P :    0.382597
   4 S :   -0.141665
   5 O :   -0.671309
   6 C :    0.029341
   7 C :   -0.411231
   8 S :    0.145833
   9 C :   -0.423047
  10 S :    0.163029
  11 P :    0.387664
  12 S :   -0.159607
  13 O :   -0.684727
  14 C :    0.008991
  15 C :   -0.401661
  16 O :   -0.680219
  17 C :    0.038269
  18 C :   -0.405605
  19 H :    0.167344
  20 H :    0.164088
  21 H :    0.170672
  22 H :    0.184300
  23 H :    0.181805
  24 H :    0.191795
  25 H :    0.181775
  26 H :    0.161890
  27 H :    0.163869
  28 H :    0.168719
  29 H :    0.196796
  30 H :    0.197241
  31 H :    0.187926
  32 H :    0.181342
  33 H :    0.168330
  34 H :    0.162109
  35 H :    0.163038
  36 H :    0.191610
  37 H :    0.184150
  38 H :    0.163227
  39 H :    0.168301
  40 H :    0.162403

  Mayer bond orders larger than 0.100000
B(  0-C ,  1-C ) :   0.9368 B(  0-C , 19-H ) :   0.9639 B(  0-C , 20-H ) :   0.9689
B(  0-C , 21-H ) :   0.9600 B(  1-C ,  2-O ) :   0.7258 B(  1-C , 22-H ) :   0.9376
B(  1-C , 23-H ) :   0.9448 B(  2-O ,  3-P ) :   1.1658 B(  3-P ,  4-S ) :   1.8144
B(  3-P ,  5-O ) :   1.0491 B(  3-P ,  8-S ) :   1.0120 B(  5-O ,  6-C ) :   0.8072
B(  6-C ,  7-C ) :   0.9062 B(  6-C , 24-H ) :   0.9502 B(  6-C , 25-H ) :   0.9673
B(  7-C , 26-H ) :   0.9649 B(  7-C , 27-H ) :   0.9644 B(  7-C , 28-H ) :   0.9506
B(  8-S ,  9-C ) :   0.8945 B(  9-C , 10-S ) :   0.8953 B(  9-C , 29-H ) :   0.8991
B(  9-C , 30-H ) :   0.9003 B( 10-S , 11-P ) :   1.1025 B( 11-P , 12-S ) :   1.7411
B( 11-P , 13-O ) :   1.0406 B( 11-P , 16-O ) :   1.1632 B( 13-O , 14-C ) :   0.7251
B( 14-C , 15-C ) :   0.9253 B( 14-C , 31-H ) :   0.9511 B( 14-C , 32-H ) :   0.9482
B( 15-C , 33-H ) :   0.9586 B( 15-C , 34-H ) :   0.9681 B( 15-C , 35-H ) :   0.9731
B( 16-O , 17-C ) :   0.7829 B( 17-C , 18-C ) :   0.9285 B( 17-C , 36-H ) :   0.9518
B( 17-C , 37-H ) :   0.9586 B( 18-C , 38-H ) :   0.9708 B( 18-C , 39-H ) :   0.9593
B( 18-C , 40-H ) :   0.9584

Dispersion correction           -0.021784248
FINAL SINGLE POINT ENERGY     -2932.473387369062

DIPOLE MOMENT
-------------

Method             : SCF
Type of density    : Electron Density
Multiplicity       :   1
Irrep              :   0
Energy             : -2932.4981875037055943 Eh
Relativity type    :
Basis              : AO
                                X                 Y                 Z
Electronic contribution:     10.420829996      -9.948802851     -14.695857577
Nuclear contribution   :    -11.021175169      11.796226475      17.456032116
                        -----------------------------------------
Total Dipole Moment    :     -0.600345173       1.847423623       2.760174539
                        -----------------------------------------
Magnitude (a.u.)       :      3.375196565
Magnitude (Debye)      :      8.579067879

Rotational constants in cm-1:             0.013874             0.004572             0.004507
Rotational constants in MHz :           415.921017           137.066777           135.106358

                             ****ORCA TERMINATED NORMALLY****
TOTAL RUN TIME: 0 days 0 hours 1 minutes 56 seconds 809 msec
