                         Program Version 6.0.1  -  RELEASE   -
|  1> ! pbe def2-sv(p) def2/J RI DEFGRID1 loosescf d4 GCP(DFT/SV(P)) printgap
|  2> %output
|  3>     printlevel normal
|  4> end
|  5> * xyz 0 1
|  6> C 5.1047805937 -3.0299934359 -0.7948945268
|  7> C 4.4507779015 -2.0322522685 0.1482516603
|  8> O 3.0197958744 -2.0248181747 -0.0141918894
|  9> C 2.5031738718 -1.2689915146 -0.959301569
| 10> O 3.1425891956 -0.5853477169 -1.7301874608
| 11> C 0.9888393544 -1.3813194128 -0.9957091182
| 12> C 0.4107604171 0.0122519611 -1.2059138833
| 13> H 0.840705169 0.4390063616 -2.120720671
| 14> C 0.8156246685 0.9348364018 -0.0716745329
| 15> O 1.8417849787 0.7789238593 0.5486356279
| 16> O -0.0324589596 1.9304345407 0.0970110853
| 17> C 0.2818544335 2.9279361253 1.0900350188
| 18> C 1.1315368993 4.0331897947 0.4877332395
| 19> S -1.3815704421 0.0077682342 -1.4949790794
| 20> P -2.1261416493 0.0566253075 0.497855898
| 21> S -0.9626766169 -0.6024508441 1.931556107
| 22> O -2.6894790074 1.5027727728 0.7873369367
| 23> C -3.6170298041 2.1561951213 -0.1046520108
| 24> O -3.4958963143 -0.7542104931 0.3388268913
| 25> C -3.5045077143 -2.1683853996 0.1118285518
| 26> H 4.9460722589 -2.726489536 -1.8270217747
| 27> H 6.1708788954 -3.0629796606 -0.5964790749
| 28> H 4.6801347926 -4.018671715 -0.6446431004
| 29> H 4.822579164 -1.0196924351 -0.0331723792
| 30> H 4.6020322047 -2.3086169174 1.1918170452
| 31> H 0.6467252943 -1.8201280982 -0.0575455715
| 32> H 0.7059795626 -2.0241871143 -1.8305259336
| 33> H -0.6891469918 3.2958303253 1.4227738276
| 34> H 0.7993254162 2.4345099065 1.9179660034
| 35> H 0.6244148372 4.4728941444 -0.3665741293
| 36> H 1.3024747936 4.7979915172 1.2378952785
| 37> H 2.0906910696 3.6330819207 0.1659365383
| 38> H -4.5469535303 1.5932867899 -0.1485892848
| 39> H -3.1792518269 2.2367824661 -1.0993968911
| 40> H -3.7807772743 3.1402148343 0.3265641574
| 41> H -3.1833171838 -2.3811336381 -0.9074431731
| 42> H -4.5341469142 -2.4822019084 0.2631383284
| 43> H -2.8463391365 -2.6671714025 0.8248342883
| 44> *
| 45>
| 46>                          ****END OF INPUT****

CARTESIAN COORDINATES (ANGSTROEM)
---------------------------------
  C      5.104781   -3.029993   -0.794895
  C      4.450778   -2.032252    0.148252
  O      3.019796   -2.024818   -0.014192
  C      2.503174   -1.268992   -0.959302
  O      3.142589   -0.585348   -1.730187
  C      0.988839   -1.381319   -0.995709
  C      0.410760    0.012252   -1.205914
  H      0.840705    0.439006   -2.120721
  C      0.815625    0.934836   -0.071675
  O      1.841785    0.778924    0.548636
  O     -0.032459    1.930435    0.097011
  C      0.281854    2.927936    1.090035
  C      1.131537    4.033190    0.487733
  S     -1.381570    0.007768   -1.494979
  P     -2.126142    0.056625    0.497856
  S     -0.962677   -0.602451    1.931556
  O     -2.689479    1.502773    0.787337
  C     -3.617030    2.156195   -0.104652
  O     -3.495896   -0.754210    0.338827
  C     -3.504508   -2.168385    0.111829
  H      4.946072   -2.726490   -1.827022
  H      6.170879   -3.062980   -0.596479
  H      4.680135   -4.018672   -0.644643
  H      4.822579   -1.019692   -0.033172
  H      4.602032   -2.308617    1.191817
  H      0.646725   -1.820128   -0.057546
  H      0.705980   -2.024187   -1.830526
  H     -0.689147    3.295830    1.422774
  H      0.799325    2.434510    1.917966
  H      0.624415    4.472894   -0.366574
  H      1.302475    4.797992    1.237895
  H      2.090691    3.633082    0.165937
  H     -4.546954    1.593287   -0.148589
  H     -3.179252    2.236782   -1.099397
  H     -3.780777    3.140215    0.326564
  H     -3.183317   -2.381134   -0.907443
  H     -4.534147   -2.482202    0.263138
  H     -2.846339   -2.667171    0.824834

 Total Charge           Charge          ....    0
 Multiplicity           Mult            ....    1
 Number of Electrons    NEL             ....  174
 Basis Dimension        Dim             ....  316

ORBITAL ENERGIES
----------------

  NO   OCC          E(Eh)            E(eV)
   0   2.0000     -88.044244     -2395.8057
   1   2.0000     -87.987774     -2394.2691
   2   2.0000     -76.430214     -2079.7719
   3   2.0000     -18.808627      -511.8088
   4   2.0000     -18.798924      -511.5447
   5   2.0000     -18.797026      -511.4931
   6   2.0000     -18.788855      -511.2707
   7   2.0000     -18.738568      -509.9024
   8   2.0000     -18.725293      -509.5411
   9   2.0000     -10.017853      -272.5997
  10   2.0000      -9.999193      -272.0919
  11   2.0000      -9.954229      -270.8683
  12   2.0000      -9.948704      -270.7180
  13   2.0000      -9.948186      -270.7039
  14   2.0000      -9.944572      -270.6055
  15   2.0000      -9.937031      -270.4004
  16   2.0000      -9.899233      -269.3718
  17   2.0000      -9.886008      -269.0119
  18   2.0000      -9.879372      -268.8314
  19   2.0000      -7.689074      -209.2303
  20   2.0000      -7.632693      -207.6961
  21   2.0000      -6.427224      -174.8937
  22   2.0000      -5.716948      -155.5661
  23   2.0000      -5.713476      -155.4716
  24   2.0000      -5.706170      -155.2728
  25   2.0000      -5.661839      -154.0665
  26   2.0000      -5.653044      -153.8271
  27   2.0000      -5.652876      -153.8226
  28   2.0000      -4.649996      -126.5328
  29   2.0000      -4.649112      -126.5088
  30   2.0000      -4.647510      -126.4652
  31   2.0000      -1.015670       -27.6378
  32   2.0000      -0.997441       -27.1418
  33   2.0000      -0.992007       -26.9939
  34   2.0000      -0.947672       -25.7875
  35   2.0000      -0.920855       -25.0577
  36   2.0000      -0.902529       -24.5591
  37   2.0000      -0.765303       -20.8249
  38   2.0000      -0.707193       -19.2437
  39   2.0000      -0.702545       -19.1172
  40   2.0000      -0.691882       -18.8271
  41   2.0000      -0.657314       -17.8864
  42   2.0000      -0.641778       -17.4637
  43   2.0000      -0.626786       -17.0557
  44   2.0000      -0.615933       -16.7604
  45   2.0000      -0.592597       -16.1254
  46   2.0000      -0.559822       -15.2335
  47   2.0000      -0.519675       -14.1411
  48   2.0000      -0.499645       -13.5960
  49   2.0000      -0.491028       -13.3616
  50   2.0000      -0.481095       -13.0913
  51   2.0000      -0.478298       -13.0151
  52   2.0000      -0.456063       -12.4101
  53   2.0000      -0.439283       -11.9535
  54   2.0000      -0.438341       -11.9279
  55   2.0000      -0.429728       -11.6935
  56   2.0000      -0.421968       -11.4823
  57   2.0000      -0.419842       -11.4245
  58   2.0000      -0.415063       -11.2945
  59   2.0000      -0.408474       -11.1151
  60   2.0000      -0.406228       -11.0540
  61   2.0000      -0.394433       -10.7331
  62   2.0000      -0.389258       -10.5922
  63   2.0000      -0.384401       -10.4601
  64   2.0000      -0.369047       -10.0423
  65   2.0000      -0.365596        -9.9484
  66   2.0000      -0.354811        -9.6549
  67   2.0000      -0.349100        -9.4995
  68   2.0000      -0.342924        -9.3314
  69   2.0000      -0.337341        -9.1795
  70   2.0000      -0.327879        -8.9220
  71   2.0000      -0.327422        -8.9096
  72   2.0000      -0.317533        -8.6405
  73   2.0000      -0.313119        -8.5204
  74   2.0000      -0.309089        -8.4107
  75   2.0000      -0.303762        -8.2658
  76   2.0000      -0.296826        -8.0770
  77   2.0000      -0.283379        -7.7111
  78   2.0000      -0.276248        -7.5171
  79   2.0000      -0.266674        -7.2566
  80   2.0000      -0.261817        -7.1244
  81   2.0000      -0.246179        -6.6989
  82   2.0000      -0.240284        -6.5385
  83   2.0000      -0.220498        -6.0001
  84   2.0000      -0.210090        -5.7168
  85   2.0000      -0.205707        -5.5976
  86   2.0000      -0.202582        -5.5125
  87   0.0000      -0.041593        -1.1318
  88   0.0000      -0.030507        -0.8301
  89   0.0000      -0.006072        -0.1652
  90   0.0000       0.004851         0.1320
  91   0.0000       0.013106         0.3566

MULLIKEN ATOMIC CHARGES
-----------------------
   0 C :   -0.305690
   1 C :   -0.007286
   2 O :   -0.222303
   3 C :    0.113929
   4 O :   -0.222468
   5 C :   -0.037947
   6 C :   -0.290620
   7 H :    0.163788
   8 C :    0.169300
   9 O :   -0.175564
  10 O :   -0.231241
  11 C :   -0.011757
  12 C :   -0.302417
  13 S :   -0.096564
  14 P :    0.605398
  15 S :   -0.292325
  16 O :   -0.362838
  17 C :   -0.108813
  18 O :   -0.388215
  19 C :   -0.101033
  20 H :    0.124895
  21 H :    0.109894
  22 H :    0.110633
  23 H :    0.111254
  24 H :    0.102825
  25 H :    0.113563
  26 H :    0.109526
  27 H :    0.105240
  28 H :    0.117661
  29 H :    0.110725
  30 H :    0.114327
  31 H :    0.128851
  32 H :    0.127230
  33 H :    0.123519
  34 H :    0.130607
  35 H :    0.116555
  36 H :    0.126882
  37 H :    0.120481
Sum of atomic charges:   -0.0000000

LOEWDIN ATOMIC CHARGES
----------------------
   0 C :   -0.357453
   1 C :   -0.107761
   2 O :   -0.051080
   3 C :    0.030722
   4 O :   -0.182953
   5 C :   -0.253437
   6 C :   -0.266750
   7 H :    0.157960
   8 C :    0.010251
   9 O :   -0.136862
  10 O :   -0.060356
  11 C :   -0.110228
  12 C :   -0.355321
  13 S :    0.096756
  14 P :    0.571460
  15 S :   -0.285183
  16 O :   -0.235689
  17 C :   -0.210713
  18 O :   -0.259847
  19 C :   -0.215612
  20 H :    0.129265
  21 H :    0.129010
  22 H :    0.123137
  23 H :    0.122061
  24 H :    0.118278
  25 H :    0.132356
  26 H :    0.140930
  27 H :    0.116950
  28 H :    0.123748
  29 H :    0.123368
  30 H :    0.131349
  31 H :    0.131522
  32 H :    0.117530
  33 H :    0.111478
  34 H :    0.125223
  35 H :    0.109433
  36 H :    0.123456
  37 H :    0.113005

  Mayer bond orders larger than 0.100000
B(  0-C ,  1-C ) :   1.1704 B(  0-C , 20-H ) :   0.9460 B(  0-C , 21-H ) :   0.9449
B(  0-C , 22-H ) :   0.9488 B(  1-C ,  2-O ) :   0.9195 B(  1-C , 23-H ) :   0.9160
B(  1-C , 24-H ) :   0.9380 B(  2-O ,  3-C ) :   1.2485 B(  3-C ,  4-O ) :   2.0158
B(  3-C ,  5-C ) :   0.9968 B(  5-C ,  6-C ) :   1.0384 B(  5-C , 25-H ) :   0.8856
B(  5-C , 26-H ) :   0.8833 B(  6-C ,  7-H ) :   0.8469 B(  6-C ,  8-C ) :   0.9174
B(  6-C , 13-S ) :   1.0012 B(  8-C ,  9-O ) :   2.0359 B(  8-C , 10-O ) :   1.2349
B( 10-O , 11-C ) :   0.8995 B( 11-C , 12-C ) :   1.1727 B( 11-C , 27-H ) :   0.9314
B( 11-C , 28-H ) :   0.9132 B( 12-C , 29-H ) :   0.9485 B( 12-C , 30-H ) :   0.9452
B( 12-C , 31-H ) :   0.9451 B( 13-S , 14-P ) :   0.9589 B( 13-S , 15-S ) :   0.1149
B( 14-P , 15-S ) :   1.6366 B( 14-P , 16-O ) :   1.1190 B( 14-P , 18-O ) :   1.0707
B( 16-O , 17-C ) :   0.9151 B( 17-C , 32-H ) :   0.9475 B( 17-C , 33-H ) :   0.9378
B( 17-C , 34-H ) :   0.9589 B( 18-O , 19-C ) :   0.9297 B( 19-C , 35-H ) :   0.9466
B( 19-C , 36-H ) :   0.9584 B( 19-C , 37-H ) :   0.9361

Dispersion correction           -0.052691449
FINAL SINGLE POINT ENERGY     -1979.021887923317

DIPOLE MOMENT
-------------

Method             : SCF
Type of density    : Electron Density
Multiplicity       :   1
Irrep              :   0
Energy             : -1979.1521967445569317 Eh
Relativity type    :
Basis              : AO
                                X                 Y                 Z
Electronic contribution:    -11.939914894      -1.169837205       2.100017929
Nuclear contribution   :     10.880474268       1.416759769      -2.597213331
                        -----------------------------------------
Total Dipole Moment    :     -1.059440626       0.246922564      -0.497195402
                        -----------------------------------------
Magnitude (a.u.)       :      1.196072097
Magnitude (Debye)      :      3.040173663

Rotational constants in cm-1:             0.014804             0.006494             0.005413
Rotational constants in MHz :           443.800373           194.671714           162.289733

                             ****ORCA TERMINATED NORMALLY****
TOTAL RUN TIME: 0 days 0 hours 0 minutes 44 seconds 83 msec
