                         Program Version 6.0.0  -   RELEASE  -
|  1> ! pbe def2-sv(p) def2/J RI DEFGRID1 loosescf d4 GCP(DFT/SV(P)) printgap
|  2> %output
|  3>     printlevel normal
|  4> end
|  5> * xyz 0 1
|  6> C 3.0160616365 1.7027107473 -1.5478483506
|  7> C 1.8050674581 1.8702793594 -0.6574114814
|  8> O 1.963482958 1.2493108057 0.6393269641
|  9> P 2.3066793505 -0.2606090516 0.9434241844
| 10> S 1.9602578541 -0.7031710923 2.8162871762
| 11> O 3.8300853646 -0.3722499553 0.5063730726
| 12> C 4.6966414145 -1.4143098713 0.9874951334
| 13> C 4.2929555776 -2.7817990181 0.4750221783
| 14> S 1.2543537189 -1.4133363949 -0.5126012861
| 15> C -0.2474495039 -1.650571191 0.4738163094
| 16> S -1.0628208497 -0.1001211437 0.9443935069
| 17> P -2.1725823949 0.1838797901 -0.8681627174
| 18> S -1.1726723513 0.1738055035 -2.5460794927
| 19> O -2.9592389515 1.525013275 -0.5494436164
| 20> C -2.2905177823 2.8029716557 -0.5868377778
| 21> C -3.3531661101 3.8825941908 -0.6105986022
| 22> O -3.2864875503 -0.9269801376 -0.8446398349
| 23> C -4.2697634468 -1.063880234 0.2136240428
| 24> C -5.5458916209 -0.3297778818 -0.1415820339
| 25> H 3.9108258809 2.0495862444 -1.0378370796
| 26> H 3.1428481252 0.6558016678 -1.8161732246
| 27> H 2.8662237702 2.2802123455 -2.4549281519
| 28> H 0.9162530464 1.4503746464 -1.1403578518
| 29> H 1.6268686568 2.9178958496 -0.4095484844
| 30> H 5.6817227769 -1.1214516418 0.6217004758
| 31> H 4.6840434463 -1.3956438204 2.0818120054
| 32> H 5.0483330002 -3.507670921 0.7582878533
| 33> H 3.3402266351 -3.076259625 0.9125193052
| 34> H 4.1930765421 -2.767891565 -0.607477798
| 35> H 0.0140114703 -2.1448711872 1.4089417672
| 36> H -0.9221551738 -2.2578355668 -0.1261330264
| 37> H -1.6573097064 2.882837374 0.3014326239
| 38> H -1.6612238147 2.8389402198 -1.482303892
| 39> H -2.8714880744 4.8544682664 -0.6341887617
| 40> H -3.977786109 3.7710654683 -1.4923280582
| 41> H -3.976107527 3.8127875017 0.276417892
| 42> H -4.4380853104 -2.1397099784 0.2884909336
| 43> H -3.841136849 -0.6881402297 1.1466694352
| 44> H -5.3594062326 0.7381254946 -0.2134293929
| 45> H -5.9257697308 -0.6846627492 -1.0956966338
| 46> H -6.2867291287 -0.5137252696 0.6303147713
| 47> *
| 48>
| 49>                          ****END OF INPUT****

CARTESIAN COORDINATES (ANGSTROEM)
---------------------------------
  C      3.016062    1.702711   -1.547848
  C      1.805067    1.870279   -0.657411
  O      1.963483    1.249311    0.639327
  P      2.306679   -0.260609    0.943424
  S      1.960258   -0.703171    2.816287
  O      3.830085   -0.372250    0.506373
  C      4.696641   -1.414310    0.987495
  C      4.292956   -2.781799    0.475022
  S      1.254354   -1.413336   -0.512601
  C     -0.247450   -1.650571    0.473816
  S     -1.062821   -0.100121    0.944394
  P     -2.172582    0.183880   -0.868163
  S     -1.172672    0.173806   -2.546079
  O     -2.959239    1.525013   -0.549444
  C     -2.290518    2.802972   -0.586838
  C     -3.353166    3.882594   -0.610599
  O     -3.286488   -0.926980   -0.844640
  C     -4.269763   -1.063880    0.213624
  C     -5.545892   -0.329778   -0.141582
  H      3.910826    2.049586   -1.037837
  H      3.142848    0.655802   -1.816173
  H      2.866224    2.280212   -2.454928
  H      0.916253    1.450375   -1.140358
  H      1.626869    2.917896   -0.409548
  H      5.681723   -1.121452    0.621700
  H      4.684043   -1.395644    2.081812
  H      5.048333   -3.507671    0.758288
  H      3.340227   -3.076260    0.912519
  H      4.193077   -2.767892   -0.607478
  H      0.014011   -2.144871    1.408942
  H     -0.922155   -2.257836   -0.126133
  H     -1.657310    2.882837    0.301433
  H     -1.661224    2.838940   -1.482304
  H     -2.871488    4.854468   -0.634189
  H     -3.977786    3.771065   -1.492328
  H     -3.976108    3.812788    0.276418
  H     -4.438085   -2.139710    0.288491
  H     -3.841137   -0.688140    1.146669
  H     -5.359406    0.738125   -0.213429
  H     -5.925770   -0.684663   -1.095697
  H     -6.286729   -0.513725    0.630315

 Total Charge           Charge          ....    0
 Multiplicity           Mult            ....    1
 Number of Electrons    NEL             ....  202
 Basis Dimension        Dim             ....  334

ORBITAL ENERGIES
----------------

  NO   OCC          E(Eh)            E(eV)
   0   2.0000     -88.043229     -2395.7780
   1   2.0000     -88.038937     -2395.6613
   2   2.0000     -87.987697     -2394.2670
   3   2.0000     -87.981257     -2394.0917
   4   2.0000     -76.428967     -2079.7379
   5   2.0000     -76.422977     -2079.5749
   6   2.0000     -18.800614      -511.5907
   7   2.0000     -18.799579      -511.5626
   8   2.0000     -18.790112      -511.3049
   9   2.0000     -18.783675      -511.1298
  10   2.0000      -9.960816      -271.0476
  11   2.0000      -9.960480      -271.0385
  12   2.0000      -9.957305      -270.9521
  13   2.0000      -9.950380      -270.7636
  14   2.0000      -9.944999      -270.6172
  15   2.0000      -9.894704      -269.2486
  16   2.0000      -9.890065      -269.1224
  17   2.0000      -9.881790      -268.8972
  18   2.0000      -9.879991      -268.8482
  19   2.0000      -7.687574      -209.1895
  20   2.0000      -7.683571      -209.0806
  21   2.0000      -7.632740      -207.6974
  22   2.0000      -7.626598      -207.5303
  23   2.0000      -6.426598      -174.8766
  24   2.0000      -6.420057      -174.6986
  25   2.0000      -5.715219      -155.5190
  26   2.0000      -5.712223      -155.4375
  27   2.0000      -5.711338      -155.4134
  28   2.0000      -5.708217      -155.3285
  29   2.0000      -5.704763      -155.2345
  30   2.0000      -5.700574      -155.1205
  31   2.0000      -5.661690      -154.0624
  32   2.0000      -5.655518      -153.8945
  33   2.0000      -5.653334      -153.8350
  34   2.0000      -5.652885      -153.8228
  35   2.0000      -5.647139      -153.6665
  36   2.0000      -5.646782      -153.6567
  37   2.0000      -4.649711      -126.5251
  38   2.0000      -4.648382      -126.4889
  39   2.0000      -4.646483      -126.4372
  40   2.0000      -4.642803      -126.3371
  41   2.0000      -4.641902      -126.3126
  42   2.0000      -4.640387      -126.2713
  43   2.0000      -0.995472       -27.0882
  44   2.0000      -0.981943       -26.7200
  45   2.0000      -0.953629       -25.9496
  46   2.0000      -0.940136       -25.5824
  47   2.0000      -0.762685       -20.7537
  48   2.0000      -0.723953       -19.6998
  49   2.0000      -0.709166       -19.2974
  50   2.0000      -0.698796       -19.0152
  51   2.0000      -0.685807       -18.6618
  52   2.0000      -0.673465       -18.3259
  53   2.0000      -0.650147       -17.6914
  54   2.0000      -0.637636       -17.3510
  55   2.0000      -0.595615       -16.2075
  56   2.0000      -0.592339       -16.1184
  57   2.0000      -0.576276       -15.6813
  58   2.0000      -0.571416       -15.5490
  59   2.0000      -0.563896       -15.3444
  60   2.0000      -0.515241       -14.0204
  61   2.0000      -0.489358       -13.3161
  62   2.0000      -0.487821       -13.2743
  63   2.0000      -0.467000       -12.7077
  64   2.0000      -0.457818       -12.4579
  65   2.0000      -0.450102       -12.2479
  66   2.0000      -0.441087       -12.0026
  67   2.0000      -0.439800       -11.9676
  68   2.0000      -0.432468       -11.7681
  69   2.0000      -0.418691       -11.3932
  70   2.0000      -0.408107       -11.1052
  71   2.0000      -0.396630       -10.7929
  72   2.0000      -0.390846       -10.6355
  73   2.0000      -0.386700       -10.5226
  74   2.0000      -0.379358       -10.3229
  75   2.0000      -0.372638       -10.1400
  76   2.0000      -0.365501        -9.9458
  77   2.0000      -0.361697        -9.8423
  78   2.0000      -0.358590        -9.7577
  79   2.0000      -0.357482        -9.7276
  80   2.0000      -0.350785        -9.5453
  81   2.0000      -0.346112        -9.4182
  82   2.0000      -0.344612        -9.3774
  83   2.0000      -0.340384        -9.2623
  84   2.0000      -0.332918        -9.0592
  85   2.0000      -0.323508        -8.8031
  86   2.0000      -0.309529        -8.4227
  87   2.0000      -0.306337        -8.3359
  88   2.0000      -0.299423        -8.1477
  89   2.0000      -0.289967        -7.8904
  90   2.0000      -0.286912        -7.8073
  91   2.0000      -0.279704        -7.6111
  92   2.0000      -0.269735        -7.3398
  93   2.0000      -0.259365        -7.0577
  94   2.0000      -0.258724        -7.0402
  95   2.0000      -0.241633        -6.5752
  96   2.0000      -0.215260        -5.8575
  97   2.0000      -0.209932        -5.7125
  98   2.0000      -0.202743        -5.5169
  99   2.0000      -0.199540        -5.4297
 100   2.0000      -0.190945        -5.1959
 101   0.0000      -0.042074        -1.1449
 102   0.0000      -0.028280        -0.7695
 103   0.0000      -0.004170        -0.1135
 104   0.0000       0.003894         0.1060
 105   0.0000       0.014418         0.3923

MULLIKEN ATOMIC CHARGES
-----------------------
   0 C :   -0.300038
   1 C :   -0.028950
   2 O :   -0.355369
   3 P :    0.600653
   4 S :   -0.326801
   5 O :   -0.373463
   6 C :   -0.001665
   7 C :   -0.314896
   8 S :   -0.080448
   9 C :   -0.346434
  10 S :   -0.082301
  11 P :    0.587959
  12 S :   -0.299974
  13 O :   -0.384126
  14 C :   -0.025442
  15 C :   -0.280615
  16 O :   -0.359248
  17 C :   -0.011757
  18 C :   -0.294807
  19 H :    0.117180
  20 H :    0.117972
  21 H :    0.112144
  22 H :    0.126812
  23 H :    0.099586
  24 H :    0.104359
  25 H :    0.113564
  26 H :    0.112295
  27 H :    0.124942
  28 H :    0.117262
  29 H :    0.194220
  30 H :    0.182712
  31 H :    0.115510
  32 H :    0.109508
  33 H :    0.115017
  34 H :    0.123127
  35 H :    0.118749
  36 H :    0.109699
  37 H :    0.104909
  38 H :    0.125403
  39 H :    0.120949
  40 H :    0.111801
Sum of atomic charges:   -0.0000000

LOEWDIN ATOMIC CHARGES
----------------------
   0 C :   -0.363177
   1 C :   -0.124537
   2 O :   -0.233755
   3 P :    0.570826
   4 S :   -0.322177
   5 O :   -0.241983
   6 C :   -0.117771
   7 C :   -0.370568
   8 S :    0.085937
   9 C :   -0.478775
  10 S :    0.078231
  11 P :    0.561906
  12 S :   -0.302795
  13 O :   -0.248805
  14 C :   -0.120083
  15 C :   -0.350261
  16 O :   -0.236678
  17 C :   -0.115054
  18 C :   -0.359808
  19 H :    0.125682
  20 H :    0.119189
  21 H :    0.131299
  22 H :    0.100257
  23 H :    0.117005
  24 H :    0.118435
  25 H :    0.112417
  26 H :    0.130607
  27 H :    0.120359
  28 H :    0.123598
  29 H :    0.131594
  30 H :    0.132840
  31 H :    0.113223
  32 H :    0.109961
  33 H :    0.132666
  34 H :    0.129905
  35 H :    0.127078
  36 H :    0.121019
  37 H :    0.105683
  38 H :    0.126514
  39 H :    0.129254
  40 H :    0.130741

  Mayer bond orders larger than 0.100000
B(  0-C ,  1-C ) :   1.1741 B(  0-C , 19-H ) :   0.9450 B(  0-C , 20-H ) :   0.9388
B(  0-C , 21-H ) :   0.9363 B(  1-C ,  2-O ) :   0.8954 B(  1-C , 22-H ) :   0.8909
B(  1-C , 23-H ) :   0.9336 B(  2-O ,  3-P ) :   1.1496 B(  3-P ,  4-S ) :   1.6067
B(  3-P ,  5-O ) :   1.0945 B(  3-P ,  8-S ) :   0.9457 B(  4-S ,  8-S ) :   0.1083
B(  5-O ,  6-C ) :   0.9071 B(  6-C ,  7-C ) :   1.1653 B(  6-C , 24-H ) :   0.9341
B(  6-C , 25-H ) :   0.9164 B(  7-C , 26-H ) :   0.9375 B(  7-C , 27-H ) :   0.9346
B(  7-C , 28-H ) :   0.9447 B(  8-S ,  9-C ) :   1.0074 B(  9-C , 10-S ) :   0.9948
B(  9-C , 29-H ) :   0.8832 B(  9-C , 30-H ) :   0.8963 B( 10-S , 11-P ) :   0.9552
B( 10-S , 12-S ) :   0.1129 B( 11-P , 12-S ) :   1.6562 B( 11-P , 13-O ) :   1.0750
B( 11-P , 16-O ) :   1.1305 B( 13-O , 14-C ) :   0.9047 B( 14-C , 15-C ) :   1.1607
B( 14-C , 31-H ) :   0.9278 B( 14-C , 32-H ) :   0.9102 B( 15-C , 33-H ) :   0.9412
B( 15-C , 34-H ) :   0.9502 B( 15-C , 35-H ) :   0.9503 B( 16-O , 17-C ) :   0.8888
B( 17-C , 18-C ) :   1.1670 B( 17-C , 36-H ) :   0.9356 B( 17-C , 37-H ) :   0.9098
B( 18-C , 38-H ) :   0.9411 B( 18-C , 39-H ) :   0.9469 B( 18-C , 40-H ) :   0.9393

Dispersion correction           -0.064995534
FINAL SINGLE POINT ENERGY     -2929.520434904882

DIPOLE MOMENT
-------------

Method             : SCF
Type of density    : Electron Density
Multiplicity       :   1
Irrep              :   0
Energy             : -2929.6400263882569561 Eh
Relativity type    :
Basis              : AO
                                X                 Y                 Z
Electronic contribution:      4.677329322      -7.273768669       3.802635850
Nuclear contribution   :     -5.308012158       7.611975178      -3.922566426
                        -----------------------------------------
Total Dipole Moment    :     -0.630682837       0.338206509      -0.119930576
                        -----------------------------------------
Magnitude (a.u.)       :      0.725622372
Magnitude (Debye)      :      1.844385493

Rotational constants in cm-1:             0.013443             0.004629             0.004290
Rotational constants in MHz :           403.013650           138.788902           128.612471

                             ****ORCA TERMINATED NORMALLY****
TOTAL RUN TIME: 0 days 0 hours 0 minutes 20 seconds 847 msec
