                         Program Version 6.0.0  -   RELEASE  -
|  1> ! pbe def2-sv(p) def2/J RI DEFGRID1 loosescf d4 GCP(DFT/SV(P)) printgap
|  2> %output
|  3>     printlevel normal
|  4> end
|  5> * xyz 0 1
|  6> C 1.9592264623 -0.5502607268 -3.4822307812
|  7> C 2.2940310412 -1.2014827897 -2.1578728234
|  8> O 2.6864471811 -0.1565173854 -1.2305164749
|  9> P 2.6844459685 -0.3800487448 0.3300317802
| 10> S 3.4808906127 1.1256107657 1.2885710539
| 11> O 3.4267306864 -1.7798832723 0.4632488012
| 12> C 4.0039254149 -2.2401701807 1.7004647104
| 13> C 2.9576169728 -2.4909005151 2.7664608704
| 14> S 0.6631101095 -0.8108753549 0.8248400942
| 15> C 0.1877920205 0.9273334612 1.1218135507
| 16> S -1.5569032674 1.0506716992 1.5187020368
| 17> P -2.3311261253 0.8970914377 -0.4814115177
| 18> S -1.0295770714 1.1407404744 -1.9195473572
| 19> O -3.4446146111 2.0021669691 -0.563614759
| 20> C -4.5300606516 2.1186862111 0.3922051743
| 21> C -5.781065237 1.4428927334 -0.1299823105
| 22> O -3.1913971118 -0.4408936045 -0.4620109419
| 23> C -2.66564064 -1.7572638873 -0.2130715406
| 24> C -2.0037395931 -2.3406583302 -1.4451767037
| 25> H 1.6961699533 -1.3197609636 -4.2004841749
| 26> H 1.1196443149 0.1315851625 -3.3640849588
| 27> H 2.8140071223 0.0109922571 -3.8479294139
| 28> H 3.1321501025 -1.8949100148 -2.2474359265
| 29> H 1.4310207505 -1.7294708882 -1.741054108
| 30> H 4.5196149175 -3.1585631095 1.4165227988
| 31> H 4.7287860819 -1.4940604861 2.0394999057
| 32> H 2.5105807429 -1.5482812067 3.0787987423
| 33> H 2.1756095942 -3.1426834739 2.3851594677
| 34> H 3.4287795888 -2.9559833639 3.6263891885
| 35> H 0.3986101241 1.5049645036 0.2187554127
| 36> H 0.7483318883 1.310239945 1.9727665664
| 37> H -4.2095521578 1.6889390048 1.3451454059
| 38> H -4.6763020149 3.1942951812 0.5051187226
| 39> H -6.0566811994 1.8650696013 -1.0924711427
| 40> H -5.6128243966 0.3766005745 -0.2512639177
| 41> H -6.5900816267 1.6016527949 0.5761201657
| 42> H -1.9595513437 -1.7102813236 0.6224829657
| 43> H -3.5415223944 -2.3392080415 0.0794694443
| 44> H -2.704976213 -2.3632985024 -2.2748425473
| 45> H -1.1474688302 -1.7353146704 -1.7338289838
| 46> H -1.6679742869 -3.3489153467 -1.2265780228
| 47> *
| 48>
| 49>                          ****END OF INPUT****

CARTESIAN COORDINATES (ANGSTROEM)
---------------------------------
  C      1.959226   -0.550261   -3.482231
  C      2.294031   -1.201483   -2.157873
  O      2.686447   -0.156517   -1.230516
  P      2.684446   -0.380049    0.330032
  S      3.480891    1.125611    1.288571
  O      3.426731   -1.779883    0.463249
  C      4.003925   -2.240170    1.700465
  C      2.957617   -2.490901    2.766461
  S      0.663110   -0.810875    0.824840
  C      0.187792    0.927333    1.121814
  S     -1.556903    1.050672    1.518702
  P     -2.331126    0.897091   -0.481412
  S     -1.029577    1.140740   -1.919547
  O     -3.444615    2.002167   -0.563615
  C     -4.530061    2.118686    0.392205
  C     -5.781065    1.442893   -0.129982
  O     -3.191397   -0.440894   -0.462011
  C     -2.665641   -1.757264   -0.213072
  C     -2.003740   -2.340658   -1.445177
  H      1.696170   -1.319761   -4.200484
  H      1.119644    0.131585   -3.364085
  H      2.814007    0.010992   -3.847929
  H      3.132150   -1.894910   -2.247436
  H      1.431021   -1.729471   -1.741054
  H      4.519615   -3.158563    1.416523
  H      4.728786   -1.494060    2.039500
  H      2.510581   -1.548281    3.078799
  H      2.175610   -3.142683    2.385159
  H      3.428780   -2.955983    3.626389
  H      0.398610    1.504965    0.218755
  H      0.748332    1.310240    1.972767
  H     -4.209552    1.688939    1.345145
  H     -4.676302    3.194295    0.505119
  H     -6.056681    1.865070   -1.092471
  H     -5.612824    0.376601   -0.251264
  H     -6.590082    1.601653    0.576120
  H     -1.959551   -1.710281    0.622483
  H     -3.541522   -2.339208    0.079469
  H     -2.704976   -2.363299   -2.274843
  H     -1.147469   -1.735315   -1.733829
  H     -1.667974   -3.348915   -1.226578

 Total Charge           Charge          ....    0
 Multiplicity           Mult            ....    1
 Number of Electrons    NEL             ....  202
 Basis Dimension        Dim             ....  334

ORBITAL ENERGIES
----------------

  NO   OCC          E(Eh)            E(eV)
   0   2.0000     -88.049799     -2395.9568
   1   2.0000     -88.040805     -2395.7121
   2   2.0000     -87.990183     -2394.3346
   3   2.0000     -87.985069     -2394.1955
   4   2.0000     -76.430586     -2079.7820
   5   2.0000     -76.424556     -2079.6179
   6   2.0000     -18.797176      -511.4972
   7   2.0000     -18.796015      -511.4656
   8   2.0000     -18.794183      -511.4157
   9   2.0000     -18.787427      -511.2319
  10   2.0000      -9.964032      -271.1351
  11   2.0000      -9.958383      -270.9814
  12   2.0000      -9.955331      -270.8983
  13   2.0000      -9.951658      -270.7984
  14   2.0000      -9.950368      -270.7633
  15   2.0000      -9.891432      -269.1595
  16   2.0000      -9.886035      -269.0127
  17   2.0000      -9.883990      -268.9571
  18   2.0000      -9.879229      -268.8275
  19   2.0000      -7.694561      -209.3797
  20   2.0000      -7.685427      -209.1311
  21   2.0000      -7.634988      -207.7586
  22   2.0000      -7.630378      -207.6331
  23   2.0000      -6.428121      -174.9181
  24   2.0000      -6.422134      -174.7551
  25   2.0000      -5.722331      -155.7126
  26   2.0000      -5.719109      -155.6249
  27   2.0000      -5.713179      -155.4635
  28   2.0000      -5.711696      -155.4232
  29   2.0000      -5.710157      -155.3813
  30   2.0000      -5.702406      -155.1704
  31   2.0000      -5.664011      -154.1256
  32   2.0000      -5.659402      -154.0002
  33   2.0000      -5.655546      -153.8952
  34   2.0000      -5.655076      -153.8824
  35   2.0000      -5.650862      -153.7678
  36   2.0000      -5.650546      -153.7592
  37   2.0000      -4.650821      -126.5553
  38   2.0000      -4.650020      -126.5335
  39   2.0000      -4.648333      -126.4876
  40   2.0000      -4.645007      -126.3971
  41   2.0000      -4.643829      -126.3650
  42   2.0000      -4.642402      -126.3262
  43   2.0000      -0.993522       -27.0351
  44   2.0000      -0.987300       -26.8658
  45   2.0000      -0.949979       -25.8502
  46   2.0000      -0.943056       -25.6618
  47   2.0000      -0.764054       -20.7910
  48   2.0000      -0.724444       -19.7131
  49   2.0000      -0.713155       -19.4059
  50   2.0000      -0.694685       -18.9033
  51   2.0000      -0.689119       -18.7519
  52   2.0000      -0.677171       -18.4268
  53   2.0000      -0.652873       -17.7656
  54   2.0000      -0.636974       -17.3329
  55   2.0000      -0.595845       -16.2138
  56   2.0000      -0.591672       -16.1002
  57   2.0000      -0.579427       -15.7670
  58   2.0000      -0.566663       -15.4197
  59   2.0000      -0.564001       -15.3473
  60   2.0000      -0.508896       -13.8478
  61   2.0000      -0.502102       -13.6629
  62   2.0000      -0.483685       -13.1618
  63   2.0000      -0.473908       -12.8957
  64   2.0000      -0.455025       -12.3819
  65   2.0000      -0.450392       -12.2558
  66   2.0000      -0.444434       -12.0937
  67   2.0000      -0.438011       -11.9189
  68   2.0000      -0.432399       -11.7662
  69   2.0000      -0.425196       -11.5702
  70   2.0000      -0.408988       -11.1291
  71   2.0000      -0.401339       -10.9210
  72   2.0000      -0.391831       -10.6623
  73   2.0000      -0.388257       -10.5650
  74   2.0000      -0.387306       -10.5391
  75   2.0000      -0.366400        -9.9702
  76   2.0000      -0.364362        -9.9148
  77   2.0000      -0.361987        -9.8502
  78   2.0000      -0.353977        -9.6322
  79   2.0000      -0.351719        -9.5708
  80   2.0000      -0.349602        -9.5131
  81   2.0000      -0.346730        -9.4350
  82   2.0000      -0.340428        -9.2635
  83   2.0000      -0.338384        -9.2079
  84   2.0000      -0.335735        -9.1358
  85   2.0000      -0.324202        -8.8220
  86   2.0000      -0.312290        -8.4979
  87   2.0000      -0.301802        -8.2125
  88   2.0000      -0.298256        -8.1160
  89   2.0000      -0.295453        -8.0397
  90   2.0000      -0.293584        -7.9888
  91   2.0000      -0.282819        -7.6959
  92   2.0000      -0.268253        -7.2995
  93   2.0000      -0.266781        -7.2595
  94   2.0000      -0.260854        -7.0982
  95   2.0000      -0.232248        -6.3198
  96   2.0000      -0.223584        -6.0840
  97   2.0000      -0.210114        -5.7175
  98   2.0000      -0.206613        -5.6222
  99   2.0000      -0.203448        -5.5361
 100   2.0000      -0.197847        -5.3837
 101   0.0000      -0.049703        -1.3525
 102   0.0000      -0.034665        -0.9433
 103   0.0000      -0.012925        -0.3517
 104   0.0000       0.004033         0.1097
 105   0.0000       0.013835         0.3765

MULLIKEN ATOMIC CHARGES
-----------------------
   0 C :   -0.288657
   1 C :   -0.021384
   2 O :   -0.355506
   3 P :    0.610242
   4 S :   -0.314776
   5 O :   -0.386395
   6 C :    0.000522
   7 C :   -0.317621
   8 S :   -0.130899
   9 C :   -0.331853
  10 S :   -0.120905
  11 P :    0.606050
  12 S :   -0.303163
  13 O :   -0.352371
  14 C :   -0.019711
  15 C :   -0.289407
  16 O :   -0.375749
  17 C :   -0.018003
  18 C :   -0.319362
  19 H :    0.105232
  20 H :    0.142414
  21 H :    0.118176
  22 H :    0.105096
  23 H :    0.108410
  24 H :    0.105077
  25 H :    0.113796
  26 H :    0.129382
  27 H :    0.115320
  28 H :    0.114047
  29 H :    0.203734
  30 H :    0.189768
  31 H :    0.109253
  32 H :    0.117291
  33 H :    0.123545
  34 H :    0.123846
  35 H :    0.111476
  36 H :    0.113852
  37 H :    0.104957
  38 H :    0.114528
  39 H :    0.152574
  40 H :    0.107177
Sum of atomic charges:   -0.0000000

LOEWDIN ATOMIC CHARGES
----------------------
   0 C :   -0.353749
   1 C :   -0.114799
   2 O :   -0.236319
   3 P :    0.572461
   4 S :   -0.308302
   5 O :   -0.249345
   6 C :   -0.114988
   7 C :   -0.370989
   8 S :    0.060272
   9 C :   -0.481737
  10 S :    0.068905
  11 P :    0.568076
  12 S :   -0.280693
  13 O :   -0.232614
  14 C :   -0.110988
  15 C :   -0.358929
  16 O :   -0.244402
  17 C :   -0.118575
  18 C :   -0.368710
  19 H :    0.128867
  20 H :    0.124995
  21 H :    0.128870
  22 H :    0.113577
  23 H :    0.102917
  24 H :    0.118798
  25 H :    0.114038
  26 H :    0.122081
  27 H :    0.122565
  28 H :    0.131529
  29 H :    0.124089
  30 H :    0.131520
  31 H :    0.105405
  32 H :    0.124805
  33 H :    0.131046
  34 H :    0.127249
  35 H :    0.130329
  36 H :    0.097367
  37 H :    0.118111
  38 H :    0.127186
  39 H :    0.121428
  40 H :    0.128652

  Mayer bond orders larger than 0.100000
B(  0-C ,  1-C ) :   1.1686 B(  0-C , 19-H ) :   0.9394 B(  0-C , 20-H ) :   0.9361
B(  0-C , 21-H ) :   0.9480 B(  1-C ,  2-O ) :   0.8890 B(  1-C , 22-H ) :   0.9295
B(  1-C , 23-H ) :   0.9060 B(  2-O ,  3-P ) :   1.1438 B(  3-P ,  4-S ) :   1.6338
B(  3-P ,  5-O ) :   1.0850 B(  3-P ,  8-S ) :   0.9533 B(  4-S ,  8-S ) :   0.1093
B(  5-O ,  6-C ) :   0.9070 B(  6-C ,  7-C ) :   1.1657 B(  6-C , 24-H ) :   0.9346
B(  6-C , 25-H ) :   0.9197 B(  7-C , 26-H ) :   0.9346 B(  7-C , 27-H ) :   0.9440
B(  7-C , 28-H ) :   0.9368 B(  8-S ,  9-C ) :   0.9711 B(  9-C , 10-S ) :   1.0185
B(  9-C , 29-H ) :   0.8623 B(  9-C , 30-H ) :   0.8863 B( 10-S , 11-P ) :   0.9292
B( 10-S , 12-S ) :   0.1152 B( 11-P , 12-S ) :   1.6533 B( 11-P , 13-O ) :   1.1508
B( 11-P , 16-O ) :   1.0791 B( 13-O , 14-C ) :   0.8910 B( 14-C , 15-C ) :   1.1660
B( 14-C , 31-H ) :   0.9161 B( 14-C , 32-H ) :   0.9352 B( 15-C , 33-H ) :   0.9463
B( 15-C , 34-H ) :   0.9413 B( 15-C , 35-H ) :   0.9391 B( 16-O , 17-C ) :   0.9100
B( 17-C , 18-C ) :   1.1652 B( 17-C , 36-H ) :   0.9054 B( 17-C , 37-H ) :   0.9342
B( 18-C , 38-H ) :   0.9431 B( 18-C , 39-H ) :   0.9197 B( 18-C , 40-H ) :   0.9393

Dispersion correction           -0.063665910
FINAL SINGLE POINT ENERGY     -2929.517457648272

DIPOLE MOMENT
-------------

Method             : SCF
Type of density    : Electron Density
Multiplicity       :   1
Irrep              :   0
Energy             : -2929.6388442035536173 Eh
Relativity type    :
Basis              : AO
                                X                 Y                 Z
Electronic contribution:      8.052060915      14.889605108       4.309022110
Nuclear contribution   :     -9.247032432     -16.541908547      -3.800267451
                        -----------------------------------------
Total Dipole Moment    :     -1.194971517      -1.652303439       0.508754659
                        -----------------------------------------
Magnitude (a.u.)       :      2.101640998
Magnitude (Debye)      :      5.341946885

Rotational constants in cm-1:             0.013113             0.004453             0.004205
Rotational constants in MHz :           393.121806           133.505056           126.064403

                             ****ORCA TERMINATED NORMALLY****
TOTAL RUN TIME: 0 days 0 hours 0 minutes 20 seconds 981 msec
