                         Program Version 6.0.1  -  RELEASE   -
|  1> ! pbe def2-sv(p) def2/J RI DEFGRID1 loosescf d4 GCP(DFT/SV(P)) printgap
|  2> %output
|  3>     printlevel normal
|  4> end
|  5> * xyz 0 1
|  6> C 1.9972735859 -3.315403578 -2.8006514603
|  7> C 3.043979351 -3.0739451468 -1.7244563681
|  8> O 2.8795268536 -1.7624688018 -1.1511846152
|  9> C 2.0860175524 -1.6269589724 -0.1095167844
| 10> O 1.532608915 -2.5379684762 0.4647421242
| 11> C 1.9155967787 -0.1655042497 0.2649740423
| 12> C 1.0188782254 0.4964298686 -0.7852536457
| 13> H 1.5519974779 0.565138065 -1.7376369611
| 14> C 0.5665596634 1.8848143154 -0.3645656697
| 15> O -0.6031495111 2.2117181351 -0.3534821179
| 16> O 1.57613499 2.647181872 -0.0524070224
| 17> C 1.3105305083 3.9766518488 0.4475256632
| 18> C 1.2113862991 3.9563489276 1.9636314047
| 19> S -0.4683214727 -0.4904282402 -1.1603919305
| 20> P -1.7196013714 -0.0277101074 0.4982178253
| 21> S -0.9823454665 0.6101116065 2.1961225738
| 22> O -2.9487299804 0.8232567256 -0.0089802188
| 23> C -3.6911809639 0.4945143007 -1.198266001
| 24> O -2.4471807961 -1.455175934 0.6655236239
| 25> C -1.7843566406 -2.5545193193 1.2940743343
| 26> H 2.0805129758 -2.5650120497 -3.5814474869
| 27> H 2.1449426107 -4.2998879805 -3.2316929735
| 28> H 0.9993638705 -3.2607872183 -2.3707755993
| 29> H 4.0515004259 -3.0710719042 -2.1404336518
| 30> H 2.961971637 -3.8168849717 -0.9263268165
| 31> H 2.8820163163 0.3370739528 0.2702470187
| 32> H 1.4567363567 -0.1087352983 1.2539580954
| 33> H 2.1601228506 4.5697195407 0.1092074252
| 34> H 0.3820379429 4.3399817839 -0.000245809
| 35> H 2.136424583 3.5885612429 2.3977585798
| 36> H 1.0190595682 4.9609217985 2.3249060228
| 37> H 0.3971601116 3.3057695865 2.2794755921
| 38> H -3.0311636976 0.5180324433 -2.0654809906
| 39> H -4.452685654 1.266188708 -1.2749473478
| 40> H -4.1423909868 -0.4909409284 -1.0948553478
| 41> H -2.478628176 -3.3880578012 1.2343624521
| 42> H -1.5655796734 -2.3093425507 2.3342271081
| 43> H -0.8513503302 -2.7931473783 0.7810041299
| 44> *
| 45>
| 46>                          ****END OF INPUT****

CARTESIAN COORDINATES (ANGSTROEM)
---------------------------------
  C      1.997274   -3.315404   -2.800651
  C      3.043979   -3.073945   -1.724456
  O      2.879527   -1.762469   -1.151185
  C      2.086018   -1.626959   -0.109517
  O      1.532609   -2.537968    0.464742
  C      1.915597   -0.165504    0.264974
  C      1.018878    0.496430   -0.785254
  H      1.551997    0.565138   -1.737637
  C      0.566560    1.884814   -0.364566
  O     -0.603150    2.211718   -0.353482
  O      1.576135    2.647182   -0.052407
  C      1.310531    3.976652    0.447526
  C      1.211386    3.956349    1.963631
  S     -0.468321   -0.490428   -1.160392
  P     -1.719601   -0.027710    0.498218
  S     -0.982345    0.610112    2.196123
  O     -2.948730    0.823257   -0.008980
  C     -3.691181    0.494514   -1.198266
  O     -2.447181   -1.455176    0.665524
  C     -1.784357   -2.554519    1.294074
  H      2.080513   -2.565012   -3.581447
  H      2.144943   -4.299888   -3.231693
  H      0.999364   -3.260787   -2.370776
  H      4.051500   -3.071072   -2.140434
  H      2.961972   -3.816885   -0.926327
  H      2.882016    0.337074    0.270247
  H      1.456736   -0.108735    1.253958
  H      2.160123    4.569720    0.109207
  H      0.382038    4.339982   -0.000246
  H      2.136425    3.588561    2.397759
  H      1.019060    4.960922    2.324906
  H      0.397160    3.305770    2.279476
  H     -3.031164    0.518032   -2.065481
  H     -4.452686    1.266189   -1.274947
  H     -4.142391   -0.490941   -1.094855
  H     -2.478628   -3.388058    1.234362
  H     -1.565580   -2.309343    2.334227
  H     -0.851350   -2.793147    0.781004

 Total Charge           Charge          ....    0
 Multiplicity           Mult            ....    1
 Number of Electrons    NEL             ....  174
 Basis Dimension        Dim             ....  316

ORBITAL ENERGIES
----------------

  NO   OCC          E(Eh)            E(eV)
   0   2.0000     -88.037889     -2395.6327
   1   2.0000     -87.975400     -2393.9323
   2   2.0000     -76.419831     -2079.4893
   3   2.0000     -18.818126      -512.0672
   4   2.0000     -18.806624      -511.7543
   5   2.0000     -18.781597      -511.0732
   6   2.0000     -18.776541      -510.9357
   7   2.0000     -18.748123      -510.1624
   8   2.0000     -18.741516      -509.9826
   9   2.0000     -10.023495      -272.7532
  10   2.0000     -10.011981      -272.4399
  11   2.0000      -9.954556      -270.8773
  12   2.0000      -9.953493      -270.8483
  13   2.0000      -9.951226      -270.7866
  14   2.0000      -9.941398      -270.5192
  15   2.0000      -9.924018      -270.0463
  16   2.0000      -9.905756      -269.5493
  17   2.0000      -9.890109      -269.1236
  18   2.0000      -9.883925      -268.9553
  19   2.0000      -7.682500      -209.0514
  20   2.0000      -7.620553      -207.3658
  21   2.0000      -6.416008      -174.5885
  22   2.0000      -5.710505      -155.3907
  23   2.0000      -5.707046      -155.2966
  24   2.0000      -5.699302      -155.0859
  25   2.0000      -5.649754      -153.7376
  26   2.0000      -5.641269      -153.5067
  27   2.0000      -5.640223      -153.4783
  28   2.0000      -4.638711      -126.2257
  29   2.0000      -4.638055      -126.2079
  30   2.0000      -4.636439      -126.1639
  31   2.0000      -1.026551       -27.9339
  32   2.0000      -1.014524       -27.6066
  33   2.0000      -0.974177       -26.5087
  34   2.0000      -0.930538       -25.3212
  35   2.0000      -0.927224       -25.2310
  36   2.0000      -0.918063       -24.9818
  37   2.0000      -0.767825       -20.8936
  38   2.0000      -0.713328       -19.4107
  39   2.0000      -0.708903       -19.2902
  40   2.0000      -0.686378       -18.6773
  41   2.0000      -0.655739       -17.8436
  42   2.0000      -0.626169       -17.0389
  43   2.0000      -0.619358       -16.8536
  44   2.0000      -0.613988       -16.7075
  45   2.0000      -0.595303       -16.1990
  46   2.0000      -0.568679       -15.4745
  47   2.0000      -0.510221       -13.8838
  48   2.0000      -0.504480       -13.7276
  49   2.0000      -0.499411       -13.5897
  50   2.0000      -0.484452       -13.1826
  51   2.0000      -0.462569       -12.5871
  52   2.0000      -0.459084       -12.4923
  53   2.0000      -0.448838       -12.2135
  54   2.0000      -0.438998       -11.9457
  55   2.0000      -0.433231       -11.7888
  56   2.0000      -0.420911       -11.4536
  57   2.0000      -0.419543       -11.4163
  58   2.0000      -0.408246       -11.1090
  59   2.0000      -0.401682       -10.9303
  60   2.0000      -0.399364       -10.8673
  61   2.0000      -0.395954       -10.7745
  62   2.0000      -0.389958       -10.6113
  63   2.0000      -0.388059       -10.5596
  64   2.0000      -0.379455       -10.3255
  65   2.0000      -0.364094        -9.9075
  66   2.0000      -0.361048        -9.8246
  67   2.0000      -0.354083        -9.6351
  68   2.0000      -0.348318        -9.4782
  69   2.0000      -0.334864        -9.1121
  70   2.0000      -0.333161        -9.0658
  71   2.0000      -0.331916        -9.0319
  72   2.0000      -0.327957        -8.9242
  73   2.0000      -0.312371        -8.5001
  74   2.0000      -0.302546        -8.2327
  75   2.0000      -0.298123        -8.1124
  76   2.0000      -0.291217        -7.9244
  77   2.0000      -0.285265        -7.7625
  78   2.0000      -0.270724        -7.3668
  79   2.0000      -0.265667        -7.2292
  80   2.0000      -0.262164        -7.1338
  81   2.0000      -0.248121        -6.7517
  82   2.0000      -0.240398        -6.5416
  83   2.0000      -0.221971        -6.0401
  84   2.0000      -0.217498        -5.9184
  85   2.0000      -0.195321        -5.3150
  86   2.0000      -0.188659        -5.1337
  87   0.0000      -0.044191        -1.2025
  88   0.0000      -0.035408        -0.9635
  89   0.0000      -0.017942        -0.4882
  90   0.0000       0.003330         0.0906
  91   0.0000       0.025631         0.6975

MULLIKEN ATOMIC CHARGES
-----------------------
   0 C :   -0.306020
   1 C :   -0.015902
   2 O :   -0.234821
   3 C :    0.121710
   4 O :   -0.187183
   5 C :   -0.044483
   6 C :   -0.337132
   7 H :    0.152793
   8 C :    0.210381
   9 O :   -0.177599
  10 O :   -0.222383
  11 C :   -0.013557
  12 C :   -0.310721
  13 S :   -0.097564
  14 P :    0.624463
  15 S :   -0.318902
  16 O :   -0.355207
  17 C :   -0.103999
  18 O :   -0.395660
  19 C :   -0.123680
  20 H :    0.111920
  21 H :    0.113887
  22 H :    0.129907
  23 H :    0.104440
  24 H :    0.112404
  25 H :    0.112220
  26 H :    0.118103
  27 H :    0.105197
  28 H :    0.116386
  29 H :    0.112611
  30 H :    0.112463
  31 H :    0.147131
  32 H :    0.119436
  33 H :    0.129818
  34 H :    0.121773
  35 H :    0.111978
  36 H :    0.116371
  37 H :    0.139421
Sum of atomic charges:   -0.0000000

LOEWDIN ATOMIC CHARGES
----------------------
   0 C :   -0.356893
   1 C :   -0.111727
   2 O :   -0.061386
   3 C :    0.023929
   4 O :   -0.158369
   5 C :   -0.254315
   6 C :   -0.260015
   7 H :    0.149601
   8 C :    0.012984
   9 O :   -0.156450
  10 O :   -0.039837
  11 C :   -0.106308
  12 C :   -0.358141
  13 S :    0.106428
  14 P :    0.591335
  15 S :   -0.304834
  16 O :   -0.232034
  17 C :   -0.209073
  18 O :   -0.267854
  19 C :   -0.225893
  20 H :    0.123532
  21 H :    0.131071
  22 H :    0.129215
  23 H :    0.118118
  24 H :    0.121357
  25 H :    0.141078
  26 H :    0.133420
  27 H :    0.118643
  28 H :    0.123810
  29 H :    0.124798
  30 H :    0.131166
  31 H :    0.132443
  32 H :    0.109689
  33 H :    0.125805
  34 H :    0.114417
  35 H :    0.116280
  36 H :    0.111368
  37 H :    0.112643

  Mayer bond orders larger than 0.100000
B(  0-C ,  1-C ) :   1.1748 B(  0-C , 20-H ) :   0.9498 B(  0-C , 21-H ) :   0.9432
B(  0-C , 22-H ) :   0.9421 B(  1-C ,  2-O ) :   0.9117 B(  1-C , 23-H ) :   0.9370
B(  1-C , 24-H ) :   0.9112 B(  2-O ,  3-C ) :   1.2179 B(  3-C ,  4-O ) :   2.0151
B(  3-C ,  5-C ) :   1.0236 B(  5-C ,  6-C ) :   1.0495 B(  5-C , 25-H ) :   0.8737
B(  5-C , 26-H ) :   0.8722 B(  6-C ,  7-H ) :   0.8594 B(  6-C ,  8-C ) :   0.9063
B(  6-C , 13-S ) :   1.0361 B(  8-C ,  9-O ) :   2.0113 B(  8-C , 10-O ) :   1.2712
B( 10-O , 11-C ) :   0.8958 B( 11-C , 12-C ) :   1.1803 B( 11-C , 27-H ) :   0.9366
B( 11-C , 28-H ) :   0.9111 B( 12-C , 29-H ) :   0.9488 B( 12-C , 30-H ) :   0.9414
B( 12-C , 31-H ) :   0.9303 B( 13-S , 14-P ) :   0.9331 B( 13-S , 15-S ) :   0.1129
B( 14-P , 15-S ) :   1.5958 B( 14-P , 16-O ) :   1.1376 B( 14-P , 18-O ) :   1.0623
B( 16-O , 17-C ) :   0.9232 B( 17-C , 32-H ) :   0.9394 B( 17-C , 33-H ) :   0.9598
B( 17-C , 34-H ) :   0.9461 B( 18-O , 19-C ) :   0.9274 B( 19-C , 35-H ) :   0.9563
B( 19-C , 36-H ) :   0.9428 B( 19-C , 37-H ) :   0.9249

Dispersion correction           -0.053372427
FINAL SINGLE POINT ENERGY     -1979.016943622765

DIPOLE MOMENT
-------------

Method             : SCF
Type of density    : Electron Density
Multiplicity       :   1
Irrep              :   0
Energy             : -1979.1460915522188770 Eh
Relativity type    :
Basis              : AO
                                X                 Y                 Z
Electronic contribution:     -7.871727161       2.548477899       4.135340628
Nuclear contribution   :      8.804150841      -2.468274933      -5.584027220
                        -----------------------------------------
Total Dipole Moment    :      0.932423680       0.080202966      -1.448686592
                        -----------------------------------------
Magnitude (a.u.)       :      1.724685269
Magnitude (Debye)      :      4.383801567

Rotational constants in cm-1:             0.011288             0.008425             0.006187
Rotational constants in MHz :           338.394316           252.578207           185.478155

                             ****ORCA TERMINATED NORMALLY****
TOTAL RUN TIME: 0 days 0 hours 0 minutes 43 seconds 669 msec
