                         Program Version 6.0.0  -   RELEASE  -
|  1> ! r2scan-3c def2/J RI DEFGRID2 scfconv6 printgap
|  2> %output
|  3>     printlevel normal
|  4> end
|  5> * xyz 0 1
|  6> C -3.5499417696 -6.34603e-05 1.645e-07
|  7> C -2.8569233553 -1.1989620265 -7.0683e-05
|  8> C -1.4716929892 -1.2058453664 5.41763e-05
|  9> C -0.7970277143 1.55624e-05 1.52505e-05
| 10> C -1.4717253101 1.2058827148 2.77186e-05
| 11> C -2.8570417677 1.1989503 -2.54533e-05
| 12> I 1.3361722749 2.0363e-06 -2.7585e-06
| 13> H -4.6284739881 -0.0001430545 -6.9608e-06
| 14> H -3.389660958 -2.1368018983 8.65589e-05
| 15> H -0.9304360826 -2.1389845953 0.0001456731
| 16> H -0.9304433557 2.1390430837 -0.0001861045
| 17> H -3.3900082309 2.1368955239 0.0002941631
| 18> *
| 19>
| 20>                          ****END OF INPUT****

CARTESIAN COORDINATES (ANGSTROEM)
---------------------------------
  C     -3.549942   -0.000063    0.000000
  C     -2.856923   -1.198962   -0.000071
  C     -1.471693   -1.205845    0.000054
  C     -0.797028    0.000016    0.000015
  C     -1.471725    1.205883    0.000028
  C     -2.857042    1.198950   -0.000025
  I      1.336172    0.000002   -0.000003
  H     -4.628474   -0.000143   -0.000007
  H     -3.389661   -2.136802    0.000087
  H     -0.930436   -2.138985    0.000146
  H     -0.930443    2.139043   -0.000186
  H     -3.390008    2.136896    0.000294

 Total Charge           Charge          ....    0
 Multiplicity           Mult            ....    1
 Number of Electrons    NEL             ....   66
 Basis Dimension        Dim             ....  175

ORBITAL ENERGIES
----------------

  NO   OCC          E(Eh)            E(eV)
   0   2.0000     -10.094418      -274.6831
   1   2.0000     -10.053884      -273.5801
   2   2.0000     -10.053864      -273.5796
   3   2.0000     -10.051967      -273.5279
   4   2.0000     -10.051920      -273.5266
   5   2.0000     -10.048813      -273.4421
   6   2.0000      -6.815515      -185.4596
   7   2.0000      -4.834633      -131.5571
   8   2.0000      -4.817756      -131.0978
   9   2.0000      -4.817381      -131.0876
  10   2.0000      -1.869999       -50.8853
  11   2.0000      -1.865387       -50.7598
  12   2.0000      -1.865263       -50.7564
  13   2.0000      -1.851650       -50.3860
  14   2.0000      -1.851624       -50.3852
  15   2.0000      -0.847082       -23.0503
  16   2.0000      -0.743736       -20.2381
  17   2.0000      -0.735406       -20.0114
  18   2.0000      -0.657528       -17.8922
  19   2.0000      -0.593277       -16.1439
  20   2.0000      -0.572967       -15.5912
  21   2.0000      -0.499511       -13.5924
  22   2.0000      -0.440270       -11.9804
  23   2.0000      -0.434966       -11.8360
  24   2.0000      -0.409008       -11.1297
  25   2.0000      -0.385655       -10.4942
  26   2.0000      -0.368418       -10.0252
  27   2.0000      -0.332721        -9.0538
  28   2.0000      -0.315401        -8.5825
  29   2.0000      -0.279067        -7.5938
  30   2.0000      -0.254333        -6.9207
  31   2.0000      -0.243789        -6.6338
  32   2.0000      -0.223749        -6.0885
  33   0.0000      -0.060564        -1.6480
  34   0.0000      -0.048463        -1.3187
  35   0.0000      -0.047861        -1.3024
  36   0.0000       0.092230         2.5097
  37   0.0000       0.103043         2.8039

MULLIKEN ATOMIC CHARGES
-----------------------
   0 C :   -0.157362
   1 C :   -0.116307
   2 C :   -0.186997
   3 C :    0.076659
   4 C :   -0.187028
   5 C :   -0.116341
   6 I :   -0.086950
   7 H :    0.150668
   8 H :    0.151539
   9 H :    0.160272
  10 H :    0.160284
  11 H :    0.151564
Sum of atomic charges:    0.0000000

LOEWDIN ATOMIC CHARGES
----------------------
   0 C :   -0.163109
   1 C :   -0.153151
   2 C :   -0.169054
   3 C :   -0.235658
   4 C :   -0.169058
   5 C :   -0.153159
   6 I :    0.176095
   7 H :    0.169707
   8 H :    0.171138
   9 H :    0.177535
  10 H :    0.177541
  11 H :    0.171172

  Mayer bond orders larger than 0.100000
B(  0-C ,  1-C ) :   1.4275 B(  0-C ,  5-C ) :   1.4275 B(  0-C ,  7-H ) :   0.9464
B(  1-C ,  2-C ) :   1.4124 B(  1-C ,  8-H ) :   0.9467 B(  2-C ,  3-C ) :   1.4313
B(  2-C ,  9-H ) :   0.9421 B(  3-C ,  4-C ) :   1.4313 B(  3-C ,  6-I ) :   0.9704
B(  4-C ,  5-C ) :   1.4124 B(  4-C , 10-H ) :   0.9421 B(  5-C , 11-H ) :   0.9466

Dispersion correction           -0.004298946
FINAL SINGLE POINT ENERGY      -529.315621213138

DIPOLE MOMENT
-------------

Method             : SCF
Type of density    : Electron Density
Multiplicity       :   1
Irrep              :   0
Energy             :  -529.3138573949956935 Eh
Relativity type    :
Basis              : AO
                                X                 Y                 Z
Electronic contribution:    108.665377706       0.000085655      -0.000418209
Nuclear contribution   :   -109.391586988      -0.000139241       0.000512865
                        -----------------------------------------
Total Dipole Moment    :     -0.726209282      -0.000053585       0.000094655
                        -----------------------------------------
Magnitude (a.u.)       :      0.726209290
Magnitude (Debye)      :      1.845877321

Rotational constants in cm-1:             0.191801             0.024785             0.021948
Rotational constants in MHz :          5750.046012           743.023146           657.996577

                             ****ORCA TERMINATED NORMALLY****
TOTAL RUN TIME: 0 days 0 hours 0 minutes 15 seconds 21 msec
