                         Program Version 6.0.0  -   RELEASE  -
|  1> ! r2scan-3c def2/J RI DEFGRID2 scfconv6 printgap
|  2> %output
|  3>     printlevel normal
|  4> end
|  5> %cpcm
|  6>     smd true
|  7>     smdsolvent "water"
|  8> end
|  9> * xyz 0 1
| 10> C -3.5499417696 -6.34603e-05 1.645e-07
| 11> C -2.8569233553 -1.1989620265 -7.0683e-05
| 12> C -1.4716929892 -1.2058453664 5.41763e-05
| 13> C -0.7970277143 1.55624e-05 1.52505e-05
| 14> C -1.4717253101 1.2058827148 2.77186e-05
| 15> C -2.8570417677 1.1989503 -2.54533e-05
| 16> I 1.3361722749 2.0363e-06 -2.7585e-06
| 17> H -4.6284739881 -0.0001430545 -6.9608e-06
| 18> H -3.389660958 -2.1368018983 8.65589e-05
| 19> H -0.9304360826 -2.1389845953 0.0001456731
| 20> H -0.9304433557 2.1390430837 -0.0001861045
| 21> H -3.3900082309 2.1368955239 0.0002941631
| 22> *
| 23>
| 24>                          ****END OF INPUT****

CARTESIAN COORDINATES (ANGSTROEM)
---------------------------------
  C     -3.549942   -0.000063    0.000000
  C     -2.856923   -1.198962   -0.000071
  C     -1.471693   -1.205845    0.000054
  C     -0.797028    0.000016    0.000015
  C     -1.471725    1.205883    0.000028
  C     -2.857042    1.198950   -0.000025
  I      1.336172    0.000002   -0.000003
  H     -4.628474   -0.000143   -0.000007
  H     -3.389661   -2.136802    0.000087
  H     -0.930436   -2.138985    0.000146
  H     -0.930443    2.139043   -0.000186
  H     -3.390008    2.136896    0.000294

 Total Charge           Charge          ....    0
 Multiplicity           Mult            ....    1
 Number of Electrons    NEL             ....   66
 Basis Dimension        Dim             ....  175

ORBITAL ENERGIES
----------------

  NO   OCC          E(Eh)            E(eV)
   0   2.0000     -10.087273      -274.4887
   1   2.0000     -10.044821      -273.3335
   2   2.0000     -10.044801      -273.3329
   3   2.0000     -10.041475      -273.2424
   4   2.0000     -10.041429      -273.2412
   5   2.0000     -10.038075      -273.1499
   6   2.0000      -6.812285      -185.3717
   7   2.0000      -4.831080      -131.4604
   8   2.0000      -4.814829      -131.0181
   9   2.0000      -4.814169      -131.0002
  10   2.0000      -1.866440       -50.7884
  11   2.0000      -1.862107       -50.6705
  12   2.0000      -1.861735       -50.6604
  13   2.0000      -1.848735       -50.3066
  14   2.0000      -1.848715       -50.3061
  15   2.0000      -0.839550       -22.8453
  16   2.0000      -0.735940       -20.0259
  17   2.0000      -0.726284       -19.7632
  18   2.0000      -0.652381       -17.7522
  19   2.0000      -0.582973       -15.8635
  20   2.0000      -0.563170       -15.3246
  21   2.0000      -0.488115       -13.2823
  22   2.0000      -0.431085       -11.7304
  23   2.0000      -0.421744       -11.4762
  24   2.0000      -0.396973       -10.8022
  25   2.0000      -0.375338       -10.2135
  26   2.0000      -0.363511        -9.8916
  27   2.0000      -0.320302        -8.7159
  28   2.0000      -0.305770        -8.3204
  29   2.0000      -0.275318        -7.4918
  30   2.0000      -0.248162        -6.7528
  31   2.0000      -0.241278        -6.5655
  32   2.0000      -0.221107        -6.0166
  33   0.0000      -0.051695        -1.4067
  34   0.0000      -0.041640        -1.1331
  35   0.0000      -0.041590        -1.1317
  36   0.0000       0.106476         2.8974
  37   0.0000       0.110450         3.0055

MULLIKEN ATOMIC CHARGES
-----------------------
   0 C :   -0.187492
   1 C :   -0.151966
   2 C :   -0.206718
   3 C :    0.064371
   4 C :   -0.206766
   5 C :   -0.152009
   6 I :   -0.099375
   7 H :    0.184580
   8 H :    0.186426
   9 H :    0.191239
  10 H :    0.191250
  11 H :    0.186459
Sum of atomic charges:    0.0000000

LOEWDIN ATOMIC CHARGES
----------------------
   0 C :   -0.169210
   1 C :   -0.159563
   2 C :   -0.176497
   3 C :   -0.247400
   4 C :   -0.176508
   5 C :   -0.159582
   6 I :    0.168997
   7 H :    0.180536
   8 H :    0.182434
   9 H :    0.187157
  10 H :    0.187163
  11 H :    0.182474

  Mayer bond orders larger than 0.100000
B(  0-C ,  1-C ) :   1.3950 B(  0-C ,  5-C ) :   1.3950 B(  0-C ,  7-H ) :   0.9511
B(  1-C ,  2-C ) :   1.3927 B(  1-C ,  8-H ) :   0.9505 B(  2-C ,  3-C ) :   1.3900
B(  2-C ,  9-H ) :   0.9471 B(  3-C ,  4-C ) :   1.3901 B(  3-C ,  6-I ) :   0.9615
B(  4-C ,  5-C ) :   1.3927 B(  4-C , 10-H ) :   0.9471 B(  5-C , 11-H ) :   0.9505

Dispersion correction           -0.004298946
FINAL SINGLE POINT ENERGY      -529.319351900499

DIPOLE MOMENT
-------------

Method             : SCF
Type of density    : Electron Density
Multiplicity       :   1
Irrep              :   0
Energy             :  -529.3175880823566786 Eh
Relativity type    :
Basis              : AO
                                X                 Y                 Z
Electronic contribution:    108.553490280       0.000054124      -0.000387446
Nuclear contribution   :   -109.391586988      -0.000139241       0.000512865
                        -----------------------------------------
Total Dipole Moment    :     -0.838096708      -0.000085117       0.000125419
                        -----------------------------------------
Magnitude (a.u.)       :      0.838096722
Magnitude (Debye)      :      2.130272571

Rotational constants in cm-1:             0.191801             0.024785             0.021948
Rotational constants in MHz :          5750.046012           743.023146           657.996577

                             ****ORCA TERMINATED NORMALLY****
TOTAL RUN TIME: 0 days 0 hours 0 minutes 16 seconds 362 msec
