                         Program Version 6.0.0  -   RELEASE  -
|  1> ! pbe def2-sv(p) def2/J RI DEFGRID1 loosescf d4 GCP(DFT/SV(P)) printgap
|  2> %output
|  3>     printlevel normal
|  4> end
|  5> * xyz 0 1
|  6> C -3.0762353709 0.3690198872 0.000829022
|  7> C -1.6177608955 0.0227158241 -0.0005378736
|  8> C -1.1835424241 -1.2932112245 -0.0006364405
|  9> C 0.170800907 -1.5859656468 -0.0001449389
| 10> C 1.1268711244 -0.5860192782 0.0002598481
| 11> C 0.688917666 0.7440639515 -0.0001669328
| 12> C -0.665682684 1.035719675 -0.0004531539
| 13> O 1.6374862881 1.7253242737 -7.60743e-05
| 14> C 2.5950328818 -0.8799819768 0.0005528787
| 15> H -3.3235132536 0.9716156286 -0.8716107267
| 16> H -3.6861884303 -0.5298762299 -0.0121789924
| 17> H -3.3268144993 0.9476423172 0.8885673929
| 18> H -1.9041629691 -2.0975077138 -0.0007196184
| 19> H 0.4929408454 -2.6172026691 -6.94915e-05
| 20> H -0.9905581025 2.0674710864 -0.0003884188
| 21> H 1.2167135114 2.5975239203 -0.0001525057
| 22> H 3.0634332053 -0.4440808655 -0.8810948326
| 23> H 3.06575437 -0.4290835071 0.8731694896
| 24> H 2.7750374631 -1.9511110307 0.0092316543
| 25> *
| 26>
| 27>                          ****END OF INPUT****

CARTESIAN COORDINATES (ANGSTROEM)
---------------------------------
  C     -3.076235    0.369020    0.000829
  C     -1.617761    0.022716   -0.000538
  C     -1.183542   -1.293211   -0.000636
  C      0.170801   -1.585966   -0.000145
  C      1.126871   -0.586019    0.000260
  C      0.688918    0.744064   -0.000167
  C     -0.665683    1.035720   -0.000453
  O      1.637486    1.725324   -0.000076
  C      2.595033   -0.879982    0.000553
  H     -3.323513    0.971616   -0.871611
  H     -3.686188   -0.529876   -0.012179
  H     -3.326814    0.947642    0.888567
  H     -1.904163   -2.097508   -0.000720
  H      0.492941   -2.617203   -0.000069
  H     -0.990558    2.067471   -0.000388
  H      1.216714    2.597524   -0.000153
  H      3.063433   -0.444081   -0.881095
  H      3.065754   -0.429084    0.873169
  H      2.775037   -1.951111    0.009232

 Total Charge           Charge          ....    0
 Multiplicity           Mult            ....    1
 Number of Electrons    NEL             ....   66
 Basis Dimension        Dim             ....  146

ORBITAL ENERGIES
----------------

  NO   OCC          E(Eh)            E(eV)
   0   2.0000     -18.779539      -511.0172
   1   2.0000      -9.943646      -270.5804
   2   2.0000      -9.896511      -269.2978
   3   2.0000      -9.889480      -269.1064
   4   2.0000      -9.882913      -268.9277
   5   2.0000      -9.882526      -268.9172
   6   2.0000      -9.881133      -268.8793
   7   2.0000      -9.876633      -268.7569
   8   2.0000      -9.874026      -268.6859
   9   2.0000      -0.959734       -26.1157
  10   2.0000      -0.770672       -20.9710
  11   2.0000      -0.705426       -19.1956
  12   2.0000      -0.657035       -17.8788
  13   2.0000      -0.643418       -17.5083
  14   2.0000      -0.582665       -15.8551
  15   2.0000      -0.559162       -15.2156
  16   2.0000      -0.511468       -13.9178
  17   2.0000      -0.478811       -13.0291
  18   2.0000      -0.430285       -11.7086
  19   2.0000      -0.420289       -11.4367
  20   2.0000      -0.383236       -10.4284
  21   2.0000      -0.377843       -10.2816
  22   2.0000      -0.369118       -10.0442
  23   2.0000      -0.354347        -9.6423
  24   2.0000      -0.349788        -9.5182
  25   2.0000      -0.341158        -9.2834
  26   2.0000      -0.333842        -9.0843
  27   2.0000      -0.319232        -8.6867
  28   2.0000      -0.300250        -8.1702
  29   2.0000      -0.285698        -7.7742
  30   2.0000      -0.282983        -7.7003
  31   2.0000      -0.210853        -5.7376
  32   2.0000      -0.186803        -5.0832
  33   0.0000      -0.026154        -0.7117
  34   0.0000      -0.010733        -0.2921
  35   0.0000       0.023462         0.6384
  36   0.0000       0.052483         1.4281
  37   0.0000       0.064224         1.7476

MULLIKEN ATOMIC CHARGES
-----------------------
   0 C :   -0.224904
   1 C :    0.065679
   2 C :   -0.116300
   3 C :   -0.139761
   4 C :   -0.021930
   5 C :    0.200761
   6 C :   -0.242516
   7 O :   -0.339094
   8 C :   -0.204203
   9 H :    0.111406
  10 H :    0.100808
  11 H :    0.111943
  12 H :    0.027098
  13 H :    0.031241
  14 H :    0.003273
  15 H :    0.316578
  16 H :    0.113729
  17 H :    0.113616
  18 H :    0.092578
Sum of atomic charges:   -0.0000000

LOEWDIN ATOMIC CHARGES
----------------------
   0 C :   -0.322345
   1 C :   -0.047006
   2 C :   -0.150446
   3 C :   -0.117899
   4 C :   -0.075789
   5 C :    0.026631
   6 C :   -0.177539
   7 O :   -0.237220
   8 C :   -0.319026
   9 H :    0.129732
  10 H :    0.124102
  11 H :    0.130018
  12 H :    0.118662
  13 H :    0.121154
  14 H :    0.115094
  15 H :    0.297519
  16 H :    0.131415
  17 H :    0.131354
  18 H :    0.121588

  Mayer bond orders larger than 0.100000
B(  0-C ,  1-C ) :   1.0912 B(  0-C ,  9-H ) :   0.9373 B(  0-C , 10-H ) :   0.9462
B(  0-C , 11-H ) :   0.9370 B(  1-C ,  2-C ) :   1.4089 B(  1-C ,  6-C ) :   1.3462
B(  2-C ,  3-C ) :   1.3187 B(  2-C , 12-H ) :   0.9614 B(  3-C ,  4-C ) :   1.4312
B(  3-C , 13-H ) :   0.9605 B(  4-C ,  5-C ) :   1.3707 B(  4-C ,  8-C ) :   1.1108
B(  5-C ,  6-C ) :   1.3153 B(  5-C ,  7-O ) :   1.2105 B(  6-C , 14-H ) :   0.9576
B(  7-O , 15-H ) :   0.8412 B(  8-C , 16-H ) :   0.9333 B(  8-C , 17-H ) :   0.9333
B(  8-C , 18-H ) :   0.9393

Dispersion correction           -0.018943675
FINAL SINGLE POINT ENERGY      -385.241555131265

DIPOLE MOMENT
-------------

Method             : SCF
Type of density    : Electron Density
Multiplicity       :   1
Irrep              :   0
Energy             :  -385.3003387674427813 Eh
Relativity type    :
Basis              : AO
                                X                 Y                 Z
Electronic contribution:      2.155863077       1.882604287      -0.003668017
Nuclear contribution   :     -2.431255634      -1.367244376       0.004458880
                        -----------------------------------------
Total Dipole Moment    :     -0.275392556       0.515359911       0.000790863
                        -----------------------------------------
Magnitude (a.u.)       :      0.584326556
Magnitude (Debye)      :      1.485240071

Rotational constants in cm-1:             0.102510             0.043842             0.031061
Rotational constants in MHz :          3073.182712          1314.352762           931.179370

                             ****ORCA TERMINATED NORMALLY****
TOTAL RUN TIME: 0 days 0 hours 0 minutes 9 seconds 97 msec
