                         Program Version 6.0.0  -   RELEASE  -
|  1> ! pbe def2-sv(p) def2/J RI DEFGRID1 loosescf d4 GCP(DFT/SV(P)) printgap
|  2> %output
|  3>     printlevel normal
|  4> end
|  5> * xyz 0 1
|  6> C -2.5892854422 0.5615122182 0.0105882272
|  7> C -1.2158302297 -0.0487651827 -0.0004836248
|  8> C -1.1352398254 -1.4363364446 -0.0020805402
|  9> C 0.0875959728 -2.0777944634 -0.0055699423
| 10> C 1.2462038547 -1.3296319964 -0.0021419656
| 11> C 1.1834756894 0.0599288905 0.0012540178
| 12> C -0.0501901139 0.722546852 -0.0039655163
| 13> C -0.1420332319 2.2262163278 -0.0134467638
| 14> O 2.3902745806 0.7003032228 0.0105269913
| 15> H -2.5695305088 1.6440824246 -0.0109328642
| 16> H -3.1542794419 0.2078745495 -0.8503180706
| 17> H -3.1210829246 0.2445311586 0.9064316596
| 18> H -2.0473649007 -2.014681766 -0.0004701289
| 19> H 0.1414379168 -3.1557467533 -0.0084364076
| 20> H 2.2202381112 -1.7935435609 -0.0007850107
| 21> H -0.6336241809 2.5795761678 0.8919376715
| 22> H 0.830517122 2.7078774964 -0.0708890377
| 23> H -0.7200993933 2.5598900834 -0.8735801079
| 24> H 2.276775724 1.6614734285 0.0387726852
| 25> *
| 26>
| 27>                          ****END OF INPUT****

CARTESIAN COORDINATES (ANGSTROEM)
---------------------------------
  C     -2.589285    0.561512    0.010588
  C     -1.215830   -0.048765   -0.000484
  C     -1.135240   -1.436336   -0.002081
  C      0.087596   -2.077794   -0.005570
  C      1.246204   -1.329632   -0.002142
  C      1.183476    0.059929    0.001254
  C     -0.050190    0.722547   -0.003966
  C     -0.142033    2.226216   -0.013447
  O      2.390275    0.700303    0.010527
  H     -2.569531    1.644082   -0.010933
  H     -3.154279    0.207875   -0.850318
  H     -3.121083    0.244531    0.906432
  H     -2.047365   -2.014682   -0.000470
  H      0.141438   -3.155747   -0.008436
  H      2.220238   -1.793544   -0.000785
  H     -0.633624    2.579576    0.891938
  H      0.830517    2.707877   -0.070889
  H     -0.720099    2.559890   -0.873580
  H      2.276776    1.661473    0.038773

 Total Charge           Charge          ....    0
 Multiplicity           Mult            ....    1
 Number of Electrons    NEL             ....   66
 Basis Dimension        Dim             ....  146

ORBITAL ENERGIES
----------------

  NO   OCC          E(Eh)            E(eV)
   0   2.0000     -18.773496      -510.8528
   1   2.0000      -9.943283      -270.5705
   2   2.0000      -9.897767      -269.3319
   3   2.0000      -9.897290      -269.3189
   4   2.0000      -9.896777      -269.3050
   5   2.0000      -9.883011      -268.9304
   6   2.0000      -9.882447      -268.9150
   7   2.0000      -9.875170      -268.7170
   8   2.0000      -9.875056      -268.7139
   9   2.0000      -0.954545       -25.9745
  10   2.0000      -0.771488       -20.9933
  11   2.0000      -0.701715       -19.0946
  12   2.0000      -0.678678       -18.4678
  13   2.0000      -0.629554       -17.1310
  14   2.0000      -0.603825       -16.4309
  15   2.0000      -0.543008       -14.7760
  16   2.0000      -0.514599       -14.0030
  17   2.0000      -0.483495       -13.1566
  18   2.0000      -0.439612       -11.9624
  19   2.0000      -0.413406       -11.2493
  20   2.0000      -0.396022       -10.7763
  21   2.0000      -0.371614       -10.1121
  22   2.0000      -0.367098        -9.9893
  23   2.0000      -0.359593        -9.7850
  24   2.0000      -0.355255        -9.6670
  25   2.0000      -0.353563        -9.6209
  26   2.0000      -0.343568        -9.3489
  27   2.0000      -0.319470        -8.6932
  28   2.0000      -0.303183        -8.2500
  29   2.0000      -0.284942        -7.7537
  30   2.0000      -0.281305        -7.6547
  31   2.0000      -0.210073        -5.7164
  32   2.0000      -0.184968        -5.0332
  33   0.0000      -0.026266        -0.7147
  34   0.0000      -0.012404        -0.3375
  35   0.0000       0.012980         0.3532
  36   0.0000       0.053153         1.4464
  37   0.0000       0.062949         1.7129

MULLIKEN ATOMIC CHARGES
-----------------------
   0 C :   -0.234829
   1 C :   -0.028935
   2 C :   -0.123745
   3 C :   -0.036907
   4 C :   -0.126715
   5 C :    0.123512
   6 C :   -0.050598
   7 C :   -0.266803
   8 O :   -0.336048
   9 H :    0.095486
  10 H :    0.115937
  11 H :    0.116625
  12 H :    0.026048
  13 H :    0.047649
  14 H :    0.037942
  15 H :    0.129505
  16 H :    0.074414
  17 H :    0.130810
  18 H :    0.306651
Sum of atomic charges:   -0.0000000

LOEWDIN ATOMIC CHARGES
----------------------
   0 C :   -0.325139
   1 C :   -0.041712
   2 C :   -0.148439
   3 C :   -0.119566
   4 C :   -0.153922
   5 C :    0.025944
   6 C :   -0.096694
   7 C :   -0.324812
   8 O :   -0.240862
   9 H :    0.120393
  10 H :    0.133638
  11 H :    0.134226
  12 H :    0.117575
  13 H :    0.122752
  14 H :    0.128272
  15 H :    0.135786
  16 H :    0.109263
  17 H :    0.136409
  18 H :    0.286885

  Mayer bond orders larger than 0.100000
B(  0-C ,  1-C ) :   1.1177 B(  0-C ,  9-H ) :   0.9292 B(  0-C , 10-H ) :   0.9361
B(  0-C , 11-H ) :   0.9354 B(  1-C ,  2-C ) :   1.3850 B(  1-C ,  6-C ) :   1.4226
B(  2-C ,  3-C ) :   1.3451 B(  2-C , 12-H ) :   0.9699 B(  3-C ,  4-C ) :   1.3523
B(  3-C , 13-H ) :   0.9674 B(  4-C ,  5-C ) :   1.3702 B(  4-C , 14-H ) :   0.9611
B(  5-C ,  6-C ) :   1.3104 B(  5-C ,  8-O ) :   1.2042 B(  6-C ,  7-C ) :   1.1086
B(  7-C , 15-H ) :   0.9266 B(  7-C , 16-H ) :   0.9223 B(  7-C , 17-H ) :   0.9248
B(  8-O , 18-H ) :   0.8291

Dispersion correction           -0.019486171
FINAL SINGLE POINT ENERGY      -385.235123364348

DIPOLE MOMENT
-------------

Method             : SCF
Type of density    : Electron Density
Multiplicity       :   1
Irrep              :   0
Energy             :  -385.2942836474486512 Eh
Relativity type    :
Basis              : AO
                                X                 Y                 Z
Electronic contribution:      5.947534902      -3.649245547      -0.001810074
Nuclear contribution   :     -6.322557130       4.364732215       0.020542782
                        -----------------------------------------
Total Dipole Moment    :     -0.375022228       0.715486668       0.018732708
                        -----------------------------------------
Magnitude (a.u.)       :      0.808030790
Magnitude (Debye)      :      2.053851047

Rotational constants in cm-1:             0.075870             0.058794             0.033539
Rotational constants in MHz :          2274.525602          1762.589481          1005.460359

                             ****ORCA TERMINATED NORMALLY****
TOTAL RUN TIME: 0 days 0 hours 0 minutes 7 seconds 723 msec
