                         Program Version 6.0.0  -   RELEASE  -
|  1> ! pbe def2-sv(p) def2/J RI DEFGRID1 loosescf d4 GCP(DFT/SV(P)) printgap
|  2> %output
|  3>     printlevel normal
|  4> end
|  5> * xyz 0 1
|  6> C 4.7581015894 1.1259861986 -0.9604285099
|  7> C 4.5268799852 0.968328221 0.5281395387
|  8> O 3.5721176189 -0.0650355825 0.830350599
|  9> P 2.0437291859 0.0305298425 0.4066421167
| 10> S 1.2056731888 1.7844680064 0.6119945171
| 11> O 1.3670048429 -1.0671186568 1.3179607987
| 12> C 1.8289403691 -2.4406125272 1.3772541685
| 13> C 2.6951065123 -2.6580403753 2.6005717681
| 14> S 1.999597699 -0.8026938083 -1.5600935008
| 15> C 0.3286072098 -0.2757155069 -1.9561605135
| 16> S -0.9379589424 -1.3506268898 -1.1647675768
| 17> P -2.3710001985 0.0426142259 -0.4873100575
| 18> S -4.225100104 -0.5864685782 -0.4204835652
| 19> O -2.0669413458 1.2209819355 -1.5039569071
| 20> C -3.0142769178 2.2878641893 -1.7255175574
| 21> C -3.1407228546 3.1936964138 -0.5190697605
| 22> O -1.8370440458 0.6265657717 0.8985555351
| 23> C -2.3189271479 0.1426285391 2.159281258
| 24> C -1.8053395744 -1.2504719183 2.4601160836
| 25> H 5.5811998546 1.814515795 -1.1227725333
| 26> H 4.9952778545 0.1658037201 -1.4115925929
| 27> H 3.8650180593 1.52689997 -1.4368907171
| 28> H 4.1676690697 1.905802756 0.9633516244
| 29> H 5.4320477747 0.6433324286 1.0430939579
| 30> H 0.9166288523 -3.0397091861 1.4176040262
| 31> H 2.37499858 -2.6713704908 0.4585895372
| 32> H 2.1499463483 -2.3846431575 3.4999417425
| 33> H 2.9715719086 -3.7062350757 2.6551411398
| 34> H 3.5948315439 -2.0519380733 2.5368948947
| 35> H 0.2129314893 -0.3556538922 -3.0331383609
| 36> H 0.1862876814 0.7464449115 -1.6066614675
| 37> H -2.6067360488 2.8173748283 -2.5877310395
| 38> H -3.9806037846 1.8414581952 -1.9812328792
| 39> H -2.1555273825 3.5133588558 -0.1863060307
| 40> H -3.7344778894 4.0632222819 -0.7828408285
| 41> H -3.6308575548 2.6641188842 0.2965602766
| 42> H -1.9534954741 0.8740240061 2.8816567965
| 43> H -3.4142425293 0.1504880189 2.1366398239
| 44> H -2.1613254442 -1.5658295963 3.4354765901
| 45> H -2.1715244149 -1.9461748135 1.7037736977
| 46> H -0.7189338913 -1.2547221174 2.4492607234
| 47> *
| 48>
| 49>                          ****END OF INPUT****

CARTESIAN COORDINATES (ANGSTROEM)
---------------------------------
  C      4.758102    1.125986   -0.960429
  C      4.526880    0.968328    0.528140
  O      3.572118   -0.065036    0.830351
  P      2.043729    0.030530    0.406642
  S      1.205673    1.784468    0.611995
  O      1.367005   -1.067119    1.317961
  C      1.828940   -2.440613    1.377254
  C      2.695107   -2.658040    2.600572
  S      1.999598   -0.802694   -1.560094
  C      0.328607   -0.275716   -1.956161
  S     -0.937959   -1.350627   -1.164768
  P     -2.371000    0.042614   -0.487310
  S     -4.225100   -0.586469   -0.420484
  O     -2.066941    1.220982   -1.503957
  C     -3.014277    2.287864   -1.725518
  C     -3.140723    3.193696   -0.519070
  O     -1.837044    0.626566    0.898556
  C     -2.318927    0.142629    2.159281
  C     -1.805340   -1.250472    2.460116
  H      5.581200    1.814516   -1.122773
  H      4.995278    0.165804   -1.411593
  H      3.865018    1.526900   -1.436891
  H      4.167669    1.905803    0.963352
  H      5.432048    0.643332    1.043094
  H      0.916629   -3.039709    1.417604
  H      2.374999   -2.671370    0.458590
  H      2.149946   -2.384643    3.499942
  H      2.971572   -3.706235    2.655141
  H      3.594832   -2.051938    2.536895
  H      0.212931   -0.355654   -3.033138
  H      0.186288    0.746445   -1.606661
  H     -2.606736    2.817375   -2.587731
  H     -3.980604    1.841458   -1.981233
  H     -2.155527    3.513359   -0.186306
  H     -3.734478    4.063222   -0.782841
  H     -3.630858    2.664119    0.296560
  H     -1.953495    0.874024    2.881657
  H     -3.414243    0.150488    2.136640
  H     -2.161325   -1.565830    3.435477
  H     -2.171524   -1.946175    1.703774
  H     -0.718934   -1.254722    2.449261

 Total Charge           Charge          ....    0
 Multiplicity           Mult            ....    1
 Number of Electrons    NEL             ....  202
 Basis Dimension        Dim             ....  334

ORBITAL ENERGIES
----------------

  NO   OCC          E(Eh)            E(eV)
   0   2.0000     -88.049350     -2395.9446
   1   2.0000     -88.034806     -2395.5489
   2   2.0000     -87.991233     -2394.3632
   3   2.0000     -87.981729     -2394.1046
   4   2.0000     -76.431217     -2079.7992
   5   2.0000     -76.419737     -2079.4868
   6   2.0000     -18.802771      -511.6494
   7   2.0000     -18.795678      -511.4564
   8   2.0000     -18.788958      -511.2735
   9   2.0000     -18.778383      -510.9858
  10   2.0000      -9.960463      -271.0380
  11   2.0000      -9.957586      -270.9597
  12   2.0000      -9.954526      -270.8764
  13   2.0000      -9.949989      -270.7530
  14   2.0000      -9.939831      -270.4766
  15   2.0000      -9.890453      -269.1329
  16   2.0000      -9.889290      -269.1013
  17   2.0000      -9.879854      -268.8445
  18   2.0000      -9.872483      -268.6439
  19   2.0000      -7.694297      -209.3725
  20   2.0000      -7.680148      -208.9874
  21   2.0000      -7.636282      -207.7938
  22   2.0000      -7.626900      -207.5385
  23   2.0000      -6.428911      -174.9396
  24   2.0000      -6.417672      -174.6337
  25   2.0000      -5.722038      -155.7046
  26   2.0000      -5.718793      -155.6163
  27   2.0000      -5.711441      -155.4162
  28   2.0000      -5.708619      -155.3394
  29   2.0000      -5.704443      -155.2258
  30   2.0000      -5.696701      -155.0151
  31   2.0000      -5.665269      -154.1598
  32   2.0000      -5.656780      -153.9288
  33   2.0000      -5.656468      -153.9203
  34   2.0000      -5.655851      -153.9035
  35   2.0000      -5.647848      -153.6858
  36   2.0000      -5.646703      -153.6546
  37   2.0000      -4.651781      -126.5814
  38   2.0000      -4.650603      -126.5493
  39   2.0000      -4.649132      -126.5093
  40   2.0000      -4.640145      -126.2648
  41   2.0000      -4.639455      -126.2460
  42   2.0000      -4.638161      -126.2108
  43   2.0000      -0.994932       -27.0735
  44   2.0000      -0.979672       -26.6582
  45   2.0000      -0.951759       -25.8987
  46   2.0000      -0.938408       -25.5354
  47   2.0000      -0.762412       -20.7463
  48   2.0000      -0.721670       -19.6376
  49   2.0000      -0.708425       -19.2772
  50   2.0000      -0.695789       -18.9334
  51   2.0000      -0.678825       -18.4718
  52   2.0000      -0.672955       -18.3120
  53   2.0000      -0.653218       -17.7750
  54   2.0000      -0.637685       -17.3523
  55   2.0000      -0.600774       -16.3479
  56   2.0000      -0.590442       -16.0667
  57   2.0000      -0.578747       -15.7485
  58   2.0000      -0.566468       -15.4144
  59   2.0000      -0.560447       -15.2505
  60   2.0000      -0.505218       -13.7477
  61   2.0000      -0.487273       -13.2594
  62   2.0000      -0.480336       -13.0706
  63   2.0000      -0.465070       -12.6552
  64   2.0000      -0.456890       -12.4326
  65   2.0000      -0.453140       -12.3306
  66   2.0000      -0.441934       -12.0256
  67   2.0000      -0.433501       -11.7962
  68   2.0000      -0.428774       -11.6675
  69   2.0000      -0.417977       -11.3737
  70   2.0000      -0.414031       -11.2664
  71   2.0000      -0.396646       -10.7933
  72   2.0000      -0.390366       -10.6224
  73   2.0000      -0.386411       -10.5148
  74   2.0000      -0.382153       -10.3989
  75   2.0000      -0.375945       -10.2300
  76   2.0000      -0.368086       -10.0161
  77   2.0000      -0.359379        -9.7792
  78   2.0000      -0.357650        -9.7322
  79   2.0000      -0.353056        -9.6071
  80   2.0000      -0.346412        -9.4264
  81   2.0000      -0.345164        -9.3924
  82   2.0000      -0.337538        -9.1849
  83   2.0000      -0.335583        -9.1317
  84   2.0000      -0.322967        -8.7884
  85   2.0000      -0.318549        -8.6681
  86   2.0000      -0.309186        -8.4134
  87   2.0000      -0.302370        -8.2279
  88   2.0000      -0.298400        -8.1199
  89   2.0000      -0.288058        -7.8384
  90   2.0000      -0.281687        -7.6651
  91   2.0000      -0.275999        -7.5103
  92   2.0000      -0.269084        -7.3222
  93   2.0000      -0.267696        -7.2844
  94   2.0000      -0.255459        -6.9514
  95   2.0000      -0.234781        -6.3887
  96   2.0000      -0.216416        -5.8890
  97   2.0000      -0.209252        -5.6940
  98   2.0000      -0.207668        -5.6509
  99   2.0000      -0.204277        -5.5587
 100   2.0000      -0.191460        -5.2099
 101   0.0000      -0.044899        -1.2218
 102   0.0000      -0.027546        -0.7496
 103   0.0000      -0.019539        -0.5317
 104   0.0000       0.004017         0.1093
 105   0.0000       0.016074         0.4374

MULLIKEN ATOMIC CHARGES
-----------------------
   0 C :   -0.322121
   1 C :   -0.000766
   2 O :   -0.380535
   3 P :    0.601421
   4 S :   -0.295702
   5 O :   -0.352248
   6 C :   -0.009454
   7 C :   -0.288455
   8 S :   -0.096243
   9 C :   -0.358516
  10 S :   -0.101827
  11 P :    0.629541
  12 S :   -0.332225
  13 O :   -0.383731
  14 C :   -0.003247
  15 C :   -0.308981
  16 O :   -0.359330
  17 C :   -0.004081
  18 C :   -0.340900
  19 H :    0.117029
  20 H :    0.119183
  21 H :    0.130257
  22 H :    0.114112
  23 H :    0.106844
  24 H :    0.116562
  25 H :    0.104458
  26 H :    0.118912
  27 H :    0.111347
  28 H :    0.119613
  29 H :    0.184812
  30 H :    0.210144
  31 H :    0.103778
  32 H :    0.113018
  33 H :    0.125013
  34 H :    0.110371
  35 H :    0.124081
  36 H :    0.103172
  37 H :    0.107335
  38 H :    0.104136
  39 H :    0.113452
  40 H :    0.149771
Sum of atomic charges:   -0.0000000

LOEWDIN ATOMIC CHARGES
----------------------
   0 C :   -0.372008
   1 C :   -0.116291
   2 O :   -0.246222
   3 P :    0.576049
   4 S :   -0.294740
   5 O :   -0.228476
   6 C :   -0.117091
   7 C :   -0.358383
   8 S :    0.083024
   9 C :   -0.478557
  10 S :    0.064145
  11 P :    0.572815
  12 S :   -0.322978
  13 O :   -0.243265
  14 C :   -0.114583
  15 C :   -0.364848
  16 O :   -0.236709
  17 C :   -0.121376
  18 C :   -0.374068
  19 H :    0.133186
  20 H :    0.123721
  21 H :    0.122212
  22 H :    0.114032
  23 H :    0.119415
  24 H :    0.120778
  25 H :    0.103659
  26 H :    0.127967
  27 H :    0.130527
  28 H :    0.125806
  29 H :    0.136896
  30 H :    0.126816
  31 H :    0.118293
  32 H :    0.111809
  33 H :    0.130089
  34 H :    0.129497
  35 H :    0.124137
  36 H :    0.118583
  37 H :    0.104372
  38 H :    0.127178
  39 H :    0.116796
  40 H :    0.127794

  Mayer bond orders larger than 0.100000
B(  0-C ,  1-C ) :   1.1662 B(  0-C , 19-H ) :   0.9366 B(  0-C , 20-H ) :   0.9433
B(  0-C , 21-H ) :   0.9342 B(  1-C ,  2-O ) :   0.9034 B(  1-C , 22-H ) :   0.9189
B(  1-C , 23-H ) :   0.9337 B(  2-O ,  3-P ) :   1.0852 B(  3-P ,  4-S ) :   1.6503
B(  3-P ,  5-O ) :   1.1319 B(  3-P ,  8-S ) :   0.9385 B(  4-S ,  8-S ) :   0.1086
B(  5-O ,  6-C ) :   0.8718 B(  6-C ,  7-C ) :   1.1664 B(  6-C , 24-H ) :   0.9304
B(  6-C , 25-H ) :   0.9111 B(  7-C , 26-H ) :   0.9492 B(  7-C , 27-H ) :   0.9400
B(  7-C , 28-H ) :   0.9418 B(  8-S ,  9-C ) :   1.0111 B(  9-C , 10-S ) :   0.9646
B(  9-C , 29-H ) :   0.9115 B(  9-C , 30-H ) :   0.8527 B( 10-S , 11-P ) :   0.9729
B( 11-P , 12-S ) :   1.6219 B( 11-P , 13-O ) :   1.0978 B( 11-P , 16-O ) :   1.0925
B( 13-O , 14-C ) :   0.9036 B( 14-C , 15-C ) :   1.1647 B( 14-C , 31-H ) :   0.9356
B( 14-C , 32-H ) :   0.9167 B( 15-C , 33-H ) :   0.9439 B( 15-C , 34-H ) :   0.9379
B( 15-C , 35-H ) :   0.9383 B( 16-O , 17-C ) :   0.9143 B( 17-C , 18-C ) :   1.1660
B( 17-C , 36-H ) :   0.9301 B( 17-C , 37-H ) :   0.9123 B( 18-C , 38-H ) :   0.9377
B( 18-C , 39-H ) :   0.9363 B( 18-C , 40-H ) :   0.9221

Dispersion correction           -0.066224138
FINAL SINGLE POINT ENERGY     -2929.517420813394

DIPOLE MOMENT
-------------

Method             : SCF
Type of density    : Electron Density
Multiplicity       :   1
Irrep              :   0
Energy             : -2929.6388219888840467 Eh
Relativity type    :
Basis              : AO
                                X                 Y                 Z
Electronic contribution:     -8.002117933      -3.315806227     -10.606451481
Nuclear contribution   :      9.671728025       3.491571713      10.796639450
                        -----------------------------------------
Total Dipole Moment    :      1.669610092       0.175765486       0.190187969
                        -----------------------------------------
Magnitude (a.u.)       :      1.689574748
Magnitude (Debye)      :      4.294557715

Rotational constants in cm-1:             0.012500             0.005262             0.004762
Rotational constants in MHz :           374.738522           157.736088           142.757819

                             ****ORCA TERMINATED NORMALLY****
TOTAL RUN TIME: 0 days 0 hours 0 minutes 21 seconds 633 msec
