                         Program Version 6.0.0  -   RELEASE  -
|  1> ! r2scan-3c def2/J RI DEFGRID2 scfconv6 printgap
|  2> %output
|  3>     printlevel normal
|  4> end
|  5> * xyz 0 1
|  6> C 5.0597242811 -2.3746590585 -1.4807929361
|  7> C 4.1048708897 -1.198960657 -1.5303194738
|  8> O 3.0863698362 -1.4139140474 -0.5329979274
|  9> P 2.1797490123 -0.2276700998 0.0041683381
| 10> S 3.1393604049 1.4052191056 0.524401506
| 11> O 1.3459617156 -0.9450490004 1.1386279355
| 12> C 1.743117409 -0.8853762389 2.5261154329
| 13> C 3.0161469648 -1.6659885334 2.772307778
| 14> S 0.7302973664 0.0018332604 -1.5206068912
| 15> C 0.064366995 1.5739298473 -0.9106880811
| 16> S -0.9073949615 1.3843833545 0.6010639762
| 17> P -2.5463800172 0.3693515644 -0.3231350952
| 18> S -3.0197737901 0.978814479 -2.1175786586
| 19> O -3.6960741774 0.4378838848 0.7734170023
| 20> C -4.6335994399 1.5283752894 0.8535510987
| 21> C -3.9655941813 2.8404645047 1.2086953984
| 22> O -2.1686845367 -1.1606421165 -0.2971869263
| 23> C -1.9297800593 -1.8953694194 0.9300620804
| 24> C -1.1369085184 -3.1363117728 0.5776959605
| 25> H 5.5391548784 -2.4283723948 -0.5075737484
| 26> H 4.5173185456 -3.298631937 -1.658404404
| 27> H 5.8178849853 -2.249428898 -2.2467954925
| 28> H 3.6169522228 -1.1204991372 -2.5057227061
| 29> H 4.6158666208 -0.2554857265 -1.3099793444
| 30> H 1.8695123449 0.1653279587 2.8056221208
| 31> H 0.8945931192 -1.3123857047 3.0619548406
| 32> H 3.237161563 -1.6707749966 3.8350060432
| 33> H 2.9060864572 -2.6874377637 2.4183820619
| 34> H 3.8430367027 -1.1960122845 2.2410427098
| 35> H -0.5718553773 1.9720415558 -1.7014599738
| 36> H 0.8872109764 2.2506415835 -0.6786365228
| 37> H -5.1499790293 1.6078364813 -0.1076978568
| 38> H -5.3332270878 1.2092368865 1.6273601714
| 39> H -3.3582528084 2.7282852138 2.1034076056
| 40> H -3.3273170827 3.1674522262 0.389177508
| 41> H -4.7273491241 3.5939229853 1.3812887187
| 42> H -1.3813266618 -1.2484537194 1.6213206074
| 43> H -2.9013739875 -2.1434030876 1.3614933471
| 44> H -1.6712662175 -3.716520902 -0.1690971139
| 45> H -0.1656698529 -2.8588375375 0.1753189986
| 46> H -0.9975818213 -3.736829324 1.4708511699
| 47> *
| 48>
| 49>                          ****END OF INPUT****

CARTESIAN COORDINATES (ANGSTROEM)
---------------------------------
  C      5.059724   -2.374659   -1.480793
  C      4.104871   -1.198961   -1.530319
  O      3.086370   -1.413914   -0.532998
  P      2.179749   -0.227670    0.004168
  S      3.139360    1.405219    0.524402
  O      1.345962   -0.945049    1.138628
  C      1.743117   -0.885376    2.526115
  C      3.016147   -1.665989    2.772308
  S      0.730297    0.001833   -1.520607
  C      0.064367    1.573930   -0.910688
  S     -0.907395    1.384383    0.601064
  P     -2.546380    0.369352   -0.323135
  S     -3.019774    0.978814   -2.117579
  O     -3.696074    0.437884    0.773417
  C     -4.633599    1.528375    0.853551
  C     -3.965594    2.840465    1.208695
  O     -2.168685   -1.160642   -0.297187
  C     -1.929780   -1.895369    0.930062
  C     -1.136909   -3.136312    0.577696
  H      5.539155   -2.428372   -0.507574
  H      4.517319   -3.298632   -1.658404
  H      5.817885   -2.249429   -2.246795
  H      3.616952   -1.120499   -2.505723
  H      4.615867   -0.255486   -1.309979
  H      1.869512    0.165328    2.805622
  H      0.894593   -1.312386    3.061955
  H      3.237162   -1.670775    3.835006
  H      2.906086   -2.687438    2.418382
  H      3.843037   -1.196012    2.241043
  H     -0.571855    1.972042   -1.701460
  H      0.887211    2.250642   -0.678637
  H     -5.149979    1.607836   -0.107698
  H     -5.333227    1.209237    1.627360
  H     -3.358253    2.728285    2.103408
  H     -3.327317    3.167452    0.389178
  H     -4.727349    3.593923    1.381289
  H     -1.381327   -1.248454    1.621321
  H     -2.901374   -2.143403    1.361493
  H     -1.671266   -3.716521   -0.169097
  H     -0.165670   -2.858838    0.175319
  H     -0.997582   -3.736829    1.470851

 Total Charge           Charge          ....    0
 Multiplicity           Mult            ....    1
 Number of Electrons    NEL             ....  202
 Basis Dimension        Dim             ....  539

ORBITAL ENERGIES
----------------

  NO   OCC          E(Eh)            E(eV)
   0   2.0000     -88.574146     -2410.2250
   1   2.0000     -88.572198     -2410.1720
   2   2.0000     -88.523200     -2408.8387
   3   2.0000     -88.519641     -2408.7419
   4   2.0000     -76.915898     -2092.9880
   5   2.0000     -76.912367     -2092.8919
   6   2.0000     -18.996653      -516.9252
   7   2.0000     -18.995476      -516.8932
   8   2.0000     -18.994277      -516.8606
   9   2.0000     -18.987103      -516.6653
  10   2.0000     -10.102961      -274.9155
  11   2.0000     -10.101832      -274.8848
  12   2.0000     -10.101140      -274.8660
  13   2.0000     -10.100556      -274.8501
  14   2.0000     -10.098432      -274.7923
  15   2.0000     -10.036139      -273.0972
  16   2.0000     -10.033159      -273.0161
  17   2.0000     -10.028979      -272.9024
  18   2.0000     -10.027692      -272.8674
  19   2.0000      -7.868272      -214.1066
  20   2.0000      -7.866541      -214.0595
  21   2.0000      -7.817987      -212.7383
  22   2.0000      -7.814432      -212.6415
  23   2.0000      -6.594649      -179.4495
  24   2.0000      -6.590886      -179.3471
  25   2.0000      -5.815137      -158.2379
  26   2.0000      -5.813343      -158.1891
  27   2.0000      -5.812194      -158.1578
  28   2.0000      -5.810416      -158.1095
  29   2.0000      -5.805377      -157.9723
  30   2.0000      -5.803714      -157.9271
  31   2.0000      -5.765537      -156.8882
  32   2.0000      -5.762111      -156.7950
  33   2.0000      -5.758288      -156.6910
  34   2.0000      -5.758058      -156.6847
  35   2.0000      -5.754653      -156.5921
  36   2.0000      -5.754454      -156.5867
  37   2.0000      -4.740063      -128.9837
  38   2.0000      -4.739579      -128.9705
  39   2.0000      -4.738403      -128.9385
  40   2.0000      -4.736776      -128.8942
  41   2.0000      -4.735711      -128.8652
  42   2.0000      -4.734378      -128.8290
  43   2.0000      -1.055020       -28.7086
  44   2.0000      -1.050339       -28.5812
  45   2.0000      -1.016334       -27.6559
  46   2.0000      -1.008468       -27.4418
  47   2.0000      -0.800850       -21.7922
  48   2.0000      -0.761130       -20.7114
  49   2.0000      -0.751530       -20.4502
  50   2.0000      -0.737205       -20.0604
  51   2.0000      -0.733097       -19.9486
  52   2.0000      -0.711028       -19.3481
  53   2.0000      -0.684980       -18.6392
  54   2.0000      -0.668352       -18.1868
  55   2.0000      -0.634163       -17.2564
  56   2.0000      -0.623858       -16.9760
  57   2.0000      -0.603731       -16.4284
  58   2.0000      -0.602590       -16.3973
  59   2.0000      -0.591443       -16.0940
  60   2.0000      -0.533730       -14.5235
  61   2.0000      -0.526196       -14.3185
  62   2.0000      -0.501654       -13.6507
  63   2.0000      -0.493581       -13.4310
  64   2.0000      -0.478439       -13.0190
  65   2.0000      -0.466960       -12.7066
  66   2.0000      -0.458325       -12.4717
  67   2.0000      -0.456333       -12.4175
  68   2.0000      -0.447323       -12.1723
  69   2.0000      -0.436994       -11.8912
  70   2.0000      -0.427081       -11.6215
  71   2.0000      -0.416559       -11.3352
  72   2.0000      -0.406955       -11.0738
  73   2.0000      -0.399533       -10.8719
  74   2.0000      -0.393876       -10.7179
  75   2.0000      -0.389385       -10.5957
  76   2.0000      -0.380491       -10.3537
  77   2.0000      -0.377920       -10.2837
  78   2.0000      -0.375485       -10.2175
  79   2.0000      -0.367336        -9.9957
  80   2.0000      -0.365944        -9.9578
  81   2.0000      -0.363123        -9.8811
  82   2.0000      -0.357270        -9.7218
  83   2.0000      -0.353002        -9.6057
  84   2.0000      -0.349567        -9.5122
  85   2.0000      -0.334413        -9.0998
  86   2.0000      -0.323861        -8.8127
  87   2.0000      -0.318981        -8.6799
  88   2.0000      -0.316484        -8.6120
  89   2.0000      -0.310139        -8.4393
  90   2.0000      -0.305502        -8.3131
  91   2.0000      -0.294165        -8.0046
  92   2.0000      -0.283436        -7.7127
  93   2.0000      -0.279471        -7.6048
  94   2.0000      -0.271832        -7.3969
  95   2.0000      -0.246579        -6.7097
  96   2.0000      -0.231525        -6.3001
  97   2.0000      -0.227411        -6.1882
  98   2.0000      -0.218608        -5.9486
  99   2.0000      -0.215312        -5.8589
 100   2.0000      -0.213053        -5.7975
 101   0.0000      -0.045720        -1.2441
 102   0.0000      -0.023805        -0.6478
 103   0.0000      -0.001273        -0.0346
 104   0.0000       0.000453         0.0123
 105   0.0000       0.015844         0.4311

MULLIKEN ATOMIC CHARGES
-----------------------
   0 C :   -0.439177
   1 C :   -0.155398
   2 O :   -0.289937
   3 P :    0.679030
   4 S :   -0.490834
   5 O :   -0.259710
   6 C :   -0.142497
   7 C :   -0.450942
   8 S :   -0.123159
   9 C :   -0.238409
  10 S :   -0.163433
  11 P :    0.650234
  12 S :   -0.445338
  13 O :   -0.292227
  14 C :   -0.164039
  15 C :   -0.445914
  16 O :   -0.256937
  17 C :   -0.102703
  18 C :   -0.468973
  19 H :    0.154084
  20 H :    0.154698
  21 H :    0.148352
  22 H :    0.153905
  23 H :    0.170925
  24 H :    0.176337
  25 H :    0.147968
  26 H :    0.148907
  27 H :    0.156528
  28 H :    0.170888
  29 H :    0.217665
  30 H :    0.213741
  31 H :    0.173818
  32 H :    0.147668
  33 H :    0.153695
  34 H :    0.180655
  35 H :    0.147911
  36 H :    0.154849
  37 H :    0.154421
  38 H :    0.154712
  39 H :    0.177229
  40 H :    0.141406
Sum of atomic charges:   -0.0000000

LOEWDIN ATOMIC CHARGES
----------------------
   0 C :   -0.385220
   1 C :    0.021461
   2 O :   -0.664581
   3 P :    0.372096
   4 S :   -0.137610
   5 O :   -0.680077
   6 C :    0.017604
   7 C :   -0.399107
   8 S :    0.177795
   9 C :   -0.424798
  10 S :    0.142403
  11 P :    0.380101
  12 S :   -0.102913
  13 O :   -0.666760
  14 C :    0.022921
  15 C :   -0.408854
  16 O :   -0.653272
  17 C :    0.023744
  18 C :   -0.389363
  19 H :    0.159815
  20 H :    0.160375
  21 H :    0.160744
  22 H :    0.173081
  23 H :    0.180893
  24 H :    0.182607
  25 H :    0.177944
  26 H :    0.160115
  27 H :    0.160587
  28 H :    0.166417
  29 H :    0.192621
  30 H :    0.192092
  31 H :    0.180255
  32 H :    0.179387
  33 H :    0.159932
  34 H :    0.166962
  35 H :    0.159498
  36 H :    0.176850
  37 H :    0.173095
  38 H :    0.161841
  39 H :    0.170767
  40 H :    0.158553

  Mayer bond orders larger than 0.100000
B(  0-C ,  1-C ) :   0.9563 B(  0-C , 19-H ) :   0.9713 B(  0-C , 20-H ) :   0.9714
B(  0-C , 21-H ) :   0.9641 B(  1-C ,  2-O ) :   0.7784 B(  1-C , 22-H ) :   0.9453
B(  1-C , 23-H ) :   0.9514 B(  2-O ,  3-P ) :   1.0928 B(  3-P ,  4-S ) :   1.7453
B(  3-P ,  5-O ) :   1.1364 B(  3-P ,  8-S ) :   1.0811 B(  5-O ,  6-C ) :   0.7658
B(  6-C ,  7-C ) :   0.9178 B(  6-C , 24-H ) :   0.9583 B(  6-C , 25-H ) :   0.9628
B(  7-C , 26-H ) :   0.9630 B(  7-C , 27-H ) :   0.9741 B(  7-C , 28-H ) :   0.9592
B(  8-S ,  9-C ) :   0.9165 B(  9-C , 10-S ) :   0.9100 B(  9-C , 29-H ) :   0.9049
B(  9-C , 30-H ) :   0.9037 B( 10-S , 11-P ) :   1.0004 B( 11-P , 12-S ) :   1.8348
B( 11-P , 13-O ) :   1.0358 B( 11-P , 16-O ) :   1.1662 B( 13-O , 14-C ) :   0.8192
B( 14-C , 15-C ) :   0.9181 B( 14-C , 31-H ) :   0.9690 B( 14-C , 32-H ) :   0.9615
B( 15-C , 33-H ) :   0.9675 B( 15-C , 34-H ) :   0.9628 B( 15-C , 35-H ) :   0.9562
B( 16-O , 17-C ) :   0.7344 B( 17-C , 18-C ) :   0.9372 B( 17-C , 36-H ) :   0.9536
B( 17-C , 37-H ) :   0.9443 B( 18-C , 38-H ) :   0.9694 B( 18-C , 39-H ) :   0.9664
B( 18-C , 40-H ) :   0.9682

Dispersion correction           -0.021438214
FINAL SINGLE POINT ENERGY     -2932.466342740444

DIPOLE MOMENT
-------------

Method             : SCF
Type of density    : Electron Density
Multiplicity       :   1
Irrep              :   0
Energy             : -2932.4912741742450635 Eh
Relativity type    :
Basis              : AO
                                X                 Y                 Z
Electronic contribution:     -7.691177520      11.772373833     -11.808202909
Nuclear contribution   :      7.963124184     -12.691817083      13.139328531
                        -----------------------------------------
Total Dipole Moment    :      0.271946664      -0.919443250       1.331125622
                        -----------------------------------------
Magnitude (a.u.)       :      1.640495748
Magnitude (Debye)      :      4.169808812

Rotational constants in cm-1:             0.013409             0.004585             0.004496
Rotational constants in MHz :           401.996087           137.459775           134.794970

                             ****ORCA TERMINATED NORMALLY****
TOTAL RUN TIME: 0 days 0 hours 1 minutes 24 seconds 475 msec
