                         Program Version 6.0.0  -   RELEASE  -
|  1> ! r2scan-3c def2/J RI DEFGRID2 scfconv6 printgap
|  2> %output
|  3>     printlevel normal
|  4> end
|  5> %cpcm
|  6>     smd true
|  7>     smdsolvent "water"
|  8> end
|  9> * xyz 0 1
| 10> C 5.0597242811 -2.3746590585 -1.4807929361
| 11> C 4.1048708897 -1.198960657 -1.5303194738
| 12> O 3.0863698362 -1.4139140474 -0.5329979274
| 13> P 2.1797490123 -0.2276700998 0.0041683381
| 14> S 3.1393604049 1.4052191056 0.524401506
| 15> O 1.3459617156 -0.9450490004 1.1386279355
| 16> C 1.743117409 -0.8853762389 2.5261154329
| 17> C 3.0161469648 -1.6659885334 2.772307778
| 18> S 0.7302973664 0.0018332604 -1.5206068912
| 19> C 0.064366995 1.5739298473 -0.9106880811
| 20> S -0.9073949615 1.3843833545 0.6010639762
| 21> P -2.5463800172 0.3693515644 -0.3231350952
| 22> S -3.0197737901 0.978814479 -2.1175786586
| 23> O -3.6960741774 0.4378838848 0.7734170023
| 24> C -4.6335994399 1.5283752894 0.8535510987
| 25> C -3.9655941813 2.8404645047 1.2086953984
| 26> O -2.1686845367 -1.1606421165 -0.2971869263
| 27> C -1.9297800593 -1.8953694194 0.9300620804
| 28> C -1.1369085184 -3.1363117728 0.5776959605
| 29> H 5.5391548784 -2.4283723948 -0.5075737484
| 30> H 4.5173185456 -3.298631937 -1.658404404
| 31> H 5.8178849853 -2.249428898 -2.2467954925
| 32> H 3.6169522228 -1.1204991372 -2.5057227061
| 33> H 4.6158666208 -0.2554857265 -1.3099793444
| 34> H 1.8695123449 0.1653279587 2.8056221208
| 35> H 0.8945931192 -1.3123857047 3.0619548406
| 36> H 3.237161563 -1.6707749966 3.8350060432
| 37> H 2.9060864572 -2.6874377637 2.4183820619
| 38> H 3.8430367027 -1.1960122845 2.2410427098
| 39> H -0.5718553773 1.9720415558 -1.7014599738
| 40> H 0.8872109764 2.2506415835 -0.6786365228
| 41> H -5.1499790293 1.6078364813 -0.1076978568
| 42> H -5.3332270878 1.2092368865 1.6273601714
| 43> H -3.3582528084 2.7282852138 2.1034076056
| 44> H -3.3273170827 3.1674522262 0.389177508
| 45> H -4.7273491241 3.5939229853 1.3812887187
| 46> H -1.3813266618 -1.2484537194 1.6213206074
| 47> H -2.9013739875 -2.1434030876 1.3614933471
| 48> H -1.6712662175 -3.716520902 -0.1690971139
| 49> H -0.1656698529 -2.8588375375 0.1753189986
| 50> H -0.9975818213 -3.736829324 1.4708511699
| 51> *
| 52>
| 53>                          ****END OF INPUT****

CARTESIAN COORDINATES (ANGSTROEM)
---------------------------------
  C      5.059724   -2.374659   -1.480793
  C      4.104871   -1.198961   -1.530319
  O      3.086370   -1.413914   -0.532998
  P      2.179749   -0.227670    0.004168
  S      3.139360    1.405219    0.524402
  O      1.345962   -0.945049    1.138628
  C      1.743117   -0.885376    2.526115
  C      3.016147   -1.665989    2.772308
  S      0.730297    0.001833   -1.520607
  C      0.064367    1.573930   -0.910688
  S     -0.907395    1.384383    0.601064
  P     -2.546380    0.369352   -0.323135
  S     -3.019774    0.978814   -2.117579
  O     -3.696074    0.437884    0.773417
  C     -4.633599    1.528375    0.853551
  C     -3.965594    2.840465    1.208695
  O     -2.168685   -1.160642   -0.297187
  C     -1.929780   -1.895369    0.930062
  C     -1.136909   -3.136312    0.577696
  H      5.539155   -2.428372   -0.507574
  H      4.517319   -3.298632   -1.658404
  H      5.817885   -2.249429   -2.246795
  H      3.616952   -1.120499   -2.505723
  H      4.615867   -0.255486   -1.309979
  H      1.869512    0.165328    2.805622
  H      0.894593   -1.312386    3.061955
  H      3.237162   -1.670775    3.835006
  H      2.906086   -2.687438    2.418382
  H      3.843037   -1.196012    2.241043
  H     -0.571855    1.972042   -1.701460
  H      0.887211    2.250642   -0.678637
  H     -5.149979    1.607836   -0.107698
  H     -5.333227    1.209237    1.627360
  H     -3.358253    2.728285    2.103408
  H     -3.327317    3.167452    0.389178
  H     -4.727349    3.593923    1.381289
  H     -1.381327   -1.248454    1.621321
  H     -2.901374   -2.143403    1.361493
  H     -1.671266   -3.716521   -0.169097
  H     -0.165670   -2.858838    0.175319
  H     -0.997582   -3.736829    1.470851

 Total Charge           Charge          ....    0
 Multiplicity           Mult            ....    1
 Number of Electrons    NEL             ....  202
 Basis Dimension        Dim             ....  539

ORBITAL ENERGIES
----------------

  NO   OCC          E(Eh)            E(eV)
   0   2.0000     -88.579281     -2410.3648
   1   2.0000     -88.576712     -2410.2949
   2   2.0000     -88.531334     -2409.0601
   3   2.0000     -88.528996     -2408.9965
   4   2.0000     -76.920132     -2093.1032
   5   2.0000     -76.919425     -2093.0840
   6   2.0000     -18.996948      -516.9332
   7   2.0000     -18.996799      -516.9292
   8   2.0000     -18.994428      -516.8647
   9   2.0000     -18.993418      -516.8372
  10   2.0000     -10.103041      -274.9177
  11   2.0000     -10.091239      -274.5966
  12   2.0000     -10.091098      -274.5927
  13   2.0000     -10.090852      -274.5861
  14   2.0000     -10.090081      -274.5651
  15   2.0000     -10.019889      -272.6550
  16   2.0000     -10.019014      -272.6312
  17   2.0000     -10.018877      -272.6275
  18   2.0000     -10.018736      -272.6237
  19   2.0000      -7.873523      -214.2495
  20   2.0000      -7.871021      -214.1814
  21   2.0000      -7.826475      -212.9692
  22   2.0000      -7.824072      -212.9038
  23   2.0000      -6.598692      -179.5595
  24   2.0000      -6.598180      -179.5456
  25   2.0000      -5.820330      -158.3792
  26   2.0000      -5.817851      -158.3118
  27   2.0000      -5.817423      -158.3001
  28   2.0000      -5.814923      -158.2321
  29   2.0000      -5.810706      -158.1174
  30   2.0000      -5.808147      -158.0477
  31   2.0000      -5.774042      -157.1197
  32   2.0000      -5.771567      -157.0523
  33   2.0000      -5.766666      -156.9189
  34   2.0000      -5.766572      -156.9164
  35   2.0000      -5.764365      -156.8563
  36   2.0000      -5.764151      -156.8505
  37   2.0000      -4.744524      -129.1051
  38   2.0000      -4.743517      -129.0777
  39   2.0000      -4.743480      -129.0767
  40   2.0000      -4.743112      -129.0666
  41   2.0000      -4.742311      -129.0448
  42   2.0000      -4.742047      -129.0377
  43   2.0000      -1.054524       -28.6951
  44   2.0000      -1.054123       -28.6841
  45   2.0000      -1.014821       -27.6147
  46   2.0000      -1.012093       -27.5404
  47   2.0000      -0.804339       -21.8872
  48   2.0000      -0.757319       -20.6077
  49   2.0000      -0.745975       -20.2990
  50   2.0000      -0.725631       -19.7454
  51   2.0000      -0.724976       -19.7276
  52   2.0000      -0.710715       -19.3396
  53   2.0000      -0.689020       -18.7492
  54   2.0000      -0.675010       -18.3679
  55   2.0000      -0.629789       -17.1374
  56   2.0000      -0.619962       -16.8700
  57   2.0000      -0.599139       -16.3034
  58   2.0000      -0.593427       -16.1480
  59   2.0000      -0.590178       -16.0596
  60   2.0000      -0.529946       -14.4206
  61   2.0000      -0.522861       -14.2278
  62   2.0000      -0.496172       -13.5015
  63   2.0000      -0.490985       -13.3604
  64   2.0000      -0.478232       -13.0134
  65   2.0000      -0.462520       -12.5858
  66   2.0000      -0.452022       -12.3001
  67   2.0000      -0.450008       -12.2453
  68   2.0000      -0.442333       -12.0365
  69   2.0000      -0.435110       -11.8399
  70   2.0000      -0.423510       -11.5243
  71   2.0000      -0.409945       -11.1552
  72   2.0000      -0.406880       -11.0718
  73   2.0000      -0.397195       -10.8082
  74   2.0000      -0.391538       -10.6543
  75   2.0000      -0.384928       -10.4744
  76   2.0000      -0.381011       -10.3678
  77   2.0000      -0.374697       -10.1960
  78   2.0000      -0.363323        -9.8865
  79   2.0000      -0.358414        -9.7529
  80   2.0000      -0.355057        -9.6616
  81   2.0000      -0.352743        -9.5986
  82   2.0000      -0.350518        -9.5381
  83   2.0000      -0.349044        -9.4980
  84   2.0000      -0.344762        -9.3814
  85   2.0000      -0.328455        -8.9377
  86   2.0000      -0.320979        -8.7343
  87   2.0000      -0.316364        -8.6087
  88   2.0000      -0.313464        -8.5298
  89   2.0000      -0.306722        -8.3463
  90   2.0000      -0.300686        -8.1821
  91   2.0000      -0.289830        -7.8867
  92   2.0000      -0.282178        -7.6785
  93   2.0000      -0.279411        -7.6031
  94   2.0000      -0.274069        -7.4578
  95   2.0000      -0.251497        -6.8436
  96   2.0000      -0.239686        -6.5222
  97   2.0000      -0.236436        -6.4338
  98   2.0000      -0.227898        -6.2014
  99   2.0000      -0.224684        -6.1140
 100   2.0000      -0.220399        -5.9974
 101   0.0000      -0.051929        -1.4131
 102   0.0000      -0.030999        -0.8435
 103   0.0000      -0.006712        -0.1826
 104   0.0000      -0.003980        -0.1083
 105   0.0000       0.015106         0.4110

MULLIKEN ATOMIC CHARGES
-----------------------
   0 C :   -0.482544
   1 C :   -0.146475
   2 O :   -0.314498
   3 P :    0.714493
   4 S :   -0.534924
   5 O :   -0.279794
   6 C :   -0.137623
   7 C :   -0.492808
   8 S :   -0.149893
   9 C :   -0.246727
  10 S :   -0.160409
  11 P :    0.663788
  12 S :   -0.499023
  13 O :   -0.311518
  14 C :   -0.157239
  15 C :   -0.482845
  16 O :   -0.287861
  17 C :   -0.103838
  18 C :   -0.508439
  19 H :    0.166265
  20 H :    0.166329
  21 H :    0.170059
  22 H :    0.171645
  23 H :    0.172557
  24 H :    0.177417
  25 H :    0.181899
  26 H :    0.173639
  27 H :    0.171442
  28 H :    0.168836
  29 H :    0.232627
  30 H :    0.233048
  31 H :    0.179402
  32 H :    0.175967
  33 H :    0.168652
  34 H :    0.174423
  35 H :    0.173028
  36 H :    0.174677
  37 H :    0.175667
  38 H :    0.166112
  39 H :    0.171590
  40 H :    0.172897
Sum of atomic charges:    0.0000000

LOEWDIN ATOMIC CHARGES
----------------------
   0 C :   -0.388895
   1 C :    0.025847
   2 O :   -0.675133
   3 P :    0.377657
   4 S :   -0.165405
   5 O :   -0.686086
   6 C :    0.023549
   7 C :   -0.402451
   8 S :    0.161035
   9 C :   -0.420910
  10 S :    0.147972
  11 P :    0.382327
  12 S :   -0.143486
  13 O :   -0.672212
  14 C :    0.028953
  15 C :   -0.411302
  16 O :   -0.676658
  17 C :    0.029704
  18 C :   -0.393118
  19 H :    0.162763
  20 H :    0.163470
  21 H :    0.169172
  22 H :    0.180016
  23 H :    0.181879
  24 H :    0.182826
  25 H :    0.191403
  26 H :    0.169300
  27 H :    0.164332
  28 H :    0.163020
  29 H :    0.196817
  30 H :    0.197422
  31 H :    0.181733
  32 H :    0.191633
  33 H :    0.163707
  34 H :    0.161967
  35 H :    0.168733
  36 H :    0.184052
  37 H :    0.182842
  38 H :    0.164039
  39 H :    0.166485
  40 H :    0.171000

  Mayer bond orders larger than 0.100000
B(  0-C ,  1-C ) :   0.9521 B(  0-C , 19-H ) :   0.9688 B(  0-C , 20-H ) :   0.9688
B(  0-C , 21-H ) :   0.9583 B(  1-C ,  2-O ) :   0.7712 B(  1-C , 22-H ) :   0.9369
B(  1-C , 23-H ) :   0.9482 B(  2-O ,  3-P ) :   1.1008 B(  3-P ,  4-S ) :   1.7106
B(  3-P ,  5-O ) :   1.1496 B(  3-P ,  8-S ) :   1.0854 B(  5-O ,  6-C ) :   0.7530
B(  6-C ,  7-C ) :   0.9037 B(  6-C , 24-H ) :   0.9555 B(  6-C , 25-H ) :   0.9523
B(  7-C , 26-H ) :   0.9570 B(  7-C , 27-H ) :   0.9732 B(  7-C , 28-H ) :   0.9592
B(  8-S ,  9-C ) :   0.9033 B(  9-C , 10-S ) :   0.9004 B(  9-C , 29-H ) :   0.9012
B(  9-C , 30-H ) :   0.9005 B( 10-S , 11-P ) :   1.0121 B( 11-P , 12-S ) :   1.8121
B( 11-P , 13-O ) :   1.0487 B( 11-P , 16-O ) :   1.1721 B( 13-O , 14-C ) :   0.8066
B( 14-C , 15-C ) :   0.9059 B( 14-C , 31-H ) :   0.9675 B( 14-C , 32-H ) :   0.9505
B( 15-C , 33-H ) :   0.9646 B( 15-C , 34-H ) :   0.9647 B( 15-C , 35-H ) :   0.9508
B( 16-O , 17-C ) :   0.7228 B( 17-C , 18-C ) :   0.9264 B( 17-C , 36-H ) :   0.9450
B( 17-C , 37-H ) :   0.9346 B( 18-C , 38-H ) :   0.9683 B( 18-C , 39-H ) :   0.9675
B( 18-C , 40-H ) :   0.9608

Dispersion correction           -0.021438214
FINAL SINGLE POINT ENERGY     -2932.475599360436

DIPOLE MOMENT
-------------

Method             : SCF
Type of density    : Electron Density
Multiplicity       :   1
Irrep              :   0
Energy             : -2932.5005307942369654 Eh
Relativity type    :
Basis              : AO
                                X                 Y                 Z
Electronic contribution:     -7.692919424      11.620403186     -11.142004027
Nuclear contribution   :      7.963124184     -12.691817083      13.139328531
                        -----------------------------------------
Total Dipole Moment    :      0.270204761      -1.071413897       1.997324504
                        -----------------------------------------
Magnitude (a.u.)       :      2.282595787
Magnitude (Debye)      :      5.801897405

Rotational constants in cm-1:             0.013409             0.004585             0.004496
Rotational constants in MHz :           401.996087           137.459775           134.794970

                             ****ORCA TERMINATED NORMALLY****
TOTAL RUN TIME: 0 days 0 hours 1 minutes 57 seconds 537 msec
