                         Program Version 6.0.0  -   RELEASE  -
|  1> ! r2scan-3c def2/J RI DEFGRID2 scfconv6 printgap
|  2> %output
|  3>     printlevel normal
|  4> end
|  5> * xyz 0 1
|  6> C 2.5519378218 -1.2857179296 3.1779139253
|  7> C 1.3619327918 -1.3037945408 2.241163488
|  8> O 1.3334514771 -0.1120502065 1.4394319026
|  9> P 2.1687202563 0.0636364724 0.1047423134
| 10> S 2.9993412519 -1.5832804075 -0.5712152745
| 11> O 3.1189359762 1.2461365717 0.5670924506
| 12> C 3.7990772588 2.1663411831 -0.306666215
| 13> C 4.6373599442 1.469452218 -1.3584426945
| 14> S 0.8130174923 1.033043822 -1.2072103077
| 15> C 0.098036881 -0.4638251055 -1.9262279348
| 16> S -0.7085289456 -1.5313135955 -0.6977333321
| 17> P -2.2007298663 -0.1712056392 -0.0794340532
| 18> S -2.8833710589 1.0721705384 -1.4359818317
| 19> O -1.5584914701 0.4677638339 1.2147919758
| 20> C -1.9401541852 1.7616162756 1.737827843
| 21> C -0.8653991208 2.7885973773 1.4418033114
| 22> O -3.2778928354 -1.1319121641 0.5915432317
| 23> C -4.1662315933 -1.960780213 -0.1867629465
| 24> C -5.5016809634 -1.2731418496 -0.395104334
| 25> H 3.4724387944 -1.2859056852 2.5954063286
| 26> H 2.5294558826 -0.393628514 3.797573373
| 27> H 2.5298234705 -2.1685178214 3.8088054766
| 28> H 0.4126563876 -1.2926671017 2.7795138227
| 29> H 1.3986878282 -2.1784781335 1.5823866757
| 30> H 3.0494046063 2.8111912369 -0.7739315531
| 31> H 4.4191046714 2.7529052461 0.3737157462
| 32> H 5.1970655028 2.2095425844 -1.921270808
| 33> H 5.3296272538 0.7726045605 -0.8917808159
| 34> H 3.9975497264 0.9135174855 -2.0423635052
| 35> H 0.882742021 -1.0677045495 -2.3810797635
| 36> H -0.633100321 -0.1327351097 -2.6628608934
| 37> H -2.8965908227 2.0599559298 1.2991922667
| 38> H -2.0597068489 1.604858223 2.8110010176
| 39> H -0.8146981696 2.983443655 0.3724866573
| 40> H -1.1004779467 3.7118811157 1.9613908474
| 41> H 0.101956487 2.4205568254 1.7761524244
| 42> H -3.6930055422 -2.198859112 -1.1436727821
| 43> H -4.2756112253 -2.8742050958 0.4007756135
| 44> H -5.3715167909 -0.3659770445 -0.9810213212
| 45> H -6.1697155215 -1.9441035888 -0.9253706375
| 46> H -5.9399813568 -1.0117984367 0.563941043
| 47> *
| 48>
| 49>                          ****END OF INPUT****

CARTESIAN COORDINATES (ANGSTROEM)
---------------------------------
  C      2.551938   -1.285718    3.177914
  C      1.361933   -1.303795    2.241163
  O      1.333451   -0.112050    1.439432
  P      2.168720    0.063636    0.104742
  S      2.999341   -1.583280   -0.571215
  O      3.118936    1.246137    0.567092
  C      3.799077    2.166341   -0.306666
  C      4.637360    1.469452   -1.358443
  S      0.813017    1.033044   -1.207210
  C      0.098037   -0.463825   -1.926228
  S     -0.708529   -1.531314   -0.697733
  P     -2.200730   -0.171206   -0.079434
  S     -2.883371    1.072171   -1.435982
  O     -1.558491    0.467764    1.214792
  C     -1.940154    1.761616    1.737828
  C     -0.865399    2.788597    1.441803
  O     -3.277893   -1.131912    0.591543
  C     -4.166232   -1.960780   -0.186763
  C     -5.501681   -1.273142   -0.395104
  H      3.472439   -1.285906    2.595406
  H      2.529456   -0.393629    3.797573
  H      2.529823   -2.168518    3.808805
  H      0.412656   -1.292667    2.779514
  H      1.398688   -2.178478    1.582387
  H      3.049405    2.811191   -0.773932
  H      4.419105    2.752905    0.373716
  H      5.197066    2.209543   -1.921271
  H      5.329627    0.772605   -0.891781
  H      3.997550    0.913517   -2.042364
  H      0.882742   -1.067705   -2.381080
  H     -0.633100   -0.132735   -2.662861
  H     -2.896591    2.059956    1.299192
  H     -2.059707    1.604858    2.811001
  H     -0.814698    2.983444    0.372487
  H     -1.100478    3.711881    1.961391
  H      0.101956    2.420557    1.776152
  H     -3.693006   -2.198859   -1.143673
  H     -4.275611   -2.874205    0.400776
  H     -5.371517   -0.365977   -0.981021
  H     -6.169716   -1.944104   -0.925371
  H     -5.939981   -1.011798    0.563941

 Total Charge           Charge          ....    0
 Multiplicity           Mult            ....    1
 Number of Electrons    NEL             ....  202
 Basis Dimension        Dim             ....  539

ORBITAL ENERGIES
----------------

  NO   OCC          E(Eh)            E(eV)
   0   2.0000     -88.577041     -2410.3038
   1   2.0000     -88.575635     -2410.2656
   2   2.0000     -88.521267     -2408.7861
   3   2.0000     -88.518672     -2408.7155
   4   2.0000     -76.914195     -2092.9416
   5   2.0000     -76.913541     -2092.9239
   6   2.0000     -18.992714      -516.8180
   7   2.0000     -18.990506      -516.7579
   8   2.0000     -18.986715      -516.6548
   9   2.0000     -18.983539      -516.5684
  10   2.0000     -10.107193      -275.0307
  11   2.0000     -10.104303      -274.9521
  12   2.0000     -10.099806      -274.8297
  13   2.0000     -10.096740      -274.7463
  14   2.0000     -10.089601      -274.5520
  15   2.0000     -10.027967      -272.8749
  16   2.0000     -10.025486      -272.8073
  17   2.0000     -10.023096      -272.7423
  18   2.0000     -10.022028      -272.7133
  19   2.0000      -7.871274      -214.1882
  20   2.0000      -7.870080      -214.1558
  21   2.0000      -7.816151      -212.6883
  22   2.0000      -7.813514      -212.6165
  23   2.0000      -6.592509      -179.3913
  24   2.0000      -6.591767      -179.3711
  25   2.0000      -5.818166      -158.3203
  26   2.0000      -5.816925      -158.2866
  27   2.0000      -5.815083      -158.2365
  28   2.0000      -5.813866      -158.2033
  29   2.0000      -5.808439      -158.0557
  30   2.0000      -5.807268      -158.0238
  31   2.0000      -5.763763      -156.8400
  32   2.0000      -5.761220      -156.7708
  33   2.0000      -5.756510      -156.6426
  34   2.0000      -5.756104      -156.6315
  35   2.0000      -5.753800      -156.5689
  36   2.0000      -5.753453      -156.5594
  37   2.0000      -4.737922      -128.9254
  38   2.0000      -4.737443      -128.9124
  39   2.0000      -4.737234      -128.9067
  40   2.0000      -4.736817      -128.8953
  41   2.0000      -4.736357      -128.8828
  42   2.0000      -4.735446      -128.8580
  43   2.0000      -1.048791       -28.5391
  44   2.0000      -1.047259       -28.4974
  45   2.0000      -1.008300       -27.4372
  46   2.0000      -1.006843       -27.3976
  47   2.0000      -0.803501       -21.8644
  48   2.0000      -0.757568       -20.6145
  49   2.0000      -0.748364       -20.3640
  50   2.0000      -0.728243       -19.8165
  51   2.0000      -0.727247       -19.7894
  52   2.0000      -0.709310       -19.3013
  53   2.0000      -0.686163       -18.6714
  54   2.0000      -0.670991       -18.2586
  55   2.0000      -0.628830       -17.1113
  56   2.0000      -0.622938       -16.9510
  57   2.0000      -0.606318       -16.4988
  58   2.0000      -0.601651       -16.3718
  59   2.0000      -0.591603       -16.0983
  60   2.0000      -0.529840       -14.4177
  61   2.0000      -0.517593       -14.0844
  62   2.0000      -0.494532       -13.4569
  63   2.0000      -0.487872       -13.2757
  64   2.0000      -0.475116       -12.9286
  65   2.0000      -0.458185       -12.4678
  66   2.0000      -0.455710       -12.4005
  67   2.0000      -0.451244       -12.2790
  68   2.0000      -0.444932       -12.1072
  69   2.0000      -0.435385       -11.8474
  70   2.0000      -0.421906       -11.4807
  71   2.0000      -0.416200       -11.3254
  72   2.0000      -0.404802       -11.0152
  73   2.0000      -0.401733       -10.9317
  74   2.0000      -0.396439       -10.7876
  75   2.0000      -0.391494       -10.6531
  76   2.0000      -0.384765       -10.4700
  77   2.0000      -0.369384       -10.0515
  78   2.0000      -0.362745        -9.8708
  79   2.0000      -0.361271        -9.8307
  80   2.0000      -0.360150        -9.8002
  81   2.0000      -0.359444        -9.7810
  82   2.0000      -0.355583        -9.6759
  83   2.0000      -0.351426        -9.5628
  84   2.0000      -0.346391        -9.4258
  85   2.0000      -0.333114        -9.0645
  86   2.0000      -0.318402        -8.6642
  87   2.0000      -0.312245        -8.4966
  88   2.0000      -0.310817        -8.4577
  89   2.0000      -0.303393        -8.2558
  90   2.0000      -0.296901        -8.0791
  91   2.0000      -0.292536        -7.9603
  92   2.0000      -0.286987        -7.8093
  93   2.0000      -0.279121        -7.5953
  94   2.0000      -0.268549        -7.3076
  95   2.0000      -0.245456        -6.6792
  96   2.0000      -0.231711        -6.3052
  97   2.0000      -0.226333        -6.1588
  98   2.0000      -0.219987        -5.9862
  99   2.0000      -0.212449        -5.7810
 100   2.0000      -0.210559        -5.7296
 101   0.0000      -0.048666        -1.3243
 102   0.0000      -0.026072        -0.7095
 103   0.0000      -0.001729        -0.0471
 104   0.0000      -0.001036        -0.0282
 105   0.0000       0.009798         0.2666

MULLIKEN ATOMIC CHARGES
-----------------------
   0 C :   -0.448343
   1 C :   -0.155108
   2 O :   -0.257792
   3 P :    0.670770
   4 S :   -0.466447
   5 O :   -0.296086
   6 C :   -0.154901
   7 C :   -0.425657
   8 S :   -0.135004
   9 C :   -0.235881
  10 S :   -0.134723
  11 P :    0.678486
  12 S :   -0.478210
  13 O :   -0.255121
  14 C :   -0.117345
  15 C :   -0.480921
  16 O :   -0.297443
  17 C :   -0.130802
  18 C :   -0.451129
  19 H :    0.166350
  20 H :    0.150974
  21 H :    0.145574
  22 H :    0.160686
  23 H :    0.176040
  24 H :    0.153082
  25 H :    0.150362
  26 H :    0.147245
  27 H :    0.164092
  28 H :    0.168931
  29 H :    0.208551
  30 H :    0.209106
  31 H :    0.159839
  32 H :    0.147298
  33 H :    0.175717
  34 H :    0.140834
  35 H :    0.168648
  36 H :    0.152321
  37 H :    0.150045
  38 H :    0.180403
  39 H :    0.144579
  40 H :    0.150980
Sum of atomic charges:   -0.0000000

LOEWDIN ATOMIC CHARGES
----------------------
   0 C :   -0.397340
   1 C :    0.008733
   2 O :   -0.668416
   3 P :    0.383926
   4 S :   -0.126996
   5 O :   -0.654401
   6 C :    0.023431
   7 C :   -0.406437
   8 S :    0.158206
   9 C :   -0.419388
  10 S :    0.178091
  11 P :    0.377783
  12 S :   -0.129383
  13 O :   -0.658955
  14 C :    0.028372
  15 C :   -0.403644
  16 O :   -0.661381
  17 C :    0.020714
  18 C :   -0.401270
  19 H :    0.164438
  20 H :    0.157756
  21 H :    0.158821
  22 H :    0.181186
  23 H :    0.182364
  24 H :    0.172066
  25 H :    0.181715
  26 H :    0.158086
  27 H :    0.165287
  28 H :    0.166042
  29 H :    0.189910
  30 H :    0.190042
  31 H :    0.178195
  32 H :    0.176510
  33 H :    0.165724
  34 H :    0.155834
  35 H :    0.166171
  36 H :    0.175448
  37 H :    0.178254
  38 H :    0.168496
  39 H :    0.157825
  40 H :    0.158183

  Mayer bond orders larger than 0.100000
B(  0-C ,  1-C ) :   0.9297 B(  0-C , 19-H ) :   0.9637 B(  0-C , 20-H ) :   0.9754
B(  0-C , 21-H ) :   0.9660 B(  1-C ,  2-O ) :   0.7678 B(  1-C , 22-H ) :   0.9628
B(  1-C , 23-H ) :   0.9574 B(  2-O ,  3-P ) :   1.1214 B(  3-P ,  4-S ) :   1.7751
B(  3-P ,  5-O ) :   1.1001 B(  3-P ,  8-S ) :   1.0384 B(  5-O ,  6-C ) :   0.8051
B(  6-C ,  7-C ) :   0.9403 B(  6-C , 24-H ) :   0.9639 B(  6-C , 25-H ) :   0.9577
B(  7-C , 26-H ) :   0.9626 B(  7-C , 27-H ) :   0.9659 B(  7-C , 28-H ) :   0.9547
B(  8-S ,  9-C ) :   0.9056 B(  9-C , 10-S ) :   0.8941 B(  9-C , 29-H ) :   0.9108
B(  9-C , 30-H ) :   0.9113 B( 10-S , 11-P ) :   1.0910 B( 11-P , 12-S ) :   1.7441
B( 11-P , 13-O ) :   1.1766 B( 11-P , 16-O ) :   1.0705 B( 13-O , 14-C ) :   0.7604
B( 14-C , 15-C ) :   0.9458 B( 14-C , 31-H ) :   0.9657 B( 14-C , 32-H ) :   0.9594
B( 15-C , 33-H ) :   0.9639 B( 15-C , 34-H ) :   0.9632 B( 15-C , 35-H ) :   0.9668
B( 16-O , 17-C ) :   0.7758 B( 17-C , 18-C ) :   0.9573 B( 17-C , 36-H ) :   0.9623
B( 17-C , 37-H ) :   0.9638 B( 18-C , 38-H ) :   0.9570 B( 18-C , 39-H ) :   0.9652
B( 18-C , 40-H ) :   0.9748

Dispersion correction           -0.022105647
FINAL SINGLE POINT ENERGY     -2932.461944668928

DIPOLE MOMENT
-------------

Method             : SCF
Type of density    : Electron Density
Multiplicity       :   1
Irrep              :   0
Energy             : -2932.4861984572116853 Eh
Relativity type    :
Basis              : AO
                                X                 Y                 Z
Electronic contribution:     -0.528154586      -4.783084540      -9.190892312
Nuclear contribution   :      0.360004276       5.128879542       9.903140195
                        -----------------------------------------
Total Dipole Moment    :     -0.168150309       0.345795002       0.712247883
                        -----------------------------------------
Magnitude (a.u.)       :      0.809410747
Magnitude (Debye)      :      2.057358618

Rotational constants in cm-1:             0.013271             0.005060             0.004910
Rotational constants in MHz :           397.844054           151.691928           147.187525

                             ****ORCA TERMINATED NORMALLY****
TOTAL RUN TIME: 0 days 0 hours 1 minutes 21 seconds 514 msec
