                         Program Version 6.0.0  -   RELEASE  -
|  1> ! r2scan-3c def2/J RI DEFGRID2 scfconv6 printgap
|  2> %output
|  3>     printlevel normal
|  4> end
|  5> %cpcm
|  6>     smd true
|  7>     smdsolvent "water"
|  8> end
|  9> * xyz 0 1
| 10> C 2.5519378218 -1.2857179296 3.1779139253
| 11> C 1.3619327918 -1.3037945408 2.241163488
| 12> O 1.3334514771 -0.1120502065 1.4394319026
| 13> P 2.1687202563 0.0636364724 0.1047423134
| 14> S 2.9993412519 -1.5832804075 -0.5712152745
| 15> O 3.1189359762 1.2461365717 0.5670924506
| 16> C 3.7990772588 2.1663411831 -0.306666215
| 17> C 4.6373599442 1.469452218 -1.3584426945
| 18> S 0.8130174923 1.033043822 -1.2072103077
| 19> C 0.098036881 -0.4638251055 -1.9262279348
| 20> S -0.7085289456 -1.5313135955 -0.6977333321
| 21> P -2.2007298663 -0.1712056392 -0.0794340532
| 22> S -2.8833710589 1.0721705384 -1.4359818317
| 23> O -1.5584914701 0.4677638339 1.2147919758
| 24> C -1.9401541852 1.7616162756 1.737827843
| 25> C -0.8653991208 2.7885973773 1.4418033114
| 26> O -3.2778928354 -1.1319121641 0.5915432317
| 27> C -4.1662315933 -1.960780213 -0.1867629465
| 28> C -5.5016809634 -1.2731418496 -0.395104334
| 29> H 3.4724387944 -1.2859056852 2.5954063286
| 30> H 2.5294558826 -0.393628514 3.797573373
| 31> H 2.5298234705 -2.1685178214 3.8088054766
| 32> H 0.4126563876 -1.2926671017 2.7795138227
| 33> H 1.3986878282 -2.1784781335 1.5823866757
| 34> H 3.0494046063 2.8111912369 -0.7739315531
| 35> H 4.4191046714 2.7529052461 0.3737157462
| 36> H 5.1970655028 2.2095425844 -1.921270808
| 37> H 5.3296272538 0.7726045605 -0.8917808159
| 38> H 3.9975497264 0.9135174855 -2.0423635052
| 39> H 0.882742021 -1.0677045495 -2.3810797635
| 40> H -0.633100321 -0.1327351097 -2.6628608934
| 41> H -2.8965908227 2.0599559298 1.2991922667
| 42> H -2.0597068489 1.604858223 2.8110010176
| 43> H -0.8146981696 2.983443655 0.3724866573
| 44> H -1.1004779467 3.7118811157 1.9613908474
| 45> H 0.101956487 2.4205568254 1.7761524244
| 46> H -3.6930055422 -2.198859112 -1.1436727821
| 47> H -4.2756112253 -2.8742050958 0.4007756135
| 48> H -5.3715167909 -0.3659770445 -0.9810213212
| 49> H -6.1697155215 -1.9441035888 -0.9253706375
| 50> H -5.9399813568 -1.0117984367 0.563941043
| 51> *
| 52>
| 53>                          ****END OF INPUT****

CARTESIAN COORDINATES (ANGSTROEM)
---------------------------------
  C      2.551938   -1.285718    3.177914
  C      1.361933   -1.303795    2.241163
  O      1.333451   -0.112050    1.439432
  P      2.168720    0.063636    0.104742
  S      2.999341   -1.583280   -0.571215
  O      3.118936    1.246137    0.567092
  C      3.799077    2.166341   -0.306666
  C      4.637360    1.469452   -1.358443
  S      0.813017    1.033044   -1.207210
  C      0.098037   -0.463825   -1.926228
  S     -0.708529   -1.531314   -0.697733
  P     -2.200730   -0.171206   -0.079434
  S     -2.883371    1.072171   -1.435982
  O     -1.558491    0.467764    1.214792
  C     -1.940154    1.761616    1.737828
  C     -0.865399    2.788597    1.441803
  O     -3.277893   -1.131912    0.591543
  C     -4.166232   -1.960780   -0.186763
  C     -5.501681   -1.273142   -0.395104
  H      3.472439   -1.285906    2.595406
  H      2.529456   -0.393629    3.797573
  H      2.529823   -2.168518    3.808805
  H      0.412656   -1.292667    2.779514
  H      1.398688   -2.178478    1.582387
  H      3.049405    2.811191   -0.773932
  H      4.419105    2.752905    0.373716
  H      5.197066    2.209543   -1.921271
  H      5.329627    0.772605   -0.891781
  H      3.997550    0.913517   -2.042364
  H      0.882742   -1.067705   -2.381080
  H     -0.633100   -0.132735   -2.662861
  H     -2.896591    2.059956    1.299192
  H     -2.059707    1.604858    2.811001
  H     -0.814698    2.983444    0.372487
  H     -1.100478    3.711881    1.961391
  H      0.101956    2.420557    1.776152
  H     -3.693006   -2.198859   -1.143673
  H     -4.275611   -2.874205    0.400776
  H     -5.371517   -0.365977   -0.981021
  H     -6.169716   -1.944104   -0.925371
  H     -5.939981   -1.011798    0.563941

 Total Charge           Charge          ....    0
 Multiplicity           Mult            ....    1
 Number of Electrons    NEL             ....  202
 Basis Dimension        Dim             ....  539

ORBITAL ENERGIES
----------------

  NO   OCC          E(Eh)            E(eV)
   0   2.0000     -88.580326     -2410.3932
   1   2.0000     -88.578458     -2410.3424
   2   2.0000     -88.527634     -2408.9594
   3   2.0000     -88.526093     -2408.9175
   4   2.0000     -76.919246     -2093.0791
   5   2.0000     -76.919159     -2093.0767
   6   2.0000     -18.995352      -516.8898
   7   2.0000     -18.993433      -516.8376
   8   2.0000     -18.990966      -516.7704
   9   2.0000     -18.989595      -516.7331
  10   2.0000     -10.105715      -274.9905
  11   2.0000     -10.093126      -274.6479
  12   2.0000     -10.090596      -274.5791
  13   2.0000     -10.089719      -274.5552
  14   2.0000     -10.086609      -274.4706
  15   2.0000     -10.018579      -272.6194
  16   2.0000     -10.016953      -272.5751
  17   2.0000     -10.016408      -272.5603
  18   2.0000     -10.015672      -272.5403
  19   2.0000      -7.874604      -214.2789
  20   2.0000      -7.872873      -214.2318
  21   2.0000      -7.822771      -212.8684
  22   2.0000      -7.821226      -212.8264
  23   2.0000      -6.597594      -179.5297
  24   2.0000      -6.597450      -179.5257
  25   2.0000      -5.821484      -158.4106
  26   2.0000      -5.819725      -158.3628
  27   2.0000      -5.818400      -158.3267
  28   2.0000      -5.816664      -158.2795
  29   2.0000      -5.811798      -158.1471
  30   2.0000      -5.810061      -158.0998
  31   2.0000      -5.770342      -157.0190
  32   2.0000      -5.768873      -156.9790
  33   2.0000      -5.763121      -156.8225
  34   2.0000      -5.762725      -156.8117
  35   2.0000      -5.761521      -156.7790
  36   2.0000      -5.761158      -156.7691
  37   2.0000      -4.742978      -129.0630
  38   2.0000      -4.742884      -129.0604
  39   2.0000      -4.742535      -129.0509
  40   2.0000      -4.742517      -129.0504
  41   2.0000      -4.741484      -129.0223
  42   2.0000      -4.741166      -129.0137
  43   2.0000      -1.052613       -28.6431
  44   2.0000      -1.050587       -28.5879
  45   2.0000      -1.011713       -27.5301
  46   2.0000      -1.009749       -27.4767
  47   2.0000      -0.805034       -21.9061
  48   2.0000      -0.755788       -20.5660
  49   2.0000      -0.743930       -20.2434
  50   2.0000      -0.722074       -19.6486
  51   2.0000      -0.720889       -19.6164
  52   2.0000      -0.709617       -19.3097
  53   2.0000      -0.689781       -18.7699
  54   2.0000      -0.676025       -18.3956
  55   2.0000      -0.628992       -17.1157
  56   2.0000      -0.620785       -16.8924
  57   2.0000      -0.601781       -16.3753
  58   2.0000      -0.597348       -16.2547
  59   2.0000      -0.589620       -16.0444
  60   2.0000      -0.527108       -14.3433
  61   2.0000      -0.515149       -14.0179
  62   2.0000      -0.492706       -13.4072
  63   2.0000      -0.486206       -13.2303
  64   2.0000      -0.474446       -12.9103
  65   2.0000      -0.456138       -12.4121
  66   2.0000      -0.452600       -12.3159
  67   2.0000      -0.450335       -12.2542
  68   2.0000      -0.441331       -12.0092
  69   2.0000      -0.432836       -11.7781
  70   2.0000      -0.420176       -11.4336
  71   2.0000      -0.414940       -11.2911
  72   2.0000      -0.403122       -10.9695
  73   2.0000      -0.400188       -10.8897
  74   2.0000      -0.394618       -10.7381
  75   2.0000      -0.389937       -10.6107
  76   2.0000      -0.382737       -10.4148
  77   2.0000      -0.368101       -10.0165
  78   2.0000      -0.359116        -9.7720
  79   2.0000      -0.355682        -9.6786
  80   2.0000      -0.354727        -9.6526
  81   2.0000      -0.352456        -9.5908
  82   2.0000      -0.351521        -9.5654
  83   2.0000      -0.347556        -9.4575
  84   2.0000      -0.343654        -9.3513
  85   2.0000      -0.332333        -9.0433
  86   2.0000      -0.317295        -8.6340
  87   2.0000      -0.308270        -8.3884
  88   2.0000      -0.307070        -8.3558
  89   2.0000      -0.302554        -8.2329
  90   2.0000      -0.296896        -8.0790
  91   2.0000      -0.294047        -8.0014
  92   2.0000      -0.287238        -7.8161
  93   2.0000      -0.280698        -7.6382
  94   2.0000      -0.270708        -7.3663
  95   2.0000      -0.248651        -6.7661
  96   2.0000      -0.236350        -6.4314
  97   2.0000      -0.233375        -6.3504
  98   2.0000      -0.226383        -6.1602
  99   2.0000      -0.219868        -5.9829
 100   2.0000      -0.217163        -5.9093
 101   0.0000      -0.052639        -1.4324
 102   0.0000      -0.031610        -0.8602
 103   0.0000      -0.005902        -0.1606
 104   0.0000      -0.004715        -0.1283
 105   0.0000       0.009182         0.2499

MULLIKEN ATOMIC CHARGES
-----------------------
   0 C :   -0.491623
   1 C :   -0.142165
   2 O :   -0.291347
   3 P :    0.707623
   4 S :   -0.511815
   5 O :   -0.329539
   6 C :   -0.155018
   7 C :   -0.466364
   8 S :   -0.139010
   9 C :   -0.246978
  10 S :   -0.147412
  11 P :    0.707000
  12 S :   -0.516516
  13 O :   -0.285157
  14 C :   -0.120618
  15 C :   -0.502331
  16 O :   -0.327388
  17 C :   -0.125974
  18 C :   -0.490651
  19 H :    0.164961
  20 H :    0.166978
  21 H :    0.170448
  22 H :    0.179298
  23 H :    0.176554
  24 H :    0.172740
  25 H :    0.177029
  26 H :    0.173413
  27 H :    0.170340
  28 H :    0.166141
  29 H :    0.230389
  30 H :    0.231814
  31 H :    0.169670
  32 H :    0.174000
  33 H :    0.171473
  34 H :    0.166702
  35 H :    0.166744
  36 H :    0.163875
  37 H :    0.176017
  38 H :    0.171010
  39 H :    0.169349
  40 H :    0.166341
Sum of atomic charges:   -0.0000000

LOEWDIN ATOMIC CHARGES
----------------------
   0 C :   -0.401078
   1 C :    0.011834
   2 O :   -0.686210
   3 P :    0.388416
   4 S :   -0.155607
   5 O :   -0.668931
   6 C :    0.029792
   7 C :   -0.410031
   8 S :    0.159530
   9 C :   -0.412462
  10 S :    0.171998
  11 P :    0.381891
  12 S :   -0.153259
  13 O :   -0.675552
  14 C :    0.032630
  15 C :   -0.405220
  16 O :   -0.675639
  17 C :    0.025817
  18 C :   -0.405648
  19 H :    0.161730
  20 H :    0.162568
  21 H :    0.167944
  22 H :    0.188668
  23 H :    0.182610
  24 H :    0.179600
  25 H :    0.193079
  26 H :    0.168046
  27 H :    0.164367
  28 H :    0.161911
  29 H :    0.196823
  30 H :    0.197344
  31 H :    0.181840
  32 H :    0.187653
  33 H :    0.162504
  34 H :    0.165350
  35 H :    0.164509
  36 H :    0.179822
  37 H :    0.189328
  38 H :    0.162605
  39 H :    0.167183
  40 H :    0.162245

  Mayer bond orders larger than 0.100000
B(  0-C ,  1-C ) :   0.9241 B(  0-C , 19-H ) :   0.9646 B(  0-C , 20-H ) :   0.9726
B(  0-C , 21-H ) :   0.9601 B(  1-C ,  2-O ) :   0.7566 B(  1-C , 22-H ) :   0.9532
B(  1-C , 23-H ) :   0.9533 B(  2-O ,  3-P ) :   1.1209 B(  3-P ,  4-S ) :   1.7366
B(  3-P ,  5-O ) :   1.1057 B(  3-P ,  8-S ) :   1.0545 B(  5-O ,  6-C ) :   0.7957
B(  6-C ,  7-C ) :   0.9215 B(  6-C , 24-H ) :   0.9585 B(  6-C , 25-H ) :   0.9479
B(  7-C , 26-H ) :   0.9564 B(  7-C , 27-H ) :   0.9668 B(  7-C , 28-H ) :   0.9570
B(  8-S ,  9-C ) :   0.8953 B(  9-C , 10-S ) :   0.8857 B(  9-C , 29-H ) :   0.9046
B(  9-C , 30-H ) :   0.9051 B( 10-S , 11-P ) :   1.1014 B( 11-P , 12-S ) :   1.7154
B( 11-P , 13-O ) :   1.1780 B( 11-P , 16-O ) :   1.0743 B( 13-O , 14-C ) :   0.7487
B( 14-C , 15-C ) :   0.9367 B( 14-C , 31-H ) :   0.9628 B( 14-C , 32-H ) :   0.9491
B( 15-C , 33-H ) :   0.9653 B( 15-C , 34-H ) :   0.9590 B( 15-C , 35-H ) :   0.9656
B( 16-O , 17-C ) :   0.7633 B( 17-C , 18-C ) :   0.9466 B( 17-C , 36-H ) :   0.9554
B( 17-C , 37-H ) :   0.9536 B( 18-C , 38-H ) :   0.9614 B( 18-C , 39-H ) :   0.9599
B( 18-C , 40-H ) :   0.9722

Dispersion correction           -0.022105647
FINAL SINGLE POINT ENERGY     -2932.469223608231

DIPOLE MOMENT
-------------

Method             : SCF
Type of density    : Electron Density
Multiplicity       :   1
Irrep              :   0
Energy             : -2932.4934773965142085 Eh
Relativity type    :
Basis              : AO
                                X                 Y                 Z
Electronic contribution:     -0.647821423      -4.669137490      -9.098831917
Nuclear contribution   :      0.360004276       5.128879542       9.903140195
                        -----------------------------------------
Total Dipole Moment    :     -0.287817146       0.459742053       0.804308279
                        -----------------------------------------
Magnitude (a.u.)       :      0.970109928
Magnitude (Debye)      :      2.465823474

Rotational constants in cm-1:             0.013271             0.005060             0.004910
Rotational constants in MHz :           397.844054           151.691928           147.187525

                             ****ORCA TERMINATED NORMALLY****
TOTAL RUN TIME: 0 days 0 hours 1 minutes 50 seconds 845 msec
