                         Program Version 6.0.0  -   RELEASE  -
|  1> ! pbe def2-sv(p) def2/J RI DEFGRID1 loosescf d4 GCP(DFT/SV(P)) printgap
|  2> %output
|  3>     printlevel normal
|  4> end
|  5> * xyz 0 1
|  6> C 4.209009218 2.3279542385 -0.724167466
|  7> C 4.5475180798 0.8578615405 -0.5839732975
|  8> O 3.3964430139 0.0154279875 -0.7757534711
|  9> P 2.1878149834 -0.0202014495 0.2535921081
| 10> S 2.7006493855 0.0809782456 2.1463572577
| 11> O 1.4142560283 -1.3280669148 -0.1935781685
| 12> C 1.6530193038 -2.6177788125 0.3979568338
| 13> C 3.0342081419 -3.1425160793 0.0688293767
| 14> S 0.8490603344 1.4330970993 -0.4648519864
| 15> C -0.1729482086 1.5414261336 1.032032298
| 16> S -1.0211745208 -0.0088973398 1.4495023175
| 17> P -2.1294825492 -0.3272039151 -0.3380269357
| 18> S -1.3277269205 -1.1328279616 -1.9253067059
| 19> O -2.7916435914 1.1109281703 -0.5447388637
| 20> C -2.86445153 1.8080240385 -1.8069732493
| 21> C -2.1138201807 3.1221180734 -1.7279080739
| 22> O -3.2881367472 -1.2666392769 0.1932019999
| 23> C -4.1832141968 -0.8904697795 1.2722219119
| 24> C -5.5163946197 -1.5674390777 1.0284952575
| 25> H 5.1240864281 2.9107233327 -0.6953979245
| 26> H 3.6939042373 2.5086398398 -1.6644565205
| 27> H 3.5640629755 2.641705291 0.0956939356
| 28> H 4.9634382373 0.6519614951 0.407650908
| 29> H 5.2436612344 0.5274213633 -1.3559578988
| 30> H 1.5148377332 -2.5304487649 1.4813397078
| 31> H 0.8663415833 -3.2454259902 -0.0252876379
| 32> H 3.1872124563 -3.139504284 -1.0074053649
| 33> H 3.7900545378 -2.5116931312 0.5358667396
| 34> H 3.1340673196 -4.1547584966 0.4477990094
| 35> H -0.9047990559 2.3267341428 0.8622800254
| 36> H 0.4608993382 1.7658272704 1.8901637189
| 37> H -2.4545491396 1.1625650152 -2.5907712346
| 38> H -3.9283091516 1.9714228812 -1.9899652354
| 39> H -2.2625771069 3.6641434308 -2.656102576
| 40> H -2.4894067882 3.7209845843 -0.9028326749
| 41> H -1.0482973483 2.9458703492 -1.5913160915
| 42> H -3.7281965956 -1.2259707386 2.2068532492
| 43> H -4.2827886221 0.197068535 1.2856370047
| 44> H -5.3813626079 -2.6439783893 0.9765069116
| 45> H -6.1913123473 -1.3278809454 1.8438756875
| 46> H -5.9464541803 -1.2251962214 0.0913392771
| 47> *
| 48>
| 49>                          ****END OF INPUT****

CARTESIAN COORDINATES (ANGSTROEM)
---------------------------------
  C      4.209009    2.327954   -0.724167
  C      4.547518    0.857862   -0.583973
  O      3.396443    0.015428   -0.775753
  P      2.187815   -0.020201    0.253592
  S      2.700649    0.080978    2.146357
  O      1.414256   -1.328067   -0.193578
  C      1.653019   -2.617779    0.397957
  C      3.034208   -3.142516    0.068829
  S      0.849060    1.433097   -0.464852
  C     -0.172948    1.541426    1.032032
  S     -1.021175   -0.008897    1.449502
  P     -2.129483   -0.327204   -0.338027
  S     -1.327727   -1.132828   -1.925307
  O     -2.791644    1.110928   -0.544739
  C     -2.864452    1.808024   -1.806973
  C     -2.113820    3.122118   -1.727908
  O     -3.288137   -1.266639    0.193202
  C     -4.183214   -0.890470    1.272222
  C     -5.516395   -1.567439    1.028495
  H      5.124086    2.910723   -0.695398
  H      3.693904    2.508640   -1.664457
  H      3.564063    2.641705    0.095694
  H      4.963438    0.651961    0.407651
  H      5.243661    0.527421   -1.355958
  H      1.514838   -2.530449    1.481340
  H      0.866342   -3.245426   -0.025288
  H      3.187212   -3.139504   -1.007405
  H      3.790055   -2.511693    0.535867
  H      3.134067   -4.154758    0.447799
  H     -0.904799    2.326734    0.862280
  H      0.460899    1.765827    1.890164
  H     -2.454549    1.162565   -2.590771
  H     -3.928309    1.971423   -1.989965
  H     -2.262577    3.664143   -2.656103
  H     -2.489407    3.720985   -0.902833
  H     -1.048297    2.945870   -1.591316
  H     -3.728197   -1.225971    2.206853
  H     -4.282789    0.197069    1.285637
  H     -5.381363   -2.643978    0.976507
  H     -6.191312   -1.327881    1.843876
  H     -5.946454   -1.225196    0.091339

 Total Charge           Charge          ....    0
 Multiplicity           Mult            ....    1
 Number of Electrons    NEL             ....  202
 Basis Dimension        Dim             ....  334

ORBITAL ENERGIES
----------------

  NO   OCC          E(Eh)            E(eV)
   0   2.0000     -88.043265     -2395.7790
   1   2.0000     -88.038813     -2395.6579
   2   2.0000     -87.987310     -2394.2564
   3   2.0000     -87.976181     -2393.9536
   4   2.0000     -76.424307     -2079.6111
   5   2.0000     -76.421084     -2079.5234
   6   2.0000     -18.793948      -511.4093
   7   2.0000     -18.792238      -511.3628
   8   2.0000     -18.787763      -511.2410
   9   2.0000     -18.779892      -511.0269
  10   2.0000      -9.958105      -270.9738
  11   2.0000      -9.954000      -270.8621
  12   2.0000      -9.952608      -270.8242
  13   2.0000      -9.952149      -270.8118
  14   2.0000      -9.940465      -270.4938
  15   2.0000      -9.890392      -269.1312
  16   2.0000      -9.888976      -269.0927
  17   2.0000      -9.884429      -268.9690
  18   2.0000      -9.876232      -268.7459
  19   2.0000      -7.688077      -209.2032
  20   2.0000      -7.683742      -209.0852
  21   2.0000      -7.632242      -207.6839
  22   2.0000      -7.621581      -207.3938
  23   2.0000      -6.421782      -174.7456
  24   2.0000      -6.418563      -174.6580
  25   2.0000      -5.715916      -155.5380
  26   2.0000      -5.712765      -155.4522
  27   2.0000      -5.711788      -155.4257
  28   2.0000      -5.708166      -155.3271
  29   2.0000      -5.704888      -155.2379
  30   2.0000      -5.700642      -155.1224
  31   2.0000      -5.660982      -154.0432
  32   2.0000      -5.653012      -153.8263
  33   2.0000      -5.652469      -153.8115
  34   2.0000      -5.650690      -153.7631
  35   2.0000      -5.642030      -153.5274
  36   2.0000      -5.641650      -153.5171
  37   2.0000      -4.644120      -126.3729
  38   2.0000      -4.643475      -126.3554
  39   2.0000      -4.642549      -126.3302
  40   2.0000      -4.641694      -126.3069
  41   2.0000      -4.640086      -126.2632
  42   2.0000      -4.638752      -126.2268
  43   2.0000      -0.982818       -26.7438
  44   2.0000      -0.982480       -26.7346
  45   2.0000      -0.942556       -25.6482
  46   2.0000      -0.940642       -25.5962
  47   2.0000      -0.763702       -20.7814
  48   2.0000      -0.721062       -19.6211
  49   2.0000      -0.707282       -19.2461
  50   2.0000      -0.693611       -18.8741
  51   2.0000      -0.683463       -18.5980
  52   2.0000      -0.669565       -18.2198
  53   2.0000      -0.647081       -17.6080
  54   2.0000      -0.637773       -17.3547
  55   2.0000      -0.599254       -16.3065
  56   2.0000      -0.587273       -15.9805
  57   2.0000      -0.570364       -15.5204
  58   2.0000      -0.568176       -15.4608
  59   2.0000      -0.562130       -15.2963
  60   2.0000      -0.506900       -13.7935
  61   2.0000      -0.488922       -13.3042
  62   2.0000      -0.482267       -13.1231
  63   2.0000      -0.469827       -12.7846
  64   2.0000      -0.456987       -12.4353
  65   2.0000      -0.442126       -12.0308
  66   2.0000      -0.437046       -11.8926
  67   2.0000      -0.433927       -11.8078
  68   2.0000      -0.429060       -11.6753
  69   2.0000      -0.411952       -11.2098
  70   2.0000      -0.403190       -10.9714
  71   2.0000      -0.394302       -10.7295
  72   2.0000      -0.387964       -10.5570
  73   2.0000      -0.386630       -10.5207
  74   2.0000      -0.382250       -10.4015
  75   2.0000      -0.376380       -10.2418
  76   2.0000      -0.367915       -10.0115
  77   2.0000      -0.361147        -9.8273
  78   2.0000      -0.356294        -9.6953
  79   2.0000      -0.351480        -9.5643
  80   2.0000      -0.344373        -9.3709
  81   2.0000      -0.343216        -9.3394
  82   2.0000      -0.339412        -9.2359
  83   2.0000      -0.337302        -9.1784
  84   2.0000      -0.332767        -9.0551
  85   2.0000      -0.320122        -8.7110
  86   2.0000      -0.308355        -8.3908
  87   2.0000      -0.306393        -8.3374
  88   2.0000      -0.294182        -8.0051
  89   2.0000      -0.284431        -7.7398
  90   2.0000      -0.277201        -7.5430
  91   2.0000      -0.269626        -7.3369
  92   2.0000      -0.265887        -7.2352
  93   2.0000      -0.263815        -7.1788
  94   2.0000      -0.261436        -7.1140
  95   2.0000      -0.234436        -6.3793
  96   2.0000      -0.216906        -5.9023
  97   2.0000      -0.208193        -5.6652
  98   2.0000      -0.204135        -5.5548
  99   2.0000      -0.192681        -5.2431
 100   2.0000      -0.187146        -5.0925
 101   0.0000      -0.047690        -1.2977
 102   0.0000      -0.023686        -0.6445
 103   0.0000      -0.006467        -0.1760
 104   0.0000       0.003497         0.0952
 105   0.0000       0.020242         0.5508

MULLIKEN ATOMIC CHARGES
-----------------------
   0 C :   -0.315395
   1 C :   -0.004464
   2 O :   -0.367818
   3 P :    0.629900
   4 S :   -0.342907
   5 O :   -0.342999
   6 C :    0.002721
   7 C :   -0.309877
   8 S :   -0.091540
   9 C :   -0.359380
  10 S :   -0.095822
  11 P :    0.608693
  12 S :   -0.288145
  13 O :   -0.397410
  14 C :   -0.007036
  15 C :   -0.314551
  16 O :   -0.367265
  17 C :   -0.024736
  18 C :   -0.276337
  19 H :    0.113290
  20 H :    0.119019
  21 H :    0.124272
  22 H :    0.111170
  23 H :    0.107059
  24 H :    0.107623
  25 H :    0.108103
  26 H :    0.119086
  27 H :    0.117506
  28 H :    0.109687
  29 H :    0.186519
  30 H :    0.191338
  31 H :    0.116242
  32 H :    0.100889
  33 H :    0.115192
  34 H :    0.116578
  35 H :    0.134055
  36 H :    0.111813
  37 H :    0.106593
  38 H :    0.122641
  39 H :    0.110122
  40 H :    0.115571
Sum of atomic charges:    0.0000000

LOEWDIN ATOMIC CHARGES
----------------------
   0 C :   -0.369765
   1 C :   -0.118765
   2 O :   -0.240326
   3 P :    0.575819
   4 S :   -0.329537
   5 O :   -0.226408
   6 C :   -0.116733
   7 C :   -0.365225
   8 S :    0.101535
   9 C :   -0.476986
  10 S :    0.078566
  11 P :    0.558531
  12 S :   -0.293143
  13 O :   -0.259939
  14 C :   -0.118682
  15 C :   -0.361223
  16 O :   -0.247821
  17 C :   -0.120801
  18 C :   -0.350200
  19 H :    0.131159
  20 H :    0.124722
  21 H :    0.120060
  22 H :    0.110586
  23 H :    0.119655
  24 H :    0.108715
  25 H :    0.120008
  26 H :    0.127273
  27 H :    0.119621
  28 H :    0.129112
  29 H :    0.130802
  30 H :    0.131299
  31 H :    0.109472
  32 H :    0.115183
  33 H :    0.133673
  34 H :    0.123621
  35 H :    0.116429
  36 H :    0.113310
  37 H :    0.109162
  38 H :    0.130292
  39 H :    0.129618
  40 H :    0.127329

  Mayer bond orders larger than 0.100000
B(  0-C ,  1-C ) :   1.1661 B(  0-C , 19-H ) :   0.9378 B(  0-C , 20-H ) :   0.9445
B(  0-C , 21-H ) :   0.9352 B(  1-C ,  2-O ) :   0.9079 B(  1-C , 22-H ) :   0.9159
B(  1-C , 23-H ) :   0.9338 B(  2-O ,  3-P ) :   1.1137 B(  3-P ,  4-S ) :   1.5817
B(  3-P ,  5-O ) :   1.1492 B(  3-P ,  8-S ) :   0.9497 B(  4-S ,  8-S ) :   0.1059
B(  5-O ,  6-C ) :   0.9067 B(  6-C ,  7-C ) :   1.1632 B(  6-C , 24-H ) :   0.9194
B(  6-C , 25-H ) :   0.9294 B(  7-C , 26-H ) :   0.9458 B(  7-C , 27-H ) :   0.9375
B(  7-C , 28-H ) :   0.9400 B(  8-S ,  9-C ) :   1.0110 B(  9-C , 10-S ) :   1.0016
B(  9-C , 29-H ) :   0.8987 B(  9-C , 30-H ) :   0.8850 B( 10-S , 11-P ) :   0.9517
B( 10-S , 12-S ) :   0.1053 B( 11-P , 12-S ) :   1.6841 B( 11-P , 13-O ) :   1.0533
B( 11-P , 16-O ) :   1.1272 B( 13-O , 14-C ) :   0.9066 B( 14-C , 15-C ) :   1.1673
B( 14-C , 31-H ) :   0.8968 B( 14-C , 32-H ) :   0.9339 B( 15-C , 33-H ) :   0.9375
B( 15-C , 34-H ) :   0.9437 B( 15-C , 35-H ) :   0.9314 B( 16-O , 17-C ) :   0.8971
B( 17-C , 18-C ) :   1.1624 B( 17-C , 36-H ) :   0.9305 B( 17-C , 37-H ) :   0.9184
B( 18-C , 38-H ) :   0.9499 B( 18-C , 39-H ) :   0.9412 B( 18-C , 40-H ) :   0.9501

Dispersion correction           -0.066063120
FINAL SINGLE POINT ENERGY     -2929.518978947193

DIPOLE MOMENT
-------------

Method             : SCF
Type of density    : Electron Density
Multiplicity       :   1
Irrep              :   0
Energy             : -2929.6370640886593719 Eh
Relativity type    :
Basis              : AO
                                X                 Y                 Z
Electronic contribution:      2.433063051      -4.047922338       2.246121927
Nuclear contribution   :     -2.991010719       4.959558266      -2.187934361
                        -----------------------------------------
Total Dipole Moment    :     -0.557947668       0.911635928       0.058187566
                        -----------------------------------------
Magnitude (a.u.)       :      1.070407146
Magnitude (Debye)      :      2.720758742

Rotational constants in cm-1:             0.012506             0.005150             0.004570
Rotational constants in MHz :           374.905716           154.385398           136.991843

                             ****ORCA TERMINATED NORMALLY****
TOTAL RUN TIME: 0 days 0 hours 0 minutes 20 seconds 979 msec
