                         Program Version 6.0.1  -  RELEASE   -
|  1> ! pbe def2-sv(p) def2/J RI DEFGRID1 loosescf d4 GCP(DFT/SV(P)) printgap
|  2> %output
|  3>     printlevel normal
|  4> end
|  5> * xyz 0 1
|  6> C 1.5595770769 -4.1159842416 -1.7026540476
|  7> C 2.0791520832 -2.8620551068 -2.3876011001
|  8> O 1.9115996059 -1.7098412215 -1.540931356
|  9> C 2.8228291481 -1.4727987055 -0.6184087099
| 10> O 3.8343593444 -2.1214045286 -0.4690651681
| 11> C 2.4876600417 -0.2690812811 0.2431157819
| 12> C 1.0625028091 0.2335331397 0.0626535154
| 13> H 0.8663643289 0.4504339715 -0.9930718486
| 14> C 0.7907900012 1.5026374528 0.8510351191
| 15> O -0.1758199069 1.6264105041 1.5751800241
| 16> O 1.7026784974 2.4128893443 0.6404896009
| 17> C 1.5155360156 3.7197904344 1.2264697427
| 18> C 0.7120634385 4.6057642659 0.2891799583
| 19> S -0.151347399 -1.0209455077 0.5982538278
| 20> P -1.9162492887 0.0976403265 0.2115126001
| 21> S -1.7959097061 1.5513333851 -1.0935712641
| 22> O -2.9002253462 -1.0802398062 -0.2735571871
| 23> C -2.6991393589 -1.7378116943 -1.5266370807
| 24> O -2.6490126257 0.4916443582 1.5525786918
| 25> C -2.832922687 -0.4374946685 2.6375243964
| 26> H 0.531253483 -3.9698759805 -1.382971355
| 27> H 1.6069224987 -4.950146538 -2.394538967
| 28> H 2.1676260226 -4.3431224747 -0.8303288758
| 29> H 1.5033985165 -2.6269907198 -3.2829092958
| 30> H 3.1402345773 -2.9660972757 -2.6311569381
| 31> H 3.1829714464 0.5327989925 -0.0173675406
| 32> H 2.6744489577 -0.5494941466 1.2815545662
| 33> H 1.0061015633 3.6027558666 2.186502401
| 34> H 2.5264701832 4.1006299069 1.3703446533
| 35> H 0.5944979992 5.5882992114 0.7336045482
| 36> H 1.219275871 4.7003152637 -0.6667432182
| 37> H -0.2732128596 4.1752413682 0.1169346165
| 38> H -2.6231860123 -1.0007255923 -2.3277566728
| 39> H -3.5718700369 -2.3692209975 -1.6707778874
| 40> H -1.7903826992 -2.3388917736 -1.489174922
| 41> H -3.4093234944 -1.2967837441 2.2991147862
| 42> H -3.3743817342 0.1207147932 3.3966814327
| 43> H -1.862506708 -0.7579617246 3.0163786712
| 44> *
| 45>
| 46>                          ****END OF INPUT****

CARTESIAN COORDINATES (ANGSTROEM)
---------------------------------
  C      1.559577   -4.115984   -1.702654
  C      2.079152   -2.862055   -2.387601
  O      1.911600   -1.709841   -1.540931
  C      2.822829   -1.472799   -0.618409
  O      3.834359   -2.121405   -0.469065
  C      2.487660   -0.269081    0.243116
  C      1.062503    0.233533    0.062654
  H      0.866364    0.450434   -0.993072
  C      0.790790    1.502637    0.851035
  O     -0.175820    1.626411    1.575180
  O      1.702678    2.412889    0.640490
  C      1.515536    3.719790    1.226470
  C      0.712063    4.605764    0.289180
  S     -0.151347   -1.020946    0.598254
  P     -1.916249    0.097640    0.211513
  S     -1.795910    1.551333   -1.093571
  O     -2.900225   -1.080240   -0.273557
  C     -2.699139   -1.737812   -1.526637
  O     -2.649013    0.491644    1.552579
  C     -2.832923   -0.437495    2.637524
  H      0.531253   -3.969876   -1.382971
  H      1.606922   -4.950147   -2.394539
  H      2.167626   -4.343122   -0.830329
  H      1.503399   -2.626991   -3.282909
  H      3.140235   -2.966097   -2.631157
  H      3.182971    0.532799   -0.017368
  H      2.674449   -0.549494    1.281555
  H      1.006102    3.602756    2.186502
  H      2.526470    4.100630    1.370345
  H      0.594498    5.588299    0.733605
  H      1.219276    4.700315   -0.666743
  H     -0.273213    4.175241    0.116935
  H     -2.623186   -1.000726   -2.327757
  H     -3.571870   -2.369221   -1.670778
  H     -1.790383   -2.338892   -1.489175
  H     -3.409323   -1.296784    2.299115
  H     -3.374382    0.120715    3.396681
  H     -1.862507   -0.757962    3.016379

 Total Charge           Charge          ....    0
 Multiplicity           Mult            ....    1
 Number of Electrons    NEL             ....  174
 Basis Dimension        Dim             ....  316

ORBITAL ENERGIES
----------------

  NO   OCC          E(Eh)            E(eV)
   0   2.0000     -88.037529     -2395.6230
   1   2.0000     -87.977331     -2393.9849
   2   2.0000     -76.421638     -2079.5385
   3   2.0000     -18.816825      -512.0318
   4   2.0000     -18.809485      -511.8321
   5   2.0000     -18.784686      -511.1573
   6   2.0000     -18.784100      -511.1414
   7   2.0000     -18.745770      -510.0983
   8   2.0000     -18.740664      -509.9594
   9   2.0000     -10.020285      -272.6658
  10   2.0000     -10.016158      -272.5535
  11   2.0000      -9.953492      -270.8483
  12   2.0000      -9.953087      -270.8373
  13   2.0000      -9.946191      -270.6496
  14   2.0000      -9.943801      -270.5846
  15   2.0000      -9.939786      -270.4753
  16   2.0000      -9.920225      -269.9430
  17   2.0000      -9.890133      -269.1242
  18   2.0000      -9.884868      -268.9809
  19   2.0000      -7.682334      -209.0469
  20   2.0000      -7.622583      -207.4210
  21   2.0000      -6.417980      -174.6421
  22   2.0000      -5.710087      -155.3794
  23   2.0000      -5.707081      -155.2976
  24   2.0000      -5.699241      -155.0842
  25   2.0000      -5.651750      -153.7919
  26   2.0000      -5.643155      -153.5580
  27   2.0000      -5.642452      -153.5389
  28   2.0000      -4.640684      -126.2794
  29   2.0000      -4.640026      -126.2615
  30   2.0000      -4.638328      -126.2153
  31   2.0000      -1.024794       -27.8861
  32   2.0000      -1.017134       -27.6776
  33   2.0000      -0.979228       -26.6461
  34   2.0000      -0.934765       -25.4362
  35   2.0000      -0.926889       -25.2219
  36   2.0000      -0.919586       -25.0232
  37   2.0000      -0.768535       -20.9129
  38   2.0000      -0.713635       -19.4190
  39   2.0000      -0.709451       -19.3051
  40   2.0000      -0.690235       -18.7823
  41   2.0000      -0.659789       -17.9538
  42   2.0000      -0.630394       -17.1539
  43   2.0000      -0.624473       -16.9928
  44   2.0000      -0.615599       -16.7513
  45   2.0000      -0.598662       -16.2904
  46   2.0000      -0.569348       -15.4927
  47   2.0000      -0.512474       -13.9451
  48   2.0000      -0.504423       -13.7260
  49   2.0000      -0.501768       -13.6538
  50   2.0000      -0.478850       -13.0302
  51   2.0000      -0.468543       -12.7497
  52   2.0000      -0.467311       -12.7162
  53   2.0000      -0.451585       -12.2882
  54   2.0000      -0.442480       -12.0405
  55   2.0000      -0.432234       -11.7617
  56   2.0000      -0.425243       -11.5715
  57   2.0000      -0.421701       -11.4751
  58   2.0000      -0.410864       -11.1802
  59   2.0000      -0.409748       -11.1498
  60   2.0000      -0.402314       -10.9475
  61   2.0000      -0.398275       -10.8376
  62   2.0000      -0.395094       -10.7510
  63   2.0000      -0.390761       -10.6331
  64   2.0000      -0.379642       -10.3306
  65   2.0000      -0.368700       -10.0328
  66   2.0000      -0.361272        -9.8307
  67   2.0000      -0.355061        -9.6617
  68   2.0000      -0.349060        -9.4984
  69   2.0000      -0.339429        -9.2363
  70   2.0000      -0.334212        -9.0944
  71   2.0000      -0.332114        -9.0373
  72   2.0000      -0.327376        -8.9084
  73   2.0000      -0.315024        -8.5722
  74   2.0000      -0.303123        -8.2484
  75   2.0000      -0.300055        -8.1649
  76   2.0000      -0.295659        -8.0453
  77   2.0000      -0.290646        -7.9089
  78   2.0000      -0.271496        -7.3878
  79   2.0000      -0.266399        -7.2491
  80   2.0000      -0.263759        -7.1772
  81   2.0000      -0.254580        -6.9275
  82   2.0000      -0.240721        -6.5504
  83   2.0000      -0.224068        -6.0972
  84   2.0000      -0.215168        -5.8550
  85   2.0000      -0.198650        -5.4055
  86   2.0000      -0.192634        -5.2418
  87   0.0000      -0.041243        -1.1223
  88   0.0000      -0.035265        -0.9596
  89   0.0000      -0.020861        -0.5676
  90   0.0000       0.006073         0.1652
  91   0.0000       0.023955         0.6519

MULLIKEN ATOMIC CHARGES
-----------------------
   0 C :   -0.322156
   1 C :   -0.006835
   2 O :   -0.227421
   3 C :    0.141801
   4 O :   -0.201000
   5 C :   -0.142273
   6 C :   -0.281682
   7 H :    0.152620
   8 C :    0.215408
   9 O :   -0.181893
  10 O :   -0.227951
  11 C :   -0.012085
  12 C :   -0.308673
  13 S :   -0.107919
  14 P :    0.622439
  15 S :   -0.328750
  16 O :   -0.391870
  17 C :   -0.110724
  18 O :   -0.350744
  19 C :   -0.103774
  20 H :    0.128843
  21 H :    0.114072
  22 H :    0.128997
  23 H :    0.104805
  24 H :    0.110201
  25 H :    0.144628
  26 H :    0.123675
  27 H :    0.113965
  28 H :    0.104816
  29 H :    0.112776
  30 H :    0.113965
  31 H :    0.144148
  32 H :    0.115069
  33 H :    0.121648
  34 H :    0.119461
  35 H :    0.119836
  36 H :    0.131082
  37 H :    0.121495
Sum of atomic charges:    0.0000000

LOEWDIN ATOMIC CHARGES
----------------------
   0 C :   -0.357581
   1 C :   -0.108823
   2 O :   -0.053138
   3 C :    0.028857
   4 O :   -0.165463
   5 C :   -0.249368
   6 C :   -0.273182
   7 H :    0.143519
   8 C :    0.013582
   9 O :   -0.159842
  10 O :   -0.042522
  11 C :   -0.106872
  12 C :   -0.356880
  13 S :    0.093511
  14 P :    0.589296
  15 S :   -0.320481
  16 O :   -0.266219
  17 C :   -0.221112
  18 O :   -0.229600
  19 C :   -0.208228
  20 H :    0.124379
  21 H :    0.131191
  22 H :    0.131809
  23 H :    0.119054
  24 H :    0.121002
  25 H :    0.157605
  26 H :    0.146714
  27 H :    0.122968
  28 H :    0.118449
  29 H :    0.131026
  30 H :    0.125547
  31 H :    0.134853
  32 H :    0.110001
  33 H :    0.120482
  34 H :    0.103553
  35 H :    0.113234
  36 H :    0.126633
  37 H :    0.112047

  Mayer bond orders larger than 0.100000
B(  0-C ,  1-C ) :   1.1746 B(  0-C , 20-H ) :   0.9430 B(  0-C , 21-H ) :   0.9428
B(  0-C , 22-H ) :   0.9437 B(  1-C ,  2-O ) :   0.9117 B(  1-C , 23-H ) :   0.9366
B(  1-C , 24-H ) :   0.9161 B(  2-O ,  3-C ) :   1.2392 B(  3-C ,  4-O ) :   2.0533
B(  3-C ,  5-C ) :   1.0144 B(  5-C ,  6-C ) :   1.0712 B(  5-C , 25-H ) :   0.8734
B(  5-C , 26-H ) :   0.9005 B(  6-C ,  7-H ) :   0.8393 B(  6-C ,  8-C ) :   0.8903
B(  6-C , 13-S ) :   1.0193 B(  8-C ,  9-O ) :   2.0146 B(  8-C , 10-O ) :   1.2594
B( 10-O , 11-C ) :   0.8981 B( 11-C , 12-C ) :   1.1806 B( 11-C , 27-H ) :   0.9117
B( 11-C , 28-H ) :   0.9364 B( 12-C , 29-H ) :   0.9420 B( 12-C , 30-H ) :   0.9487
B( 12-C , 31-H ) :   0.9350 B( 13-S , 14-P ) :   0.9466 B( 13-S , 15-S ) :   0.1121
B( 14-P , 15-S ) :   1.6106 B( 14-P , 16-O ) :   1.0543 B( 14-P , 18-O ) :   1.1401
B( 16-O , 17-C ) :   0.9402 B( 17-C , 32-H ) :   0.9343 B( 17-C , 33-H ) :   0.9578
B( 17-C , 34-H ) :   0.9400 B( 18-O , 19-C ) :   0.9214 B( 19-C , 35-H ) :   0.9461
B( 19-C , 36-H ) :   0.9600 B( 19-C , 37-H ) :   0.9407

Dispersion correction           -0.051366292
FINAL SINGLE POINT ENERGY     -1979.016722471505

DIPOLE MOMENT
-------------

Method             : SCF
Type of density    : Electron Density
Multiplicity       :   1
Irrep              :   0
Energy             : -1979.1467740984580814 Eh
Relativity type    :
Basis              : AO
                                X                 Y                 Z
Electronic contribution:     -5.427394445       3.317920965       3.287443384
Nuclear contribution   :      5.654373332      -3.765338060      -3.235193004
                        -----------------------------------------
Total Dipole Moment    :      0.226978887      -0.447417095       0.052250380
                        -----------------------------------------
Magnitude (a.u.)       :      0.504412107
Magnitude (Debye)      :      1.282113686

Rotational constants in cm-1:             0.010831             0.008180             0.005698
Rotational constants in MHz :           324.697710           245.241467           170.807908

                             ****ORCA TERMINATED NORMALLY****
TOTAL RUN TIME: 0 days 0 hours 0 minutes 40 seconds 751 msec
