                         Program Version 6.0.0  -   RELEASE  -
|  1> ! r2scan-3c def2/J RI DEFGRID2 scfconv6 printgap
|  2> %output
|  3>     printlevel normal
|  4> end
|  5> * xyz 0 1
|  6> C -1.7177830021 -0.713425504 -0.4879461258
|  7> C -0.8508893484 -0.1236355013 0.6191336735
|  8> N 0.4792088413 0.1901478109 0.1025746966
|  9> O 0.8857705662 1.3284113637 0.2249797558
| 10> O 1.1133495481 -0.6998691385 -0.4240132817
| 11> H -1.2236246628 -1.5752660436 -0.9289999304
| 12> H -2.6688016055 -1.0266722372 -0.0707761226
| 13> H -1.9025779187 0.0226305819 -1.2658872359
| 14> H -0.7178676082 -0.8629877294 1.4125490746
| 15> H -1.2705450292 0.7973712548 1.0237846167
| 16> *
| 17>
| 18>                          ****END OF INPUT****

CARTESIAN COORDINATES (ANGSTROEM)
---------------------------------
  C     -1.717783   -0.713426   -0.487946
  C     -0.850889   -0.123636    0.619134
  N      0.479209    0.190148    0.102575
  O      0.885771    1.328411    0.224980
  O      1.113350   -0.699869   -0.424013
  H     -1.223625   -1.575266   -0.929000
  H     -2.668802   -1.026672   -0.070776
  H     -1.902578    0.022631   -1.265887
  H     -0.717868   -0.862988    1.412549
  H     -1.270545    0.797371    1.023785

 Total Charge           Charge          ....    0
 Multiplicity           Mult            ....    1
 Number of Electrons    NEL             ....   40
 Basis Dimension        Dim             ....  135

ORBITAL ENERGIES
----------------

  NO   OCC          E(Eh)            E(eV)
   0   2.0000     -18.985033      -516.6090
   1   2.0000     -18.984995      -516.6080
   2   2.0000     -14.392084      -391.6285
   3   2.0000     -10.101614      -274.8789
   4   2.0000     -10.053310      -273.5645
   5   2.0000      -1.207560       -32.8594
   6   2.0000      -1.028508       -27.9871
   7   2.0000      -0.812574       -22.1112
   8   2.0000      -0.683858       -18.6087
   9   2.0000      -0.573726       -15.6119
  10   2.0000      -0.524235       -14.2652
  11   2.0000      -0.506003       -13.7690
  12   2.0000      -0.489009       -13.3066
  13   2.0000      -0.443017       -12.0551
  14   2.0000      -0.394950       -10.7471
  15   2.0000      -0.374681       -10.1956
  16   2.0000      -0.355416        -9.6714
  17   2.0000      -0.293552        -7.9880
  18   2.0000      -0.277308        -7.5459
  19   2.0000      -0.257572        -7.0089
  20   0.0000      -0.101929        -2.7736
  21   0.0000       0.078856         2.1458
  22   0.0000       0.091125         2.4796
  23   0.0000       0.106338         2.8936
  24   0.0000       0.132574         3.6075

MULLIKEN ATOMIC CHARGES
-----------------------
   0 C :   -0.438569
   1 C :   -0.263795
   2 N :    0.243644
   3 O :   -0.199107
   4 O :   -0.194820
   5 H :    0.177637
   6 H :    0.155847
   7 H :    0.158383
   8 H :    0.173303
   9 H :    0.187478
Sum of atomic charges:   -0.0000000

LOEWDIN ATOMIC CHARGES
----------------------
   0 C :   -0.365049
   1 C :    0.019157
   2 N :   -0.539945
   3 O :   -0.001369
   4 O :   -0.007861
   5 H :    0.173545
   6 H :    0.160410
   7 H :    0.161437
   8 H :    0.201561
   9 H :    0.198113

  Mayer bond orders larger than 0.100000
B(  0-C ,  1-C ) :   0.9187 B(  0-C ,  5-H ) :   0.9617 B(  0-C ,  6-H ) :   0.9661
B(  0-C ,  7-H ) :   0.9667 B(  1-C ,  2-N ) :   0.8567 B(  1-C ,  8-H ) :   0.9391
B(  1-C ,  9-H ) :   0.9633 B(  2-N ,  3-O ) :   1.8483 B(  2-N ,  4-O ) :   1.8552
B(  3-O ,  4-O ) :   0.2804

Dispersion correction           -0.001890309
FINAL SINGLE POINT ENERGY      -284.280742689721

DIPOLE MOMENT
-------------

Method             : SCF
Type of density    : Electron Density
Multiplicity       :   1
Irrep              :   0
Energy             :  -284.2901151748369557 Eh
Relativity type    :
Basis              : AO
                                X                 Y                 Z
Electronic contribution:      5.917483679       2.084863845       0.242425772
Nuclear contribution   :     -7.269899932      -2.471026452       0.157730415
                        -----------------------------------------
Total Dipole Moment    :     -1.352416254      -0.386162608       0.400156187
                        -----------------------------------------
Magnitude (a.u.)       :      1.462284602
Magnitude (Debye)      :      3.716832077

Rotational constants in cm-1:             0.330543             0.142701             0.113381
Rotational constants in MHz :          9909.418090          4278.063451          3399.069131

                             ****ORCA TERMINATED NORMALLY****
TOTAL RUN TIME: 0 days 0 hours 0 minutes 18 seconds 435 msec
