                         Program Version 6.0.0  -   RELEASE  -
|  1> ! pbe def2-sv(p) def2/J RI DEFGRID1 loosescf d4 GCP(DFT/SV(P)) printgap
|  2> %output
|  3>     printlevel normal
|  4> end
|  5> * xyz 0 1
|  6> C 1.4420915598 -0.1837048309 -3.0436566597
|  7> C 2.4936348889 0.3720577602 -2.1038176924
|  8> O 2.8113335385 -0.5825386269 -1.0773151679
|  9> P 2.232947351 -0.5368140232 0.4059983872
| 10> S 2.3745638576 1.2176921316 1.2816943854
| 11> O 3.0646983252 -1.7097753583 1.0682702802
| 12> C 4.4468589516 -1.5404990686 1.4587892324
| 13> C 4.5436681642 -1.2893737527 2.9505428689
| 14> S 0.3670841948 -1.4946908469 0.3594784565
| 15> C -0.4981460221 -0.5119918902 1.6410976559
| 16> S -2.2465341959 -0.3088567357 1.2614189149
| 17> P -2.0370560445 0.7203700005 -0.5957391517
| 18> S -0.5416816658 1.9702953618 -0.7636403681
| 19> O -3.4838770637 1.343171723 -0.8237752397
| 20> C -3.8730442529 2.6351330159 -0.3251934233
| 21> C -3.8892912967 2.6925380603 1.1885967353
| 22> O -1.9963683099 -0.3956435058 -1.7079050504
| 23> C -3.0172416783 -1.4228467116 -1.8328180814
| 24> C -2.4255133982 -2.7821603263 -1.5208696388
| 25> H 1.3063987656 0.5064643613 -3.8701939879
| 26> H 1.7583441269 -1.1510394382 -3.4236468227
| 27> H 0.4901826237 -0.2992426465 -2.5282408463
| 28> H 2.1575873853 1.3060978326 -1.6405514078
| 29> H 3.4366691267 0.5460530219 -2.6258240991
| 30> H 4.9314604199 -2.4767108681 1.1771049371
| 31> H 4.8848511053 -0.7154054103 0.8907679325
| 32> H 4.0546572243 -0.350946807 3.2036661071
| 33> H 4.0611422059 -2.0959785906 3.4949723253
| 34> H 5.5887195512 -1.2336790397 3.2379037223
| 35> H -0.0128373452 0.466379764 1.7033532547
| 36> H -0.450907665 -1.0372545277 2.5916469267
| 37> H -3.1841050235 3.3823265597 -0.7310907993
| 38> H -4.8692546112 2.7828402163 -0.7447131024
| 39> H -4.3170202999 3.6384356166 1.5052423058
| 40> H -4.4791731939 1.8742185737 1.5936793866
| 41> H -2.8739791618 2.6203944104 1.5760138094
| 42> H -3.8461028674 -1.1854296881 -1.1627873103
| 43> H -3.3531283312 -1.3615608987 -2.8688932042
| 44> H -3.1797686905 -3.5433058749 -1.692242149
| 45> H -1.5684313666 -2.9733994319 -2.1600967664
| 46> H -2.0974915922 -2.8289174763 -0.4850041875
| 47> *
| 48>
| 49>                          ****END OF INPUT****

CARTESIAN COORDINATES (ANGSTROEM)
---------------------------------
  C      1.442092   -0.183705   -3.043657
  C      2.493635    0.372058   -2.103818
  O      2.811334   -0.582539   -1.077315
  P      2.232947   -0.536814    0.405998
  S      2.374564    1.217692    1.281694
  O      3.064698   -1.709775    1.068270
  C      4.446859   -1.540499    1.458789
  C      4.543668   -1.289374    2.950543
  S      0.367084   -1.494691    0.359478
  C     -0.498146   -0.511992    1.641098
  S     -2.246534   -0.308857    1.261419
  P     -2.037056    0.720370   -0.595739
  S     -0.541682    1.970295   -0.763640
  O     -3.483877    1.343172   -0.823775
  C     -3.873044    2.635133   -0.325193
  C     -3.889291    2.692538    1.188597
  O     -1.996368   -0.395644   -1.707905
  C     -3.017242   -1.422847   -1.832818
  C     -2.425513   -2.782160   -1.520870
  H      1.306399    0.506464   -3.870194
  H      1.758344   -1.151039   -3.423647
  H      0.490183   -0.299243   -2.528241
  H      2.157587    1.306098   -1.640551
  H      3.436669    0.546053   -2.625824
  H      4.931460   -2.476711    1.177105
  H      4.884851   -0.715405    0.890768
  H      4.054657   -0.350947    3.203666
  H      4.061142   -2.095979    3.494972
  H      5.588720   -1.233679    3.237904
  H     -0.012837    0.466380    1.703353
  H     -0.450908   -1.037255    2.591647
  H     -3.184105    3.382327   -0.731091
  H     -4.869255    2.782840   -0.744713
  H     -4.317020    3.638436    1.505242
  H     -4.479173    1.874219    1.593679
  H     -2.873979    2.620394    1.576014
  H     -3.846103   -1.185430   -1.162787
  H     -3.353128   -1.361561   -2.868893
  H     -3.179769   -3.543306   -1.692242
  H     -1.568431   -2.973399   -2.160097
  H     -2.097492   -2.828917   -0.485004

 Total Charge           Charge          ....    0
 Multiplicity           Mult            ....    1
 Number of Electrons    NEL             ....  202
 Basis Dimension        Dim             ....  334

ORBITAL ENERGIES
----------------

  NO   OCC          E(Eh)            E(eV)
   0   2.0000     -88.048332     -2395.9169
   1   2.0000     -88.040236     -2395.6966
   2   2.0000     -87.985558     -2394.2088
   3   2.0000     -87.981519     -2394.0988
   4   2.0000     -76.428280     -2079.7192
   5   2.0000     -76.420038     -2079.4950
   6   2.0000     -18.795479      -511.4510
   7   2.0000     -18.793293      -511.3915
   8   2.0000     -18.784223      -511.1447
   9   2.0000     -18.781436      -511.0689
  10   2.0000      -9.958314      -270.9795
  11   2.0000      -9.955395      -270.9001
  12   2.0000      -9.953805      -270.8568
  13   2.0000      -9.948103      -270.7016
  14   2.0000      -9.938976      -270.4533
  15   2.0000      -9.886163      -269.0162
  16   2.0000      -9.885713      -269.0039
  17   2.0000      -9.877129      -268.7703
  18   2.0000      -9.868444      -268.5340
  19   2.0000      -7.693109      -209.3401
  20   2.0000      -7.685147      -209.1235
  21   2.0000      -7.630427      -207.6345
  22   2.0000      -7.626447      -207.5262
  23   2.0000      -6.425459      -174.8456
  24   2.0000      -6.417828      -174.6380
  25   2.0000      -5.721002      -155.6764
  26   2.0000      -5.717482      -155.5806
  27   2.0000      -5.712996      -155.4585
  28   2.0000      -5.710250      -155.3838
  29   2.0000      -5.709808      -155.3718
  30   2.0000      -5.701948      -155.1579
  31   2.0000      -5.659453      -154.0016
  32   2.0000      -5.655292      -153.8883
  33   2.0000      -5.650781      -153.7656
  34   2.0000      -5.650729      -153.7641
  35   2.0000      -5.647242      -153.6693
  36   2.0000      -5.646490      -153.6488
  37   2.0000      -4.648287      -126.4863
  38   2.0000      -4.647234      -126.4577
  39   2.0000      -4.645731      -126.4168
  40   2.0000      -4.640270      -126.2682
  41   2.0000      -4.639474      -126.2465
  42   2.0000      -4.638498      -126.2200
  43   2.0000      -0.990346       -26.9487
  44   2.0000      -0.978700       -26.6318
  45   2.0000      -0.946586       -25.7579
  46   2.0000      -0.935450       -25.4549
  47   2.0000      -0.763265       -20.7695
  48   2.0000      -0.720518       -19.6063
  49   2.0000      -0.708345       -19.2750
  50   2.0000      -0.690894       -18.8002
  51   2.0000      -0.676766       -18.4157
  52   2.0000      -0.673788       -18.3347
  53   2.0000      -0.650234       -17.6938
  54   2.0000      -0.631901       -17.1949
  55   2.0000      -0.597650       -16.2629
  56   2.0000      -0.585448       -15.9308
  57   2.0000      -0.576929       -15.6990
  58   2.0000      -0.563747       -15.3403
  59   2.0000      -0.557567       -15.1722
  60   2.0000      -0.505212       -13.7475
  61   2.0000      -0.495232       -13.4759
  62   2.0000      -0.473998       -12.8981
  63   2.0000      -0.466130       -12.6840
  64   2.0000      -0.449605       -12.2344
  65   2.0000      -0.448204       -12.1963
  66   2.0000      -0.443599       -12.0710
  67   2.0000      -0.433307       -11.7909
  68   2.0000      -0.427866       -11.6428
  69   2.0000      -0.414025       -11.2662
  70   2.0000      -0.408879       -11.1262
  71   2.0000      -0.394040       -10.7224
  72   2.0000      -0.390059       -10.6140
  73   2.0000      -0.378251       -10.2927
  74   2.0000      -0.374099       -10.1798
  75   2.0000      -0.370131       -10.0718
  76   2.0000      -0.367457        -9.9990
  77   2.0000      -0.358679        -9.7602
  78   2.0000      -0.353272        -9.6130
  79   2.0000      -0.350461        -9.5365
  80   2.0000      -0.345405        -9.3989
  81   2.0000      -0.341366        -9.2890
  82   2.0000      -0.337029        -9.1710
  83   2.0000      -0.334791        -9.1101
  84   2.0000      -0.323576        -8.8049
  85   2.0000      -0.315517        -8.5857
  86   2.0000      -0.304928        -8.2975
  87   2.0000      -0.302939        -8.2434
  88   2.0000      -0.295304        -8.0356
  89   2.0000      -0.286280        -7.7901
  90   2.0000      -0.281190        -7.6516
  91   2.0000      -0.274434        -7.4677
  92   2.0000      -0.268341        -7.3019
  93   2.0000      -0.264199        -7.1892
  94   2.0000      -0.256511        -6.9800
  95   2.0000      -0.232225        -6.3192
  96   2.0000      -0.223807        -6.0901
  97   2.0000      -0.211774        -5.7627
  98   2.0000      -0.202267        -5.5040
  99   2.0000      -0.195574        -5.3218
 100   2.0000      -0.187392        -5.0992
 101   0.0000      -0.045398        -1.2354
 102   0.0000      -0.034384        -0.9356
 103   0.0000      -0.010405        -0.2831
 104   0.0000       0.008448         0.2299
 105   0.0000       0.016657         0.4533

MULLIKEN ATOMIC CHARGES
-----------------------
   0 C :   -0.313184
   1 C :   -0.010150
   2 O :   -0.377177
   3 P :    0.625824
   4 S :   -0.320061
   5 O :   -0.370878
   6 C :   -0.001374
   7 C :   -0.288509
   8 S :   -0.106544
   9 C :   -0.343971
  10 S :   -0.113917
  11 P :    0.596245
  12 S :   -0.296630
  13 O :   -0.379361
  14 C :    0.002240
  15 C :   -0.321399
  16 O :   -0.350681
  17 C :   -0.013309
  18 C :   -0.284623
  19 H :    0.104866
  20 H :    0.102345
  21 H :    0.145419
  22 H :    0.119309
  23 H :    0.097382
  24 H :    0.105124
  25 H :    0.103384
  26 H :    0.124200
  27 H :    0.110618
  28 H :    0.105744
  29 H :    0.211438
  30 H :    0.181517
  31 H :    0.113510
  32 H :    0.105093
  33 H :    0.115240
  34 H :    0.117138
  35 H :    0.132995
  36 H :    0.105389
  37 H :    0.112574
  38 H :    0.108943
  39 H :    0.122583
  40 H :    0.122647
Sum of atomic charges:   -0.0000000

LOEWDIN ATOMIC CHARGES
----------------------
   0 C :   -0.367879
   1 C :   -0.118397
   2 O :   -0.245748
   3 P :    0.566634
   4 S :   -0.305118
   5 O :   -0.249589
   6 C :   -0.112543
   7 C :   -0.361156
   8 S :    0.088234
   9 C :   -0.477854
  10 S :    0.077747
  11 P :    0.566336
  12 S :   -0.288606
  13 O :   -0.250308
  14 C :   -0.115374
  15 C :   -0.371318
  16 O :   -0.233489
  17 C :   -0.111903
  18 C :   -0.359046
  19 H :    0.128874
  20 H :    0.119655
  21 H :    0.120975
  22 H :    0.107023
  23 H :    0.114278
  24 H :    0.118023
  25 H :    0.110148
  26 H :    0.124526
  27 H :    0.124556
  28 H :    0.127518
  29 H :    0.123565
  30 H :    0.135142
  31 H :    0.113845
  32 H :    0.118831
  33 H :    0.132165
  34 H :    0.122535
  35 H :    0.123403
  36 H :    0.107866
  37 H :    0.122141
  38 H :    0.129136
  39 H :    0.129411
  40 H :    0.115764

  Mayer bond orders larger than 0.100000
B(  0-C ,  1-C ) :   1.1707 B(  0-C , 19-H ) :   0.9402 B(  0-C , 20-H ) :   0.9463
B(  0-C , 21-H ) :   0.9248 B(  1-C ,  2-O ) :   0.9014 B(  1-C , 22-H ) :   0.9041
B(  1-C , 23-H ) :   0.9346 B(  2-O ,  3-P ) :   1.1169 B(  3-P ,  4-S ) :   1.6106
B(  3-P ,  5-O ) :   1.1298 B(  3-P ,  8-S ) :   0.9606 B(  4-S ,  8-S ) :   0.1187
B(  5-O ,  6-C ) :   0.8941 B(  6-C ,  7-C ) :   1.1681 B(  6-C , 24-H ) :   0.9350
B(  6-C , 25-H ) :   0.9154 B(  7-C , 26-H ) :   0.9358 B(  7-C , 27-H ) :   0.9476
B(  7-C , 28-H ) :   0.9409 B(  8-S ,  9-C ) :   0.9918 B(  9-C , 10-S ) :   1.0110
B(  9-C , 29-H ) :   0.8483 B(  9-C , 30-H ) :   0.9084 B( 10-S , 11-P ) :   0.9313
B( 10-S , 12-S ) :   0.1082 B( 11-P , 12-S ) :   1.6480 B( 11-P , 13-O ) :   1.0901
B( 11-P , 16-O ) :   1.1226 B( 13-O , 14-C ) :   0.9056 B( 14-C , 15-C ) :   1.1664
B( 14-C , 31-H ) :   0.9189 B( 14-C , 32-H ) :   0.9346 B( 15-C , 33-H ) :   0.9369
B( 15-C , 34-H ) :   0.9432 B( 15-C , 35-H ) :   0.9350 B( 16-O , 17-C ) :   0.8861
B( 17-C , 18-C ) :   1.1655 B( 17-C , 36-H ) :   0.9168 B( 17-C , 37-H ) :   0.9338
B( 18-C , 38-H ) :   0.9389 B( 18-C , 39-H ) :   0.9463 B( 18-C , 40-H ) :   0.9335

Dispersion correction           -0.066392194
FINAL SINGLE POINT ENERGY     -2929.521260496903

DIPOLE MOMENT
-------------

Method             : SCF
Type of density    : Electron Density
Multiplicity       :   1
Irrep              :   0
Energy             : -2929.6393968580018736 Eh
Relativity type    :
Basis              : AO
                                X                 Y                 Z
Electronic contribution:      0.750108258       3.411029263       2.516443435
Nuclear contribution   :     -1.633420669      -4.098331294      -2.705999469
                        -----------------------------------------
Total Dipole Moment    :     -0.883312411      -0.687302031      -0.189556034
                        -----------------------------------------
Magnitude (a.u.)       :      1.135145976
Magnitude (Debye)      :      2.885311772

Rotational constants in cm-1:             0.012616             0.004982             0.004792
Rotational constants in MHz :           378.230144           149.364398           143.665525

                             ****ORCA TERMINATED NORMALLY****
TOTAL RUN TIME: 0 days 0 hours 0 minutes 21 seconds 311 msec
