                         Program Version 6.0.0  -   RELEASE  -
|  1> ! r2scan-3c def2/J RI DEFGRID2 scfconv6 printgap
|  2> %output
|  3>     printlevel normal
|  4> end
|  5> * xyz 0 1
|  6> C -0.3372886487 -1.2080883549 4.56051e-05
|  7> C 1.0409586624 -1.2067077315 -3.53749e-05
|  8> C 1.7425208907 -0.0008577238 -3.02025e-05
|  9> C 1.039508711 1.206913973 1.3852e-06
| 10> C -0.3360916275 1.210431578 5.75304e-05
| 11> C -1.0375910199 0.0003752975 7.35522e-05
| 12> C -2.4445237875 -0.0006157693 2.20323e-05
| 13> N -3.5944646148 -0.0035436443 -9.14665e-05
| 14> O 3.0880242966 0.0552452711 -1.69882e-05
| 15> H -0.8824256053 -2.1395420329 0.0001809658
| 16> H 1.5760561214 -2.1442527639 1.02733e-05
| 17> H 1.5991339103 2.12824982 -0.0001707836
| 18> H -0.8805046383 2.1420768988 3.999e-06
| 19> H 3.4825711107 -0.8315096613 -8.67926e-05
| 20> *
| 21>
| 22>                          ****END OF INPUT****

CARTESIAN COORDINATES (ANGSTROEM)
---------------------------------
  C     -0.337289   -1.208088    0.000046
  C      1.040959   -1.206708   -0.000035
  C      1.742521   -0.000858   -0.000030
  C      1.039509    1.206914    0.000001
  C     -0.336092    1.210432    0.000058
  C     -1.037591    0.000375    0.000074
  C     -2.444524   -0.000616    0.000022
  N     -3.594465   -0.003544   -0.000091
  O      3.088024    0.055245   -0.000017
  H     -0.882426   -2.139542    0.000181
  H      1.576056   -2.144253    0.000010
  H      1.599134    2.128250   -0.000171
  H     -0.880505    2.142077    0.000004
  H      3.482571   -0.831510   -0.000087

 Total Charge           Charge          ....    0
 Multiplicity           Mult            ....    1
 Number of Electrons    NEL             ....   62
 Basis Dimension        Dim             ....  206

ORBITAL ENERGIES
----------------

  NO   OCC          E(Eh)            E(eV)
   0   2.0000     -19.015424      -517.4360
   1   2.0000     -14.150446      -385.0532
   2   2.0000     -10.130210      -275.6570
   3   2.0000     -10.082772      -274.3662
   4   2.0000     -10.072348      -274.0825
   5   2.0000     -10.070603      -274.0350
   6   2.0000     -10.064471      -273.8682
   7   2.0000     -10.064352      -273.8649
   8   2.0000     -10.059299      -273.7274
   9   2.0000      -1.062304       -28.9068
  10   2.0000      -0.878212       -23.8974
  11   2.0000      -0.851080       -23.1591
  12   2.0000      -0.755382       -20.5550
  13   2.0000      -0.752068       -20.4648
  14   2.0000      -0.640224       -17.4214
  15   2.0000      -0.616832       -16.7848
  16   2.0000      -0.548537       -14.9265
  17   2.0000      -0.541399       -14.7322
  18   2.0000      -0.477763       -13.0006
  19   2.0000      -0.440133       -11.9766
  20   2.0000      -0.423883       -11.5344
  21   2.0000      -0.415355       -11.3024
  22   2.0000      -0.404229       -10.9996
  23   2.0000      -0.379615       -10.3299
  24   2.0000      -0.369179       -10.0459
  25   2.0000      -0.340017        -9.2523
  26   2.0000      -0.323830        -8.8118
  27   2.0000      -0.310432        -8.4473
  28   2.0000      -0.307208        -8.3596
  29   2.0000      -0.269489        -7.3332
  30   2.0000      -0.230542        -6.2734
  31   0.0000      -0.071334        -1.9411
  32   0.0000      -0.061347        -1.6693
  33   0.0000       0.009922         0.2700
  34   0.0000       0.035046         0.9537
  35   0.0000       0.051743         1.4080

MULLIKEN ATOMIC CHARGES
-----------------------
   0 C :   -0.148588
   1 C :   -0.338458
   2 C :    0.438485
   3 C :   -0.307743
   4 C :   -0.139189
   5 C :   -0.014344
   6 C :    0.210549
   7 N :   -0.251738
   8 O :   -0.398521
   9 H :    0.161412
  10 H :    0.143158
  11 H :    0.160860
  12 H :    0.162036
  13 H :    0.322081
Sum of atomic charges:    0.0000000

LOEWDIN ATOMIC CHARGES
----------------------
   0 C :   -0.101374
   1 C :   -0.159612
   2 C :    0.198068
   3 C :   -0.129206
   4 C :   -0.100940
   5 C :   -0.095750
   6 C :    0.156430
   7 N :   -0.309627
   8 O :   -0.474741
   9 H :    0.183041
  10 H :    0.174062
  11 H :    0.185770
  12 H :    0.183416
  13 H :    0.290464

  Mayer bond orders larger than 0.100000
B(  0-C ,  1-C ) :   1.4320 B(  0-C ,  5-C ) :   1.3934 B(  0-C ,  9-H ) :   0.9410
B(  1-C ,  2-C ) :   1.3162 B(  1-C , 10-H ) :   0.9347 B(  2-C ,  3-C ) :   1.3860
B(  2-C ,  8-O ) :   0.9452 B(  3-C ,  4-C ) :   1.4120 B(  3-C , 11-H ) :   0.9553
B(  4-C ,  5-C ) :   1.3676 B(  4-C , 12-H ) :   0.9479 B(  5-C ,  6-C ) :   1.0679
B(  6-C ,  7-N ) :   2.8381 B(  8-O , 13-H ) :   0.8762

Dispersion correction           -0.004696508
FINAL SINGLE POINT ENERGY      -399.627393960945

DIPOLE MOMENT
-------------

Method             : SCF
Type of density    : Electron Density
Multiplicity       :   1
Irrep              :   0
Energy             :  -399.6265523689291399 Eh
Relativity type    :
Basis              : AO
                                X                 Y                 Z
Electronic contribution:     -2.508297297       0.281359242       0.000076502
Nuclear contribution   :      4.618174797      -0.791937771      -0.000059239
                        -----------------------------------------
Total Dipole Moment    :      2.109877500      -0.510578529       0.000017262
                        -----------------------------------------
Magnitude (a.u.)       :      2.170777165
Magnitude (Debye)      :      5.517677057

Rotational constants in cm-1:             0.188778             0.033561             0.028495
Rotational constants in MHz :          5659.420504          1006.124818           854.256202

                             ****ORCA TERMINATED NORMALLY****
TOTAL RUN TIME: 0 days 0 hours 0 minutes 26 seconds 987 msec
