                         Program Version 6.0.0  -   RELEASE  -
|  1> ! pbe def2-sv(p) def2/J RI DEFGRID1 loosescf d4 GCP(DFT/SV(P)) printgap
|  2> %output
|  3>     printlevel normal
|  4> end
|  5> * xyz 0 1
|  6> C 5.6846629591 -0.6159106266 -0.2104304916
|  7> C 4.6552761931 -1.7265456674 -0.2447783994
|  8> O 3.4370366854 -1.3228663978 -0.909469577
|  9> P 2.4974724148 -0.1566221687 -0.4068355997
| 10> S 2.9600538831 1.7008309363 -0.8589247063
| 11> O 2.4433541305 -0.4484598227 1.1571757137
| 12> C 1.9148961921 0.4690916541 2.1339394793
| 13> C 0.6766232123 -0.1199295064 2.7795338766
| 14> S 0.7188866127 -0.8827421832 -1.305841496
| 15> C -0.0579592946 0.715800272 -1.658306794
| 16> S -0.8309140883 1.4726075809 -0.2083951541
| 17> P -2.5329721449 0.2153553985 -0.1856243247
| 18> S -3.3687218482 -0.1352424816 -1.9169049477
| 19> O -3.5476364447 0.8835609465 0.827281579
| 20> C -3.2762879497 1.0879648677 2.2375349005
| 21> C -2.715113657 2.4720219621 2.4923830134
| 22> O -1.9166141958 -1.0634629698 0.5560528027
| 23> C -2.3820381259 -2.3986390661 0.2896516882
| 24> C -3.7269424521 -2.6485046982 0.9411701307
| 25> H 5.3147537358 0.2212404586 0.3802756663
| 26> H 6.6027873569 -0.9869428757 0.2341297913
| 27> H 5.8903019959 -0.2598526032 -1.2172334105
| 28> H 4.4034193135 -2.0590709366 0.7643004755
| 29> H 4.9992226798 -2.5731667622 -0.8412314284
| 30> H 2.7119073257 0.6076769842 2.8676868673
| 31> H 1.7011386019 1.4279496416 1.6503862894
| 32> H -0.0939979849 -0.2889432609 2.0316538959
| 33> H 0.9185087514 -1.0678216969 3.251801539
| 34> H 0.3040006149 0.5727700043 3.5271503958
| 35> H -0.8205676342 0.5413579673 -2.4179636619
| 36> H 0.7016585428 1.4162729697 -2.0078822695
| 37> H -4.2510490561 0.9642508026 2.7124362136
| 38> H -2.5915146897 0.3110071226 2.5842002006
| 39> H -1.7430072645 2.586615432 2.0171443122
| 40> H -3.387322656 3.2259680003 2.0924201849
| 41> H -2.6091806212 2.6192847666 3.5626220463
| 42> H -2.4437112058 -2.5372444285 -0.7941017493
| 43> H -1.6009476351 -3.0415294381 0.697299559
| 44> H -4.46781881 -1.9678358112 0.5218693611
| 45> H -4.0375830367 -3.6699179258 0.745717653
| 46> H -3.6663385232 -2.4894713703 2.0145688247
| 47> *
| 48>
| 49>                          ****END OF INPUT****

CARTESIAN COORDINATES (ANGSTROEM)
---------------------------------
  C      5.684663   -0.615911   -0.210430
  C      4.655276   -1.726546   -0.244778
  O      3.437037   -1.322866   -0.909470
  P      2.497472   -0.156622   -0.406836
  S      2.960054    1.700831   -0.858925
  O      2.443354   -0.448460    1.157176
  C      1.914896    0.469092    2.133939
  C      0.676623   -0.119930    2.779534
  S      0.718887   -0.882742   -1.305841
  C     -0.057959    0.715800   -1.658307
  S     -0.830914    1.472608   -0.208395
  P     -2.532972    0.215355   -0.185624
  S     -3.368722   -0.135242   -1.916905
  O     -3.547636    0.883561    0.827282
  C     -3.276288    1.087965    2.237535
  C     -2.715114    2.472022    2.492383
  O     -1.916614   -1.063463    0.556053
  C     -2.382038   -2.398639    0.289652
  C     -3.726942   -2.648505    0.941170
  H      5.314754    0.221240    0.380276
  H      6.602787   -0.986943    0.234130
  H      5.890302   -0.259853   -1.217233
  H      4.403419   -2.059071    0.764300
  H      4.999223   -2.573167   -0.841231
  H      2.711907    0.607677    2.867687
  H      1.701139    1.427950    1.650386
  H     -0.093998   -0.288943    2.031654
  H      0.918509   -1.067822    3.251802
  H      0.304001    0.572770    3.527150
  H     -0.820568    0.541358   -2.417964
  H      0.701659    1.416273   -2.007882
  H     -4.251049    0.964251    2.712436
  H     -2.591515    0.311007    2.584200
  H     -1.743007    2.586615    2.017144
  H     -3.387323    3.225968    2.092420
  H     -2.609181    2.619285    3.562622
  H     -2.443711   -2.537244   -0.794102
  H     -1.600948   -3.041529    0.697300
  H     -4.467819   -1.967836    0.521869
  H     -4.037583   -3.669918    0.745718
  H     -3.666339   -2.489471    2.014569

 Total Charge           Charge          ....    0
 Multiplicity           Mult            ....    1
 Number of Electrons    NEL             ....  202
 Basis Dimension        Dim             ....  334

ORBITAL ENERGIES
----------------

  NO   OCC          E(Eh)            E(eV)
   0   2.0000     -88.043824     -2395.7943
   1   2.0000     -88.039221     -2395.6690
   2   2.0000     -87.989198     -2394.3078
   3   2.0000     -87.988448     -2394.2874
   4   2.0000     -76.428872     -2079.7353
   5   2.0000     -76.428415     -2079.7229
   6   2.0000     -18.800305      -511.5823
   7   2.0000     -18.795171      -511.4426
   8   2.0000     -18.794250      -511.4175
   9   2.0000     -18.793802      -511.4053
  10   2.0000      -9.964947      -271.1600
  11   2.0000      -9.957944      -270.9694
  12   2.0000      -9.953048      -270.8362
  13   2.0000      -9.952457      -270.8201
  14   2.0000      -9.949146      -270.7300
  15   2.0000      -9.895390      -269.2673
  16   2.0000      -9.888111      -269.0692
  17   2.0000      -9.885905      -269.0092
  18   2.0000      -9.884377      -268.9676
  19   2.0000      -7.688663      -209.2192
  20   2.0000      -7.684469      -209.1050
  21   2.0000      -7.634146      -207.7357
  22   2.0000      -7.633690      -207.7233
  23   2.0000      -6.426749      -174.8807
  24   2.0000      -6.425766      -174.8540
  25   2.0000      -5.716421      -155.5517
  26   2.0000      -5.713319      -155.4673
  27   2.0000      -5.712347      -155.4409
  28   2.0000      -5.709021      -155.3504
  29   2.0000      -5.705641      -155.2584
  30   2.0000      -5.701376      -155.1423
  31   2.0000      -5.662934      -154.0963
  32   2.0000      -5.662745      -154.0911
  33   2.0000      -5.654905      -153.8778
  34   2.0000      -5.654312      -153.8617
  35   2.0000      -5.654265      -153.8604
  36   2.0000      -5.653693      -153.8448
  37   2.0000      -4.649778      -126.5269
  38   2.0000      -4.648603      -126.4949
  39   2.0000      -4.648093      -126.4810
  40   2.0000      -4.647298      -126.4594
  41   2.0000      -4.647168      -126.4559
  42   2.0000      -4.646233      -126.4304
  43   2.0000      -0.990531       -26.9537
  44   2.0000      -0.989880       -26.9360
  45   2.0000      -0.949583       -25.8395
  46   2.0000      -0.945502       -25.7284
  47   2.0000      -0.764041       -20.7906
  48   2.0000      -0.726402       -19.7664
  49   2.0000      -0.713551       -19.4167
  50   2.0000      -0.695594       -18.9281
  51   2.0000      -0.691208       -18.8087
  52   2.0000      -0.675554       -18.3828
  53   2.0000      -0.652872       -17.7655
  54   2.0000      -0.638754       -17.3814
  55   2.0000      -0.600993       -16.3539
  56   2.0000      -0.591953       -16.1079
  57   2.0000      -0.584993       -15.9185
  58   2.0000      -0.576917       -15.6987
  59   2.0000      -0.557665       -15.1748
  60   2.0000      -0.506400       -13.7799
  61   2.0000      -0.500345       -13.6151
  62   2.0000      -0.483723       -13.1628
  63   2.0000      -0.476604       -12.9691
  64   2.0000      -0.461804       -12.5663
  65   2.0000      -0.452979       -12.3262
  66   2.0000      -0.443601       -12.0710
  67   2.0000      -0.432764       -11.7761
  68   2.0000      -0.428577       -11.6622
  69   2.0000      -0.416147       -11.3239
  70   2.0000      -0.414505       -11.2793
  71   2.0000      -0.403226       -10.9723
  72   2.0000      -0.395288       -10.7563
  73   2.0000      -0.386821       -10.5259
  74   2.0000      -0.380234       -10.3467
  75   2.0000      -0.376670       -10.2497
  76   2.0000      -0.368998       -10.0409
  77   2.0000      -0.363216        -9.8836
  78   2.0000      -0.359754        -9.7894
  79   2.0000      -0.354618        -9.6496
  80   2.0000      -0.351986        -9.5780
  81   2.0000      -0.348832        -9.4922
  82   2.0000      -0.346372        -9.4253
  83   2.0000      -0.341043        -9.2803
  84   2.0000      -0.336721        -9.1626
  85   2.0000      -0.327182        -8.9031
  86   2.0000      -0.315781        -8.5928
  87   2.0000      -0.306636        -8.3440
  88   2.0000      -0.297325        -8.0906
  89   2.0000      -0.294026        -8.0009
  90   2.0000      -0.284882        -7.7520
  91   2.0000      -0.277849        -7.5607
  92   2.0000      -0.276008        -7.5105
  93   2.0000      -0.273565        -7.4441
  94   2.0000      -0.259051        -7.0491
  95   2.0000      -0.233334        -6.3493
  96   2.0000      -0.218531        -5.9465
  97   2.0000      -0.213844        -5.8190
  98   2.0000      -0.204959        -5.5772
  99   2.0000      -0.202239        -5.5032
 100   2.0000      -0.201076        -5.4716
 101   0.0000      -0.044029        -1.1981
 102   0.0000      -0.025584        -0.6962
 103   0.0000      -0.004319        -0.1175
 104   0.0000       0.000762         0.0207
 105   0.0000       0.010359         0.2819

MULLIKEN ATOMIC CHARGES
-----------------------
   0 C :   -0.315992
   1 C :   -0.000161
   2 O :   -0.374711
   3 P :    0.630355
   4 S :   -0.328406
   5 O :   -0.384258
   6 C :   -0.001127
   7 C :   -0.330802
   8 S :   -0.076043
   9 C :   -0.362477
  10 S :   -0.107525
  11 P :    0.624097
  12 S :   -0.307097
  13 O :   -0.365595
  14 C :   -0.034372
  15 C :   -0.307211
  16 O :   -0.380151
  17 C :   -0.002508
  18 C :   -0.312911
  19 H :    0.128795
  20 H :    0.110956
  21 H :    0.126502
  22 H :    0.109158
  23 H :    0.109717
  24 H :    0.100376
  25 H :    0.107641
  26 H :    0.154368
  27 H :    0.107288
  28 H :    0.103586
  29 H :    0.191601
  30 H :    0.200448
  31 H :    0.113557
  32 H :    0.117892
  33 H :    0.139773
  34 H :    0.127733
  35 H :    0.113584
  36 H :    0.113984
  37 H :    0.105377
  38 H :    0.128776
  39 H :    0.115355
  40 H :    0.110427
Sum of atomic charges:    0.0000000

LOEWDIN ATOMIC CHARGES
----------------------
   0 C :   -0.366207
   1 C :   -0.109750
   2 O :   -0.242690
   3 P :    0.569790
   4 S :   -0.310868
   5 O :   -0.249028
   6 C :   -0.117329
   7 C :   -0.369842
   8 S :    0.089388
   9 C :   -0.490044
  10 S :    0.089999
  11 P :    0.572835
  12 S :   -0.303208
  13 O :   -0.240144
  14 C :   -0.115589
  15 C :   -0.361909
  16 O :   -0.247696
  17 C :   -0.122013
  18 C :   -0.364799
  19 H :    0.122554
  20 H :    0.129712
  21 H :    0.131200
  22 H :    0.112930
  23 H :    0.121765
  24 H :    0.114654
  25 H :    0.103071
  26 H :    0.119822
  27 H :    0.123071
  28 H :    0.125454
  29 H :    0.129484
  30 H :    0.129354
  31 H :    0.123177
  32 H :    0.111481
  33 H :    0.118806
  34 H :    0.132937
  35 H :    0.131961
  36 H :    0.110157
  37 H :    0.118128
  38 H :    0.125596
  39 H :    0.132259
  40 H :    0.121531

  Mayer bond orders larger than 0.100000
B(  0-C ,  1-C ) :   1.1664 B(  0-C , 19-H ) :   0.9359 B(  0-C , 20-H ) :   0.9363
B(  0-C , 21-H ) :   0.9454 B(  1-C ,  2-O ) :   0.9057 B(  1-C , 22-H ) :   0.9282
B(  1-C , 23-H ) :   0.9347 B(  2-O ,  3-P ) :   1.1355 B(  3-P ,  4-S ) :   1.6184
B(  3-P ,  5-O ) :   1.0806 B(  3-P ,  8-S ) :   0.9579 B(  4-S ,  8-S ) :   0.1197
B(  5-O ,  6-C ) :   0.9029 B(  6-C ,  7-C ) :   1.1646 B(  6-C , 24-H ) :   0.9348
B(  6-C , 25-H ) :   0.9011 B(  7-C , 26-H ) :   0.9152 B(  7-C , 27-H ) :   0.9447
B(  7-C , 28-H ) :   0.9388 B(  8-S ,  9-C ) :   1.0136 B(  9-C , 10-S ) :   0.9953
B(  9-C , 29-H ) :   0.8678 B(  9-C , 30-H ) :   0.8638 B( 10-S , 11-P ) :   0.9620
B( 10-S , 12-S ) :   0.1003 B( 11-P , 12-S ) :   1.6355 B( 11-P , 13-O ) :   1.1297
B( 11-P , 16-O ) :   1.0598 B( 13-O , 14-C ) :   0.8987 B( 14-C , 15-C ) :   1.1702
B( 14-C , 31-H ) :   0.9332 B( 14-C , 32-H ) :   0.9122 B( 15-C , 33-H ) :   0.9309
B( 15-C , 34-H ) :   0.9451 B( 15-C , 35-H ) :   0.9375 B( 16-O , 17-C ) :   0.9002
B( 17-C , 18-C ) :   1.1610 B( 17-C , 36-H ) :   0.9114 B( 17-C , 37-H ) :   0.9330
B( 18-C , 38-H ) :   0.9359 B( 18-C , 39-H ) :   0.9405 B( 18-C , 40-H ) :   0.9472

Dispersion correction           -0.065427096
FINAL SINGLE POINT ENERGY     -2929.521264920607

DIPOLE MOMENT
-------------

Method             : SCF
Type of density    : Electron Density
Multiplicity       :   1
Irrep              :   0
Energy             : -2929.6420529830720625 Eh
Relativity type    :
Basis              : AO
                                X                 Y                 Z
Electronic contribution:     -1.400917442       5.296483246     -21.413181410
Nuclear contribution   :      1.774181104      -6.192542607      23.547756931
                        -----------------------------------------
Total Dipole Moment    :      0.373263662      -0.896059362       2.134575521
                        -----------------------------------------
Magnitude (a.u.)       :      2.344922343
Magnitude (Debye)      :      5.960318922

Rotational constants in cm-1:             0.013174             0.004651             0.004463
Rotational constants in MHz :           394.944991           139.440051           133.785622

                             ****ORCA TERMINATED NORMALLY****
TOTAL RUN TIME: 0 days 0 hours 0 minutes 21 seconds 531 msec
