                         Program Version 6.0.1  -  RELEASE   -
|  1> ! r2scan-3c def2/J RI DEFGRID2 scfconv6 printgap
|  2> %output
|  3>     printlevel normal
|  4> end
|  5> * xyz 0 1
|  6> C 4.8361827416 -3.1356122212 -1.7588563044
|  7> C 4.9484427474 -2.1021617018 -0.6495203078
|  8> O 3.7476141076 -2.0720327877 0.1473820791
|  9> C 2.7597514891 -1.2865872012 -0.2261363138
| 10> O 2.7851234395 -0.5549412016 -1.194739031
| 11> C 1.5824202976 -1.3866803504 0.7213275374
| 12> C 0.4198454103 -0.605805295 0.1400846288
| 13> H 0.0481273095 -1.0512878468 -0.7889694215
| 14> C 0.7354480048 0.8494517411 -0.1323686688
| 15> O 0.1208321649 1.4969855434 -0.9551603844
| 16> O 1.6531494962 1.3320859429 0.6735330003
| 17> C 1.9835446051 2.7316605554 0.5644846239
| 18> C 0.9557360931 3.5958564997 1.276807739
| 19> S -0.9849204036 -0.5286991535 1.3018556051
| 20> P -2.4333773526 0.2150903823 -0.0742399451
| 21> S -2.3150546097 -0.4521558626 -1.9077195689
| 22> O -3.7908771575 -0.175750652 0.6741566861
| 23> C -4.2271710931 -1.5385223991 0.7481418989
| 24> O -2.4781213243 1.7886002924 0.074386878
| 25> C -2.8003686988 2.4160154175 1.3339182155
| 26> H 4.0451899218 -2.8564627601 -2.4517300309
| 27> H 5.7752479045 -3.1852001058 -2.2999966961
| 28> H 4.6114084766 -4.112206809 -1.3394628311
| 29> H 5.1173544068 -1.1046376432 -1.0648052473
| 30> H 5.7368229077 -2.361325604 0.0571142124
| 31> H 1.880296068 -0.9721325832 1.6861908057
| 32> H 1.3160195146 -2.4333463672 0.8664137171
| 33> H 2.9660569685 2.8073089322 1.0299975669
| 34> H 2.0429030362 2.9898127444 -0.4966291878
| 35> H 0.8512894811 3.2787501563 2.3108764166
| 36> H 1.278925829 4.63101664 1.2482205226
| 37> H -0.0056730145 3.5130693855 0.774920111
| 38> H -3.6280964745 -2.0766286829 1.481825196
| 39> H -4.1376183733 -2.0134138216 -0.2299924759
| 40> H -5.2683067237 -1.4956675377 1.0570904823
| 41> H -2.165761487 2.0157097553 2.1254561559
| 42> H -3.8473292948 2.2405529999 1.571928718
| 43> H -2.6108789444 3.4755964398 1.1818612522
| 44> *
| 45>
| 46>                          ****END OF INPUT****

CARTESIAN COORDINATES (ANGSTROEM)
---------------------------------
  C      4.836183   -3.135612   -1.758856
  C      4.948443   -2.102162   -0.649520
  O      3.747614   -2.072033    0.147382
  C      2.759751   -1.286587   -0.226136
  O      2.785123   -0.554941   -1.194739
  C      1.582420   -1.386680    0.721328
  C      0.419845   -0.605805    0.140085
  H      0.048127   -1.051288   -0.788969
  C      0.735448    0.849452   -0.132369
  O      0.120832    1.496986   -0.955160
  O      1.653149    1.332086    0.673533
  C      1.983545    2.731661    0.564485
  C      0.955736    3.595856    1.276808
  S     -0.984920   -0.528699    1.301856
  P     -2.433377    0.215090   -0.074240
  S     -2.315055   -0.452156   -1.907720
  O     -3.790877   -0.175751    0.674157
  C     -4.227171   -1.538522    0.748142
  O     -2.478121    1.788600    0.074387
  C     -2.800369    2.416015    1.333918
  H      4.045190   -2.856463   -2.451730
  H      5.775248   -3.185200   -2.299997
  H      4.611408   -4.112207   -1.339463
  H      5.117354   -1.104638   -1.064805
  H      5.736823   -2.361326    0.057114
  H      1.880296   -0.972133    1.686191
  H      1.316020   -2.433346    0.866414
  H      2.966057    2.807309    1.029998
  H      2.042903    2.989813   -0.496629
  H      0.851289    3.278750    2.310876
  H      1.278926    4.631017    1.248221
  H     -0.005673    3.513069    0.774920
  H     -3.628096   -2.076629    1.481825
  H     -4.137618   -2.013414   -0.229992
  H     -5.268307   -1.495668    1.057090
  H     -2.165761    2.015710    2.125456
  H     -3.847329    2.240553    1.571929
  H     -2.610879    3.475596    1.181861

 Total Charge           Charge          ....    0
 Multiplicity           Mult            ....    1
 Number of Electrons    NEL             ....  174
 Basis Dimension        Dim             ....  510

ORBITAL ENERGIES
----------------

  NO   OCC          E(Eh)            E(eV)
   0   2.0000     -88.576770     -2410.2964
   1   2.0000     -88.510348     -2408.4890
   2   2.0000     -76.908880     -2092.7970
   3   2.0000     -19.009214      -517.2670
   4   2.0000     -18.997329      -516.9436
   5   2.0000     -18.989489      -516.7303
   6   2.0000     -18.988606      -516.7062
   7   2.0000     -18.942023      -515.4386
   8   2.0000     -18.921058      -514.8682
   9   2.0000     -10.167743      -276.6784
  10   2.0000     -10.152759      -276.2706
  11   2.0000     -10.100312      -274.8435
  12   2.0000     -10.094020      -274.6723
  13   2.0000     -10.092393      -274.6280
  14   2.0000     -10.089700      -274.5547
  15   2.0000     -10.087663      -274.4993
  16   2.0000     -10.063627      -273.8452
  17   2.0000     -10.035008      -273.0665
  18   2.0000     -10.028448      -272.8879
  19   2.0000      -7.870926      -214.1788
  20   2.0000      -7.804896      -212.3820
  21   2.0000      -6.587082      -179.2436
  22   2.0000      -5.817531      -158.3031
  23   2.0000      -5.814817      -158.2292
  24   2.0000      -5.808327      -158.0526
  25   2.0000      -5.752829      -156.5424
  26   2.0000      -5.745203      -156.3349
  27   2.0000      -5.744628      -156.3193
  28   2.0000      -4.732937      -128.7898
  29   2.0000      -4.732195      -128.7696
  30   2.0000      -4.730344      -128.7192
  31   2.0000      -1.086305       -29.5599
  32   2.0000      -1.074217       -29.2309
  33   2.0000      -1.047589       -28.5064
  34   2.0000      -1.004885       -27.3443
  35   2.0000      -0.990387       -26.9498
  36   2.0000      -0.973402       -26.4876
  37   2.0000      -0.810875       -22.0650
  38   2.0000      -0.759102       -20.6562
  39   2.0000      -0.742445       -20.2029
  40   2.0000      -0.729443       -19.8492
  41   2.0000      -0.699963       -19.0470
  42   2.0000      -0.674821       -18.3628
  43   2.0000      -0.655745       -17.8437
  44   2.0000      -0.645437       -17.5632
  45   2.0000      -0.632340       -17.2069
  46   2.0000      -0.597702       -16.2643
  47   2.0000      -0.539184       -14.6719
  48   2.0000      -0.533704       -14.5228
  49   2.0000      -0.519830       -14.1453
  50   2.0000      -0.496647       -13.5144
  51   2.0000      -0.492098       -13.3907
  52   2.0000      -0.485258       -13.2045
  53   2.0000      -0.462662       -12.5897
  54   2.0000      -0.456250       -12.4152
  55   2.0000      -0.452472       -12.3124
  56   2.0000      -0.449238       -12.2244
  57   2.0000      -0.444100       -12.0846
  58   2.0000      -0.431077       -11.7302
  59   2.0000      -0.429732       -11.6936
  60   2.0000      -0.419372       -11.4117
  61   2.0000      -0.416163       -11.3244
  62   2.0000      -0.412645       -11.2286
  63   2.0000      -0.406606       -11.0643
  64   2.0000      -0.391420       -10.6511
  65   2.0000      -0.383169       -10.4265
  66   2.0000      -0.375285       -10.2120
  67   2.0000      -0.367078        -9.9887
  68   2.0000      -0.364632        -9.9221
  69   2.0000      -0.351959        -9.5773
  70   2.0000      -0.349402        -9.5077
  71   2.0000      -0.345467        -9.4006
  72   2.0000      -0.340238        -9.2583
  73   2.0000      -0.326881        -8.8949
  74   2.0000      -0.318267        -8.6605
  75   2.0000      -0.316691        -8.6176
  76   2.0000      -0.311239        -8.4692
  77   2.0000      -0.307911        -8.3787
  78   2.0000      -0.286338        -7.7917
  79   2.0000      -0.283242        -7.7074
  80   2.0000      -0.274697        -7.4749
  81   2.0000      -0.265678        -7.2295
  82   2.0000      -0.250902        -6.8274
  83   2.0000      -0.247426        -6.7328
  84   2.0000      -0.233377        -6.3505
  85   2.0000      -0.208877        -5.6838
  86   2.0000      -0.199045        -5.4163
  87   0.0000      -0.047735        -1.2989
  88   0.0000      -0.025227        -0.6865
  89   0.0000      -0.009557        -0.2601
  90   0.0000       0.016226         0.4415
  91   0.0000       0.021064         0.5732

MULLIKEN ATOMIC CHARGES
-----------------------
   0 C :   -0.465033
   1 C :   -0.138655
   2 O :   -0.166906
   3 C :    0.387313
   4 O :   -0.416523
   5 C :   -0.375560
   6 C :   -0.089759
   7 H :    0.251026
   8 C :    0.339047
   9 O :   -0.394952
  10 O :   -0.142335
  11 C :   -0.117605
  12 C :   -0.495409
  13 S :   -0.243119
  14 P :    0.745638
  15 S :   -0.420851
  16 O :   -0.332958
  17 C :   -0.299256
  18 O :   -0.290282
  19 C :   -0.288422
  20 H :    0.173384
  21 H :    0.149642
  22 H :    0.153448
  23 H :    0.169588
  24 H :    0.150530
  25 H :    0.194287
  26 H :    0.179505
  27 H :    0.148194
  28 H :    0.172284
  29 H :    0.153559
  30 H :    0.148417
  31 H :    0.182928
  32 H :    0.154421
  33 H :    0.179547
  34 H :    0.150926
  35 H :    0.168768
  36 H :    0.166220
  37 H :    0.158953
Sum of atomic charges:   -0.0000000

LOEWDIN ATOMIC CHARGES
----------------------
   0 C :   -0.387524
   1 C :    0.031212
   2 O :   -0.578156
   3 C :    0.373574
   4 O :   -0.418641
   5 C :   -0.209696
   6 C :   -0.195212
   7 H :    0.211898
   8 C :    0.339672
   9 O :   -0.420441
  10 O :   -0.588982
  11 C :    0.037030
  12 C :   -0.391951
  13 S :    0.177545
  14 P :    0.393249
  15 S :   -0.074082
  16 O :   -0.688492
  17 C :   -0.060076
  18 O :   -0.641517
  19 C :   -0.055539
  20 H :    0.165922
  21 H :    0.160708
  22 H :    0.158034
  23 H :    0.189233
  24 H :    0.179166
  25 H :    0.200566
  26 H :    0.188436
  27 H :    0.178491
  28 H :    0.190286
  29 H :    0.157451
  30 H :    0.159167
  31 H :    0.170933
  32 H :    0.167478
  33 H :    0.178733
  34 H :    0.176456
  35 H :    0.171497
  36 H :    0.174416
  37 H :    0.179156

  Mayer bond orders larger than 0.100000
B(  0-C ,  1-C ) :   0.9444 B(  0-C , 20-H ) :   0.9691 B(  0-C , 21-H ) :   0.9638
B(  0-C , 22-H ) :   0.9733 B(  1-C ,  2-O ) :   0.7980 B(  1-C , 23-H ) :   0.9661
B(  1-C , 24-H ) :   0.9614 B(  2-O ,  3-C ) :   1.1336 B(  3-C ,  4-O ) :   1.7840
B(  3-C ,  5-C ) :   1.0015 B(  5-C ,  6-C ) :   0.9711 B(  5-C , 10-O ) :   0.1295
B(  5-C , 25-H ) :   0.9501 B(  5-C , 26-H ) :   0.9313 B(  6-C ,  7-H ) :   0.9547
B(  6-C ,  8-C ) :   0.8614 B(  6-C , 13-S ) :   0.8206 B(  8-C ,  9-O ) :   1.8417
B(  8-C , 10-O ) :   1.1084 B( 10-O , 11-C ) :   0.8095 B( 11-C , 12-C ) :   0.9218
B( 11-C , 27-H ) :   0.9622 B( 11-C , 28-H ) :   0.9737 B( 12-C , 29-H ) :   0.9721
B( 12-C , 30-H ) :   0.9636 B( 12-C , 31-H ) :   0.9692 B( 13-S , 14-P ) :   0.9517
B( 14-P , 15-S ) :   1.8556 B( 14-P , 16-O ) :   1.0372 B( 14-P , 18-O ) :   1.1430
B( 16-O , 17-C ) :   0.8309 B( 17-C , 32-H ) :   0.9575 B( 17-C , 33-H ) :   0.9575
B( 17-C , 34-H ) :   0.9681 B( 18-O , 19-C ) :   0.7926 B( 19-C , 35-H ) :   0.9571
B( 19-C , 36-H ) :   0.9589 B( 19-C , 37-H ) :   0.9645

Dispersion correction           -0.017049123
FINAL SINGLE POINT ENERGY     -1981.451574077252

DIPOLE MOMENT
-------------

Method             : SCF
Type of density    : Electron Density
Multiplicity       :   1
Irrep              :   0
Energy             : -1981.4716011953723864 Eh
Relativity type    :
Basis              : AO
                                X                 Y                 Z
Electronic contribution:    -14.433447919      -1.422530534      -4.407084734
Nuclear contribution   :     15.439953735       1.072868225       6.380078089
                        -----------------------------------------
Total Dipole Moment    :      1.006505816      -0.349662309       1.972993355
                        -----------------------------------------
Magnitude (a.u.)       :      2.242324791
Magnitude (Debye)      :      5.699536668

Rotational constants in cm-1:             0.014939             0.005890             0.004939
Rotational constants in MHz :           447.849627           176.585589           148.067828

                             ****ORCA TERMINATED NORMALLY****
TOTAL RUN TIME: 0 days 0 hours 1 minutes 22 seconds 811 msec
