                         Program Version 6.0.1  -  RELEASE   -
|  1> ! r2scan-3c def2/J RI DEFGRID2 scfconv6 printgap
|  2> %output
|  3>     printlevel normal
|  4> end
|  5> %cpcm
|  6>     smd true
|  7>     smdsolvent "water"
|  8> end
|  9> * xyz 0 1
| 10> C 4.8361827416 -3.1356122212 -1.7588563044
| 11> C 4.9484427474 -2.1021617018 -0.6495203078
| 12> O 3.7476141076 -2.0720327877 0.1473820791
| 13> C 2.7597514891 -1.2865872012 -0.2261363138
| 14> O 2.7851234395 -0.5549412016 -1.194739031
| 15> C 1.5824202976 -1.3866803504 0.7213275374
| 16> C 0.4198454103 -0.605805295 0.1400846288
| 17> H 0.0481273095 -1.0512878468 -0.7889694215
| 18> C 0.7354480048 0.8494517411 -0.1323686688
| 19> O 0.1208321649 1.4969855434 -0.9551603844
| 20> O 1.6531494962 1.3320859429 0.6735330003
| 21> C 1.9835446051 2.7316605554 0.5644846239
| 22> C 0.9557360931 3.5958564997 1.276807739
| 23> S -0.9849204036 -0.5286991535 1.3018556051
| 24> P -2.4333773526 0.2150903823 -0.0742399451
| 25> S -2.3150546097 -0.4521558626 -1.9077195689
| 26> O -3.7908771575 -0.175750652 0.6741566861
| 27> C -4.2271710931 -1.5385223991 0.7481418989
| 28> O -2.4781213243 1.7886002924 0.074386878
| 29> C -2.8003686988 2.4160154175 1.3339182155
| 30> H 4.0451899218 -2.8564627601 -2.4517300309
| 31> H 5.7752479045 -3.1852001058 -2.2999966961
| 32> H 4.6114084766 -4.112206809 -1.3394628311
| 33> H 5.1173544068 -1.1046376432 -1.0648052473
| 34> H 5.7368229077 -2.361325604 0.0571142124
| 35> H 1.880296068 -0.9721325832 1.6861908057
| 36> H 1.3160195146 -2.4333463672 0.8664137171
| 37> H 2.9660569685 2.8073089322 1.0299975669
| 38> H 2.0429030362 2.9898127444 -0.4966291878
| 39> H 0.8512894811 3.2787501563 2.3108764166
| 40> H 1.278925829 4.63101664 1.2482205226
| 41> H -0.0056730145 3.5130693855 0.774920111
| 42> H -3.6280964745 -2.0766286829 1.481825196
| 43> H -4.1376183733 -2.0134138216 -0.2299924759
| 44> H -5.2683067237 -1.4956675377 1.0570904823
| 45> H -2.165761487 2.0157097553 2.1254561559
| 46> H -3.8473292948 2.2405529999 1.571928718
| 47> H -2.6108789444 3.4755964398 1.1818612522
| 48> *
| 49>
| 50>                          ****END OF INPUT****

CARTESIAN COORDINATES (ANGSTROEM)
---------------------------------
  C      4.836183   -3.135612   -1.758856
  C      4.948443   -2.102162   -0.649520
  O      3.747614   -2.072033    0.147382
  C      2.759751   -1.286587   -0.226136
  O      2.785123   -0.554941   -1.194739
  C      1.582420   -1.386680    0.721328
  C      0.419845   -0.605805    0.140085
  H      0.048127   -1.051288   -0.788969
  C      0.735448    0.849452   -0.132369
  O      0.120832    1.496986   -0.955160
  O      1.653149    1.332086    0.673533
  C      1.983545    2.731661    0.564485
  C      0.955736    3.595856    1.276808
  S     -0.984920   -0.528699    1.301856
  P     -2.433377    0.215090   -0.074240
  S     -2.315055   -0.452156   -1.907720
  O     -3.790877   -0.175751    0.674157
  C     -4.227171   -1.538522    0.748142
  O     -2.478121    1.788600    0.074387
  C     -2.800369    2.416015    1.333918
  H      4.045190   -2.856463   -2.451730
  H      5.775248   -3.185200   -2.299997
  H      4.611408   -4.112207   -1.339463
  H      5.117354   -1.104638   -1.064805
  H      5.736823   -2.361326    0.057114
  H      1.880296   -0.972133    1.686191
  H      1.316020   -2.433346    0.866414
  H      2.966057    2.807309    1.029998
  H      2.042903    2.989813   -0.496629
  H      0.851289    3.278750    2.310876
  H      1.278926    4.631017    1.248221
  H     -0.005673    3.513069    0.774920
  H     -3.628096   -2.076629    1.481825
  H     -4.137618   -2.013414   -0.229992
  H     -5.268307   -1.495668    1.057090
  H     -2.165761    2.015710    2.125456
  H     -3.847329    2.240553    1.571929
  H     -2.610879    3.475596    1.181861

 Total Charge           Charge          ....    0
 Multiplicity           Mult            ....    1
 Number of Electrons    NEL             ....  174
 Basis Dimension        Dim             ....  510

ORBITAL ENERGIES
----------------

  NO   OCC          E(Eh)            E(eV)
   0   2.0000     -88.585283     -2410.5281
   1   2.0000     -88.529730     -2409.0164
   2   2.0000     -76.922240     -2093.1606
   3   2.0000     -19.009502      -517.2748
   4   2.0000     -19.007903      -517.2313
   5   2.0000     -18.999450      -517.0013
   6   2.0000     -18.996462      -516.9200
   7   2.0000     -18.952387      -515.7207
   8   2.0000     -18.944397      -515.5032
   9   2.0000     -10.174423      -276.8601
  10   2.0000     -10.171162      -276.7714
  11   2.0000     -10.094147      -274.6757
  12   2.0000     -10.086996      -274.4811
  13   2.0000     -10.086853      -274.4772
  14   2.0000     -10.085385      -274.4373
  15   2.0000     -10.082419      -274.3566
  16   2.0000     -10.058566      -273.7075
  17   2.0000     -10.019629      -272.6480
  18   2.0000     -10.018979      -272.6303
  19   2.0000      -7.879296      -214.4065
  20   2.0000      -7.824732      -212.9218
  21   2.0000      -6.600561      -179.6104
  22   2.0000      -5.825955      -158.5323
  23   2.0000      -5.823268      -158.4592
  24   2.0000      -5.816574      -158.2770
  25   2.0000      -5.772506      -157.0779
  26   2.0000      -5.765064      -156.8754
  27   2.0000      -5.764508      -156.8602
  28   2.0000      -4.746369      -129.1553
  29   2.0000      -4.745583      -129.1339
  30   2.0000      -4.744002      -129.0909
  31   2.0000      -1.089985       -29.6600
  32   2.0000      -1.085626       -29.5414
  33   2.0000      -1.056185       -28.7402
  34   2.0000      -1.012604       -27.5544
  35   2.0000      -0.998550       -27.1719
  36   2.0000      -0.994264       -27.0553
  37   2.0000      -0.815579       -22.1930
  38   2.0000      -0.753613       -20.5069
  39   2.0000      -0.742344       -20.2002
  40   2.0000      -0.728819       -19.8322
  41   2.0000      -0.699518       -19.0349
  42   2.0000      -0.672450       -18.2983
  43   2.0000      -0.661339       -17.9959
  44   2.0000      -0.650359       -17.6972
  45   2.0000      -0.626743       -17.0545
  46   2.0000      -0.597847       -16.2682
  47   2.0000      -0.542119       -14.7518
  48   2.0000      -0.528091       -14.3701
  49   2.0000      -0.521177       -14.1820
  50   2.0000      -0.498352       -13.5608
  51   2.0000      -0.494848       -13.4655
  52   2.0000      -0.487607       -13.2685
  53   2.0000      -0.467539       -12.7224
  54   2.0000      -0.462105       -12.5745
  55   2.0000      -0.460518       -12.5313
  56   2.0000      -0.452567       -12.3150
  57   2.0000      -0.446210       -12.1420
  58   2.0000      -0.439367       -11.9558
  59   2.0000      -0.428068       -11.6483
  60   2.0000      -0.418238       -11.3808
  61   2.0000      -0.415975       -11.3193
  62   2.0000      -0.410799       -11.1784
  63   2.0000      -0.406080       -11.0500
  64   2.0000      -0.389501       -10.5989
  65   2.0000      -0.378943       -10.3116
  66   2.0000      -0.376007       -10.2317
  67   2.0000      -0.365672        -9.9504
  68   2.0000      -0.360746        -9.8164
  69   2.0000      -0.356703        -9.7064
  70   2.0000      -0.347128        -9.4458
  71   2.0000      -0.341494        -9.2925
  72   2.0000      -0.339764        -9.2455
  73   2.0000      -0.331198        -9.0123
  74   2.0000      -0.322340        -8.7713
  75   2.0000      -0.315538        -8.5862
  76   2.0000      -0.309145        -8.4123
  77   2.0000      -0.308098        -8.3838
  78   2.0000      -0.292831        -7.9683
  79   2.0000      -0.285931        -7.7806
  80   2.0000      -0.281650        -7.6641
  81   2.0000      -0.278084        -7.5670
  82   2.0000      -0.263876        -7.1804
  83   2.0000      -0.261558        -7.1174
  84   2.0000      -0.249052        -6.7770
  85   2.0000      -0.228789        -6.2257
  86   2.0000      -0.219889        -5.9835
  87   0.0000      -0.059530        -1.6199
  88   0.0000      -0.029546        -0.8040
  89   0.0000      -0.023980        -0.6525
  90   0.0000       0.004725         0.1286
  91   0.0000       0.013011         0.3540

MULLIKEN ATOMIC CHARGES
-----------------------
   0 C :   -0.493673
   1 C :   -0.141898
   2 O :   -0.179524
   3 C :    0.418952
   4 O :   -0.486276
   5 C :   -0.373627
   6 C :   -0.102285
   7 H :    0.266613
   8 C :    0.316831
   9 O :   -0.455261
  10 O :   -0.155471
  11 C :   -0.118124
  12 C :   -0.517658
  13 S :   -0.215994
  14 P :    0.761550
  15 S :   -0.491720
  16 O :   -0.356585
  17 C :   -0.307506
  18 O :   -0.334924
  19 C :   -0.292144
  20 H :    0.169554
  21 H :    0.172149
  22 H :    0.167020
  23 H :    0.175350
  24 H :    0.177122
  25 H :    0.225185
  26 H :    0.211004
  27 H :    0.177828
  28 H :    0.174703
  29 H :    0.171940
  30 H :    0.173339
  31 H :    0.175693
  32 H :    0.175978
  33 H :    0.178845
  34 H :    0.180491
  35 H :    0.183793
  36 H :    0.182751
  37 H :    0.185981
Sum of atomic charges:   -0.0000000

LOEWDIN ATOMIC CHARGES
----------------------
   0 C :   -0.390884
   1 C :    0.037230
   2 O :   -0.576110
   3 C :    0.385566
   4 O :   -0.469764
   5 C :   -0.201310
   6 C :   -0.193494
   7 H :    0.212784
   8 C :    0.337726
   9 O :   -0.480611
  10 O :   -0.586720
  11 C :    0.041784
  12 C :   -0.391395
  13 S :    0.202247
  14 P :    0.393369
  15 S :   -0.129878
  16 O :   -0.694188
  17 C :   -0.053131
  18 O :   -0.670356
  19 C :   -0.044988
  20 H :    0.162809
  21 H :    0.168841
  22 H :    0.162656
  23 H :    0.191224
  24 H :    0.190817
  25 H :    0.211831
  26 H :    0.203819
  27 H :    0.191562
  28 H :    0.190527
  29 H :    0.164310
  30 H :    0.168931
  31 H :    0.167130
  32 H :    0.176613
  33 H :    0.178580
  34 H :    0.189289
  35 H :    0.179619
  36 H :    0.182400
  37 H :    0.191167

  Mayer bond orders larger than 0.100000
B(  0-C ,  1-C ) :   0.9405 B(  0-C , 20-H ) :   0.9683 B(  0-C , 21-H ) :   0.9590
B(  0-C , 22-H ) :   0.9694 B(  1-C ,  2-O ) :   0.7807 B(  1-C , 23-H ) :   0.9623
B(  1-C , 24-H ) :   0.9517 B(  2-O ,  3-C ) :   1.1558 B(  3-C ,  4-O ) :   1.7338
B(  3-C ,  5-C ) :   1.0097 B(  5-C ,  6-C ) :   0.9782 B(  5-C , 10-O ) :   0.1159
B(  5-C , 25-H ) :   0.9448 B(  5-C , 26-H ) :   0.9100 B(  6-C ,  7-H ) :   0.9478
B(  6-C ,  8-C ) :   0.8582 B(  6-C , 13-S ) :   0.8108 B(  8-C ,  9-O ) :   1.7956
B(  8-C , 10-O ) :   1.1207 B( 10-O , 11-C ) :   0.7899 B( 11-C , 12-C ) :   0.9187
B( 11-C , 27-H ) :   0.9500 B( 11-C , 28-H ) :   0.9657 B( 12-C , 29-H ) :   0.9682
B( 12-C , 30-H ) :   0.9580 B( 12-C , 31-H ) :   0.9667 B( 13-S , 14-P ) :   0.9774
B( 14-P , 15-S ) :   1.8172 B( 14-P , 16-O ) :   1.0502 B( 14-P , 18-O ) :   1.1450
B( 16-O , 17-C ) :   0.8209 B( 17-C , 32-H ) :   0.9496 B( 17-C , 33-H ) :   0.9547
B( 17-C , 34-H ) :   0.9574 B( 18-O , 19-C ) :   0.7831 B( 19-C , 35-H ) :   0.9466
B( 19-C , 36-H ) :   0.9503 B( 19-C , 37-H ) :   0.9532

Dispersion correction           -0.017049123
FINAL SINGLE POINT ENERGY     -1981.470287577600

DIPOLE MOMENT
-------------

Method             : SCF
Type of density    : Electron Density
Multiplicity       :   1
Irrep              :   0
Energy             : -1981.4903146957196896 Eh
Relativity type    :
Basis              : AO
                                X                 Y                 Z
Electronic contribution:    -14.128377826      -1.785226195      -3.160887537
Nuclear contribution   :     15.439953735       1.072868225       6.380078089
                        -----------------------------------------
Total Dipole Moment    :      1.311575909      -0.712357970       3.219190552
                        -----------------------------------------
Magnitude (a.u.)       :      3.548362024
Magnitude (Debye)      :      9.019219495

Rotational constants in cm-1:             0.014939             0.005890             0.004939
Rotational constants in MHz :           447.849627           176.585589           148.067828

                             ****ORCA TERMINATED NORMALLY****
TOTAL RUN TIME: 0 days 0 hours 1 minutes 51 seconds 588 msec
