                         Program Version 6.0.0  -   RELEASE  -
|  1> ! pbe def2-sv(p) def2/J RI DEFGRID1 loosescf d4 GCP(DFT/SV(P)) printgap
|  2> %output
|  3>     printlevel normal
|  4> end
|  5> * xyz 0 1
|  6> C 1.3716705357 -2.0906759546 2.7760029669
|  7> C 2.0807701696 -0.7519382487 2.7350628773
|  8> O 1.6442315065 0.0197941533 1.5877425375
|  9> P 2.4751810625 0.0487048466 0.2398462008
| 10> S 3.3065512745 -1.6391371364 -0.3267315292
| 11> O 3.5138801227 1.2142412284 0.543572484
| 12> C 4.6979406951 1.4143736581 -0.2478220284
| 13> C 4.3712326202 1.9050991931 -1.6434067107
| 14> S 1.040490002 0.8958701508 -1.0541650504
| 15> C 0.2256175571 -0.6702108174 -1.4751249231
| 16> S -0.9175974591 -1.2261418483 -0.1958986513
| 17> P -2.3879600247 0.2912430846 -0.5212357355
| 18> S -2.5949120785 0.7801813421 -2.4068615791
| 19> O -2.0435774041 1.5429210119 0.3687281622
| 20> C -2.3221992209 1.6902966972 1.7839183744
| 21> C -1.6131533594 0.6516096245 2.6257218156
| 22> O -3.6811388474 -0.2967715664 0.1857106397
| 23> C -4.4110566445 -1.3950147619 -0.4020593796
| 24> C -5.7847853712 -1.433949488 0.2357792161
| 25> H 1.6522098577 -2.6148212863 3.6837808782
| 26> H 0.2952781394 -1.9475248381 2.7566428807
| 27> H 1.6555971487 -2.692813816 1.9156735992
| 28> H 3.1650222512 -0.883334115 2.6876172581
| 29> H 1.824508682 -0.1344084528 3.5972409455
| 30> H 5.2697028966 2.152109538 0.3165879778
| 31> H 5.2480769886 0.4687699376 -0.2922154001
| 32> H 3.7378447033 2.7875102562 -1.5957747355
| 33> H 5.291428911 2.1484155803 -2.1647777618
| 34> H 3.8457550398 1.1284486446 -2.1981751586
| 35> H 0.9783907578 -1.449566588 -1.5995981057
| 36> H -0.3280161523 -0.4968131004 -2.3986059036
| 37> H -1.9635483959 2.6978263978 2.000627602
| 38> H -3.4034484602 1.6397214323 1.9234107469
| 39> H -0.5468863586 0.6625372856 2.4132771224
| 40> H -1.7724740297 0.8763824813 3.6757686204
| 41> H -2.0064126515 -0.3401549608 2.4098841359
| 42> H -4.4738690521 -1.2322127245 -1.482927308
| 43> H -3.8524863665 -2.3147446766 -0.2101800289
| 44> H -6.3465510053 -2.2622505947 -0.1831361504
| 45> H -5.6941978507 -1.5678494214 1.309655021
| 46> H -6.3149241916 -0.50646092 0.0382044409
| 47> *
| 48>
| 49>                          ****END OF INPUT****

CARTESIAN COORDINATES (ANGSTROEM)
---------------------------------
  C      1.371671   -2.090676    2.776003
  C      2.080770   -0.751938    2.735063
  O      1.644232    0.019794    1.587743
  P      2.475181    0.048705    0.239846
  S      3.306551   -1.639137   -0.326732
  O      3.513880    1.214241    0.543572
  C      4.697941    1.414374   -0.247822
  C      4.371233    1.905099   -1.643407
  S      1.040490    0.895870   -1.054165
  C      0.225618   -0.670211   -1.475125
  S     -0.917597   -1.226142   -0.195899
  P     -2.387960    0.291243   -0.521236
  S     -2.594912    0.780181   -2.406862
  O     -2.043577    1.542921    0.368728
  C     -2.322199    1.690297    1.783918
  C     -1.613153    0.651610    2.625722
  O     -3.681139   -0.296772    0.185711
  C     -4.411057   -1.395015   -0.402059
  C     -5.784785   -1.433949    0.235779
  H      1.652210   -2.614821    3.683781
  H      0.295278   -1.947525    2.756643
  H      1.655597   -2.692814    1.915674
  H      3.165022   -0.883334    2.687617
  H      1.824509   -0.134408    3.597241
  H      5.269703    2.152110    0.316588
  H      5.248077    0.468770   -0.292215
  H      3.737845    2.787510   -1.595775
  H      5.291429    2.148416   -2.164778
  H      3.845755    1.128449   -2.198175
  H      0.978391   -1.449567   -1.599598
  H     -0.328016   -0.496813   -2.398606
  H     -1.963548    2.697826    2.000628
  H     -3.403448    1.639721    1.923411
  H     -0.546886    0.662537    2.413277
  H     -1.772474    0.876382    3.675769
  H     -2.006413   -0.340155    2.409884
  H     -4.473869   -1.232213   -1.482927
  H     -3.852486   -2.314745   -0.210180
  H     -6.346551   -2.262251   -0.183136
  H     -5.694198   -1.567849    1.309655
  H     -6.314924   -0.506461    0.038204

 Total Charge           Charge          ....    0
 Multiplicity           Mult            ....    1
 Number of Electrons    NEL             ....  202
 Basis Dimension        Dim             ....  334

ORBITAL ENERGIES
----------------

  NO   OCC          E(Eh)            E(eV)
   0   2.0000     -88.041394     -2395.7281
   1   2.0000     -88.038649     -2395.6534
   2   2.0000     -87.990515     -2394.3436
   3   2.0000     -87.982522     -2394.1262
   4   2.0000     -76.427777     -2079.7055
   5   2.0000     -76.426133     -2079.6608
   6   2.0000     -18.799980      -511.5735
   7   2.0000     -18.794976      -511.4373
   8   2.0000     -18.792473      -511.3692
   9   2.0000     -18.790792      -511.3234
  10   2.0000      -9.956896      -270.9409
  11   2.0000      -9.956587      -270.9325
  12   2.0000      -9.955907      -270.9140
  13   2.0000      -9.952764      -270.8285
  14   2.0000      -9.948765      -270.7197
  15   2.0000      -9.892288      -269.1829
  16   2.0000      -9.885885      -269.0086
  17   2.0000      -9.883621      -268.9470
  18   2.0000      -9.881543      -268.8905
  19   2.0000      -7.686600      -209.1630
  20   2.0000      -7.683630      -209.0822
  21   2.0000      -7.635417      -207.7703
  22   2.0000      -7.627833      -207.5639
  23   2.0000      -6.425620      -174.8500
  24   2.0000      -6.423595      -174.7949
  25   2.0000      -5.714395      -155.4966
  26   2.0000      -5.711336      -155.4134
  27   2.0000      -5.711321      -155.4130
  28   2.0000      -5.708275      -155.3301
  29   2.0000      -5.703393      -155.1972
  30   2.0000      -5.700691      -155.1237
  31   2.0000      -5.664136      -154.1290
  32   2.0000      -5.656791      -153.9291
  33   2.0000      -5.656199      -153.9130
  34   2.0000      -5.655626      -153.8974
  35   2.0000      -5.648536      -153.7045
  36   2.0000      -5.647822      -153.6850
  37   2.0000      -4.648176      -126.4833
  38   2.0000      -4.647264      -126.4585
  39   2.0000      -4.646752      -126.4446
  40   2.0000      -4.646151      -126.4282
  41   2.0000      -4.645145      -126.4008
  42   2.0000      -4.643713      -126.3618
  43   2.0000      -0.991221       -26.9725
  44   2.0000      -0.988743       -26.9051
  45   2.0000      -0.947119       -25.7724
  46   2.0000      -0.946697       -25.7609
  47   2.0000      -0.763459       -20.7748
  48   2.0000      -0.723001       -19.6738
  49   2.0000      -0.711024       -19.3479
  50   2.0000      -0.695163       -18.9163
  51   2.0000      -0.686736       -18.6870
  52   2.0000      -0.675859       -18.3911
  53   2.0000      -0.650114       -17.6905
  54   2.0000      -0.635898       -17.3037
  55   2.0000      -0.599485       -16.3128
  56   2.0000      -0.592100       -16.1119
  57   2.0000      -0.575926       -15.6717
  58   2.0000      -0.574925       -15.6445
  59   2.0000      -0.557109       -15.1597
  60   2.0000      -0.508419       -13.8348
  61   2.0000      -0.502123       -13.6635
  62   2.0000      -0.475911       -12.9502
  63   2.0000      -0.470978       -12.8160
  64   2.0000      -0.461137       -12.5482
  65   2.0000      -0.447313       -12.1720
  66   2.0000      -0.442273       -12.0349
  67   2.0000      -0.439295       -11.9538
  68   2.0000      -0.430710       -11.7202
  69   2.0000      -0.418344       -11.3837
  70   2.0000      -0.408223       -11.1083
  71   2.0000      -0.401126       -10.9152
  72   2.0000      -0.396584       -10.7916
  73   2.0000      -0.381953       -10.3935
  74   2.0000      -0.378423       -10.2974
  75   2.0000      -0.373048       -10.1512
  76   2.0000      -0.370145       -10.0722
  77   2.0000      -0.358934        -9.7671
  78   2.0000      -0.356205        -9.6928
  79   2.0000      -0.352485        -9.5916
  80   2.0000      -0.349600        -9.5131
  81   2.0000      -0.346035        -9.4161
  82   2.0000      -0.343082        -9.3357
  83   2.0000      -0.340185        -9.2569
  84   2.0000      -0.334660        -9.1066
  85   2.0000      -0.323234        -8.7956
  86   2.0000      -0.308504        -8.3948
  87   2.0000      -0.305472        -8.3123
  88   2.0000      -0.297928        -8.1070
  89   2.0000      -0.294817        -8.0224
  90   2.0000      -0.288387        -7.8474
  91   2.0000      -0.280560        -7.6344
  92   2.0000      -0.273976        -7.4553
  93   2.0000      -0.265272        -7.2184
  94   2.0000      -0.255990        -6.9659
  95   2.0000      -0.233429        -6.3519
  96   2.0000      -0.219395        -5.9700
  97   2.0000      -0.212441        -5.7808
  98   2.0000      -0.203183        -5.5289
  99   2.0000      -0.202469        -5.5095
 100   2.0000      -0.195262        -5.3133
 101   0.0000      -0.045179        -1.2294
 102   0.0000      -0.025257        -0.6873
 103   0.0000      -0.003750        -0.1020
 104   0.0000       0.000547         0.0149
 105   0.0000       0.014438         0.3929

MULLIKEN ATOMIC CHARGES
-----------------------
   0 C :   -0.296824
   1 C :   -0.001113
   2 O :   -0.362627
   3 P :    0.606053
   4 S :   -0.338460
   5 O :   -0.371940
   6 C :   -0.006227
   7 C :   -0.316984
   8 S :   -0.051352
   9 C :   -0.384780
  10 S :   -0.098870
  11 P :    0.614391
  12 S :   -0.318327
  13 O :   -0.354521
  14 C :    0.017143
  15 C :   -0.368790
  16 O :   -0.390766
  17 C :   -0.010130
  18 C :   -0.281713
  19 H :    0.106339
  20 H :    0.123048
  21 H :    0.124899
  22 H :    0.106810
  23 H :    0.106531
  24 H :    0.105477
  25 H :    0.112018
  26 H :    0.120222
  27 H :    0.113919
  28 H :    0.128360
  29 H :    0.190075
  30 H :    0.199338
  31 H :    0.110542
  32 H :    0.108106
  33 H :    0.162823
  34 H :    0.109227
  35 H :    0.122459
  36 H :    0.109302
  37 H :    0.105333
  38 H :    0.114816
  39 H :    0.114092
  40 H :    0.122101
Sum of atomic charges:    0.0000000

LOEWDIN ATOMIC CHARGES
----------------------
   0 C :   -0.363020
   1 C :   -0.112226
   2 O :   -0.240025
   3 P :    0.573945
   4 S :   -0.323792
   5 O :   -0.245496
   6 C :   -0.120219
   7 C :   -0.368944
   8 S :    0.104705
   9 C :   -0.491793
  10 S :    0.070594
  11 P :    0.570827
  12 S :   -0.312160
  13 O :   -0.232917
  14 C :   -0.103755
  15 C :   -0.378139
  16 O :   -0.250313
  17 C :   -0.119375
  18 C :   -0.350451
  19 H :    0.127994
  20 H :    0.124324
  21 H :    0.124465
  22 H :    0.110862
  23 H :    0.117220
  24 H :    0.118757
  25 H :    0.110184
  26 H :    0.125810
  27 H :    0.131639
  28 H :    0.122067
  29 H :    0.126935
  30 H :    0.128621
  31 H :    0.123541
  32 H :    0.113779
  33 H :    0.132302
  34 H :    0.129163
  35 H :    0.116018
  36 H :    0.111259
  37 H :    0.110043
  38 H :    0.132497
  39 H :    0.125444
  40 H :    0.129629

  Mayer bond orders larger than 0.100000
B(  0-C ,  1-C ) :   1.1746 B(  0-C , 19-H ) :   0.9388 B(  0-C , 20-H ) :   0.9432
B(  0-C , 21-H ) :   0.9340 B(  1-C ,  2-O ) :   0.8748 B(  1-C , 22-H ) :   0.9149
B(  1-C , 23-H ) :   0.9326 B(  2-O ,  3-P ) :   1.1254 B(  3-P ,  4-S ) :   1.5785
B(  3-P ,  5-O ) :   1.1152 B(  3-P ,  8-S ) :   0.9748 B(  4-S ,  8-S ) :   0.1098
B(  5-O ,  6-C ) :   0.9076 B(  6-C ,  7-C ) :   1.1646 B(  6-C , 24-H ) :   0.9334
B(  6-C , 25-H ) :   0.9149 B(  7-C , 26-H ) :   0.9451 B(  7-C , 27-H ) :   0.9380
B(  7-C , 28-H ) :   0.9349 B(  8-S ,  9-C ) :   1.0031 B(  9-C , 10-S ) :   1.0108
B(  9-C , 29-H ) :   0.8671 B(  9-C , 30-H ) :   0.8656 B( 10-S , 11-P ) :   0.9421
B( 10-S , 12-S ) :   0.1135 B( 11-P , 12-S ) :   1.6441 B( 11-P , 13-O ) :   1.1468
B( 11-P , 16-O ) :   1.0742 B( 13-O , 14-C ) :   0.8973 B( 14-C , 15-C ) :   1.1694
B( 14-C , 31-H ) :   0.9335 B( 14-C , 32-H ) :   0.9294 B( 15-C , 33-H ) :   0.9172
B( 15-C , 34-H ) :   0.9339 B( 15-C , 35-H ) :   0.9366 B( 16-O , 17-C ) :   0.8983
B( 17-C , 18-C ) :   1.1603 B( 17-C , 36-H ) :   0.9092 B( 17-C , 37-H ) :   0.9288
B( 18-C , 38-H ) :   0.9415 B( 18-C , 39-H ) :   0.9513 B( 18-C , 40-H ) :   0.9506

Dispersion correction           -0.064829857
FINAL SINGLE POINT ENERGY     -2929.521625280651

DIPOLE MOMENT
-------------

Method             : SCF
Type of density    : Electron Density
Multiplicity       :   1
Irrep              :   0
Energy             : -2929.6420171719428254 Eh
Relativity type    :
Basis              : AO
                                X                 Y                 Z
Electronic contribution:      3.441950123       3.786985294     -14.355834138
Nuclear contribution   :     -3.618304862      -3.873852596      15.982963730
                        -----------------------------------------
Total Dipole Moment    :     -0.176354739      -0.086867302       1.627129592
                        -----------------------------------------
Magnitude (a.u.)       :      1.638962364
Magnitude (Debye)      :      4.165911260

Rotational constants in cm-1:             0.013277             0.004688             0.004265
Rotational constants in MHz :           398.025231           140.556397           127.857748

                             ****ORCA TERMINATED NORMALLY****
TOTAL RUN TIME: 0 days 0 hours 0 minutes 21 seconds 125 msec
