                         Program Version 6.0.0  -   RELEASE  -
|  1> ! pbe def2-sv(p) def2/J RI DEFGRID1 loosescf d4 GCP(DFT/SV(P)) printgap
|  2> %output
|  3>     printlevel normal
|  4> end
|  5> * xyz 0 1
|  6> C 4.6088365379 -1.2124605233 -1.4669868031
|  7> C 4.3364352097 -1.3300890642 0.0184720726
|  8> O 3.5691774342 -0.2310976557 0.5416805881
|  9> P 2.174267121 0.2923705745 -0.0179219303
| 10> S 2.2230962785 1.3497978238 -1.6743422422
| 11> O 1.6509696156 1.0549436347 1.271654015
| 12> C 1.8192358838 2.4717624061 1.4460043496
| 13> C 3.2732901382 2.834486623 1.657653857
| 14> S 0.9990187546 -1.4540302676 -0.0174449081
| 15> C -0.0580327091 -1.1612507077 -1.4838728975
| 16> S -1.7939034698 -1.519879616 -1.1686877971
| 17> P -2.3525544617 0.2259886216 -0.078604163
| 18> S -1.1299746488 1.7496840868 -0.2443321916
| 19> O -2.6479833956 -0.2095457336 1.4242222689
| 20> C -1.6315649036 -0.5173763881 2.392523623
| 21> C -1.473414714 -2.0184000283 2.544298401
| 22> O -3.7879828739 0.5911023454 -0.5958652902
| 23> C -4.8247522588 -0.3403805228 -0.999539248
| 24> C -5.1155438189 -1.3904685153 0.0494884286
| 25> H 5.0849242718 -0.2611990179 -1.692621124
| 26> H 5.2594385413 -2.0233129406 -1.7784246377
| 27> H 3.6769691563 -1.2679482559 -2.0279240189
| 28> H 5.2616530661 -1.2915091137 0.5963696318
| 29> H 3.7992187598 -2.2563059163 0.2417921758
| 30> H 1.4065693467 2.9815641827 0.5683101682
| 31> H 1.2057402924 2.7057717376 2.3171843471
| 32> H 3.8442892627 2.5887635071 0.76268318
| 33> H 3.355696339 3.8994541953 1.8502391862
| 34> H 3.6792162991 2.2769651015 2.4975495847
| 35> H 0.2481194144 -1.8486815305 -2.2682566539
| 36> H 0.0652534984 -0.1204321499 -1.7952058229
| 37> H -0.6898146832 -0.0400401666 2.0992224424
| 38> H -1.9835898816 -0.062399095 3.3205868699
| 39> H -1.1117564703 -2.4647271252 1.6207552482
| 40> H -0.754323057 -2.21959055 3.3316548159
| 41> H -2.4282535996 -2.4654480512 2.8051551343
| 42> H -5.683816651 0.3098928776 -1.1713953814
| 43> H -4.5142034548 -0.8030337484 -1.9394484851
| 44> H -4.2563054819 -2.0471146501 0.1712865439
| 45> H -5.3410003744 -0.9186557264 1.0022839629
| 46> H -5.9678780762 -1.9819293742 -0.2705303983
| 47> *
| 48>
| 49>                          ****END OF INPUT****

CARTESIAN COORDINATES (ANGSTROEM)
---------------------------------
  C      4.608837   -1.212461   -1.466987
  C      4.336435   -1.330089    0.018472
  O      3.569177   -0.231098    0.541681
  P      2.174267    0.292371   -0.017922
  S      2.223096    1.349798   -1.674342
  O      1.650970    1.054944    1.271654
  C      1.819236    2.471762    1.446004
  C      3.273290    2.834487    1.657654
  S      0.999019   -1.454030   -0.017445
  C     -0.058033   -1.161251   -1.483873
  S     -1.793903   -1.519880   -1.168688
  P     -2.352554    0.225989   -0.078604
  S     -1.129975    1.749684   -0.244332
  O     -2.647983   -0.209546    1.424222
  C     -1.631565   -0.517376    2.392524
  C     -1.473415   -2.018400    2.544298
  O     -3.787983    0.591102   -0.595865
  C     -4.824752   -0.340381   -0.999539
  C     -5.115544   -1.390469    0.049488
  H      5.084924   -0.261199   -1.692621
  H      5.259439   -2.023313   -1.778425
  H      3.676969   -1.267948   -2.027924
  H      5.261653   -1.291509    0.596370
  H      3.799219   -2.256306    0.241792
  H      1.406569    2.981564    0.568310
  H      1.205740    2.705772    2.317184
  H      3.844289    2.588764    0.762683
  H      3.355696    3.899454    1.850239
  H      3.679216    2.276965    2.497550
  H      0.248119   -1.848682   -2.268257
  H      0.065253   -0.120432   -1.795206
  H     -0.689815   -0.040040    2.099222
  H     -1.983590   -0.062399    3.320587
  H     -1.111756   -2.464727    1.620755
  H     -0.754323   -2.219591    3.331655
  H     -2.428254   -2.465448    2.805155
  H     -5.683817    0.309893   -1.171395
  H     -4.514203   -0.803034   -1.939448
  H     -4.256305   -2.047115    0.171287
  H     -5.341000   -0.918656    1.002284
  H     -5.967878   -1.981929   -0.270530

 Total Charge           Charge          ....    0
 Multiplicity           Mult            ....    1
 Number of Electrons    NEL             ....  202
 Basis Dimension        Dim             ....  334

ORBITAL ENERGIES
----------------

  NO   OCC          E(Eh)            E(eV)
   0   2.0000     -88.048842     -2395.9308
   1   2.0000     -88.046130     -2395.8570
   2   2.0000     -87.983699     -2394.1582
   3   2.0000     -87.977823     -2393.9983
   4   2.0000     -76.425194     -2079.6353
   5   2.0000     -76.423753     -2079.5961
   6   2.0000     -18.792420      -511.3678
   7   2.0000     -18.789044      -511.2759
   8   2.0000     -18.785366      -511.1758
   9   2.0000     -18.782473      -511.0971
  10   2.0000      -9.960519      -271.0395
  11   2.0000      -9.957643      -270.9612
  12   2.0000      -9.955470      -270.9021
  13   2.0000      -9.945413      -270.6285
  14   2.0000      -9.941913      -270.5332
  15   2.0000      -9.891946      -269.1735
  16   2.0000      -9.882681      -268.9214
  17   2.0000      -9.879429      -268.8329
  18   2.0000      -9.876278      -268.7472
  19   2.0000      -7.693657      -209.3551
  20   2.0000      -7.690921      -209.2806
  21   2.0000      -7.628567      -207.5838
  22   2.0000      -7.622690      -207.4239
  23   2.0000      -6.422215      -174.7573
  24   2.0000      -6.421192      -174.7295
  25   2.0000      -5.721589      -155.6924
  26   2.0000      -5.718682      -155.6132
  27   2.0000      -5.717852      -155.5907
  28   2.0000      -5.715382      -155.5235
  29   2.0000      -5.710935      -155.4025
  30   2.0000      -5.708049      -155.3239
  31   2.0000      -5.657557      -153.9500
  32   2.0000      -5.651767      -153.7924
  33   2.0000      -5.649382      -153.7275
  34   2.0000      -5.648481      -153.7030
  35   2.0000      -5.643253      -153.5607
  36   2.0000      -5.642726      -153.5464
  37   2.0000      -4.644517      -126.3837
  38   2.0000      -4.644142      -126.3735
  39   2.0000      -4.643875      -126.3663
  40   2.0000      -4.643082      -126.3447
  41   2.0000      -4.642866      -126.3388
  42   2.0000      -4.641424      -126.2996
  43   2.0000      -0.985132       -26.8068
  44   2.0000      -0.982246       -26.7283
  45   2.0000      -0.942172       -25.6378
  46   2.0000      -0.939500       -25.5651
  47   2.0000      -0.764116       -20.7926
  48   2.0000      -0.720872       -19.6159
  49   2.0000      -0.710654       -19.3379
  50   2.0000      -0.689951       -18.7745
  51   2.0000      -0.684153       -18.6168
  52   2.0000      -0.674418       -18.3518
  53   2.0000      -0.649082       -17.6624
  54   2.0000      -0.634889       -17.2762
  55   2.0000      -0.598769       -16.2933
  56   2.0000      -0.592235       -16.1155
  57   2.0000      -0.574888       -15.6435
  58   2.0000      -0.568962       -15.4823
  59   2.0000      -0.561926       -15.2908
  60   2.0000      -0.497517       -13.5381
  61   2.0000      -0.489658       -13.3243
  62   2.0000      -0.475004       -12.9255
  63   2.0000      -0.464723       -12.6457
  64   2.0000      -0.455343       -12.3905
  65   2.0000      -0.451246       -12.2790
  66   2.0000      -0.439334       -11.9549
  67   2.0000      -0.432595       -11.7715
  68   2.0000      -0.430613       -11.7176
  69   2.0000      -0.415821       -11.3151
  70   2.0000      -0.407581       -11.0908
  71   2.0000      -0.400649       -10.9022
  72   2.0000      -0.399229       -10.8636
  73   2.0000      -0.387170       -10.5354
  74   2.0000      -0.382433       -10.4065
  75   2.0000      -0.370716       -10.0877
  76   2.0000      -0.364794        -9.9266
  77   2.0000      -0.356294        -9.6952
  78   2.0000      -0.355452        -9.6723
  79   2.0000      -0.346783        -9.4364
  80   2.0000      -0.345510        -9.4018
  81   2.0000      -0.342145        -9.3102
  82   2.0000      -0.339582        -9.2405
  83   2.0000      -0.335922        -9.1409
  84   2.0000      -0.332128        -9.0377
  85   2.0000      -0.315704        -8.5907
  86   2.0000      -0.310589        -8.4516
  87   2.0000      -0.294698        -8.0191
  88   2.0000      -0.291792        -7.9401
  89   2.0000      -0.288596        -7.8531
  90   2.0000      -0.281739        -7.6665
  91   2.0000      -0.276722        -7.5300
  92   2.0000      -0.269523        -7.3341
  93   2.0000      -0.258913        -7.0454
  94   2.0000      -0.258423        -7.0320
  95   2.0000      -0.236206        -6.4275
  96   2.0000      -0.222617        -6.0577
  97   2.0000      -0.210337        -5.7236
  98   2.0000      -0.200919        -5.4673
  99   2.0000      -0.193676        -5.2702
 100   2.0000      -0.184890        -5.0311
 101   0.0000      -0.045254        -1.2314
 102   0.0000      -0.035982        -0.9791
 103   0.0000      -0.013082        -0.3560
 104   0.0000       0.008108         0.2206
 105   0.0000       0.016069         0.4373

MULLIKEN ATOMIC CHARGES
-----------------------
   0 C :   -0.309167
   1 C :   -0.004537
   2 O :   -0.374798
   3 P :    0.623731
   4 S :   -0.313667
   5 O :   -0.356455
   6 C :   -0.008310
   7 C :   -0.297939
   8 S :   -0.121227
   9 C :   -0.328598
  10 S :   -0.138120
  11 P :    0.595878
  12 S :   -0.300084
  13 O :   -0.372472
  14 C :   -0.023994
  15 C :   -0.297546
  16 O :   -0.355998
  17 C :   -0.009038
  18 C :   -0.319656
  19 H :    0.125739
  20 H :    0.109381
  21 H :    0.120033
  22 H :    0.107141
  23 H :    0.108399
  24 H :    0.123477
  25 H :    0.102154
  26 H :    0.121721
  27 H :    0.109705
  28 H :    0.111369
  29 H :    0.181352
  30 H :    0.216469
  31 H :    0.126199
  32 H :    0.102701
  33 H :    0.124291
  34 H :    0.107056
  35 H :    0.109148
  36 H :    0.115510
  37 H :    0.116283
  38 H :    0.128990
  39 H :    0.128575
  40 H :    0.116305
Sum of atomic charges:    0.0000000

LOEWDIN ATOMIC CHARGES
----------------------
   0 C :   -0.369377
   1 C :   -0.115820
   2 O :   -0.245864
   3 P :    0.573943
   4 S :   -0.301480
   5 O :   -0.236312
   6 C :   -0.120304
   7 C :   -0.365068
   8 S :    0.081850
   9 C :   -0.475366
  10 S :    0.068834
  11 P :    0.561871
  12 S :   -0.291347
  13 O :   -0.244901
  14 C :   -0.121949
  15 C :   -0.363859
  16 O :   -0.232111
  17 C :   -0.112520
  18 C :   -0.368459
  19 H :    0.129386
  20 H :    0.128790
  21 H :    0.118926
  22 H :    0.120410
  23 H :    0.106943
  24 H :    0.109441
  25 H :    0.117532
  26 H :    0.121533
  27 H :    0.129480
  28 H :    0.124055
  29 H :    0.135640
  30 H :    0.127944
  31 H :    0.108430
  32 H :    0.117595
  33 H :    0.110962
  34 H :    0.129081
  35 H :    0.122013
  36 H :    0.125244
  37 H :    0.111878
  38 H :    0.118496
  39 H :    0.131604
  40 H :    0.132856

  Mayer bond orders larger than 0.100000
B(  0-C ,  1-C ) :   1.1635 B(  0-C , 19-H ) :   0.9435 B(  0-C , 20-H ) :   0.9350
B(  0-C , 21-H ) :   0.9350 B(  1-C ,  2-O ) :   0.9183 B(  1-C , 22-H ) :   0.9343
B(  1-C , 23-H ) :   0.9260 B(  2-O ,  3-P ) :   1.1002 B(  3-P ,  4-S ) :   1.6033
B(  3-P ,  5-O ) :   1.1262 B(  3-P ,  8-S ) :   0.9518 B(  4-S ,  8-S ) :   0.1147
B(  5-O ,  6-C ) :   0.9007 B(  6-C ,  7-C ) :   1.1616 B(  6-C , 24-H ) :   0.9127
B(  6-C , 25-H ) :   0.9345 B(  7-C , 26-H ) :   0.9346 B(  7-C , 27-H ) :   0.9396
B(  7-C , 28-H ) :   0.9456 B(  8-S ,  9-C ) :   0.9834 B(  9-C , 10-S ) :   1.0244
B(  9-C , 29-H ) :   0.9079 B(  9-C , 30-H ) :   0.8430 B( 10-S , 11-P ) :   0.9136
B( 10-S , 12-S ) :   0.1077 B( 11-P , 12-S ) :   1.6677 B( 11-P , 13-O ) :   1.0890
B( 11-P , 16-O ) :   1.1523 B( 13-O , 14-C ) :   0.9040 B( 14-C , 15-C ) :   1.1679
B( 14-C , 31-H ) :   0.8972 B( 14-C , 32-H ) :   0.9349 B( 15-C , 33-H ) :   0.9313
B( 15-C , 34-H ) :   0.9413 B( 15-C , 35-H ) :   0.9454 B( 16-O , 17-C ) :   0.9011
B( 17-C , 18-C ) :   1.1674 B( 17-C , 36-H ) :   0.9342 B( 17-C , 37-H ) :   0.9240
B( 18-C , 38-H ) :   0.9368 B( 18-C , 39-H ) :   0.9414 B( 18-C , 40-H ) :   0.9338

Dispersion correction           -0.067441256
FINAL SINGLE POINT ENERGY     -2929.515301615002

DIPOLE MOMENT
-------------

Method             : SCF
Type of density    : Electron Density
Multiplicity       :   1
Irrep              :   0
Energy             : -2929.6337135283615680 Eh
Relativity type    :
Basis              : AO
                                X                 Y                 Z
Electronic contribution:     -4.193488252       5.915707105      -9.173093697
Nuclear contribution   :      4.031840434      -7.306896306       9.823313796
                        -----------------------------------------
Total Dipole Moment    :     -0.161647817      -1.391189201       0.650220099
                        -----------------------------------------
Magnitude (a.u.)       :      1.544125509
Magnitude (Debye)      :      3.924855131

Rotational constants in cm-1:             0.013713             0.004947             0.004697
Rotational constants in MHz :           411.115065           148.299057           140.822428

                             ****ORCA TERMINATED NORMALLY****
TOTAL RUN TIME: 0 days 0 hours 0 minutes 21 seconds 363 msec
