                         Program Version 6.0.1  -  RELEASE   -
|  1> ! r2scan-3c def2/J RI DEFGRID2 scfconv6 printgap
|  2> %output
|  3>     printlevel normal
|  4> end
|  5> * xyz 0 1
|  6> C 4.7821829148 -3.7350182666 -1.3651140289
|  7> C 4.2640714742 -2.4934268318 -0.6659687894
|  8> O 3.2551851332 -1.8947948678 -1.5055442275
|  9> C 2.4055415731 -1.0561537404 -0.9606989696
| 10> O 2.4066590109 -0.7415065544 0.2126189281
| 11> C 1.4184259652 -0.5094630802 -1.9702918198
| 12> C 0.3112297679 0.241326261 -1.2432708341
| 13> H -0.3070843808 0.8041395043 -1.9505756829
| 14> C 0.9209716681 1.2409592128 -0.2731923479
| 15> O 1.8220324692 1.9802067797 -0.5998426656
| 16> O 0.3052030681 1.2587597982 0.8901234798
| 17> C 0.7907622251 2.1410256719 1.9206715511
| 18> C 1.6471121811 1.3632226854 2.9052558734
| 19> S -0.7821717283 -0.9388025756 -0.3839238591
| 20> P -2.2550200808 0.4317485683 0.2990721646
| 21> S -2.391209774 2.1313321249 -0.6641295728
| 22> O -3.582248486 -0.4651536465 0.2199896051
| 23> C -4.1420352262 -0.8525016273 -1.0395495932
| 24> O -2.1473528519 0.6043318581 1.8652640961
| 25> C -2.0449857698 -0.5246434805 2.7547380336
| 26> H 3.9765101053 -4.4492026582 -1.5060555499
| 27> H 5.190271821 -3.4700579237 -2.3356232618
| 28> H 5.5604643962 -4.1878172388 -0.7600313714
| 29> H 5.057457175 -1.7551776227 -0.5153756863
| 30> H 3.8140414055 -2.7246795456 0.304265224
| 31> H 1.0193648152 -1.3228802624 -2.5750030557
| 32> H 1.9577167201 0.1833741151 -2.6201326722
| 33> H 1.3612135684 2.940506526 1.4397297793
| 34> H -0.1068481805 2.5473688955 2.390643806
| 35> H 2.0538717289 2.0456762464 3.6437806236
| 36> H 1.0533580835 0.6021787319 3.4032504336
| 37> H 2.46230905 0.8765750015 2.3738043799
| 38> H -5.1201383579 -1.267206007 -0.8096229863
| 39> H -3.506376677 -1.6011149255 -1.5120156321
| 40> H -4.2404855791 0.0187055926 -1.6891463409
| 41> H -1.1442981532 -1.0945676244 2.5256100718
| 42> H -2.9240025251 -1.158545483 2.6558908304
| 43> H -1.9878474388 -0.0960290713 3.7519741089
| 44> *
| 45>
| 46>                          ****END OF INPUT****

CARTESIAN COORDINATES (ANGSTROEM)
---------------------------------
  C      4.782183   -3.735018   -1.365114
  C      4.264071   -2.493427   -0.665969
  O      3.255185   -1.894795   -1.505544
  C      2.405542   -1.056154   -0.960699
  O      2.406659   -0.741507    0.212619
  C      1.418426   -0.509463   -1.970292
  C      0.311230    0.241326   -1.243271
  H     -0.307084    0.804140   -1.950576
  C      0.920972    1.240959   -0.273192
  O      1.822032    1.980207   -0.599843
  O      0.305203    1.258760    0.890123
  C      0.790762    2.141026    1.920672
  C      1.647112    1.363223    2.905256
  S     -0.782172   -0.938803   -0.383924
  P     -2.255020    0.431749    0.299072
  S     -2.391210    2.131332   -0.664130
  O     -3.582248   -0.465154    0.219990
  C     -4.142035   -0.852502   -1.039550
  O     -2.147353    0.604332    1.865264
  C     -2.044986   -0.524643    2.754738
  H      3.976510   -4.449203   -1.506056
  H      5.190272   -3.470058   -2.335623
  H      5.560464   -4.187817   -0.760031
  H      5.057457   -1.755178   -0.515376
  H      3.814041   -2.724680    0.304265
  H      1.019365   -1.322880   -2.575003
  H      1.957717    0.183374   -2.620133
  H      1.361214    2.940507    1.439730
  H     -0.106848    2.547369    2.390644
  H      2.053872    2.045676    3.643781
  H      1.053358    0.602179    3.403250
  H      2.462309    0.876575    2.373804
  H     -5.120138   -1.267206   -0.809623
  H     -3.506377   -1.601115   -1.512016
  H     -4.240486    0.018706   -1.689146
  H     -1.144298   -1.094568    2.525610
  H     -2.924003   -1.158545    2.655891
  H     -1.987847   -0.096029    3.751974

 Total Charge           Charge          ....    0
 Multiplicity           Mult            ....    1
 Number of Electrons    NEL             ....  174
 Basis Dimension        Dim             ....  510

ORBITAL ENERGIES
----------------

  NO   OCC          E(Eh)            E(eV)
   0   2.0000     -88.571514     -2410.1534
   1   2.0000     -88.514104     -2408.5912
   2   2.0000     -76.911187     -2092.8598
   3   2.0000     -19.011874      -517.3394
   4   2.0000     -18.991849      -516.7945
   5   2.0000     -18.990837      -516.7669
   6   2.0000     -18.987722      -516.6822
   7   2.0000     -18.943733      -515.4852
   8   2.0000     -18.924045      -514.9495
   9   2.0000     -10.168281      -276.6930
  10   2.0000     -10.154907      -276.3291
  11   2.0000     -10.102253      -274.8963
  12   2.0000     -10.096380      -274.7365
  13   2.0000     -10.091889      -274.6143
  14   2.0000     -10.089067      -274.5375
  15   2.0000     -10.081726      -274.3377
  16   2.0000     -10.066738      -273.9299
  17   2.0000     -10.039865      -273.1986
  18   2.0000     -10.020259      -272.6651
  19   2.0000      -7.865877      -214.0414
  20   2.0000      -7.808809      -212.4885
  21   2.0000      -6.589310      -179.3043
  22   2.0000      -5.812677      -158.1710
  23   2.0000      -5.809821      -158.0933
  24   2.0000      -5.802976      -157.9070
  25   2.0000      -5.756694      -156.6476
  26   2.0000      -5.749062      -156.4399
  27   2.0000      -5.748616      -156.4278
  28   2.0000      -4.735030      -128.8467
  29   2.0000      -4.734395      -128.8295
  30   2.0000      -4.732775      -128.7854
  31   2.0000      -1.089458       -29.6457
  32   2.0000      -1.070193       -29.1214
  33   2.0000      -1.048094       -28.5201
  34   2.0000      -1.005890       -27.3716
  35   2.0000      -0.992935       -27.0191
  36   2.0000      -0.974992       -26.5309
  37   2.0000      -0.809842       -22.0369
  38   2.0000      -0.763690       -20.7811
  39   2.0000      -0.735556       -20.0155
  40   2.0000      -0.732903       -19.9433
  41   2.0000      -0.698829       -19.0161
  42   2.0000      -0.673918       -18.3382
  43   2.0000      -0.656356       -17.8604
  44   2.0000      -0.644997       -17.5512
  45   2.0000      -0.627618       -17.0784
  46   2.0000      -0.592782       -16.1304
  47   2.0000      -0.546164       -14.8619
  48   2.0000      -0.538341       -14.6490
  49   2.0000      -0.519137       -14.1264
  50   2.0000      -0.502311       -13.6686
  51   2.0000      -0.491926       -13.3860
  52   2.0000      -0.486143       -13.2286
  53   2.0000      -0.472827       -12.8663
  54   2.0000      -0.454224       -12.3601
  55   2.0000      -0.452979       -12.3262
  56   2.0000      -0.446464       -12.1489
  57   2.0000      -0.440291       -11.9809
  58   2.0000      -0.435048       -11.8382
  59   2.0000      -0.429137       -11.6774
  60   2.0000      -0.424030       -11.5384
  61   2.0000      -0.416770       -11.3409
  62   2.0000      -0.407577       -11.0907
  63   2.0000      -0.396730       -10.7956
  64   2.0000      -0.389597       -10.6015
  65   2.0000      -0.384170       -10.4538
  66   2.0000      -0.378806       -10.3078
  67   2.0000      -0.370151       -10.0723
  68   2.0000      -0.359751        -9.7893
  69   2.0000      -0.354954        -9.6588
  70   2.0000      -0.346486        -9.4284
  71   2.0000      -0.338109        -9.2004
  72   2.0000      -0.333798        -9.0831
  73   2.0000      -0.333158        -9.0657
  74   2.0000      -0.325343        -8.8530
  75   2.0000      -0.317791        -8.6475
  76   2.0000      -0.312976        -8.5165
  77   2.0000      -0.300923        -8.1885
  78   2.0000      -0.286404        -7.7934
  79   2.0000      -0.284376        -7.7383
  80   2.0000      -0.274356        -7.4656
  81   2.0000      -0.265590        -7.2271
  82   2.0000      -0.255110        -6.9419
  83   2.0000      -0.249238        -6.7821
  84   2.0000      -0.221422        -6.0252
  85   2.0000      -0.213221        -5.8020
  86   2.0000      -0.209655        -5.7050
  87   0.0000      -0.041253        -1.1225
  88   0.0000      -0.024107        -0.6560
  89   0.0000      -0.008883        -0.2417
  90   0.0000       0.008091         0.2202
  91   0.0000       0.019199         0.5224

MULLIKEN ATOMIC CHARGES
-----------------------
   0 C :   -0.440379
   1 C :   -0.152741
   2 O :   -0.144574
   3 C :    0.381175
   4 O :   -0.389384
   5 C :   -0.464963
   6 C :    0.036912
   7 H :    0.247717
   8 C :    0.227391
   9 O :   -0.386427
  10 O :   -0.100996
  11 C :   -0.162190
  12 C :   -0.467700
  13 S :   -0.229558
  14 P :    0.782366
  15 S :   -0.445688
  16 O :   -0.355845
  17 C :   -0.296946
  18 O :   -0.309076
  19 C :   -0.304623
  20 H :    0.153296
  21 H :    0.154689
  22 H :    0.150073
  23 H :    0.153442
  24 H :    0.170130
  25 H :    0.189811
  26 H :    0.201365
  27 H :    0.180042
  28 H :    0.165745
  29 H :    0.146731
  30 H :    0.142827
  31 H :    0.181461
  32 H :    0.150811
  33 H :    0.157056
  34 H :    0.174951
  35 H :    0.177874
  36 H :    0.168035
  37 H :    0.157190
Sum of atomic charges:   -0.0000000

LOEWDIN ATOMIC CHARGES
----------------------
   0 C :   -0.384348
   1 C :    0.037400
   2 O :   -0.575278
   3 C :    0.367549
   4 O :   -0.429515
   5 C :   -0.207443
   6 C :   -0.197042
   7 H :    0.208392
   8 C :    0.352758
   9 O :   -0.421901
  10 O :   -0.625127
  11 C :    0.036336
  12 C :   -0.385427
  13 S :    0.207243
  14 P :    0.399162
  15 S :   -0.086402
  16 O :   -0.687758
  17 C :   -0.062160
  18 O :   -0.647577
  19 C :   -0.054987
  20 H :    0.159671
  21 H :    0.160666
  22 H :    0.160904
  23 H :    0.178389
  24 H :    0.186856
  25 H :    0.189860
  26 H :    0.205643
  27 H :    0.195703
  28 H :    0.184184
  29 H :    0.156801
  30 H :    0.153898
  31 H :    0.172646
  32 H :    0.176395
  33 H :    0.168197
  34 H :    0.176525
  35 H :    0.175428
  36 H :    0.174308
  37 H :    0.180051

  Mayer bond orders larger than 0.100000
B(  0-C ,  1-C ) :   0.9497 B(  0-C , 20-H ) :   0.9741 B(  0-C , 21-H ) :   0.9685
B(  0-C , 22-H ) :   0.9675 B(  1-C ,  2-O ) :   0.7704 B(  1-C , 23-H ) :   0.9432
B(  1-C , 24-H ) :   0.9609 B(  2-O ,  3-C ) :   1.1724 B(  3-C ,  4-O ) :   1.7739
B(  3-C ,  5-C ) :   0.9749 B(  4-O ,  8-C ) :   0.1295 B(  5-C ,  6-C ) :   0.9096
B(  5-C ,  9-O ) :   0.1164 B(  5-C , 25-H ) :   0.9749 B(  5-C , 26-H ) :   0.9164
B(  6-C ,  7-H ) :   0.9179 B(  6-C ,  8-C ) :   0.8188 B(  6-C , 13-S ) :   0.8656
B(  8-C ,  9-O ) :   1.8956 B(  8-C , 10-O ) :   1.1473 B( 10-O , 11-C ) :   0.7528
B( 11-C , 12-C ) :   0.9206 B( 11-C , 27-H ) :   0.9629 B( 11-C , 28-H ) :   0.9595
B( 12-C , 29-H ) :   0.9724 B( 12-C , 30-H ) :   0.9750 B( 12-C , 31-H ) :   0.9685
B( 13-S , 14-P ) :   0.9858 B( 14-P , 15-S ) :   1.8073 B( 14-P , 16-O ) :   1.0282
B( 14-P , 18-O ) :   1.1569 B( 16-O , 17-C ) :   0.8327 B( 17-C , 32-H ) :   0.9678
B( 17-C , 33-H ) :   0.9568 B( 17-C , 34-H ) :   0.9593 B( 18-O , 19-C ) :   0.7874
B( 19-C , 35-H ) :   0.9566 B( 19-C , 36-H ) :   0.9604 B( 19-C , 37-H ) :   0.9648

Dispersion correction           -0.017533451
FINAL SINGLE POINT ENERGY     -1981.453256635564

DIPOLE MOMENT
-------------

Method             : SCF
Type of density    : Electron Density
Multiplicity       :   1
Irrep              :   0
Energy             : -1981.4733348396553083 Eh
Relativity type    :
Basis              : AO
                                X                 Y                 Z
Electronic contribution:    -14.926125228      10.605721973      -5.299175926
Nuclear contribution   :     15.430657676     -12.707562592       5.610229654
                        -----------------------------------------
Total Dipole Moment    :      0.504532448      -2.101840619       0.311053728
                        -----------------------------------------
Magnitude (a.u.)       :      2.183813499
Magnitude (Debye)      :      5.550812785

Rotational constants in cm-1:             0.015034             0.006175             0.005558
Rotational constants in MHz :           450.719966           185.129773           166.623199

                             ****ORCA TERMINATED NORMALLY****
TOTAL RUN TIME: 0 days 0 hours 1 minutes 24 seconds 916 msec
