                         Program Version 6.0.1  -  RELEASE   -
|  1> ! r2scan-3c def2/J RI DEFGRID2 scfconv6 printgap
|  2> %output
|  3>     printlevel normal
|  4> end
|  5> %cpcm
|  6>     smd true
|  7>     smdsolvent "water"
|  8> end
|  9> * xyz 0 1
| 10> C 4.7821829148 -3.7350182666 -1.3651140289
| 11> C 4.2640714742 -2.4934268318 -0.6659687894
| 12> O 3.2551851332 -1.8947948678 -1.5055442275
| 13> C 2.4055415731 -1.0561537404 -0.9606989696
| 14> O 2.4066590109 -0.7415065544 0.2126189281
| 15> C 1.4184259652 -0.5094630802 -1.9702918198
| 16> C 0.3112297679 0.241326261 -1.2432708341
| 17> H -0.3070843808 0.8041395043 -1.9505756829
| 18> C 0.9209716681 1.2409592128 -0.2731923479
| 19> O 1.8220324692 1.9802067797 -0.5998426656
| 20> O 0.3052030681 1.2587597982 0.8901234798
| 21> C 0.7907622251 2.1410256719 1.9206715511
| 22> C 1.6471121811 1.3632226854 2.9052558734
| 23> S -0.7821717283 -0.9388025756 -0.3839238591
| 24> P -2.2550200808 0.4317485683 0.2990721646
| 25> S -2.391209774 2.1313321249 -0.6641295728
| 26> O -3.582248486 -0.4651536465 0.2199896051
| 27> C -4.1420352262 -0.8525016273 -1.0395495932
| 28> O -2.1473528519 0.6043318581 1.8652640961
| 29> C -2.0449857698 -0.5246434805 2.7547380336
| 30> H 3.9765101053 -4.4492026582 -1.5060555499
| 31> H 5.190271821 -3.4700579237 -2.3356232618
| 32> H 5.5604643962 -4.1878172388 -0.7600313714
| 33> H 5.057457175 -1.7551776227 -0.5153756863
| 34> H 3.8140414055 -2.7246795456 0.304265224
| 35> H 1.0193648152 -1.3228802624 -2.5750030557
| 36> H 1.9577167201 0.1833741151 -2.6201326722
| 37> H 1.3612135684 2.940506526 1.4397297793
| 38> H -0.1068481805 2.5473688955 2.390643806
| 39> H 2.0538717289 2.0456762464 3.6437806236
| 40> H 1.0533580835 0.6021787319 3.4032504336
| 41> H 2.46230905 0.8765750015 2.3738043799
| 42> H -5.1201383579 -1.267206007 -0.8096229863
| 43> H -3.506376677 -1.6011149255 -1.5120156321
| 44> H -4.2404855791 0.0187055926 -1.6891463409
| 45> H -1.1442981532 -1.0945676244 2.5256100718
| 46> H -2.9240025251 -1.158545483 2.6558908304
| 47> H -1.9878474388 -0.0960290713 3.7519741089
| 48> *
| 49>
| 50>                          ****END OF INPUT****

CARTESIAN COORDINATES (ANGSTROEM)
---------------------------------
  C      4.782183   -3.735018   -1.365114
  C      4.264071   -2.493427   -0.665969
  O      3.255185   -1.894795   -1.505544
  C      2.405542   -1.056154   -0.960699
  O      2.406659   -0.741507    0.212619
  C      1.418426   -0.509463   -1.970292
  C      0.311230    0.241326   -1.243271
  H     -0.307084    0.804140   -1.950576
  C      0.920972    1.240959   -0.273192
  O      1.822032    1.980207   -0.599843
  O      0.305203    1.258760    0.890123
  C      0.790762    2.141026    1.920672
  C      1.647112    1.363223    2.905256
  S     -0.782172   -0.938803   -0.383924
  P     -2.255020    0.431749    0.299072
  S     -2.391210    2.131332   -0.664130
  O     -3.582248   -0.465154    0.219990
  C     -4.142035   -0.852502   -1.039550
  O     -2.147353    0.604332    1.865264
  C     -2.044986   -0.524643    2.754738
  H      3.976510   -4.449203   -1.506056
  H      5.190272   -3.470058   -2.335623
  H      5.560464   -4.187817   -0.760031
  H      5.057457   -1.755178   -0.515376
  H      3.814041   -2.724680    0.304265
  H      1.019365   -1.322880   -2.575003
  H      1.957717    0.183374   -2.620133
  H      1.361214    2.940507    1.439730
  H     -0.106848    2.547369    2.390644
  H      2.053872    2.045676    3.643781
  H      1.053358    0.602179    3.403250
  H      2.462309    0.876575    2.373804
  H     -5.120138   -1.267206   -0.809623
  H     -3.506377   -1.601115   -1.512016
  H     -4.240486    0.018706   -1.689146
  H     -1.144298   -1.094568    2.525610
  H     -2.924003   -1.158545    2.655891
  H     -1.987847   -0.096029    3.751974

 Total Charge           Charge          ....    0
 Multiplicity           Mult            ....    1
 Number of Electrons    NEL             ....  174
 Basis Dimension        Dim             ....  510

ORBITAL ENERGIES
----------------

  NO   OCC          E(Eh)            E(eV)
   0   2.0000     -88.577657     -2410.3206
   1   2.0000     -88.528142     -2408.9732
   2   2.0000     -76.920176     -2093.1044
   3   2.0000     -19.010409      -517.2995
   4   2.0000     -19.005848      -517.1754
   5   2.0000     -18.996952      -516.9334
   6   2.0000     -18.992671      -516.8169
   7   2.0000     -18.952361      -515.7200
   8   2.0000     -18.947326      -515.5830
   9   2.0000     -10.173902      -276.8460
  10   2.0000     -10.172942      -276.8198
  11   2.0000     -10.095950      -274.7248
  12   2.0000     -10.087364      -274.4911
  13   2.0000     -10.085436      -274.4387
  14   2.0000     -10.084710      -274.4189
  15   2.0000     -10.080742      -274.3109
  16   2.0000     -10.061019      -273.7742
  17   2.0000     -10.019885      -272.6549
  18   2.0000     -10.019085      -272.6332
  19   2.0000      -7.871956      -214.2068
  20   2.0000      -7.823229      -212.8809
  21   2.0000      -6.598403      -179.5517
  22   2.0000      -5.818807      -158.3378
  23   2.0000      -5.815930      -158.2595
  24   2.0000      -5.808981      -158.0704
  25   2.0000      -5.770972      -157.0361
  26   2.0000      -5.763510      -156.8331
  27   2.0000      -5.763073      -156.8212
  28   2.0000      -4.744070      -129.0927
  29   2.0000      -4.743435      -129.0754
  30   2.0000      -4.742006      -129.0366
  31   2.0000      -1.091051       -29.6890
  32   2.0000      -1.085804       -29.5462
  33   2.0000      -1.053008       -28.6538
  34   2.0000      -1.009954       -27.4822
  35   2.0000      -1.000639       -27.2288
  36   2.0000      -0.995445       -27.0874
  37   2.0000      -0.813168       -22.1274
  38   2.0000      -0.755677       -20.5630
  39   2.0000      -0.737731       -20.0747
  40   2.0000      -0.733520       -19.9601
  41   2.0000      -0.696399       -18.9500
  42   2.0000      -0.669300       -18.2126
  43   2.0000      -0.659610       -17.9489
  44   2.0000      -0.650264       -17.6946
  45   2.0000      -0.623326       -16.9616
  46   2.0000      -0.590538       -16.0693
  47   2.0000      -0.539978       -14.6936
  48   2.0000      -0.538771       -14.6607
  49   2.0000      -0.525479       -14.2990
  50   2.0000      -0.506330       -13.7779
  51   2.0000      -0.491527       -13.3751
  52   2.0000      -0.487277       -13.2595
  53   2.0000      -0.470045       -12.7906
  54   2.0000      -0.464012       -12.6264
  55   2.0000      -0.460048       -12.5185
  56   2.0000      -0.448236       -12.1971
  57   2.0000      -0.443023       -12.0553
  58   2.0000      -0.438727       -11.9384
  59   2.0000      -0.429098       -11.6763
  60   2.0000      -0.425606       -11.5813
  61   2.0000      -0.410257       -11.1637
  62   2.0000      -0.407222       -11.0811
  63   2.0000      -0.399866       -10.8809
  64   2.0000      -0.391223       -10.6457
  65   2.0000      -0.378925       -10.3111
  66   2.0000      -0.371787       -10.1168
  67   2.0000      -0.364311        -9.9134
  68   2.0000      -0.357619        -9.7313
  69   2.0000      -0.352256        -9.5854
  70   2.0000      -0.350756        -9.5445
  71   2.0000      -0.342415        -9.3176
  72   2.0000      -0.335838        -9.1386
  73   2.0000      -0.330581        -8.9956
  74   2.0000      -0.319368        -8.6904
  75   2.0000      -0.318100        -8.6559
  76   2.0000      -0.315366        -8.5815
  77   2.0000      -0.306425        -8.3382
  78   2.0000      -0.287692        -7.8285
  79   2.0000      -0.286306        -7.7908
  80   2.0000      -0.281133        -7.6500
  81   2.0000      -0.277467        -7.5503
  82   2.0000      -0.269197        -7.3252
  83   2.0000      -0.260924        -7.1001
  84   2.0000      -0.236045        -6.4231
  85   2.0000      -0.227851        -6.2001
  86   2.0000      -0.223644        -6.0857
  87   0.0000      -0.048313        -1.3147
  88   0.0000      -0.027954        -0.7607
  89   0.0000      -0.025214        -0.6861
  90   0.0000       0.003794         0.1032
  91   0.0000       0.011498         0.3129

MULLIKEN ATOMIC CHARGES
-----------------------
   0 C :   -0.488214
   1 C :   -0.150337
   2 O :   -0.151620
   3 C :    0.416296
   4 O :   -0.456120
   5 C :   -0.500745
   6 C :    0.051477
   7 H :    0.272461
   8 C :    0.216311
   9 O :   -0.453784
  10 O :   -0.119215
  11 C :   -0.142409
  12 C :   -0.511036
  13 S :   -0.219826
  14 P :    0.801834
  15 S :   -0.505921
  16 O :   -0.383984
  17 C :   -0.305792
  18 O :   -0.347330
  19 C :   -0.302685
  20 H :    0.166577
  21 H :    0.165478
  22 H :    0.171081
  23 H :    0.176217
  24 H :    0.176912
  25 H :    0.226399
  26 H :    0.235542
  27 H :    0.181756
  28 H :    0.180717
  29 H :    0.173601
  30 H :    0.171992
  31 H :    0.171874
  32 H :    0.178929
  33 H :    0.174624
  34 H :    0.176492
  35 H :    0.182745
  36 H :    0.184699
  37 H :    0.185006
Sum of atomic charges:   -0.0000000

LOEWDIN ATOMIC CHARGES
----------------------
   0 C :   -0.387795
   1 C :    0.041568
   2 O :   -0.573595
   3 C :    0.374924
   4 O :   -0.475956
   5 C :   -0.198764
   6 C :   -0.192845
   7 H :    0.216860
   8 C :    0.352863
   9 O :   -0.474142
  10 O :   -0.631544
  11 C :    0.040346
  12 C :   -0.387553
  13 S :    0.220526
  14 P :    0.400996
  15 S :   -0.131530
  16 O :   -0.698005
  17 C :   -0.056613
  18 O :   -0.667503
  19 C :   -0.045098
  20 H :    0.162885
  21 H :    0.163286
  22 H :    0.169202
  23 H :    0.186242
  24 H :    0.189996
  25 H :    0.205302
  26 H :    0.215931
  27 H :    0.195942
  28 H :    0.191296
  29 H :    0.167901
  30 H :    0.162836
  31 H :    0.166683
  32 H :    0.188371
  33 H :    0.175834
  34 H :    0.177236
  35 H :    0.179827
  36 H :    0.181863
  37 H :    0.192226

  Mayer bond orders larger than 0.100000
B(  0-C ,  1-C ) :   0.9438 B(  0-C , 20-H ) :   0.9727 B(  0-C , 21-H ) :   0.9664
B(  0-C , 22-H ) :   0.9615 B(  1-C ,  2-O ) :   0.7596 B(  1-C , 23-H ) :   0.9348
B(  1-C , 24-H ) :   0.9556 B(  2-O ,  3-C ) :   1.1902 B(  3-C ,  4-O ) :   1.7212
B(  3-C ,  5-C ) :   0.9486 B(  4-O ,  8-C ) :   0.1308 B(  5-C ,  6-C ) :   0.8858
B(  5-C , 25-H ) :   0.9634 B(  5-C , 26-H ) :   0.9245 B(  6-C ,  7-H ) :   0.9055
B(  6-C ,  8-C ) :   0.8188 B(  6-C , 13-S ) :   0.8634 B(  8-C ,  9-O ) :   1.8352
B(  8-C , 10-O ) :   1.1568 B( 10-O , 11-C ) :   0.7420 B( 11-C , 12-C ) :   0.9077
B( 11-C , 27-H ) :   0.9565 B( 11-C , 28-H ) :   0.9505 B( 12-C , 29-H ) :   0.9641
B( 12-C , 30-H ) :   0.9709 B( 12-C , 31-H ) :   0.9705 B( 13-S , 14-P ) :   1.0032
B( 14-P , 15-S ) :   1.7772 B( 14-P , 16-O ) :   1.0357 B( 14-P , 18-O ) :   1.1616
B( 16-O , 17-C ) :   0.8247 B( 17-C , 32-H ) :   0.9575 B( 17-C , 33-H ) :   0.9500
B( 17-C , 34-H ) :   0.9556 B( 18-O , 19-C ) :   0.7811 B( 19-C , 35-H ) :   0.9486
B( 19-C , 36-H ) :   0.9518 B( 19-C , 37-H ) :   0.9538

Dispersion correction           -0.017533451
FINAL SINGLE POINT ENERGY     -1981.468656434197

DIPOLE MOMENT
-------------

Method             : SCF
Type of density    : Electron Density
Multiplicity       :   1
Irrep              :   0
Energy             : -1981.4887346382886335 Eh
Relativity type    :
Basis              : AO
                                X                 Y                 Z
Electronic contribution:    -14.971713520       9.768202545      -5.333287035
Nuclear contribution   :     15.430657676     -12.707562592       5.610229654
                        -----------------------------------------
Total Dipole Moment    :      0.458944156      -2.939360047       0.276942620
                        -----------------------------------------
Magnitude (a.u.)       :      2.987836079
Magnitude (Debye)      :      7.594475771

Rotational constants in cm-1:             0.015034             0.006175             0.005558
Rotational constants in MHz :           450.719966           185.129773           166.623199

                             ****ORCA TERMINATED NORMALLY****
TOTAL RUN TIME: 0 days 0 hours 1 minutes 51 seconds 367 msec
