                         Program Version 6.0.0  -   RELEASE  -
|  1> ! pbe def2-sv(p) def2/J RI DEFGRID1 loosescf d4 GCP(DFT/SV(P)) printgap
|  2> %output
|  3>     printlevel normal
|  4> end
|  5> * xyz 0 1
|  6> C 3.6610192739 -1.7401522283 -2.3577853172
|  7> C 4.0402922949 -0.3182397732 -1.9994993248
|  8> O 3.6009076197 0.0470023601 -0.6786033714
|  9> P 2.062301706 0.1509346256 -0.2908560454
| 10> S 0.9352408592 0.9588695642 -1.6660698034
| 11> O 2.0693035508 1.0100611569 1.028619921
| 12> C 2.8417497847 0.7089985036 2.2155801536
| 13> C 4.1797441596 1.418344366 2.1864576704
| 14> S 1.6313366471 -1.8354283032 0.3534307473
| 15> C -0.0465001821 -1.5928745733 0.9820024336
| 16> S -1.2932381024 -1.4451342123 -0.3399330142
| 17> P -2.2827099825 0.2963839071 0.3860614358
| 18> S -1.1948682176 1.5502560559 1.4236143137
| 19> O -3.4522534035 -0.2174112403 1.3088469107
| 20> C -4.4526849068 -1.1823469621 0.8917662719
| 21> C -4.2141997959 -2.5110678203 1.5813586828
| 22> O -3.1020733162 0.8036065312 -0.8742977503
| 23> C -2.5729530165 1.3494335599 -2.09560058
| 24> C -2.2320342448 2.8175359691 -1.9425610502
| 25> H 4.1198794272 -2.0053728409 -3.3047992394
| 26> H 3.9970446838 -2.4287136473 -1.5863945356
| 27> H 2.5792861532 -1.8228237534 -2.4558894299
| 28> H 3.605514634 0.3877416375 -2.7138066324
| 29> H 5.1223933091 -0.1865312013 -1.9587149679
| 30> H 2.2161395754 1.0683604333 3.0355918592
| 31> H 2.9718178871 -0.3745020688 2.2905023177
| 32> H 4.6932519757 1.2417993712 3.1264276133
| 33> H 4.7879142073 1.043478793 1.3676815462
| 34> H 4.0305688744 2.4865692051 2.0539496676
| 35> H -0.0875983283 -0.6820699434 1.5866745921
| 36> H -0.2687562782 -2.4765017179 1.5742432746
| 37> H -5.4044797932 -0.7425212026 1.1931786663
| 38> H -4.4233917874 -1.2846485722 -0.1947347417
| 39> H -5.0412089135 -3.1778198773 1.3589861302
| 40> H -3.2905737803 -2.9632507347 1.2289172457
| 41> H -4.1506913528 -2.3643658477 2.6559291837
| 42> H -1.6919089844 0.7797296663 -2.4017069484
| 43> H -3.3783736066 1.2018186014 -2.8175351942
| 44> H -3.0940369074 3.3701228689 -1.578262921
| 45> H -1.4111427576 2.9401460171 -1.2383134374
| 46> H -1.9229658568 3.2132426832 -2.9044025131
| 47> *
| 48>
| 49>                          ****END OF INPUT****

CARTESIAN COORDINATES (ANGSTROEM)
---------------------------------
  C      3.661019   -1.740152   -2.357785
  C      4.040292   -0.318240   -1.999499
  O      3.600908    0.047002   -0.678603
  P      2.062302    0.150935   -0.290856
  S      0.935241    0.958870   -1.666070
  O      2.069304    1.010061    1.028620
  C      2.841750    0.708999    2.215580
  C      4.179744    1.418344    2.186458
  S      1.631337   -1.835428    0.353431
  C     -0.046500   -1.592875    0.982002
  S     -1.293238   -1.445134   -0.339933
  P     -2.282710    0.296384    0.386061
  S     -1.194868    1.550256    1.423614
  O     -3.452253   -0.217411    1.308847
  C     -4.452685   -1.182347    0.891766
  C     -4.214200   -2.511068    1.581359
  O     -3.102073    0.803607   -0.874298
  C     -2.572953    1.349434   -2.095601
  C     -2.232034    2.817536   -1.942561
  H      4.119879   -2.005373   -3.304799
  H      3.997045   -2.428714   -1.586395
  H      2.579286   -1.822824   -2.455889
  H      3.605515    0.387742   -2.713807
  H      5.122393   -0.186531   -1.958715
  H      2.216140    1.068360    3.035592
  H      2.971818   -0.374502    2.290502
  H      4.693252    1.241799    3.126428
  H      4.787914    1.043479    1.367682
  H      4.030569    2.486569    2.053950
  H     -0.087598   -0.682070    1.586675
  H     -0.268756   -2.476502    1.574243
  H     -5.404480   -0.742521    1.193179
  H     -4.423392   -1.284649   -0.194735
  H     -5.041209   -3.177820    1.358986
  H     -3.290574   -2.963251    1.228917
  H     -4.150691   -2.364366    2.655929
  H     -1.691909    0.779730   -2.401707
  H     -3.378374    1.201819   -2.817535
  H     -3.094037    3.370123   -1.578263
  H     -1.411143    2.940146   -1.238313
  H     -1.922966    3.213243   -2.904403

 Total Charge           Charge          ....    0
 Multiplicity           Mult            ....    1
 Number of Electrons    NEL             ....  202
 Basis Dimension        Dim             ....  334

ORBITAL ENERGIES
----------------

  NO   OCC          E(Eh)            E(eV)
   0   2.0000     -88.044321     -2395.8078
   1   2.0000     -88.037367     -2395.6185
   2   2.0000     -87.980355     -2394.0672
   3   2.0000     -87.976725     -2393.9684
   4   2.0000     -76.424545     -2079.6176
   5   2.0000     -76.419704     -2079.4859
   6   2.0000     -18.793460      -511.3960
   7   2.0000     -18.789249      -511.2815
   8   2.0000     -18.788533      -511.2620
   9   2.0000     -18.781034      -511.0579
  10   2.0000      -9.954951      -270.8880
  11   2.0000      -9.953775      -270.8560
  12   2.0000      -9.952156      -270.8119
  13   2.0000      -9.951849      -270.8036
  14   2.0000      -9.946223      -270.6505
  15   2.0000      -9.885572      -269.0001
  16   2.0000      -9.884599      -268.9736
  17   2.0000      -9.883381      -268.9405
  18   2.0000      -9.870344      -268.5857
  19   2.0000      -7.689187      -209.2334
  20   2.0000      -7.682204      -209.0434
  21   2.0000      -7.625452      -207.4991
  22   2.0000      -7.621920      -207.4030
  23   2.0000      -6.421927      -174.7495
  24   2.0000      -6.417115      -174.6186
  25   2.0000      -5.716875      -155.5641
  26   2.0000      -5.713644      -155.4761
  27   2.0000      -5.710025      -155.3777
  28   2.0000      -5.706810      -155.2902
  29   2.0000      -5.706421      -155.2796
  30   2.0000      -5.699172      -155.0824
  31   2.0000      -5.654374      -153.8633
  32   2.0000      -5.651050      -153.7729
  33   2.0000      -5.645896      -153.6326
  34   2.0000      -5.645712      -153.6276
  35   2.0000      -5.642703      -153.5457
  36   2.0000      -5.641646      -153.5170
  37   2.0000      -4.644940      -126.3952
  38   2.0000      -4.643744      -126.3627
  39   2.0000      -4.641977      -126.3146
  40   2.0000      -4.639878      -126.2575
  41   2.0000      -4.638985      -126.2332
  42   2.0000      -4.637331      -126.1882
  43   2.0000      -0.986748       -26.8508
  44   2.0000      -0.982022       -26.7222
  45   2.0000      -0.944980       -25.7142
  46   2.0000      -0.937232       -25.5034
  47   2.0000      -0.759880       -20.6774
  48   2.0000      -0.718204       -19.5433
  49   2.0000      -0.709360       -19.3027
  50   2.0000      -0.690012       -18.7762
  51   2.0000      -0.683425       -18.5969
  52   2.0000      -0.673543       -18.3280
  53   2.0000      -0.648598       -17.6493
  54   2.0000      -0.632147       -17.2016
  55   2.0000      -0.593840       -16.1592
  56   2.0000      -0.581360       -15.8196
  57   2.0000      -0.574474       -15.6322
  58   2.0000      -0.570463       -15.5231
  59   2.0000      -0.560251       -15.2452
  60   2.0000      -0.501752       -13.6534
  61   2.0000      -0.497369       -13.5341
  62   2.0000      -0.474366       -12.9082
  63   2.0000      -0.470828       -12.8119
  64   2.0000      -0.450422       -12.2566
  65   2.0000      -0.445239       -12.1156
  66   2.0000      -0.440033       -11.9739
  67   2.0000      -0.433821       -11.8049
  68   2.0000      -0.428179       -11.6513
  69   2.0000      -0.420201       -11.4343
  70   2.0000      -0.409900       -11.1539
  71   2.0000      -0.395364       -10.7584
  72   2.0000      -0.390174       -10.6172
  73   2.0000      -0.381274       -10.3750
  74   2.0000      -0.379661       -10.3311
  75   2.0000      -0.366150        -9.9634
  76   2.0000      -0.357890        -9.7387
  77   2.0000      -0.355392        -9.6707
  78   2.0000      -0.352433        -9.5902
  79   2.0000      -0.350833        -9.5467
  80   2.0000      -0.346386        -9.4256
  81   2.0000      -0.345146        -9.3919
  82   2.0000      -0.339844        -9.2476
  83   2.0000      -0.334275        -9.0961
  84   2.0000      -0.324763        -8.8373
  85   2.0000      -0.316023        -8.5994
  86   2.0000      -0.309788        -8.4298
  87   2.0000      -0.294508        -8.0140
  88   2.0000      -0.291411        -7.9297
  89   2.0000      -0.290507        -7.9051
  90   2.0000      -0.285462        -7.7678
  91   2.0000      -0.270089        -7.3495
  92   2.0000      -0.268345        -7.3020
  93   2.0000      -0.261255        -7.1091
  94   2.0000      -0.257128        -6.9968
  95   2.0000      -0.241807        -6.5799
  96   2.0000      -0.221428        -6.0254
  97   2.0000      -0.202578        -5.5124
  98   2.0000      -0.196267        -5.3407
  99   2.0000      -0.188583        -5.1316
 100   2.0000      -0.183137        -4.9834
 101   0.0000      -0.037652        -1.0246
 102   0.0000      -0.028686        -0.7806
 103   0.0000      -0.013310        -0.3622
 104   0.0000       0.003212         0.0874
 105   0.0000       0.025764         0.7011

MULLIKEN ATOMIC CHARGES
-----------------------
   0 C :   -0.327356
   1 C :    0.000830
   2 O :   -0.381612
   3 P :    0.615111
   4 S :   -0.312419
   5 O :   -0.344880
   6 C :   -0.016346
   7 C :   -0.289860
   8 S :   -0.108317
   9 C :   -0.348108
  10 S :   -0.102239
  11 P :    0.602226
  12 S :   -0.293538
  13 O :   -0.359028
  14 C :   -0.006041
  15 C :   -0.289872
  16 O :   -0.379594
  17 C :   -0.017933
  18 C :   -0.305722
  19 H :    0.115664
  20 H :    0.119059
  21 H :    0.133318
  22 H :    0.113728
  23 H :    0.104563
  24 H :    0.113422
  25 H :    0.098760
  26 H :    0.108229
  27 H :    0.121246
  28 H :    0.122029
  29 H :    0.191567
  30 H :    0.180470
  31 H :    0.109675
  32 H :    0.101428
  33 H :    0.107575
  34 H :    0.115379
  35 H :    0.118134
  36 H :    0.128791
  37 H :    0.098947
  38 H :    0.110833
  39 H :    0.145950
  40 H :    0.105931
Sum of atomic charges:   -0.0000000

LOEWDIN ATOMIC CHARGES
----------------------
   0 C :   -0.373508
   1 C :   -0.117988
   2 O :   -0.247488
   3 P :    0.572737
   4 S :   -0.301760
   5 O :   -0.224813
   6 C :   -0.116775
   7 C :   -0.359905
   8 S :    0.076428
   9 C :   -0.483057
  10 S :    0.062399
  11 P :    0.564975
  12 S :   -0.292115
  13 O :   -0.242713
  14 C :   -0.113597
  15 C :   -0.360850
  16 O :   -0.240622
  17 C :   -0.116102
  18 C :   -0.365421
  19 H :    0.132629
  20 H :    0.123038
  21 H :    0.123429
  22 H :    0.113089
  23 H :    0.118237
  24 H :    0.122124
  25 H :    0.101299
  26 H :    0.129027
  27 H :    0.125391
  28 H :    0.129731
  29 H :    0.120850
  30 H :    0.134419
  31 H :    0.121158
  32 H :    0.107292
  33 H :    0.128619
  34 H :    0.118057
  35 H :    0.127986
  36 H :    0.107334
  37 H :    0.115311
  38 H :    0.124423
  39 H :    0.127805
  40 H :    0.128925

  Mayer bond orders larger than 0.100000
B(  0-C ,  1-C ) :   1.1654 B(  0-C , 19-H ) :   0.9370 B(  0-C , 20-H ) :   0.9425
B(  0-C , 21-H ) :   0.9325 B(  1-C ,  2-O ) :   0.9050 B(  1-C , 22-H ) :   0.9168
B(  1-C , 23-H ) :   0.9333 B(  2-O ,  3-P ) :   1.0796 B(  3-P ,  4-S ) :   1.6527
B(  3-P ,  5-O ) :   1.1438 B(  3-P ,  8-S ) :   0.9465 B(  4-S ,  8-S ) :   0.1121
B(  5-O ,  6-C ) :   0.8963 B(  6-C ,  7-C ) :   1.1673 B(  6-C , 24-H ) :   0.9324
B(  6-C , 25-H ) :   0.9080 B(  7-C , 26-H ) :   0.9395 B(  7-C , 27-H ) :   0.9415
B(  7-C , 28-H ) :   0.9473 B(  8-S ,  9-C ) :   0.9979 B(  9-C , 10-S ) :   0.9961
B(  9-C , 29-H ) :   0.8480 B(  9-C , 30-H ) :   0.9106 B( 10-S , 11-P ) :   0.9398
B( 10-S , 12-S ) :   0.1155 B( 11-P , 12-S ) :   1.6430 B( 11-P , 13-O ) :   1.1252
B( 11-P , 16-O ) :   1.1081 B( 12-S , 29-H ) :   0.1174 B( 13-O , 14-C ) :   0.8954
B( 14-C , 15-C ) :   1.1633 B( 14-C , 31-H ) :   0.9352 B( 14-C , 32-H ) :   0.9179
B( 15-C , 33-H ) :   0.9404 B( 15-C , 34-H ) :   0.9379 B( 15-C , 35-H ) :   0.9467
B( 16-O , 17-C ) :   0.8998 B( 17-C , 18-C ) :   1.1732 B( 17-C , 36-H ) :   0.9118
B( 17-C , 37-H ) :   0.9346 B( 18-C , 38-H ) :   0.9464 B( 18-C , 39-H ) :   0.9290
B( 18-C , 40-H ) :   0.9387

Dispersion correction           -0.066142624
FINAL SINGLE POINT ENERGY     -2929.514170852573

DIPOLE MOMENT
-------------

Method             : SCF
Type of density    : Electron Density
Multiplicity       :   1
Irrep              :   0
Energy             : -2929.6327039226316629 Eh
Relativity type    :
Basis              : AO
                                X                 Y                 Z
Electronic contribution:     -3.531012480       1.810193279       1.501218641
Nuclear contribution   :      3.895494701      -2.957483657      -1.645273262
                        -----------------------------------------
Total Dipole Moment    :      0.364482221      -1.147290378      -0.144054620
                        -----------------------------------------
Magnitude (a.u.)       :      1.212383699
Magnitude (Debye)      :      3.081634462

Rotational constants in cm-1:             0.011950             0.005063             0.004880
Rotational constants in MHz :           358.266556           151.784214           146.285232

                             ****ORCA TERMINATED NORMALLY****
TOTAL RUN TIME: 0 days 0 hours 0 minutes 20 seconds 948 msec
