                         Program Version 6.0.1  -  RELEASE   -
|  1> ! r2scan-3c def2/J RI DEFGRID2 scfconv6 printgap
|  2> %output
|  3>     printlevel normal
|  4> end
|  5> * xyz 0 1
|  6> C 5.1281731194 -1.0021174866 0.6588639777
|  7> C 4.7333808887 -1.3931822601 -0.7560250547
|  8> O 3.3223535322 -1.6772323256 -0.8338591344
|  9> C 2.4912546825 -0.692988715 -1.1032865014
| 10> O 2.8248698017 0.4503663528 -1.3387114288
| 11> C 1.0538826412 -1.1677736321 -1.0936647288
| 12> C 0.1425180426 -0.0429739915 -1.5523767073
| 13> H 0.3218801229 0.2170263093 -2.5988948049
| 14> C 0.277006465 1.2291317729 -0.737087807
| 15> O -0.0197465732 2.317920309 -1.1793230826
| 16> O 0.6754869951 0.9915367138 0.4919033254
| 17> C 0.9048528398 2.097445934 1.3851393473
| 18> C 2.370000375 2.1187517201 1.7827963419
| 19> S -1.6206699593 -0.5151894891 -1.5089062327
| 20> P -2.0995194353 -0.2488089668 0.5533226394
| 21> S -1.0528379306 -1.187437485 1.9105243672
| 22> O -2.203219182 1.3063736847 0.8328313837
| 23> C -3.0275188731 2.205204479 0.0611089033
| 24> O -3.6428799189 -0.6560633348 0.5243904148
| 25> C -4.0449053866 -2.0259374776 0.3894025185
| 26> H 4.8303913524 -1.7790044261 1.3575072874
| 27> H 6.2036323027 -0.8675783494 0.7076599601
| 28> H 4.6427480236 -0.0701341345 0.9393180459
| 29> H 5.2153047097 -2.3224429811 -1.0601238422
| 30> H 4.9677606606 -0.5914338736 -1.4621666992
| 31> H 0.8112940696 -1.4789545964 -0.0732564747
| 32> H 0.9515270814 -2.0368260203 -1.7439745939
| 33> H 0.6108803863 3.0191850132 0.8758349963
| 34> H 0.2573264023 1.9229466583 2.2479242811
| 35> H 2.5530903603 2.9668689807 2.4337813594
| 36> H 2.6247418574 1.2008862019 2.3058193158
| 37> H 2.9901151751 2.2065191994 0.8928539112
| 38> H -3.3508597919 2.9744281809 0.7576799908
| 39> H -3.8837889037 1.6786496077 -0.3539409795
| 40> H -2.4209336326 2.6412894709 -0.7334629532
| 41> H -3.4621757557 -2.6546252002 1.0641169425
| 42> H -3.9037826773 -2.351625055 -0.6403987325
| 43> H -5.0972000914 -2.0492378145 0.660871133
| 44> *
| 45>
| 46>                          ****END OF INPUT****

CARTESIAN COORDINATES (ANGSTROEM)
---------------------------------
  C      5.128173   -1.002117    0.658864
  C      4.733381   -1.393182   -0.756025
  O      3.322354   -1.677232   -0.833859
  C      2.491255   -0.692989   -1.103287
  O      2.824870    0.450366   -1.338711
  C      1.053883   -1.167774   -1.093665
  C      0.142518   -0.042974   -1.552377
  H      0.321880    0.217026   -2.598895
  C      0.277006    1.229132   -0.737088
  O     -0.019747    2.317920   -1.179323
  O      0.675487    0.991537    0.491903
  C      0.904853    2.097446    1.385139
  C      2.370000    2.118752    1.782796
  S     -1.620670   -0.515189   -1.508906
  P     -2.099519   -0.248809    0.553323
  S     -1.052838   -1.187437    1.910524
  O     -2.203219    1.306374    0.832831
  C     -3.027519    2.205204    0.061109
  O     -3.642880   -0.656063    0.524390
  C     -4.044905   -2.025937    0.389403
  H      4.830391   -1.779004    1.357507
  H      6.203632   -0.867578    0.707660
  H      4.642748   -0.070134    0.939318
  H      5.215305   -2.322443   -1.060124
  H      4.967761   -0.591434   -1.462167
  H      0.811294   -1.478955   -0.073256
  H      0.951527   -2.036826   -1.743975
  H      0.610880    3.019185    0.875835
  H      0.257326    1.922947    2.247924
  H      2.553090    2.966869    2.433781
  H      2.624742    1.200886    2.305819
  H      2.990115    2.206519    0.892854
  H     -3.350860    2.974428    0.757680
  H     -3.883789    1.678650   -0.353941
  H     -2.420934    2.641289   -0.733463
  H     -3.462176   -2.654625    1.064117
  H     -3.903783   -2.351625   -0.640399
  H     -5.097200   -2.049238    0.660871

 Total Charge           Charge          ....    0
 Multiplicity           Mult            ....    1
 Number of Electrons    NEL             ....  174
 Basis Dimension        Dim             ....  510

ORBITAL ENERGIES
----------------

  NO   OCC          E(Eh)            E(eV)
   0   2.0000     -88.580673     -2410.4026
   1   2.0000     -88.518741     -2408.7174
   2   2.0000     -76.917784     -2093.0393
   3   2.0000     -19.005187      -517.1574
   4   2.0000     -18.996994      -516.9345
   5   2.0000     -18.995838      -516.9030
   6   2.0000     -18.995470      -516.8930
   7   2.0000     -18.939238      -515.3629
   8   2.0000     -18.927084      -515.0321
   9   2.0000     -10.163325      -276.5581
  10   2.0000     -10.158967      -276.4395
  11   2.0000     -10.097496      -274.7668
  12   2.0000     -10.096646      -274.7437
  13   2.0000     -10.096623      -274.7431
  14   2.0000     -10.090137      -274.5666
  15   2.0000     -10.083378      -274.3827
  16   2.0000     -10.053485      -273.5692
  17   2.0000     -10.033322      -273.0206
  18   2.0000     -10.023384      -272.7502
  19   2.0000      -7.874663      -214.2805
  20   2.0000      -7.813632      -212.6197
  21   2.0000      -6.595812      -179.4812
  22   2.0000      -5.821571      -158.4130
  23   2.0000      -5.818634      -158.3331
  24   2.0000      -5.811704      -158.1445
  25   2.0000      -5.761534      -156.7793
  26   2.0000      -5.753674      -156.5654
  27   2.0000      -5.753604      -156.5635
  28   2.0000      -4.741779      -129.0304
  29   2.0000      -4.740907      -129.0066
  30   2.0000      -4.739034      -128.9557
  31   2.0000      -1.082903       -29.4673
  32   2.0000      -1.074758       -29.2456
  33   2.0000      -1.053045       -28.6548
  34   2.0000      -1.011908       -27.5354
  35   2.0000      -0.987649       -26.8753
  36   2.0000      -0.978063       -26.6144
  37   2.0000      -0.811183       -22.0734
  38   2.0000      -0.756639       -20.5892
  39   2.0000      -0.740215       -20.1423
  40   2.0000      -0.731766       -19.9124
  41   2.0000      -0.700087       -19.0503
  42   2.0000      -0.679542       -18.4913
  43   2.0000      -0.660047       -17.9608
  44   2.0000      -0.647001       -17.6058
  45   2.0000      -0.627683       -17.0801
  46   2.0000      -0.597106       -16.2481
  47   2.0000      -0.541813       -14.7435
  48   2.0000      -0.532237       -14.4829
  49   2.0000      -0.525234       -14.2924
  50   2.0000      -0.498016       -13.5517
  51   2.0000      -0.494831       -13.4650
  52   2.0000      -0.482850       -13.1390
  53   2.0000      -0.462059       -12.5733
  54   2.0000      -0.459667       -12.5082
  55   2.0000      -0.454127       -12.3574
  56   2.0000      -0.449107       -12.2208
  57   2.0000      -0.436278       -11.8717
  58   2.0000      -0.435217       -11.8429
  59   2.0000      -0.433219       -11.7885
  60   2.0000      -0.421551       -11.4710
  61   2.0000      -0.419156       -11.4058
  62   2.0000      -0.407185       -11.0801
  63   2.0000      -0.402008       -10.9392
  64   2.0000      -0.395745       -10.7688
  65   2.0000      -0.378901       -10.3104
  66   2.0000      -0.373660       -10.1678
  67   2.0000      -0.368818       -10.0361
  68   2.0000      -0.362020        -9.8511
  69   2.0000      -0.350237        -9.5304
  70   2.0000      -0.348863        -9.4930
  71   2.0000      -0.347727        -9.4621
  72   2.0000      -0.336685        -9.1617
  73   2.0000      -0.328065        -8.9271
  74   2.0000      -0.325398        -8.8545
  75   2.0000      -0.317653        -8.6438
  76   2.0000      -0.312406        -8.5010
  77   2.0000      -0.303930        -8.2704
  78   2.0000      -0.288746        -7.8572
  79   2.0000      -0.281203        -7.6519
  80   2.0000      -0.279627        -7.6090
  81   2.0000      -0.266792        -7.2598
  82   2.0000      -0.256786        -6.9875
  83   2.0000      -0.245012        -6.6671
  84   2.0000      -0.234195        -6.3728
  85   2.0000      -0.216095        -5.8803
  86   2.0000      -0.211123        -5.7449
  87   0.0000      -0.046592        -1.2678
  88   0.0000      -0.029690        -0.8079
  89   0.0000      -0.020620        -0.5611
  90   0.0000       0.000226         0.0062
  91   0.0000       0.020360         0.5540

MULLIKEN ATOMIC CHARGES
-----------------------
   0 C :   -0.464655
   1 C :   -0.141508
   2 O :   -0.167945
   3 C :    0.392809
   4 O :   -0.427990
   5 C :   -0.370028
   6 C :   -0.001042
   7 H :    0.193997
   8 C :    0.262943
   9 O :   -0.399968
  10 O :   -0.110880
  11 C :   -0.168001
  12 C :   -0.499151
  13 S :   -0.187749
  14 P :    0.741833
  15 S :   -0.441643
  16 O :   -0.303909
  17 C :   -0.281934
  18 O :   -0.355118
  19 C :   -0.290228
  20 H :    0.157634
  21 H :    0.148973
  22 H :    0.166569
  23 H :    0.150268
  24 H :    0.171294
  25 H :    0.220983
  26 H :    0.176575
  27 H :    0.185490
  28 H :    0.169808
  29 H :    0.145526
  30 H :    0.157802
  31 H :    0.177715
  32 H :    0.152387
  33 H :    0.159808
  34 H :    0.192217
  35 H :    0.178683
  36 H :    0.154605
  37 H :    0.153832
Sum of atomic charges:    0.0000000

LOEWDIN ATOMIC CHARGES
----------------------
   0 C :   -0.388293
   1 C :    0.030514
   2 O :   -0.576785
   3 C :    0.372676
   4 O :   -0.432079
   5 C :   -0.217365
   6 C :   -0.188779
   7 H :    0.206925
   8 C :    0.338214
   9 O :   -0.435467
  10 O :   -0.603310
  11 C :    0.031153
  12 C :   -0.389727
  13 S :    0.197371
  14 P :    0.389957
  15 S :   -0.081681
  16 O :   -0.651731
  17 C :   -0.045868
  18 O :   -0.685132
  19 C :   -0.056150
  20 H :    0.159831
  21 H :    0.159988
  22 H :    0.163971
  23 H :    0.179085
  24 H :    0.189124
  25 H :    0.212428
  26 H :    0.187258
  27 H :    0.196521
  28 H :    0.186068
  29 H :    0.158184
  30 H :    0.158018
  31 H :    0.167652
  32 H :    0.178546
  33 H :    0.174597
  34 H :    0.189476
  35 H :    0.178639
  36 H :    0.167905
  37 H :    0.178264

  Mayer bond orders larger than 0.100000
B(  0-C ,  1-C ) :   0.9429 B(  0-C , 20-H ) :   0.9729 B(  0-C , 21-H ) :   0.9652
B(  0-C , 22-H ) :   0.9688 B(  1-C ,  2-O ) :   0.7936 B(  1-C , 23-H ) :   0.9610
B(  1-C , 24-H ) :   0.9686 B(  2-O ,  3-C ) :   1.1206 B(  3-C ,  4-O ) :   1.7807
B(  3-C ,  5-C ) :   0.9878 B(  5-C ,  6-C ) :   1.0003 B(  5-C , 10-O ) :   0.1116
B(  5-C , 25-H ) :   0.9077 B(  5-C , 26-H ) :   0.9297 B(  6-C ,  7-H ) :   0.9434
B(  6-C ,  8-C ) :   0.9342 B(  6-C , 13-S ) :   0.7683 B(  8-C ,  9-O ) :   1.8490
B(  8-C , 10-O ) :   1.0751 B( 10-O , 11-C ) :   0.7747 B( 11-C , 12-C ) :   0.9150
B( 11-C , 27-H ) :   0.9725 B( 11-C , 28-H ) :   0.9462 B( 12-C , 29-H ) :   0.9646
B( 12-C , 30-H ) :   0.9758 B( 12-C , 31-H ) :   0.9717 B( 13-S , 14-P ) :   1.0205
B( 14-P , 15-S ) :   1.8563 B( 14-P , 16-O ) :   1.1116 B( 14-P , 18-O ) :   1.0403
B( 16-O , 17-C ) :   0.7933 B( 17-C , 32-H ) :   0.9666 B( 17-C , 33-H ) :   0.9638
B( 17-C , 34-H ) :   0.9480 B( 18-O , 19-C ) :   0.8293 B( 19-C , 35-H ) :   0.9579
B( 19-C , 36-H ) :   0.9570 B( 19-C , 37-H ) :   0.9665

Dispersion correction           -0.018156953
FINAL SINGLE POINT ENERGY     -1981.455651072356

DIPOLE MOMENT
-------------

Method             : SCF
Type of density    : Electron Density
Multiplicity       :   1
Irrep              :   0
Energy             : -1981.4747981910481940 Eh
Relativity type    :
Basis              : AO
                                X                 Y                 Z
Electronic contribution:    -15.875245496      -3.357798877      -4.841361620
Nuclear contribution   :     15.910556914       2.775654812       4.704040717
                        -----------------------------------------
Total Dipole Moment    :      0.035311417      -0.582144065      -0.137320903
                        -----------------------------------------
Magnitude (a.u.)       :      0.599162448
Magnitude (Debye)      :      1.522949911

Rotational constants in cm-1:             0.016103             0.006448             0.006019
Rotational constants in MHz :           482.766857           193.315052           180.442179

                             ****ORCA TERMINATED NORMALLY****
TOTAL RUN TIME: 0 days 0 hours 1 minutes 25 seconds 122 msec
