                         Program Version 6.0.1  -  RELEASE   -
|  1> ! r2scan-3c def2/J RI DEFGRID2 scfconv6 printgap
|  2> %output
|  3>     printlevel normal
|  4> end
|  5> %cpcm
|  6>     smd true
|  7>     smdsolvent "water"
|  8> end
|  9> * xyz 0 1
| 10> C 5.1281731194 -1.0021174866 0.6588639777
| 11> C 4.7333808887 -1.3931822601 -0.7560250547
| 12> O 3.3223535322 -1.6772323256 -0.8338591344
| 13> C 2.4912546825 -0.692988715 -1.1032865014
| 14> O 2.8248698017 0.4503663528 -1.3387114288
| 15> C 1.0538826412 -1.1677736321 -1.0936647288
| 16> C 0.1425180426 -0.0429739915 -1.5523767073
| 17> H 0.3218801229 0.2170263093 -2.5988948049
| 18> C 0.277006465 1.2291317729 -0.737087807
| 19> O -0.0197465732 2.317920309 -1.1793230826
| 20> O 0.6754869951 0.9915367138 0.4919033254
| 21> C 0.9048528398 2.097445934 1.3851393473
| 22> C 2.370000375 2.1187517201 1.7827963419
| 23> S -1.6206699593 -0.5151894891 -1.5089062327
| 24> P -2.0995194353 -0.2488089668 0.5533226394
| 25> S -1.0528379306 -1.187437485 1.9105243672
| 26> O -2.203219182 1.3063736847 0.8328313837
| 27> C -3.0275188731 2.205204479 0.0611089033
| 28> O -3.6428799189 -0.6560633348 0.5243904148
| 29> C -4.0449053866 -2.0259374776 0.3894025185
| 30> H 4.8303913524 -1.7790044261 1.3575072874
| 31> H 6.2036323027 -0.8675783494 0.7076599601
| 32> H 4.6427480236 -0.0701341345 0.9393180459
| 33> H 5.2153047097 -2.3224429811 -1.0601238422
| 34> H 4.9677606606 -0.5914338736 -1.4621666992
| 35> H 0.8112940696 -1.4789545964 -0.0732564747
| 36> H 0.9515270814 -2.0368260203 -1.7439745939
| 37> H 0.6108803863 3.0191850132 0.8758349963
| 38> H 0.2573264023 1.9229466583 2.2479242811
| 39> H 2.5530903603 2.9668689807 2.4337813594
| 40> H 2.6247418574 1.2008862019 2.3058193158
| 41> H 2.9901151751 2.2065191994 0.8928539112
| 42> H -3.3508597919 2.9744281809 0.7576799908
| 43> H -3.8837889037 1.6786496077 -0.3539409795
| 44> H -2.4209336326 2.6412894709 -0.7334629532
| 45> H -3.4621757557 -2.6546252002 1.0641169425
| 46> H -3.9037826773 -2.351625055 -0.6403987325
| 47> H -5.0972000914 -2.0492378145 0.660871133
| 48> *
| 49>
| 50>                          ****END OF INPUT****

CARTESIAN COORDINATES (ANGSTROEM)
---------------------------------
  C      5.128173   -1.002117    0.658864
  C      4.733381   -1.393182   -0.756025
  O      3.322354   -1.677232   -0.833859
  C      2.491255   -0.692989   -1.103287
  O      2.824870    0.450366   -1.338711
  C      1.053883   -1.167774   -1.093665
  C      0.142518   -0.042974   -1.552377
  H      0.321880    0.217026   -2.598895
  C      0.277006    1.229132   -0.737088
  O     -0.019747    2.317920   -1.179323
  O      0.675487    0.991537    0.491903
  C      0.904853    2.097446    1.385139
  C      2.370000    2.118752    1.782796
  S     -1.620670   -0.515189   -1.508906
  P     -2.099519   -0.248809    0.553323
  S     -1.052838   -1.187437    1.910524
  O     -2.203219    1.306374    0.832831
  C     -3.027519    2.205204    0.061109
  O     -3.642880   -0.656063    0.524390
  C     -4.044905   -2.025937    0.389403
  H      4.830391   -1.779004    1.357507
  H      6.203632   -0.867578    0.707660
  H      4.642748   -0.070134    0.939318
  H      5.215305   -2.322443   -1.060124
  H      4.967761   -0.591434   -1.462167
  H      0.811294   -1.478955   -0.073256
  H      0.951527   -2.036826   -1.743975
  H      0.610880    3.019185    0.875835
  H      0.257326    1.922947    2.247924
  H      2.553090    2.966869    2.433781
  H      2.624742    1.200886    2.305819
  H      2.990115    2.206519    0.892854
  H     -3.350860    2.974428    0.757680
  H     -3.883789    1.678650   -0.353941
  H     -2.420934    2.641289   -0.733463
  H     -3.462176   -2.654625    1.064117
  H     -3.903783   -2.351625   -0.640399
  H     -5.097200   -2.049238    0.660871

 Total Charge           Charge          ....    0
 Multiplicity           Mult            ....    1
 Number of Electrons    NEL             ....  174
 Basis Dimension        Dim             ....  510

ORBITAL ENERGIES
----------------

  NO   OCC          E(Eh)            E(eV)
   0   2.0000     -88.586266     -2410.5548
   1   2.0000     -88.529033     -2408.9975
   2   2.0000     -76.924473     -2093.2213
   3   2.0000     -19.007639      -517.2241
   4   2.0000     -19.007628      -517.2239
   5   2.0000     -19.001211      -517.0492
   6   2.0000     -18.998520      -516.9760
   7   2.0000     -18.950341      -515.6650
   8   2.0000     -18.947841      -515.5970
   9   2.0000     -10.175069      -276.8777
  10   2.0000     -10.171247      -276.7737
  11   2.0000     -10.099059      -274.8094
  12   2.0000     -10.086035      -274.4550
  13   2.0000     -10.085018      -274.4273
  14   2.0000     -10.084267      -274.4069
  15   2.0000     -10.084203      -274.4051
  16   2.0000     -10.052699      -273.5479
  17   2.0000     -10.019266      -272.6381
  18   2.0000     -10.019260      -272.6379
  19   2.0000      -7.880134      -214.4293
  20   2.0000      -7.824220      -212.9078
  21   2.0000      -6.602577      -179.6653
  22   2.0000      -5.827052      -158.5621
  23   2.0000      -5.824129      -158.4826
  24   2.0000      -5.817160      -158.2930
  25   2.0000      -5.772022      -157.0647
  26   2.0000      -5.764354      -156.8560
  27   2.0000      -5.764142      -156.8503
  28   2.0000      -4.748494      -129.2131
  29   2.0000      -4.747642      -129.1899
  30   2.0000      -4.745907      -129.1427
  31   2.0000      -1.090256       -29.6674
  32   2.0000      -1.085017       -29.5248
  33   2.0000      -1.056341       -28.7445
  34   2.0000      -1.014543       -27.6071
  35   2.0000      -0.997554       -27.1448
  36   2.0000      -0.996268       -27.1098
  37   2.0000      -0.814948       -22.1759
  38   2.0000      -0.751754       -20.4563
  39   2.0000      -0.742512       -20.2048
  40   2.0000      -0.731336       -19.9007
  41   2.0000      -0.699305       -19.0291
  42   2.0000      -0.673537       -18.3279
  43   2.0000      -0.662577       -18.0296
  44   2.0000      -0.649619       -17.6770
  45   2.0000      -0.624592       -16.9960
  46   2.0000      -0.597558       -16.2604
  47   2.0000      -0.542079       -14.7507
  48   2.0000      -0.531130       -14.4528
  49   2.0000      -0.525261       -14.2931
  50   2.0000      -0.499710       -13.5978
  51   2.0000      -0.497589       -13.5401
  52   2.0000      -0.485001       -13.1976
  53   2.0000      -0.468141       -12.7388
  54   2.0000      -0.464077       -12.6282
  55   2.0000      -0.457169       -12.4402
  56   2.0000      -0.452429       -12.3112
  57   2.0000      -0.450003       -12.2452
  58   2.0000      -0.435919       -11.8620
  59   2.0000      -0.430198       -11.7063
  60   2.0000      -0.420124       -11.4322
  61   2.0000      -0.414187       -11.2706
  62   2.0000      -0.406564       -11.0632
  63   2.0000      -0.403459       -10.9787
  64   2.0000      -0.395394       -10.7592
  65   2.0000      -0.376261       -10.2386
  66   2.0000      -0.372812       -10.1447
  67   2.0000      -0.365258        -9.9392
  68   2.0000      -0.361678        -9.8418
  69   2.0000      -0.353708        -9.6249
  70   2.0000      -0.349813        -9.5189
  71   2.0000      -0.344286        -9.3685
  72   2.0000      -0.338465        -9.2101
  73   2.0000      -0.330615        -8.9965
  74   2.0000      -0.325696        -8.8626
  75   2.0000      -0.317367        -8.6360
  76   2.0000      -0.307984        -8.3807
  77   2.0000      -0.307183        -8.3589
  78   2.0000      -0.292179        -7.9506
  79   2.0000      -0.284756        -7.7486
  80   2.0000      -0.281650        -7.6641
  81   2.0000      -0.276536        -7.5249
  82   2.0000      -0.269234        -7.3262
  83   2.0000      -0.258913        -7.0454
  84   2.0000      -0.247563        -6.7365
  85   2.0000      -0.227182        -6.1819
  86   2.0000      -0.221817        -6.0359
  87   0.0000      -0.053935        -1.4676
  88   0.0000      -0.040485        -1.1017
  89   0.0000      -0.026845        -0.7305
  90   0.0000      -0.005744        -0.1563
  91   0.0000       0.016867         0.4590

MULLIKEN ATOMIC CHARGES
-----------------------
   0 C :   -0.495275
   1 C :   -0.142000
   2 O :   -0.183746
   3 C :    0.416719
   4 O :   -0.489374
   5 C :   -0.371795
   6 C :   -0.006809
   7 H :    0.235641
   8 C :    0.251076
   9 O :   -0.458803
  10 O :   -0.120509
  11 C :   -0.163331
  12 C :   -0.520537
  13 S :   -0.187257
  14 P :    0.756943
  15 S :   -0.485080
  16 O :   -0.330296
  17 C :   -0.296005
  18 O :   -0.377659
  19 C :   -0.301728
  20 H :    0.168471
  21 H :    0.171958
  22 H :    0.168633
  23 H :    0.175965
  24 H :    0.175942
  25 H :    0.221303
  26 H :    0.210541
  27 H :    0.189819
  28 H :    0.181652
  29 H :    0.171335
  30 H :    0.173590
  31 H :    0.171950
  32 H :    0.182554
  33 H :    0.182282
  34 H :    0.186348
  35 H :    0.179704
  36 H :    0.175932
  37 H :    0.181846
Sum of atomic charges:    0.0000000

LOEWDIN ATOMIC CHARGES
----------------------
   0 C :   -0.391567
   1 C :    0.036506
   2 O :   -0.578724
   3 C :    0.382814
   4 O :   -0.475512
   5 C :   -0.211907
   6 C :   -0.185877
   7 H :    0.219759
   8 C :    0.336659
   9 O :   -0.483095
  10 O :   -0.607330
  11 C :    0.034633
  12 C :   -0.389029
  13 S :    0.208027
  14 P :    0.390685
  15 S :   -0.115637
  16 O :   -0.668364
  17 C :   -0.040362
  18 O :   -0.693357
  19 C :   -0.050664
  20 H :    0.163067
  21 H :    0.168636
  22 H :    0.163054
  23 H :    0.190297
  24 H :    0.191126
  25 H :    0.211026
  26 H :    0.202599
  27 H :    0.198066
  28 H :    0.190562
  29 H :    0.168172
  30 H :    0.163199
  31 H :    0.165331
  32 H :    0.190913
  33 H :    0.183165
  34 H :    0.186996
  35 H :    0.179160
  36 H :    0.176752
  37 H :    0.190225

  Mayer bond orders larger than 0.100000
B(  0-C ,  1-C ) :   0.9378 B(  0-C , 20-H ) :   0.9705 B(  0-C , 21-H ) :   0.9597
B(  0-C , 22-H ) :   0.9659 B(  1-C ,  2-O ) :   0.7778 B(  1-C , 23-H ) :   0.9518
B(  1-C , 24-H ) :   0.9638 B(  2-O ,  3-C ) :   1.1367 B(  3-C ,  4-O ) :   1.7371
B(  3-C ,  5-C ) :   1.0033 B(  5-C ,  6-C ) :   0.9937 B(  5-C , 10-O ) :   0.1062
B(  5-C , 25-H ) :   0.9173 B(  5-C , 26-H ) :   0.9063 B(  6-C ,  7-H ) :   0.9310
B(  6-C ,  8-C ) :   0.9299 B(  6-C , 13-S ) :   0.7467 B(  8-C ,  9-O ) :   1.7928
B(  8-C , 10-O ) :   1.0876 B( 10-O , 11-C ) :   0.7621 B( 11-C , 12-C ) :   0.9145
B( 11-C , 27-H ) :   0.9618 B( 11-C , 28-H ) :   0.9411 B( 12-C , 29-H ) :   0.9589
B( 12-C , 30-H ) :   0.9711 B( 12-C , 31-H ) :   0.9697 B( 13-S , 14-P ) :   1.0277
B( 14-P , 15-S ) :   1.8338 B( 14-P , 16-O ) :   1.1124 B( 14-P , 18-O ) :   1.0508
B( 16-O , 17-C ) :   0.7833 B( 17-C , 32-H ) :   0.9553 B( 17-C , 33-H ) :   0.9554
B( 17-C , 34-H ) :   0.9461 B( 18-O , 19-C ) :   0.8200 B( 19-C , 35-H ) :   0.9540
B( 19-C , 36-H ) :   0.9491 B( 19-C , 37-H ) :   0.9563

Dispersion correction           -0.018156953
FINAL SINGLE POINT ENERGY     -1981.468942717054

DIPOLE MOMENT
-------------

Method             : SCF
Type of density    : Electron Density
Multiplicity       :   1
Irrep              :   0
Energy             : -1981.4880898357459955 Eh
Relativity type    :
Basis              : AO
                                X                 Y                 Z
Electronic contribution:    -15.953522531      -3.803648064      -4.981276958
Nuclear contribution   :     15.910556914       2.775654812       4.704040717
                        -----------------------------------------
Total Dipole Moment    :     -0.042965617      -1.027993252      -0.277236241
                        -----------------------------------------
Magnitude (a.u.)       :      1.065587211
Magnitude (Debye)      :      2.708507441

Rotational constants in cm-1:             0.016103             0.006448             0.006019
Rotational constants in MHz :           482.766857           193.315052           180.442179

                             ****ORCA TERMINATED NORMALLY****
TOTAL RUN TIME: 0 days 0 hours 1 minutes 48 seconds 849 msec
