                         Program Version 6.0.0  -   RELEASE  -
|  1> ! pbe def2-sv(p) def2/J RI DEFGRID1 loosescf d4 GCP(DFT/SV(P)) printgap
|  2> %output
|  3>     printlevel normal
|  4> end
|  5> * xyz 0 1
|  6> C 2.9836844543 1.3360458238 3.0224243211
|  7> C 1.6129748092 0.829663182 2.6265110778
|  8> O 1.4491077838 0.7913555795 1.1919483936
|  9> P 2.2599665882 -0.2270615396 0.287904371
| 10> S 2.7065536449 -1.9510908118 1.1143736877
| 11> O 3.5014715417 0.6577047388 -0.157812765
| 12> C 4.6888901168 0.0870255967 -0.7341409679
| 13> C 4.4404128919 -0.4658042636 -2.1227222699
| 14> S 1.0083740161 -0.278364515 -1.4161810056
| 15> C -0.0743355747 -1.6034558286 -0.8132146274
| 16> S -1.1278153122 -1.0890562943 0.5593450842
| 17> P -2.351625836 0.2378569068 -0.5898472026
| 18> S -2.7237156525 -0.3318274749 -2.4219822341
| 19> O -1.6269389308 1.6371692753 -0.6117740637
| 20> C -1.3182943528 2.4012224575 0.577613753
| 21> C -2.3070891004 3.5369140537 0.7410556162
| 22> O -3.5705383465 0.5169796426 0.3899228008
| 23> C -4.3505256348 -0.4943913359 1.0562536489
| 24> C -4.9373491151 -1.5091293639 0.0982629778
| 25> H 3.1817838194 2.2945784005 2.5501364471
| 26> H 3.0288250827 1.4463370933 4.1013028371
| 27> H 3.7461637377 0.6244282463 2.7078789157
| 28> H 0.8214617428 1.4997167323 2.9642323289
| 29> H 1.4413741482 -0.177350056 3.0199004386
| 30> H 5.3969414931 0.9166069964 -0.7514540754
| 31> H 5.0526391818 -0.7012735869 -0.0670682275
| 32> H 3.7769055616 -1.3281441126 -2.0684598803
| 33> H 3.9780064714 0.2893834262 -2.7536862838
| 34> H 5.383648587 -0.7747433117 -2.5617452846
| 35> H 0.5315954499 -2.434187863 -0.4513321038
| 36> H -0.7002511106 -1.8982359083 -1.6560659103
| 37> H -1.3334351273 1.732697049 1.4430177067
| 38> H -0.3025831835 2.7693226982 0.4178211873
| 39> H -3.3101133967 3.1419044302 0.8803441516
| 40> H -2.0296069043 4.1317768961 1.605561485
| 41> H -2.2992431859 4.1646129744 -0.1456643366
| 42> H -3.7117185334 -0.9853366212 1.7957606245
| 43> H -5.1324584601 0.0762601767 1.5604055243
| 44> H -5.5863337131 -2.1866104871 0.6437594574
| 45> H -5.5090036321 -1.009779839 -0.6803744073
| 46> H -4.1424186843 -2.0831533348 -0.3756446169
| 47> *
| 48>
| 49>                          ****END OF INPUT****

CARTESIAN COORDINATES (ANGSTROEM)
---------------------------------
  C      2.983684    1.336046    3.022424
  C      1.612975    0.829663    2.626511
  O      1.449108    0.791356    1.191948
  P      2.259967   -0.227062    0.287904
  S      2.706554   -1.951091    1.114374
  O      3.501472    0.657705   -0.157813
  C      4.688890    0.087026   -0.734141
  C      4.440413   -0.465804   -2.122722
  S      1.008374   -0.278365   -1.416181
  C     -0.074336   -1.603456   -0.813215
  S     -1.127815   -1.089056    0.559345
  P     -2.351626    0.237857   -0.589847
  S     -2.723716   -0.331827   -2.421982
  O     -1.626939    1.637169   -0.611774
  C     -1.318294    2.401222    0.577614
  C     -2.307089    3.536914    0.741056
  O     -3.570538    0.516980    0.389923
  C     -4.350526   -0.494391    1.056254
  C     -4.937349   -1.509129    0.098263
  H      3.181784    2.294578    2.550136
  H      3.028825    1.446337    4.101303
  H      3.746164    0.624428    2.707879
  H      0.821462    1.499717    2.964232
  H      1.441374   -0.177350    3.019900
  H      5.396941    0.916607   -0.751454
  H      5.052639   -0.701274   -0.067068
  H      3.776906   -1.328144   -2.068460
  H      3.978006    0.289383   -2.753686
  H      5.383649   -0.774743   -2.561745
  H      0.531595   -2.434188   -0.451332
  H     -0.700251   -1.898236   -1.656066
  H     -1.333435    1.732697    1.443018
  H     -0.302583    2.769323    0.417821
  H     -3.310113    3.141904    0.880344
  H     -2.029607    4.131777    1.605561
  H     -2.299243    4.164613   -0.145664
  H     -3.711719   -0.985337    1.795761
  H     -5.132458    0.076260    1.560406
  H     -5.586334   -2.186610    0.643759
  H     -5.509004   -1.009780   -0.680374
  H     -4.142419   -2.083153   -0.375645

 Total Charge           Charge          ....    0
 Multiplicity           Mult            ....    1
 Number of Electrons    NEL             ....  202
 Basis Dimension        Dim             ....  334

ORBITAL ENERGIES
----------------

  NO   OCC          E(Eh)            E(eV)
   0   2.0000     -88.041912     -2395.7422
   1   2.0000     -88.041675     -2395.7358
   2   2.0000     -87.992925     -2394.4092
   3   2.0000     -87.981720     -2394.1043
   4   2.0000     -76.429047     -2079.7401
   5   2.0000     -76.425344     -2079.6393
   6   2.0000     -18.797848      -511.5155
   7   2.0000     -18.797457      -511.5048
   8   2.0000     -18.793712      -511.4029
   9   2.0000     -18.787109      -511.2232
  10   2.0000      -9.960802      -271.0472
  11   2.0000      -9.955574      -270.9049
  12   2.0000      -9.955527      -270.9037
  13   2.0000      -9.951792      -270.8020
  14   2.0000      -9.950825      -270.7757
  15   2.0000      -9.887835      -269.0617
  16   2.0000      -9.885481      -268.9976
  17   2.0000      -9.884471      -268.9701
  18   2.0000      -9.884005      -268.9574
  19   2.0000      -7.686788      -209.1681
  20   2.0000      -7.686692      -209.1655
  21   2.0000      -7.637809      -207.8354
  22   2.0000      -7.627097      -207.5439
  23   2.0000      -6.426758      -174.8810
  24   2.0000      -6.422527      -174.7658
  25   2.0000      -5.714591      -155.5019
  26   2.0000      -5.714338      -155.4950
  27   2.0000      -5.711507      -155.4180
  28   2.0000      -5.711248      -155.4110
  29   2.0000      -5.703915      -155.2114
  30   2.0000      -5.703601      -155.2029
  31   2.0000      -5.666518      -154.1938
  32   2.0000      -5.658468      -153.9747
  33   2.0000      -5.658173      -153.9667
  34   2.0000      -5.656169      -153.9122
  35   2.0000      -5.647618      -153.6795
  36   2.0000      -5.647141      -153.6665
  37   2.0000      -4.649185      -126.5108
  38   2.0000      -4.648481      -126.4916
  39   2.0000      -4.647344      -126.4607
  40   2.0000      -4.645457      -126.4093
  41   2.0000      -4.644501      -126.3833
  42   2.0000      -4.642513      -126.3292
  43   2.0000      -0.990842       -26.9622
  44   2.0000      -0.988917       -26.9098
  45   2.0000      -0.950013       -25.8512
  46   2.0000      -0.944298       -25.6957
  47   2.0000      -0.764604       -20.8059
  48   2.0000      -0.721961       -19.6456
  49   2.0000      -0.710626       -19.3371
  50   2.0000      -0.691399       -18.8139
  51   2.0000      -0.690109       -18.7788
  52   2.0000      -0.676458       -18.4073
  53   2.0000      -0.652163       -17.7463
  54   2.0000      -0.639268       -17.3954
  55   2.0000      -0.604260       -16.4428
  56   2.0000      -0.590164       -16.0592
  57   2.0000      -0.575666       -15.6647
  58   2.0000      -0.572697       -15.5839
  59   2.0000      -0.564097       -15.3499
  60   2.0000      -0.504670       -13.7328
  61   2.0000      -0.494396       -13.4532
  62   2.0000      -0.476836       -12.9754
  63   2.0000      -0.474504       -12.9119
  64   2.0000      -0.460293       -12.5252
  65   2.0000      -0.448316       -12.1993
  66   2.0000      -0.442848       -12.0505
  67   2.0000      -0.434533       -11.8242
  68   2.0000      -0.433306       -11.7909
  69   2.0000      -0.415522       -11.3069
  70   2.0000      -0.410722       -11.1763
  71   2.0000      -0.399037       -10.8584
  72   2.0000      -0.398336       -10.8393
  73   2.0000      -0.389135       -10.5889
  74   2.0000      -0.383844       -10.4449
  75   2.0000      -0.375494       -10.2177
  76   2.0000      -0.365193        -9.9374
  77   2.0000      -0.357573        -9.7301
  78   2.0000      -0.355589        -9.6761
  79   2.0000      -0.351996        -9.5783
  80   2.0000      -0.348791        -9.4911
  81   2.0000      -0.346686        -9.4338
  82   2.0000      -0.344915        -9.3856
  83   2.0000      -0.338776        -9.2186
  84   2.0000      -0.337461        -9.1828
  85   2.0000      -0.324135        -8.8202
  86   2.0000      -0.313722        -8.5368
  87   2.0000      -0.298882        -8.1330
  88   2.0000      -0.298203        -8.1145
  89   2.0000      -0.289747        -7.8844
  90   2.0000      -0.286168        -7.7870
  91   2.0000      -0.280200        -7.6246
  92   2.0000      -0.275056        -7.4847
  93   2.0000      -0.267474        -7.2783
  94   2.0000      -0.257810        -7.0154
  95   2.0000      -0.233784        -6.3616
  96   2.0000      -0.219408        -5.9704
  97   2.0000      -0.214751        -5.8437
  98   2.0000      -0.206459        -5.6180
  99   2.0000      -0.199424        -5.4266
 100   2.0000      -0.196847        -5.3565
 101   0.0000      -0.044268        -1.2046
 102   0.0000      -0.023764        -0.6467
 103   0.0000      -0.005355        -0.1457
 104   0.0000      -0.000074        -0.0020
 105   0.0000       0.012298         0.3346

MULLIKEN ATOMIC CHARGES
-----------------------
   0 C :   -0.303953
   1 C :   -0.008243
   2 O :   -0.359768
   3 P :    0.609405
   4 S :   -0.338799
   5 O :   -0.370535
   6 C :   -0.006379
   7 C :   -0.316182
   8 S :   -0.053153
   9 C :   -0.370955
  10 S :   -0.105589
  11 P :    0.597774
  12 S :   -0.309743
  13 O :   -0.344962
  14 C :   -0.019223
  15 C :   -0.281826
  16 O :   -0.381753
  17 C :   -0.012008
  18 C :   -0.307892
  19 H :    0.116592
  20 H :    0.112423
  21 H :    0.123638
  22 H :    0.102102
  23 H :    0.113974
  24 H :    0.106714
  25 H :    0.111526
  26 H :    0.128178
  27 H :    0.121676
  28 H :    0.114453
  29 H :    0.191891
  30 H :    0.195257
  31 H :    0.099429
  32 H :    0.116021
  33 H :    0.116832
  34 H :    0.104879
  35 H :    0.120628
  36 H :    0.113734
  37 H :    0.108375
  38 H :    0.111612
  39 H :    0.127554
  40 H :    0.126296
Sum of atomic charges:    0.0000000

LOEWDIN ATOMIC CHARGES
----------------------
   0 C :   -0.364830
   1 C :   -0.117830
   2 O :   -0.237796
   3 P :    0.574172
   4 S :   -0.324455
   5 O :   -0.242478
   6 C :   -0.119064
   7 C :   -0.368974
   8 S :    0.106019
   9 C :   -0.487092
  10 S :    0.063579
  11 P :    0.568835
  12 S :   -0.305756
  13 O :   -0.228737
  14 C :   -0.115641
  15 C :   -0.357695
  16 O :   -0.245998
  17 C :   -0.115150
  18 C :   -0.368649
  19 H :    0.126416
  20 H :    0.130714
  21 H :    0.122825
  22 H :    0.113914
  23 H :    0.111447
  24 H :    0.119407
  25 H :    0.110546
  26 H :    0.122015
  27 H :    0.126366
  28 H :    0.131873
  29 H :    0.128311
  30 H :    0.129200
  31 H :    0.101230
  32 H :    0.119836
  33 H :    0.125271
  34 H :    0.126908
  35 H :    0.129286
  36 H :    0.108125
  37 H :    0.120613
  38 H :    0.130318
  39 H :    0.130947
  40 H :    0.121972

  Mayer bond orders larger than 0.100000
B(  0-C ,  1-C ) :   1.1651 B(  0-C , 19-H ) :   0.9459 B(  0-C , 20-H ) :   0.9387
B(  0-C , 21-H ) :   0.9353 B(  1-C ,  2-O ) :   0.9047 B(  1-C , 22-H ) :   0.9297
B(  1-C , 23-H ) :   0.9165 B(  2-O ,  3-P ) :   1.1168 B(  3-P ,  4-S ) :   1.5832
B(  3-P ,  5-O ) :   1.1135 B(  3-P ,  8-S ) :   0.9698 B(  4-S ,  8-S ) :   0.1098
B(  5-O ,  6-C ) :   0.9063 B(  6-C ,  7-C ) :   1.1663 B(  6-C , 24-H ) :   0.9337
B(  6-C , 25-H ) :   0.9161 B(  7-C , 26-H ) :   0.9356 B(  7-C , 27-H ) :   0.9446
B(  7-C , 28-H ) :   0.9377 B(  8-S ,  9-C ) :   1.0059 B(  9-C , 10-S ) :   1.0077
B(  9-C , 29-H ) :   0.8760 B(  9-C , 30-H ) :   0.8717 B( 10-S , 11-P ) :   0.9372
B( 10-S , 12-S ) :   0.1104 B( 11-P , 12-S ) :   1.6472 B( 11-P , 13-O ) :   1.1427
B( 11-P , 16-O ) :   1.0769 B( 13-O , 14-C ) :   0.8927 B( 14-C , 15-C ) :   1.1566
B( 14-C , 31-H ) :   0.9115 B( 14-C , 32-H ) :   0.9306 B( 15-C , 33-H ) :   0.9436
B( 15-C , 34-H ) :   0.9414 B( 15-C , 35-H ) :   0.9467 B( 16-O , 17-C ) :   0.9120
B( 17-C , 18-C ) :   1.1674 B( 17-C , 36-H ) :   0.9256 B( 17-C , 37-H ) :   0.9331
B( 18-C , 38-H ) :   0.9349 B( 18-C , 39-H ) :   0.9431 B( 18-C , 40-H ) :   0.9322

Dispersion correction           -0.066029456
FINAL SINGLE POINT ENERGY     -2929.522668855415

DIPOLE MOMENT
-------------

Method             : SCF
Type of density    : Electron Density
Multiplicity       :   1
Irrep              :   0
Energy             : -2929.6422450835757445 Eh
Relativity type    :
Basis              : AO
                                X                 Y                 Z
Electronic contribution:     -1.935829429      -8.363657851     -10.355850508
Nuclear contribution   :      2.223272021       9.070283108      11.770115817
                        -----------------------------------------
Total Dipole Moment    :      0.287442592       0.706625257       1.414265309
                        -----------------------------------------
Magnitude (a.u.)       :      1.606887943
Magnitude (Debye)      :      4.084384559

Rotational constants in cm-1:             0.012714             0.004897             0.004537
Rotational constants in MHz :           381.148469           146.797399           136.007068

                             ****ORCA TERMINATED NORMALLY****
TOTAL RUN TIME: 0 days 0 hours 0 minutes 21 seconds 314 msec
