                         Program Version 6.0.0  -   RELEASE  -
|  1> ! pbe def2-sv(p) def2/J RI DEFGRID1 loosescf d4 GCP(DFT/SV(P)) printgap
|  2> %output
|  3>     printlevel normal
|  4> end
|  5> * xyz 0 1
|  6> C 5.2187234527 -0.1262231169 -1.2741630699
|  7> C 4.4455443426 1.0809062328 -0.7813214056
|  8> O 3.5222214215 0.7153002329 0.2630972791
|  9> P 1.9948874981 0.3948550103 -0.0203561849
| 10> S 1.0417679544 1.7344507754 -1.0888429047
| 11> O 1.4060327865 0.275825615 1.4347310455
| 12> C 2.0917196028 -0.2582843581 2.5969335129
| 13> C 2.4416865777 -1.7239450133 2.4506793347
| 14> S 2.0006375165 -1.5309699851 -0.923126597
| 15> C 0.2372163355 -1.6438898213 -1.2754435241
| 16> S -0.7807187809 -1.7651754112 0.2367330014
| 17> P -2.0136874318 -0.0759887374 0.0291283731
| 18> S -2.335416952 0.5371459317 -1.8096817464
| 19> O -1.3845440727 0.9609229249 1.0439387077
| 20> C -1.6779741074 2.3697356188 0.9810002788
| 21> C -3.1259192173 2.6571588552 1.312845452
| 22> O -3.298947404 -0.5307818748 0.8512614769
| 23> C -4.2286115396 -1.5112274151 0.3496792596
| 24> C -5.4005433592 -0.8431260525 -0.3431948304
| 25> H 4.5479528076 -0.8519199322 -1.7285577163
| 26> H 5.9444599274 0.1981607784 -2.012981104
| 27> H 5.7383875871 -0.5990445308 -0.4457663248
| 28> H 3.8893514441 1.5620648579 -1.592178194
| 29> H 5.1088243009 1.8121977212 -0.3154365432
| 30> H 2.984397483 0.3455509201 2.7686685899
| 31> H 1.3693801069 -0.097266389 3.3989319718
| 32> H 3.1964871531 -1.8615865225 1.6796377259
| 33> H 2.8327638291 -2.085487862 3.3967173942
| 34> H 1.5576229312 -2.3006602108 2.186800962
| 35> H 0.1013537848 -2.5583508503 -1.8470028367
| 36> H -0.0903428417 -0.7699486813 -1.8462215857
| 37> H -0.9922924826 2.8096046553 1.7069033647
| 38> H -1.4240167863 2.732783651 -0.0210013397
| 39> H -3.3838784212 2.2197969846 2.2738278361
| 40> H -3.280143382 3.7311424332 1.3457090361
| 41> H -3.7694964405 2.2291824537 0.5449172273
| 42> H -3.7065247458 -2.1894830463 -0.3315627345
| 43> H -4.5507219275 -2.0621632795 1.2352201949
| 44> H -5.0565450018 -0.2920762447 -1.215911124
| 45> H -6.107533703 -1.6024622727 -0.6610635222
| 46> H -5.893794904 -0.1538875474 0.3364889607
| 47> *
| 48>
| 49>                          ****END OF INPUT****

CARTESIAN COORDINATES (ANGSTROEM)
---------------------------------
  C      5.218723   -0.126223   -1.274163
  C      4.445544    1.080906   -0.781321
  O      3.522221    0.715300    0.263097
  P      1.994887    0.394855   -0.020356
  S      1.041768    1.734451   -1.088843
  O      1.406033    0.275826    1.434731
  C      2.091720   -0.258284    2.596934
  C      2.441687   -1.723945    2.450679
  S      2.000638   -1.530970   -0.923127
  C      0.237216   -1.643890   -1.275444
  S     -0.780719   -1.765175    0.236733
  P     -2.013687   -0.075989    0.029128
  S     -2.335417    0.537146   -1.809682
  O     -1.384544    0.960923    1.043939
  C     -1.677974    2.369736    0.981000
  C     -3.125919    2.657159    1.312845
  O     -3.298947   -0.530782    0.851261
  C     -4.228612   -1.511227    0.349679
  C     -5.400543   -0.843126   -0.343195
  H      4.547953   -0.851920   -1.728558
  H      5.944460    0.198161   -2.012981
  H      5.738388   -0.599045   -0.445766
  H      3.889351    1.562065   -1.592178
  H      5.108824    1.812198   -0.315437
  H      2.984397    0.345551    2.768669
  H      1.369380   -0.097266    3.398932
  H      3.196487   -1.861587    1.679638
  H      2.832764   -2.085488    3.396717
  H      1.557623   -2.300660    2.186801
  H      0.101354   -2.558351   -1.847003
  H     -0.090343   -0.769949   -1.846222
  H     -0.992292    2.809605    1.706903
  H     -1.424017    2.732784   -0.021001
  H     -3.383878    2.219797    2.273828
  H     -3.280143    3.731142    1.345709
  H     -3.769496    2.229182    0.544917
  H     -3.706525   -2.189483   -0.331563
  H     -4.550722   -2.062163    1.235220
  H     -5.056545   -0.292076   -1.215911
  H     -6.107534   -1.602462   -0.661064
  H     -5.893795   -0.153888    0.336489

 Total Charge           Charge          ....    0
 Multiplicity           Mult            ....    1
 Number of Electrons    NEL             ....  202
 Basis Dimension        Dim             ....  334

ORBITAL ENERGIES
----------------

  NO   OCC          E(Eh)            E(eV)
   0   2.0000     -88.042155     -2395.7488
   1   2.0000     -88.039998     -2395.6901
   2   2.0000     -87.979931     -2394.0556
   3   2.0000     -87.977491     -2393.9892
   4   2.0000     -76.424343     -2079.6121
   5   2.0000     -76.419777     -2079.4879
   6   2.0000     -18.798135      -511.5233
   7   2.0000     -18.787805      -511.2422
   8   2.0000     -18.786991      -511.2200
   9   2.0000     -18.778129      -510.9789
  10   2.0000      -9.956221      -270.9225
  11   2.0000      -9.954855      -270.8854
  12   2.0000      -9.952367      -270.8177
  13   2.0000      -9.949841      -270.7489
  14   2.0000      -9.937279      -270.4071
  15   2.0000      -9.889404      -269.1044
  16   2.0000      -9.885024      -268.9852
  17   2.0000      -9.877479      -268.7799
  18   2.0000      -9.874171      -268.6898
  19   2.0000      -7.687169      -209.1785
  20   2.0000      -7.685125      -209.1229
  21   2.0000      -7.624854      -207.4828
  22   2.0000      -7.622470      -207.4180
  23   2.0000      -6.421683      -174.7429
  24   2.0000      -6.417278      -174.6230
  25   2.0000      -5.714970      -155.5122
  26   2.0000      -5.712984      -155.4582
  27   2.0000      -5.711601      -155.4206
  28   2.0000      -5.709568      -155.3652
  29   2.0000      -5.704284      -155.2215
  30   2.0000      -5.702108      -155.1622
  31   2.0000      -5.653693      -153.8448
  32   2.0000      -5.651439      -153.7835
  33   2.0000      -5.645622      -153.6252
  34   2.0000      -5.644945      -153.6068
  35   2.0000      -5.643218      -153.5598
  36   2.0000      -5.642418      -153.5380
  37   2.0000      -4.644797      -126.3914
  38   2.0000      -4.643381      -126.3528
  39   2.0000      -4.641700      -126.3071
  40   2.0000      -4.639595      -126.2498
  41   2.0000      -4.638965      -126.2326
  42   2.0000      -4.638068      -126.2082
  43   2.0000      -0.989292       -26.9200
  44   2.0000      -0.979085       -26.6423
  45   2.0000      -0.944368       -25.6976
  46   2.0000      -0.936164       -25.4743
  47   2.0000      -0.761025       -20.7085
  48   2.0000      -0.718790       -19.5593
  49   2.0000      -0.706572       -19.2268
  50   2.0000      -0.692531       -18.8447
  51   2.0000      -0.679924       -18.5017
  52   2.0000      -0.672308       -18.2944
  53   2.0000      -0.647353       -17.6154
  54   2.0000      -0.629839       -17.1388
  55   2.0000      -0.597170       -16.2498
  56   2.0000      -0.588427       -16.0119
  57   2.0000      -0.577879       -15.7249
  58   2.0000      -0.564149       -15.3513
  59   2.0000      -0.556936       -15.1550
  60   2.0000      -0.500833       -13.6284
  61   2.0000      -0.493519       -13.4293
  62   2.0000      -0.474173       -12.9029
  63   2.0000      -0.465044       -12.6545
  64   2.0000      -0.452286       -12.3073
  65   2.0000      -0.440574       -11.9886
  66   2.0000      -0.439053       -11.9473
  67   2.0000      -0.432930       -11.7806
  68   2.0000      -0.429334       -11.6828
  69   2.0000      -0.414949       -11.2913
  70   2.0000      -0.404101       -10.9962
  71   2.0000      -0.395587       -10.7645
  72   2.0000      -0.393500       -10.7077
  73   2.0000      -0.386019       -10.5041
  74   2.0000      -0.379963       -10.3393
  75   2.0000      -0.367850       -10.0097
  76   2.0000      -0.364794        -9.9266
  77   2.0000      -0.359150        -9.7730
  78   2.0000      -0.352275        -9.5859
  79   2.0000      -0.349718        -9.5163
  80   2.0000      -0.342830        -9.3289
  81   2.0000      -0.340576        -9.2676
  82   2.0000      -0.334954        -9.1146
  83   2.0000      -0.331370        -9.0170
  84   2.0000      -0.328392        -8.9360
  85   2.0000      -0.322462        -8.7746
  86   2.0000      -0.308563        -8.3964
  87   2.0000      -0.297248        -8.0885
  88   2.0000      -0.294055        -8.0016
  89   2.0000      -0.290915        -7.9162
  90   2.0000      -0.275865        -7.5067
  91   2.0000      -0.272762        -7.4222
  92   2.0000      -0.263912        -7.1814
  93   2.0000      -0.259491        -7.0611
  94   2.0000      -0.256332        -6.9751
  95   2.0000      -0.232881        -6.3370
  96   2.0000      -0.219851        -5.9824
  97   2.0000      -0.210975        -5.7409
  98   2.0000      -0.199577        -5.4308
  99   2.0000      -0.188629        -5.1329
 100   2.0000      -0.182195        -4.9578
 101   0.0000      -0.039617        -1.0780
 102   0.0000      -0.028985        -0.7887
 103   0.0000      -0.006508        -0.1771
 104   0.0000       0.012097         0.3292
 105   0.0000       0.023750         0.6463

MULLIKEN ATOMIC CHARGES
-----------------------
   0 C :   -0.308997
   1 C :   -0.006165
   2 O :   -0.382583
   3 P :    0.605542
   4 S :   -0.300934
   5 O :   -0.347185
   6 C :    0.008781
   7 C :   -0.322551
   8 S :   -0.115882
   9 C :   -0.355072
  10 S :   -0.097323
  11 P :    0.606831
  12 S :   -0.318729
  13 O :   -0.351135
  14 C :   -0.001704
  15 C :   -0.305271
  16 O :   -0.374551
  17 C :   -0.006870
  18 C :   -0.293346
  19 H :    0.131110
  20 H :    0.114846
  21 H :    0.115066
  22 H :    0.107641
  23 H :    0.108262
  24 H :    0.108024
  25 H :    0.109959
  26 H :    0.121216
  27 H :    0.110618
  28 H :    0.129914
  29 H :    0.180918
  30 H :    0.213558
  31 H :    0.099896
  32 H :    0.123901
  33 H :    0.111285
  34 H :    0.108338
  35 H :    0.123611
  36 H :    0.096831
  37 H :    0.104246
  38 H :    0.128803
  39 H :    0.105640
  40 H :    0.113459
Sum of atomic charges:    0.0000000

LOEWDIN ATOMIC CHARGES
----------------------
   0 C :   -0.364965
   1 C :   -0.117338
   2 O :   -0.247124
   3 P :    0.563805
   4 S :   -0.295455
   5 O :   -0.228353
   6 C :   -0.106112
   7 C :   -0.371482
   8 S :    0.075471
   9 C :   -0.480770
  10 S :    0.080435
  11 P :    0.568846
  12 S :   -0.309910
  13 O :   -0.228823
  14 C :   -0.118295
  15 C :   -0.366921
  16 O :   -0.247573
  17 C :   -0.117713
  18 C :   -0.364163
  19 H :    0.119291
  20 H :    0.132713
  21 H :    0.125043
  22 H :    0.110305
  23 H :    0.120220
  24 H :    0.113572
  25 H :    0.122840
  26 H :    0.116429
  27 H :    0.129803
  28 H :    0.123850
  29 H :    0.136912
  30 H :    0.126314
  31 H :    0.117483
  32 H :    0.109452
  33 H :    0.123525
  34 H :    0.128836
  35 H :    0.121265
  36 H :    0.104763
  37 H :    0.117195
  38 H :    0.124247
  39 H :    0.127772
  40 H :    0.124610

  Mayer bond orders larger than 0.100000
B(  0-C ,  1-C ) :   1.1666 B(  0-C , 19-H ) :   0.9323 B(  0-C , 20-H ) :   0.9396
B(  0-C , 21-H ) :   0.9475 B(  1-C ,  2-O ) :   0.9035 B(  1-C , 22-H ) :   0.9050
B(  1-C , 23-H ) :   0.9347 B(  2-O ,  3-P ) :   1.0788 B(  3-P ,  4-S ) :   1.6580
B(  3-P ,  5-O ) :   1.1444 B(  3-P ,  8-S ) :   0.9360 B(  4-S ,  8-S ) :   0.1055
B(  5-O ,  6-C ) :   0.8960 B(  6-C ,  7-C ) :   1.1705 B(  6-C , 24-H ) :   0.9286
B(  6-C , 25-H ) :   0.9337 B(  7-C , 26-H ) :   0.9391 B(  7-C , 27-H ) :   0.9350
B(  7-C , 28-H ) :   0.9378 B(  8-S ,  9-C ) :   1.0051 B(  9-C , 10-S ) :   0.9932
B(  9-C , 29-H ) :   0.9114 B(  9-C , 30-H ) :   0.8441 B( 10-S , 11-P ) :   0.9661
B( 10-S , 12-S ) :   0.1166 B( 11-P , 12-S ) :   1.5987 B( 11-P , 13-O ) :   1.1531
B( 11-P , 16-O ) :   1.0945 B( 13-O , 14-C ) :   0.9014 B( 14-C , 15-C ) :   1.1578
B( 14-C , 31-H ) :   0.9359 B( 14-C , 32-H ) :   0.9121 B( 15-C , 33-H ) :   0.9448
B( 15-C , 34-H ) :   0.9388 B( 15-C , 35-H ) :   0.9343 B( 16-O , 17-C ) :   0.9092
B( 17-C , 18-C ) :   1.1675 B( 17-C , 36-H ) :   0.9127 B( 17-C , 37-H ) :   0.9363
B( 18-C , 38-H ) :   0.9305 B( 18-C , 39-H ) :   0.9398 B( 18-C , 40-H ) :   0.9459

Dispersion correction           -0.067989856
FINAL SINGLE POINT ENERGY     -2929.517273146869

DIPOLE MOMENT
-------------

Method             : SCF
Type of density    : Electron Density
Multiplicity       :   1
Irrep              :   0
Energy             : -2929.6350813405538247 Eh
Relativity type    :
Basis              : AO
                                X                 Y                 Z
Electronic contribution:      1.633577224      -0.648554025      -7.402212716
Nuclear contribution   :     -0.900894004      -0.031418491       8.457729993
                        -----------------------------------------
Total Dipole Moment    :      0.732683220      -0.679972516       1.055517277
                        -----------------------------------------
Magnitude (a.u.)       :      1.453720759
Magnitude (Debye)      :      3.695064518

Rotational constants in cm-1:             0.014018             0.005076             0.004887
Rotational constants in MHz :           420.234183           152.174654           146.507070

                             ****ORCA TERMINATED NORMALLY****
TOTAL RUN TIME: 0 days 0 hours 0 minutes 21 seconds 621 msec
