                         Program Version 6.0.0  -   RELEASE  -
|  1> ! pbe def2-sv(p) def2/J RI DEFGRID1 loosescf d4 GCP(DFT/SV(P)) printgap
|  2> %output
|  3>     printlevel normal
|  4> end
|  5> * xyz 0 1
|  6> C -3.0632593407 -0.386627166 0.0104639246
|  7> C -1.6022478443 -0.050836117 -0.0073351447
|  8> C -1.1758908822 1.271020083 -0.0052075028
|  9> C 0.1729577503 1.5683623418 -0.0013127515
| 10> C 1.1401842555 0.5699080068 0.0007093017
| 11> C 0.7228527044 -0.7620242969 -0.0020104859
| 12> C -0.6379380986 -1.0460719968 -0.0056962718
| 13> C 1.6848408691 -1.9156487087 -0.0001839472
| 14> C 2.5931668115 0.9479832988 0.0044533829
| 15> H -3.626790961 0.316705916 -0.598408382
| 16> H -3.234316157 -1.3938275036 -0.3607473972
| 17> H -3.4454326467 -0.3294599314 1.0298041686
| 18> H -1.9035775355 2.0700293399 -0.0076343393
| 19> H 0.4854748382 2.603465128 -0.0010921659
| 20> H -0.9495603814 -2.0820211416 -0.0083331362
| 21> H 1.5000192772 -2.5532031277 -0.8635097634
| 22> H 2.7176514914 -1.5879657372 -0.0277365248
| 23> H 1.5366634158 -2.5189377759 0.8944864029
| 24> H 3.0935438976 0.5510248825 0.8864774416
| 25> H 3.0966272727 0.5580067787 -0.8789905687
| 26> H 2.6999564143 2.0296993341 0.0086094058
| 27> *
| 28>
| 29>                          ****END OF INPUT****

CARTESIAN COORDINATES (ANGSTROEM)
---------------------------------
  C     -3.063259   -0.386627    0.010464
  C     -1.602248   -0.050836   -0.007335
  C     -1.175891    1.271020   -0.005208
  C      0.172958    1.568362   -0.001313
  C      1.140184    0.569908    0.000709
  C      0.722853   -0.762024   -0.002010
  C     -0.637938   -1.046072   -0.005696
  C      1.684841   -1.915649   -0.000184
  C      2.593167    0.947983    0.004453
  H     -3.626791    0.316706   -0.598408
  H     -3.234316   -1.393828   -0.360747
  H     -3.445433   -0.329460    1.029804
  H     -1.903578    2.070029   -0.007634
  H      0.485475    2.603465   -0.001092
  H     -0.949560   -2.082021   -0.008333
  H      1.500019   -2.553203   -0.863510
  H      2.717651   -1.587966   -0.027737
  H      1.536663   -2.518938    0.894486
  H      3.093544    0.551025    0.886477
  H      3.096627    0.558007   -0.878991
  H      2.699956    2.029699    0.008609

 Total Charge           Charge          ....    0
 Multiplicity           Mult            ....    1
 Number of Electrons    NEL             ....   66
 Basis Dimension        Dim             ....  150

ORBITAL ENERGIES
----------------

  NO   OCC          E(Eh)            E(eV)
   0   2.0000      -9.893226      -269.2084
   1   2.0000      -9.891896      -269.1722
   2   2.0000      -9.891671      -269.1660
   3   2.0000      -9.879351      -268.8308
   4   2.0000      -9.879193      -268.8265
   5   2.0000      -9.878754      -268.8146
   6   2.0000      -9.878010      -268.7943
   7   2.0000      -9.877078      -268.7690
   8   2.0000      -9.876592      -268.7557
   9   2.0000      -0.774807       -21.0836
  10   2.0000      -0.708306       -19.2740
  11   2.0000      -0.682507       -18.5720
  12   2.0000      -0.643082       -17.4992
  13   2.0000      -0.611483       -16.6393
  14   2.0000      -0.576149       -15.6778
  15   2.0000      -0.530026       -14.4227
  16   2.0000      -0.494351       -13.4520
  17   2.0000      -0.431169       -11.7327
  18   2.0000      -0.428094       -11.6490
  19   2.0000      -0.386521       -10.5178
  20   2.0000      -0.384942       -10.4748
  21   2.0000      -0.369633       -10.0582
  22   2.0000      -0.359993        -9.7959
  23   2.0000      -0.357855        -9.7377
  24   2.0000      -0.354206        -9.6384
  25   2.0000      -0.345224        -9.3940
  26   2.0000      -0.337044        -9.1714
  27   2.0000      -0.322687        -8.7807
  28   2.0000      -0.296041        -8.0557
  29   2.0000      -0.285915        -7.7801
  30   2.0000      -0.283852        -7.7240
  31   2.0000      -0.212618        -5.7856
  32   2.0000      -0.201351        -5.4790
  33   0.0000      -0.027616        -0.7515
  34   0.0000      -0.020157        -0.5485
  35   0.0000       0.046852         1.2749
  36   0.0000       0.055805         1.5185
  37   0.0000       0.065669         1.7869

MULLIKEN ATOMIC CHARGES
-----------------------
   0 C :   -0.222466
   1 C :    0.073872
   2 C :   -0.108465
   3 C :   -0.127572
   4 C :   -0.005573
   5 C :    0.001660
   6 C :   -0.199970
   7 C :   -0.228540
   8 C :   -0.233056
   9 H :    0.105960
  10 H :    0.101771
  11 H :    0.117136
  12 H :    0.027355
  13 H :    0.029082
  14 H :    0.014544
  15 H :    0.112659
  16 H :    0.098521
  17 H :    0.113248
  18 H :    0.115485
  19 H :    0.116259
  20 H :    0.098089
Sum of atomic charges:    0.0000000

LOEWDIN ATOMIC CHARGES
----------------------
   0 C :   -0.322786
   1 C :   -0.051765
   2 C :   -0.130330
   3 C :   -0.122925
   4 C :   -0.056466
   5 C :   -0.046302
   6 C :   -0.124414
   7 C :   -0.325856
   8 C :   -0.324918
   9 H :    0.126738
  10 H :    0.123902
  11 H :    0.132764
  12 H :    0.118331
  13 H :    0.118397
  14 H :    0.115855
  15 H :    0.132169
  16 H :    0.122477
  17 H :    0.132619
  18 H :    0.129323
  19 H :    0.129436
  20 H :    0.123751

  Mayer bond orders larger than 0.100000
B(  0-C ,  1-C ) :   1.0953 B(  0-C ,  9-H ) :   0.9408 B(  0-C , 10-H ) :   0.9442
B(  0-C , 11-H ) :   0.9328 B(  1-C ,  2-C ) :   1.3724 B(  1-C ,  6-C ) :   1.3796
B(  2-C ,  3-C ) :   1.3671 B(  2-C , 12-H ) :   0.9654 B(  3-C ,  4-C ) :   1.3811
B(  3-C , 13-H ) :   0.9554 B(  4-C ,  5-C ) :   1.4253 B(  4-C ,  8-C ) :   1.1198
B(  5-C ,  6-C ) :   1.3600 B(  5-C ,  7-C ) :   1.1200 B(  6-C , 14-H ) :   0.9635
B(  7-C , 15-H ) :   0.9358 B(  7-C , 16-H ) :   0.9296 B(  7-C , 17-H ) :   0.9354
B(  8-C , 18-H ) :   0.9278 B(  8-C , 19-H ) :   0.9274 B(  8-C , 20-H ) :   0.9377

Dispersion correction           -0.021150478
FINAL SINGLE POINT ENERGY      -349.375425036325

DIPOLE MOMENT
-------------

Method             : SCF
Type of density    : Electron Density
Multiplicity       :   1
Irrep              :   0
Energy             :  -349.4338585536337405 Eh
Relativity type    :
Basis              : AO
                                X                 Y                 Z
Electronic contribution:     -1.769940450       2.069258773      -0.043912416
Nuclear contribution   :      1.848432004      -2.192012149       0.068415965
                        -----------------------------------------
Total Dipole Moment    :      0.078491553      -0.122753376       0.024503548
                        -----------------------------------------
Magnitude (a.u.)       :      0.147748906
Magnitude (Debye)      :      0.375547873

Rotational constants in cm-1:             0.097826             0.043653             0.030700
Rotational constants in MHz :          2932.749397          1308.689378           920.366445

                             ****ORCA TERMINATED NORMALLY****
TOTAL RUN TIME: 0 days 0 hours 0 minutes 24 seconds 100 msec
