                         Program Version 6.0.1  -  RELEASE   -
|  1> ! pbe def2-sv(p) def2/J RI DEFGRID1 loosescf d4 GCP(DFT/SV(P)) printgap
|  2> %output
|  3>     printlevel normal
|  4> end
|  5> * xyz 0 1
|  6> C 2.5003912466 -3.3532462487 -0.0700706677
|  7> C 3.0516082378 -1.9589784851 0.1803340922
|  8> O 2.2038575121 -0.9582176377 -0.4142488847
|  9> C 2.3527140936 -0.7004856743 -1.7046250391
| 10> O 3.2092888654 -1.1953306012 -2.401026532
| 11> C 1.3434652186 0.3055607193 -2.2169326243
| 12> C 0.2463420341 0.632135721 -1.2154563046
| 13> H -0.4102641489 1.4124201484 -1.6168720773
| 14> C 0.7835939119 1.1314658898 0.111867771
| 15> O 0.3093670077 0.788559654 1.1755788336
| 16> O 1.748215564 1.9992158812 -0.0411333594
| 17> C 2.315619843 2.6035837754 1.1411040042
| 18> C 3.3383696268 1.6875512445 1.7915737609
| 19> S -0.8007607465 -0.8233439774 -0.8665267448
| 20> P -2.1496943144 0.0934516921 0.4914414696
| 21> S -2.4232024809 2.0243730156 0.3137584389
| 22> O -3.485598064 -0.7411772166 0.1520153106
| 23> C -4.1702729119 -0.5789213423 -1.0921095969
| 24> O -1.9455179405 -0.4115552274 1.9742874421
| 25> C -1.5302670404 -1.7536140526 2.2849418942
| 26> H 2.5337910251 -3.5812035217 -1.1326479764
| 27> H 3.1018386135 -4.0786610407 0.467498746
| 28> H 1.4696478104 -3.4158897957 0.2695873032
| 29> H 4.0564286881 -1.8571706125 -0.2392728434
| 30> H 3.0578530643 -1.7172807337 1.2437491417
| 31> H 0.9125619924 -0.0942758998 -3.136133789
| 32> H 1.884781296 1.2204442777 -2.4693339031
| 33> H 2.7745297367 3.5209690902 0.7729882383
| 34> H 1.5022455168 2.8353119706 1.8346913905
| 35> H 3.8019002899 2.2053524555 2.6246798947
| 36> H 2.8507634692 0.7889383447 2.1618493275
| 37> H 4.1035777389 1.4077709649 1.0723320605
| 38> H -4.3153342118 0.4820864058 -1.3031367784
| 39> H -5.1293352952 -1.0747745932 -0.9667547191
| 40> H -3.5976526063 -1.0440507584 -1.8945844368
| 41> H -1.6592169096 -1.8486414428 3.3599442576
| 42> H -0.4816364563 -1.8759570901 2.0135303112
| 43> H -2.1490332787 -2.4753416548 1.7536609184
| 44> *
| 45>
| 46>                          ****END OF INPUT****

CARTESIAN COORDINATES (ANGSTROEM)
---------------------------------
  C      2.500391   -3.353246   -0.070071
  C      3.051608   -1.958978    0.180334
  O      2.203858   -0.958218   -0.414249
  C      2.352714   -0.700486   -1.704625
  O      3.209289   -1.195331   -2.401027
  C      1.343465    0.305561   -2.216933
  C      0.246342    0.632136   -1.215456
  H     -0.410264    1.412420   -1.616872
  C      0.783594    1.131466    0.111868
  O      0.309367    0.788560    1.175579
  O      1.748216    1.999216   -0.041133
  C      2.315620    2.603584    1.141104
  C      3.338370    1.687551    1.791574
  S     -0.800761   -0.823344   -0.866527
  P     -2.149694    0.093452    0.491441
  S     -2.423202    2.024373    0.313758
  O     -3.485598   -0.741177    0.152015
  C     -4.170273   -0.578921   -1.092110
  O     -1.945518   -0.411555    1.974287
  C     -1.530267   -1.753614    2.284942
  H      2.533791   -3.581204   -1.132648
  H      3.101839   -4.078661    0.467499
  H      1.469648   -3.415890    0.269587
  H      4.056429   -1.857171   -0.239273
  H      3.057853   -1.717281    1.243749
  H      0.912562   -0.094276   -3.136134
  H      1.884781    1.220444   -2.469334
  H      2.774530    3.520969    0.772988
  H      1.502246    2.835312    1.834691
  H      3.801900    2.205352    2.624680
  H      2.850763    0.788938    2.161849
  H      4.103578    1.407771    1.072332
  H     -4.315334    0.482086   -1.303137
  H     -5.129335   -1.074775   -0.966755
  H     -3.597653   -1.044051   -1.894584
  H     -1.659217   -1.848641    3.359944
  H     -0.481636   -1.875957    2.013530
  H     -2.149033   -2.475342    1.753661

 Total Charge           Charge          ....    0
 Multiplicity           Mult            ....    1
 Number of Electrons    NEL             ....  174
 Basis Dimension        Dim             ....  316

ORBITAL ENERGIES
----------------

  NO   OCC          E(Eh)            E(eV)
   0   2.0000     -88.037900     -2395.6331
   1   2.0000     -87.971805     -2393.8345
   2   2.0000     -76.419016     -2079.4671
   3   2.0000     -18.817155      -512.0408
   4   2.0000     -18.814924      -511.9801
   5   2.0000     -18.782456      -511.0966
   6   2.0000     -18.778499      -510.9889
   7   2.0000     -18.746819      -510.1269
   8   2.0000     -18.744276      -510.0577
   9   2.0000     -10.021728      -272.7051
  10   2.0000     -10.020010      -272.6583
  11   2.0000      -9.956750      -270.9369
  12   2.0000      -9.956595      -270.9327
  13   2.0000      -9.948562      -270.7141
  14   2.0000      -9.944313      -270.5985
  15   2.0000      -9.934196      -270.3232
  16   2.0000      -9.922975      -270.0179
  17   2.0000      -9.894454      -269.2418
  18   2.0000      -9.892128      -269.1785
  19   2.0000      -7.682591      -209.0539
  20   2.0000      -7.617211      -207.2749
  21   2.0000      -6.415059      -174.5626
  22   2.0000      -5.710358      -155.3868
  23   2.0000      -5.707330      -155.3044
  24   2.0000      -5.699516      -155.0917
  25   2.0000      -5.646460      -153.6480
  26   2.0000      -5.637834      -153.4133
  27   2.0000      -5.636959      -153.3894
  28   2.0000      -4.637676      -126.1976
  29   2.0000      -4.637214      -126.1850
  30   2.0000      -4.635430      -126.1365
  31   2.0000      -1.027060       -27.9477
  32   2.0000      -1.019162       -27.7328
  33   2.0000      -0.975595       -26.5473
  34   2.0000      -0.931306       -25.3421
  35   2.0000      -0.926953       -25.2237
  36   2.0000      -0.923461       -25.1287
  37   2.0000      -0.771485       -20.9932
  38   2.0000      -0.714504       -19.4426
  39   2.0000      -0.712384       -19.3850
  40   2.0000      -0.690454       -18.7882
  41   2.0000      -0.661043       -17.9879
  42   2.0000      -0.628105       -17.0916
  43   2.0000      -0.624148       -16.9839
  44   2.0000      -0.612434       -16.6652
  45   2.0000      -0.603554       -16.4235
  46   2.0000      -0.574723       -15.6390
  47   2.0000      -0.512181       -13.9372
  48   2.0000      -0.507886       -13.8203
  49   2.0000      -0.500941       -13.6313
  50   2.0000      -0.488130       -13.2827
  51   2.0000      -0.469226       -12.7683
  52   2.0000      -0.465026       -12.6540
  53   2.0000      -0.448881       -12.2147
  54   2.0000      -0.441193       -12.0055
  55   2.0000      -0.432733       -11.7753
  56   2.0000      -0.426258       -11.5991
  57   2.0000      -0.422718       -11.5027
  58   2.0000      -0.408965       -11.1285
  59   2.0000      -0.407438       -11.0869
  60   2.0000      -0.405944       -11.0463
  61   2.0000      -0.399833       -10.8800
  62   2.0000      -0.394642       -10.7388
  63   2.0000      -0.390470       -10.6252
  64   2.0000      -0.382991       -10.4217
  65   2.0000      -0.371632       -10.1126
  66   2.0000      -0.366958        -9.9854
  67   2.0000      -0.361572        -9.8389
  68   2.0000      -0.351321        -9.5599
  69   2.0000      -0.346955        -9.4411
  70   2.0000      -0.337442        -9.1823
  71   2.0000      -0.331931        -9.0323
  72   2.0000      -0.329453        -8.9649
  73   2.0000      -0.314721        -8.5640
  74   2.0000      -0.306720        -8.3463
  75   2.0000      -0.303241        -8.2516
  76   2.0000      -0.291038        -7.9195
  77   2.0000      -0.287212        -7.8154
  78   2.0000      -0.274126        -7.4593
  79   2.0000      -0.269934        -7.3453
  80   2.0000      -0.262982        -7.1561
  81   2.0000      -0.250587        -6.8188
  82   2.0000      -0.234846        -6.3905
  83   2.0000      -0.230738        -6.2787
  84   2.0000      -0.218814        -5.9542
  85   2.0000      -0.193783        -5.2731
  86   2.0000      -0.186950        -5.0872
  87   0.0000      -0.042186        -1.1479
  88   0.0000      -0.029251        -0.7960
  89   0.0000      -0.028714        -0.7813
  90   0.0000       0.006484         0.1764
  91   0.0000       0.023039         0.6269

MULLIKEN ATOMIC CHARGES
-----------------------
   0 C :   -0.313138
   1 C :   -0.014394
   2 O :   -0.236792
   3 C :    0.111794
   4 O :   -0.198090
   5 C :   -0.105213
   6 C :   -0.289979
   7 H :    0.152927
   8 C :    0.234858
   9 O :   -0.192273
  10 O :   -0.230258
  11 C :   -0.008031
  12 C :   -0.321041
  13 S :   -0.104990
  14 P :    0.615706
  15 S :   -0.334331
  16 O :   -0.390133
  17 C :   -0.098029
  18 O :   -0.351411
  19 C :   -0.106286
  20 H :    0.129269
  21 H :    0.114196
  22 H :    0.122798
  23 H :    0.110529
  24 H :    0.109654
  25 H :    0.136178
  26 H :    0.143892
  27 H :    0.107133
  28 H :    0.122049
  29 H :    0.117428
  30 H :    0.136703
  31 H :    0.116567
  32 H :    0.113156
  33 H :    0.120474
  34 H :    0.107136
  35 H :    0.128515
  36 H :    0.127890
  37 H :    0.115535
Sum of atomic charges:    0.0000000

LOEWDIN ATOMIC CHARGES
----------------------
   0 C :   -0.356410
   1 C :   -0.109172
   2 O :   -0.049528
   3 C :    0.032508
   4 O :   -0.160952
   5 C :   -0.248485
   6 C :   -0.271786
   7 H :    0.145621
   8 C :    0.012218
   9 O :   -0.160744
  10 O :   -0.045030
  11 C :   -0.104071
  12 C :   -0.357943
  13 S :    0.091369
  14 P :    0.588042
  15 S :   -0.327914
  16 O :   -0.268999
  17 C :   -0.220974
  18 O :   -0.230982
  19 C :   -0.208451
  20 H :    0.131786
  21 H :    0.131475
  22 H :    0.125218
  23 H :    0.120874
  24 H :    0.118067
  25 H :    0.150359
  26 H :    0.158231
  27 H :    0.120474
  28 H :    0.127204
  29 H :    0.133253
  30 H :    0.129957
  31 H :    0.125030
  32 H :    0.108451
  33 H :    0.119820
  34 H :    0.103542
  35 H :    0.125456
  36 H :    0.111915
  37 H :    0.110571

  Mayer bond orders larger than 0.100000
B(  0-C ,  1-C ) :   1.1756 B(  0-C , 20-H ) :   0.9437 B(  0-C , 21-H ) :   0.9431
B(  0-C , 22-H ) :   0.9454 B(  1-C ,  2-O ) :   0.9093 B(  1-C , 23-H ) :   0.9161
B(  1-C , 24-H ) :   0.9299 B(  2-O ,  3-C ) :   1.2148 B(  3-C ,  4-O ) :   2.0556
B(  3-C ,  5-C ) :   1.0088 B(  5-C ,  6-C ) :   1.0609 B(  5-C , 25-H ) :   0.8973
B(  5-C , 26-H ) :   0.8774 B(  6-C ,  7-H ) :   0.8413 B(  6-C ,  8-C ) :   0.8783
B(  6-C , 13-S ) :   1.0315 B(  8-C ,  9-O ) :   1.9844 B(  8-C , 10-O ) :   1.2604
B( 10-O , 11-C ) :   0.9081 B( 11-C , 12-C ) :   1.1732 B( 11-C , 27-H ) :   0.9374
B( 11-C , 28-H ) :   0.9180 B( 12-C , 29-H ) :   0.9414 B( 12-C , 30-H ) :   0.9381
B( 12-C , 31-H ) :   0.9466 B( 13-S , 14-P ) :   0.9393 B( 13-S , 15-S ) :   0.1116
B( 14-P , 15-S ) :   1.6159 B( 14-P , 16-O ) :   1.0569 B( 14-P , 18-O ) :   1.1325
B( 16-O , 17-C ) :   0.9414 B( 17-C , 32-H ) :   0.9333 B( 17-C , 33-H ) :   0.9589
B( 17-C , 34-H ) :   0.9456 B( 18-O , 19-C ) :   0.9245 B( 19-C , 35-H ) :   0.9583
B( 19-C , 36-H ) :   0.9412 B( 19-C , 37-H ) :   0.9450

Dispersion correction           -0.053544137
FINAL SINGLE POINT ENERGY     -1979.016395886821

DIPOLE MOMENT
-------------

Method             : SCF
Type of density    : Electron Density
Multiplicity       :   1
Irrep              :   0
Energy             : -1979.1459647548249450 Eh
Relativity type    :
Basis              : AO
                                X                 Y                 Z
Electronic contribution:    -14.468192200       8.015612988      -3.850501204
Nuclear contribution   :     15.467138117      -8.747697987       4.101515491
                        -----------------------------------------
Total Dipole Moment    :      0.998945916      -0.732084999       0.251014287
                        -----------------------------------------
Magnitude (a.u.)       :      1.263665130
Magnitude (Debye)      :      3.211981500

Rotational constants in cm-1:             0.013774             0.007425             0.006514
Rotational constants in MHz :           412.925812           222.607648           195.277343

                             ****ORCA TERMINATED NORMALLY****
TOTAL RUN TIME: 0 days 0 hours 0 minutes 49 seconds 842 msec
