                         Program Version 6.0.0  -   RELEASE  -
|  1> ! wb97x-v def2-tzvp def2/J RIJCOSX DEFGRID2 scfconv7 GCP(DFT/TZ) printgap
|  2> %output
|  3>     printlevel normal
|  4> end
|  5> * xyz 0 1
|  6> C -0.6956947014008558 -1.2141009677298504 -7.733468957814932e-06
|  7> C 0.6956987344276777 -1.2141021873492168 -4.6570918089349336e-06
|  8> C 1.3713845891256393 2.74062613107244e-07 4.3856845118189337e-07
|  9> C 0.6957010174175734 1.2141038978979555 7.561244355733427e-08
| 10> C -0.6956923297995007 1.2141055231228484 -2.9922425021403916e-06
| 11> C -1.371378193215154 2.931253399832206e-06 -5.6727407879821e-06
| 12> Cl -3.130318184162068 4.681207144689716e-06 -1.0069576053191233e-05
| 13> Cl 3.1303244275603426 -1.3333710774568168e-06 6.592748029549337e-06
| 14> H -1.2372587337399794 -2.153058279147191 -1.0739045736102824e-05
| 15> H 1.2372609482860366 -2.1530605902373225 -5.276251005729406e-06
| 16> H 1.2372647567345323 2.1530610610640246 3.374038043981252e-06
| 17> H -1.2372545554097052 2.1530639847307116 -2.7638266199736443e-06
| 18> *
| 19>
| 20>                          ****END OF INPUT****

CARTESIAN COORDINATES (ANGSTROEM)
---------------------------------
  C     -0.695695   -1.214101   -0.000008
  C      0.695699   -1.214102   -0.000005
  C      1.371385    0.000000    0.000000
  C      0.695701    1.214104    0.000000
  C     -0.695692    1.214106   -0.000003
  C     -1.371378    0.000003   -0.000006
  Cl    -3.130318    0.000005   -0.000010
  Cl     3.130324   -0.000001    0.000007
  H     -1.237259   -2.153058   -0.000011
  H      1.237261   -2.153061   -0.000005
  H      1.237265    2.153061    0.000003
  H     -1.237255    2.153064   -0.000003

 Total Charge           Charge          ....    0
 Multiplicity           Mult            ....    1
 Number of Electrons    NEL             ....   74
 Basis Dimension        Dim             ....  284

ORBITAL ENERGIES
----------------

  NO   OCC          E(Eh)            E(eV)
   0   2.0000    -107.151608     -2915.7435
   1   2.0000    -107.151595     -2915.7431
   2   2.0000     -12.130163      -330.0785
   3   2.0000     -12.129879      -330.0708
   4   2.0000     -12.082936      -328.7934
   5   2.0000     -12.082376      -328.7782
   6   2.0000     -12.080749      -328.7339
   7   2.0000     -12.080515      -328.7275
   8   2.0000     -11.304740      -307.6176
   9   2.0000     -11.304655      -307.6153
  10   2.0000      -9.096284      -247.5225
  11   2.0000      -9.096135      -247.5184
  12   2.0000      -9.093724      -247.4528
  13   2.0000      -9.093619      -247.4500
  14   2.0000      -9.093546      -247.4480
  15   2.0000      -9.093384      -247.4436
  16   2.0000      -1.451279       -39.4913
  17   2.0000      -1.429606       -38.9015
  18   2.0000      -1.378634       -37.5145
  19   2.0000      -1.309451       -35.6320
  20   2.0000      -1.277799       -34.7707
  21   2.0000      -1.148987       -31.2655
  22   2.0000      -1.120195       -30.4821
  23   2.0000      -0.997893       -27.1540
  24   2.0000      -0.996194       -27.1078
  25   2.0000      -0.954824       -25.9821
  26   2.0000      -0.921960       -25.0878
  27   2.0000      -0.908242       -24.7145
  28   2.0000      -0.871414       -23.7124
  29   2.0000      -0.852472       -23.1969
  30   2.0000      -0.843663       -22.9572
  31   2.0000      -0.823013       -22.3953
  32   2.0000      -0.797983       -21.7142
  33   2.0000      -0.796630       -21.6774
  34   2.0000      -0.774108       -21.0645
  35   2.0000      -0.670364       -18.2415
  36   2.0000      -0.669060       -18.2060
  37   0.0000      -0.282323        -7.6824
  38   0.0000      -0.273276        -7.4362
  39   0.0000      -0.272904        -7.4261
  40   0.0000      -0.266509        -7.2521
  41   0.0000      -0.105374        -2.8674

MULLIKEN ATOMIC CHARGES
-----------------------
   0 C :   -0.164279
   1 C :   -0.164382
   2 C :    0.140749
   3 C :   -0.164295
   4 C :   -0.164356
   5 C :    0.140722
   6 Cl:   -0.094257
   7 Cl:   -0.094289
   8 H :    0.141125
   9 H :    0.141083
  10 H :    0.141093
  11 H :    0.141086
Sum of atomic charges:    0.0000000

LOEWDIN ATOMIC CHARGES
----------------------
   0 C :   -0.132352
   1 C :   -0.132352
   2 C :   -0.407255
   3 C :   -0.132350
   4 C :   -0.132352
   5 C :   -0.407255
   6 Cl:    0.370693
   7 Cl:    0.370693
   8 H :    0.150632
   9 H :    0.150632
  10 H :    0.150632
  11 H :    0.150632

  Mayer bond orders larger than 0.100000
B(  0-C ,  1-C ) :   1.3955 B(  0-C ,  5-C ) :   1.3944 B(  0-C ,  8-H ) :   0.9626
B(  1-C ,  2-C ) :   1.3942 B(  1-C ,  9-H ) :   0.9627 B(  2-C ,  3-C ) :   1.3943
B(  2-C ,  7-Cl) :   0.9875 B(  3-C ,  4-C ) :   1.3954 B(  3-C , 10-H ) :   0.9627
B(  4-C ,  5-C ) :   1.3943 B(  4-C , 11-H ) :   0.9627 B(  5-C ,  6-Cl) :   0.9875

FINAL SINGLE POINT ENERGY     -1151.348462586463

DIPOLE MOMENT
-------------

Method             : SCF
Type of density    : Electron Density
Multiplicity       :   1
Irrep              :   0
Energy             : -1151.3541379928628885 Eh
Relativity type    :
Basis              : AO
                                X                 Y                 Z
Electronic contribution:      0.000000480       0.000000322       0.000006481
Nuclear contribution   :     -0.000000100      -0.000000433      -0.000006984
                        -----------------------------------------
Total Dipole Moment    :      0.000000380      -0.000000111      -0.000000503
                        -----------------------------------------
Magnitude (a.u.)       :      0.000000640
Magnitude (Debye)      :      0.000001627

Rotational constants in cm-1:             0.188332             0.021910             0.019627
Rotational constants in MHz :          5646.059987           656.844793           588.393008

                             ****ORCA TERMINATED NORMALLY****
TOTAL RUN TIME: 0 days 0 hours 2 minutes 20 seconds 178 msec
