                         Program Version 6.0.0  -   RELEASE  -
|  1> ! wb97x-v def2-tzvp def2/J RIJCOSX DEFGRID2 scfconv7 GCP(DFT/TZ) printgap
|  2> %output
|  3>     printlevel normal
|  4> end
|  5> %cpcm
|  6>     smd true
|  7>     smdsolvent "water"
|  8> end
|  9> * xyz 0 1
| 10> C -0.6956947014008558 -1.2141009677298504 -7.733468957814932e-06
| 11> C 0.6956987344276777 -1.2141021873492168 -4.6570918089349336e-06
| 12> C 1.3713845891256393 2.74062613107244e-07 4.3856845118189337e-07
| 13> C 0.6957010174175734 1.2141038978979555 7.561244355733427e-08
| 14> C -0.6956923297995007 1.2141055231228484 -2.9922425021403916e-06
| 15> C -1.371378193215154 2.931253399832206e-06 -5.6727407879821e-06
| 16> Cl -3.130318184162068 4.681207144689716e-06 -1.0069576053191233e-05
| 17> Cl 3.1303244275603426 -1.3333710774568168e-06 6.592748029549337e-06
| 18> H -1.2372587337399794 -2.153058279147191 -1.0739045736102824e-05
| 19> H 1.2372609482860366 -2.1530605902373225 -5.276251005729406e-06
| 20> H 1.2372647567345323 2.1530610610640246 3.374038043981252e-06
| 21> H -1.2372545554097052 2.1530639847307116 -2.7638266199736443e-06
| 22> *
| 23>
| 24>                          ****END OF INPUT****

CARTESIAN COORDINATES (ANGSTROEM)
---------------------------------
  C     -0.695695   -1.214101   -0.000008
  C      0.695699   -1.214102   -0.000005
  C      1.371385    0.000000    0.000000
  C      0.695701    1.214104    0.000000
  C     -0.695692    1.214106   -0.000003
  C     -1.371378    0.000003   -0.000006
  Cl    -3.130318    0.000005   -0.000010
  Cl     3.130324   -0.000001    0.000007
  H     -1.237259   -2.153058   -0.000011
  H      1.237261   -2.153061   -0.000005
  H      1.237265    2.153061    0.000003
  H     -1.237255    2.153064   -0.000003

 Total Charge           Charge          ....    0
 Multiplicity           Mult            ....    1
 Number of Electrons    NEL             ....   74
 Basis Dimension        Dim             ....  284

ORBITAL ENERGIES
----------------

  NO   OCC          E(Eh)            E(eV)
   0   2.0000    -107.149958     -2915.6986
   1   2.0000    -107.149945     -2915.6982
   2   2.0000     -12.122670      -329.8746
   3   2.0000     -12.122388      -329.8670
   4   2.0000     -12.071903      -328.4932
   5   2.0000     -12.071356      -328.4783
   6   2.0000     -12.069719      -328.4337
   7   2.0000     -12.069497      -328.4277
   8   2.0000     -11.303195      -307.5756
   9   2.0000     -11.303108      -307.5732
  10   2.0000      -9.094724      -247.4800
  11   2.0000      -9.094564      -247.4757
  12   2.0000      -9.092218      -247.4118
  13   2.0000      -9.092112      -247.4089
  14   2.0000      -9.092041      -247.4070
  15   2.0000      -9.091893      -247.4030
  16   2.0000      -1.445896       -39.3448
  17   2.0000      -1.426945       -38.8291
  18   2.0000      -1.373321       -37.3700
  19   2.0000      -1.298884       -35.3444
  20   2.0000      -1.270983       -34.5852
  21   2.0000      -1.138981       -30.9932
  22   2.0000      -1.110930       -30.2299
  23   2.0000      -0.988624       -26.9018
  24   2.0000      -0.987413       -26.8689
  25   2.0000      -0.948656       -25.8142
  26   2.0000      -0.910961       -24.7885
  27   2.0000      -0.894966       -24.3533
  28   2.0000      -0.863719       -23.5030
  29   2.0000      -0.840561       -22.8728
  30   2.0000      -0.839374       -22.8405
  31   2.0000      -0.821607       -22.3571
  32   2.0000      -0.796409       -21.6714
  33   2.0000      -0.793923       -21.6037
  34   2.0000      -0.769515       -20.9396
  35   2.0000      -0.663157       -18.0454
  36   2.0000      -0.660014       -17.9599
  37   0.0000      -0.274929        -7.4812
  38   0.0000      -0.269431        -7.3316
  39   0.0000      -0.267746        -7.2857
  40   0.0000      -0.256214        -6.9719
  41   0.0000      -0.096276        -2.6198

MULLIKEN ATOMIC CHARGES
-----------------------
   0 C :   -0.197831
   1 C :   -0.197938
   2 C :    0.154733
   3 C :   -0.197835
   4 C :   -0.197916
   5 C :    0.154713
   6 Cl:   -0.113678
   7 Cl:   -0.113711
   8 H :    0.177393
   9 H :    0.177351
  10 H :    0.177363
  11 H :    0.177356
Sum of atomic charges:    0.0000000

LOEWDIN ATOMIC CHARGES
----------------------
   0 C :   -0.131073
   1 C :   -0.131073
   2 C :   -0.414370
   3 C :   -0.131071
   4 C :   -0.131073
   5 C :   -0.414370
   6 Cl:    0.354773
   7 Cl:    0.354773
   8 H :    0.160871
   9 H :    0.160871
  10 H :    0.160871
  11 H :    0.160871

  Mayer bond orders larger than 0.100000
B(  0-C ,  1-C ) :   1.4035 B(  0-C ,  5-C ) :   1.3630 B(  0-C ,  8-H ) :   0.9654
B(  1-C ,  2-C ) :   1.3628 B(  1-C ,  9-H ) :   0.9655 B(  2-C ,  3-C ) :   1.3629
B(  2-C ,  7-Cl) :   0.9768 B(  3-C ,  4-C ) :   1.4034 B(  3-C , 10-H ) :   0.9655
B(  4-C ,  5-C ) :   1.3629 B(  4-C , 11-H ) :   0.9655 B(  5-C ,  6-Cl) :   0.9768

FINAL SINGLE POINT ENERGY     -1151.350751610625

DIPOLE MOMENT
-------------

Method             : SCF
Type of density    : Electron Density
Multiplicity       :   1
Irrep              :   0
Energy             : -1151.3564270170247710 Eh
Relativity type    :
Basis              : AO
                                X                 Y                 Z
Electronic contribution:      0.000000428       0.000000062       0.000006273
Nuclear contribution   :     -0.000000100      -0.000000433      -0.000006984
                        -----------------------------------------
Total Dipole Moment    :      0.000000328      -0.000000371      -0.000000711
                        -----------------------------------------
Magnitude (a.u.)       :      0.000000867
Magnitude (Debye)      :      0.000002204

Rotational constants in cm-1:             0.188332             0.021910             0.019627
Rotational constants in MHz :          5646.059987           656.844793           588.393008

                             ****ORCA TERMINATED NORMALLY****
TOTAL RUN TIME: 0 days 0 hours 2 minutes 6 seconds 753 msec
