                         Program Version 6.0.0  -   RELEASE  -
|  1> ! pbe def2-sv(p) def2/J RI DEFGRID1 loosescf d4 GCP(DFT/SV(P)) printgap
|  2> %output
|  3>     printlevel normal
|  4> end
|  5> * xyz 0 1
|  6> C 4.3875470622 -1.7490376079 -2.0094120191
|  7> C 3.5751761589 -2.3779686068 -0.8972948693
|  8> O 3.22407268 -1.4381326142 0.1357363032
|  9> P 2.4653104627 -0.0615935171 -0.091423305
| 10> S 3.459213709 1.4741639492 -0.7865440581
| 11> O 1.9583908272 0.2705128601 1.3586090898
| 12> C 1.1615892892 -0.6221049616 2.1794550755
| 13> C 0.7664595042 0.1498154622 3.4210694658
| 14> S 0.7636515299 -0.6415632554 -1.2510076723
| 15> C 0.1389182731 1.0335179365 -1.4774961044
| 16> S -0.6976355196 1.677927598 -0.0062558143
| 17> P -2.4541808547 0.5214385871 -0.2428288588
| 18> S -3.1157583797 0.2434247553 -2.0604219442
| 19> O -3.5349682402 1.2773641856 0.634263961
| 20> C -3.295256848 1.8735425266 1.9313558479
| 21> C -3.1768260379 0.8322473932 3.0251794035
| 22> O -2.0491275791 -0.8182828155 0.5308860481
| 23> C -2.5763194762 -2.1225839509 0.2056488531
| 24> C -1.4842849118 -3.1559286923 0.3957103792
| 25> H 4.6924951222 -2.5169125657 -2.7130309461
| 26> H 3.7925325083 -1.0028540504 -2.534387829
| 27> H 5.2701889379 -1.2592858001 -1.6048757313
| 28> H 4.1476920051 -3.1403428465 -0.3661241227
| 29> H 2.6519967464 -2.8114709857 -1.2916136069
| 30> H 0.2839166431 -0.9303754417 1.6039636016
| 31> H 1.7666143477 -1.4983761831 2.4190177032
| 32> H 0.1987481194 1.0335417019 3.1413549959
| 33> H 0.1625874147 -0.4843948791 4.0622748698
| 34> H 1.6544072015 0.4658964549 3.9607723239
| 35> H -0.566772319 1.0069472526 -2.3085749067
| 36> H 0.9771436638 1.7014475548 -1.6841657294
| 37> H -2.392175681 2.487075833 1.8686234882
| 38> H -4.1646710176 2.5162520748 2.0798909043
| 39> H -2.3040919914 0.2064618325 2.8590051138
| 40> H -3.0766574451 1.3356184248 3.9817778035
| 41> H -4.06525346 0.2062710315 3.0427456768
| 42> H -3.4203450312 -2.3081357936 0.8741693587
| 43> H -2.9344932508 -2.1081457964 -0.8289166855
| 44> H -0.6537836942 -2.9496918577 -0.2744023035
| 45> H -1.1288779061 -3.1447310286 1.4220921195
| 46> H -1.8883277451 -4.1370173593 0.1683721694
| 47> *
| 48>
| 49>                          ****END OF INPUT****

CARTESIAN COORDINATES (ANGSTROEM)
---------------------------------
  C      4.387547   -1.749038   -2.009412
  C      3.575176   -2.377969   -0.897295
  O      3.224073   -1.438133    0.135736
  P      2.465310   -0.061594   -0.091423
  S      3.459214    1.474164   -0.786544
  O      1.958391    0.270513    1.358609
  C      1.161589   -0.622105    2.179455
  C      0.766460    0.149815    3.421069
  S      0.763652   -0.641563   -1.251008
  C      0.138918    1.033518   -1.477496
  S     -0.697636    1.677928   -0.006256
  P     -2.454181    0.521439   -0.242829
  S     -3.115758    0.243425   -2.060422
  O     -3.534968    1.277364    0.634264
  C     -3.295257    1.873543    1.931356
  C     -3.176826    0.832247    3.025179
  O     -2.049128   -0.818283    0.530886
  C     -2.576319   -2.122584    0.205649
  C     -1.484285   -3.155929    0.395710
  H      4.692495   -2.516913   -2.713031
  H      3.792533   -1.002854   -2.534388
  H      5.270189   -1.259286   -1.604876
  H      4.147692   -3.140343   -0.366124
  H      2.651997   -2.811471   -1.291614
  H      0.283917   -0.930375    1.603964
  H      1.766614   -1.498376    2.419018
  H      0.198748    1.033542    3.141355
  H      0.162587   -0.484395    4.062275
  H      1.654407    0.465896    3.960772
  H     -0.566772    1.006947   -2.308575
  H      0.977144    1.701448   -1.684166
  H     -2.392176    2.487076    1.868623
  H     -4.164671    2.516252    2.079891
  H     -2.304092    0.206462    2.859005
  H     -3.076657    1.335618    3.981778
  H     -4.065253    0.206271    3.042746
  H     -3.420345   -2.308136    0.874169
  H     -2.934493   -2.108146   -0.828917
  H     -0.653784   -2.949692   -0.274402
  H     -1.128878   -3.144731    1.422092
  H     -1.888328   -4.137017    0.168372

 Total Charge           Charge          ....    0
 Multiplicity           Mult            ....    1
 Number of Electrons    NEL             ....  202
 Basis Dimension        Dim             ....  334

ORBITAL ENERGIES
----------------

  NO   OCC          E(Eh)            E(eV)
   0   2.0000     -88.047125     -2395.8841
   1   2.0000     -88.045298     -2395.8344
   2   2.0000     -87.988745     -2394.2955
   3   2.0000     -87.982588     -2394.1279
   4   2.0000     -76.429955     -2079.7648
   5   2.0000     -76.427417     -2079.6957
   6   2.0000     -18.798206      -511.5252
   7   2.0000     -18.798195      -511.5249
   8   2.0000     -18.796694      -511.4841
   9   2.0000     -18.791180      -511.3340
  10   2.0000      -9.966289      -271.1965
  11   2.0000      -9.963082      -271.1092
  12   2.0000      -9.955526      -270.9036
  13   2.0000      -9.955091      -270.8918
  14   2.0000      -9.953241      -270.8415
  15   2.0000      -9.897118      -269.3143
  16   2.0000      -9.891241      -269.1544
  17   2.0000      -9.889905      -269.1180
  18   2.0000      -9.885352      -268.9941
  19   2.0000      -7.692174      -209.3147
  20   2.0000      -7.690031      -209.2564
  21   2.0000      -7.634039      -207.7328
  22   2.0000      -7.627922      -207.5663
  23   2.0000      -6.427867      -174.9111
  24   2.0000      -6.424694      -174.8248
  25   2.0000      -5.719923      -155.6470
  26   2.0000      -5.717616      -155.5842
  27   2.0000      -5.716812      -155.5624
  28   2.0000      -5.714584      -155.5017
  29   2.0000      -5.709123      -155.3531
  30   2.0000      -5.707308      -155.3038
  31   2.0000      -5.663033      -154.0990
  32   2.0000      -5.657010      -153.9351
  33   2.0000      -5.654798      -153.8749
  34   2.0000      -5.653907      -153.8506
  35   2.0000      -5.648537      -153.7045
  36   2.0000      -5.647884      -153.6867
  37   2.0000      -4.650755      -126.5535
  38   2.0000      -4.649394      -126.5165
  39   2.0000      -4.648215      -126.4844
  40   2.0000      -4.647595      -126.4675
  41   2.0000      -4.646728      -126.4439
  42   2.0000      -4.644639      -126.3871
  43   2.0000      -0.990768       -26.9602
  44   2.0000      -0.988654       -26.9027
  45   2.0000      -0.950195       -25.8561
  46   2.0000      -0.947030       -25.7700
  47   2.0000      -0.768798       -20.9201
  48   2.0000      -0.727726       -19.8024
  49   2.0000      -0.717430       -19.5223
  50   2.0000      -0.699686       -19.0394
  51   2.0000      -0.693098       -18.8602
  52   2.0000      -0.678854       -18.4725
  53   2.0000      -0.652320       -17.7505
  54   2.0000      -0.640768       -17.4362
  55   2.0000      -0.599209       -16.3053
  56   2.0000      -0.591599       -16.0982
  57   2.0000      -0.584032       -15.8923
  58   2.0000      -0.572572       -15.5805
  59   2.0000      -0.564169       -15.3518
  60   2.0000      -0.514078       -13.9888
  61   2.0000      -0.503578       -13.7030
  62   2.0000      -0.488141       -13.2830
  63   2.0000      -0.478338       -13.0162
  64   2.0000      -0.464634       -12.6433
  65   2.0000      -0.453560       -12.3420
  66   2.0000      -0.443326       -12.0635
  67   2.0000      -0.439306       -11.9541
  68   2.0000      -0.434335       -11.8189
  69   2.0000      -0.419284       -11.4093
  70   2.0000      -0.413025       -11.2390
  71   2.0000      -0.405114       -11.0237
  72   2.0000      -0.397752       -10.8234
  73   2.0000      -0.390803       -10.6343
  74   2.0000      -0.384139       -10.4530
  75   2.0000      -0.379856       -10.3364
  76   2.0000      -0.365233        -9.9385
  77   2.0000      -0.362353        -9.8601
  78   2.0000      -0.359310        -9.7773
  79   2.0000      -0.356655        -9.7051
  80   2.0000      -0.350965        -9.5502
  81   2.0000      -0.348744        -9.4898
  82   2.0000      -0.345126        -9.3913
  83   2.0000      -0.342937        -9.3318
  84   2.0000      -0.338387        -9.2080
  85   2.0000      -0.326118        -8.8741
  86   2.0000      -0.323174        -8.7940
  87   2.0000      -0.312663        -8.5080
  88   2.0000      -0.300000        -8.1634
  89   2.0000      -0.296293        -8.0626
  90   2.0000      -0.286579        -7.7982
  91   2.0000      -0.282260        -7.6807
  92   2.0000      -0.274346        -7.4653
  93   2.0000      -0.272837        -7.4243
  94   2.0000      -0.259895        -7.0721
  95   2.0000      -0.236731        -6.4418
  96   2.0000      -0.222888        -6.0651
  97   2.0000      -0.211537        -5.7562
  98   2.0000      -0.203871        -5.5476
  99   2.0000      -0.201033        -5.4704
 100   2.0000      -0.196661        -5.3514
 101   0.0000      -0.047023        -1.2796
 102   0.0000      -0.027413        -0.7459
 103   0.0000      -0.014357        -0.3907
 104   0.0000      -0.002751        -0.0749
 105   0.0000       0.007665         0.2086

MULLIKEN ATOMIC CHARGES
-----------------------
   0 C :   -0.309032
   1 C :   -0.015081
   2 O :   -0.382717
   3 P :    0.601304
   4 S :   -0.307408
   5 O :   -0.352541
   6 C :   -0.051822
   7 C :   -0.283182
   8 S :   -0.115120
   9 C :   -0.355829
  10 S :   -0.098883
  11 P :    0.621665
  12 S :   -0.312142
  13 O :   -0.365360
  14 C :   -0.030505
  15 C :   -0.323434
  16 O :   -0.382288
  17 C :   -0.015416
  18 C :   -0.296329
  19 H :    0.112265
  20 H :    0.128915
  21 H :    0.128285
  22 H :    0.110089
  23 H :    0.113996
  24 H :    0.142156
  25 H :    0.102501
  26 H :    0.121380
  27 H :    0.108337
  28 H :    0.121189
  29 H :    0.198204
  30 H :    0.194471
  31 H :    0.126340
  32 H :    0.118584
  33 H :    0.140503
  34 H :    0.116185
  35 H :    0.119903
  36 H :    0.099526
  37 H :    0.115310
  38 H :    0.129273
  39 H :    0.113002
  40 H :    0.113709
Sum of atomic charges:   -0.0000000

LOEWDIN ATOMIC CHARGES
----------------------
   0 C :   -0.368612
   1 C :   -0.114042
   2 O :   -0.245797
   3 P :    0.568364
   4 S :   -0.308472
   5 O :   -0.231596
   6 C :   -0.124351
   7 C :   -0.350812
   8 S :    0.071958
   9 C :   -0.484880
  10 S :    0.087440
  11 P :    0.569672
  12 S :   -0.303067
  13 O :   -0.242702
  14 C :   -0.113881
  15 C :   -0.366150
  16 O :   -0.254306
  17 C :   -0.119049
  18 C :   -0.357310
  19 H :    0.130623
  20 H :    0.123277
  21 H :    0.131456
  22 H :    0.121646
  23 H :    0.107731
  24 H :    0.107215
  25 H :    0.111396
  26 H :    0.124268
  27 H :    0.127050
  28 H :    0.129588
  29 H :    0.130651
  30 H :    0.129835
  31 H :    0.108169
  32 H :    0.125955
  33 H :    0.124911
  34 H :    0.132582
  35 H :    0.128496
  36 H :    0.111123
  37 H :    0.108618
  38 H :    0.120503
  39 H :    0.121562
  40 H :    0.130936

  Mayer bond orders larger than 0.100000
B(  0-C ,  1-C ) :   1.1666 B(  0-C , 19-H ) :   0.9348 B(  0-C , 20-H ) :   0.9316
B(  0-C , 21-H ) :   0.9434 B(  1-C ,  2-O ) :   0.9132 B(  1-C , 22-H ) :   0.9334
B(  1-C , 23-H ) :   0.9261 B(  2-O ,  3-P ) :   1.0905 B(  3-P ,  4-S ) :   1.6493
B(  3-P ,  5-O ) :   1.1468 B(  3-P ,  8-S ) :   0.9321 B(  4-S ,  8-S ) :   0.1075
B(  5-O ,  6-C ) :   0.8819 B(  6-C ,  7-C ) :   1.1735 B(  6-C , 24-H ) :   0.8954
B(  6-C , 25-H ) :   0.9264 B(  7-C , 26-H ) :   0.9418 B(  7-C , 27-H ) :   0.9376
B(  7-C , 28-H ) :   0.9471 B(  8-S ,  9-C ) :   1.0099 B(  9-C , 10-S ) :   1.0068
B(  9-C , 29-H ) :   0.8690 B(  9-C , 30-H ) :   0.8625 B( 10-S , 11-P ) :   0.9662
B( 10-S , 12-S ) :   0.1009 B( 11-P , 12-S ) :   1.6406 B( 11-P , 13-O ) :   1.1311
B( 11-P , 16-O ) :   1.0674 B( 13-O , 14-C ) :   0.9078 B( 14-C , 15-C ) :   1.1609
B( 14-C , 31-H ) :   0.9158 B( 14-C , 32-H ) :   0.9344 B( 15-C , 33-H ) :   0.9294
B( 15-C , 34-H ) :   0.9372 B( 15-C , 35-H ) :   0.9441 B( 16-O , 17-C ) :   0.9045
B( 17-C , 18-C ) :   1.1675 B( 17-C , 36-H ) :   0.9331 B( 17-C , 37-H ) :   0.9013
B( 18-C , 38-H ) :   0.9402 B( 18-C , 39-H ) :   0.9452 B( 18-C , 40-H ) :   0.9400

Dispersion correction           -0.065869336
FINAL SINGLE POINT ENERGY     -2929.516879540418

DIPOLE MOMENT
-------------

Method             : SCF
Type of density    : Electron Density
Multiplicity       :   1
Irrep              :   0
Energy             : -2929.6371035468869195 Eh
Relativity type    :
Basis              : AO
                                X                 Y                 Z
Electronic contribution:      0.578011709      15.163574673     -15.693952920
Nuclear contribution   :     -0.963221978     -16.761689282      17.229455473
                        -----------------------------------------
Total Dipole Moment    :     -0.385210269      -1.598114609       1.535502553
                        -----------------------------------------
Magnitude (a.u.)       :      2.249472237
Magnitude (Debye)      :      5.717704033

Rotational constants in cm-1:             0.011865             0.005166             0.004936
Rotational constants in MHz :           355.713333           154.877306           147.977040

                             ****ORCA TERMINATED NORMALLY****
TOTAL RUN TIME: 0 days 0 hours 0 minutes 21 seconds 986 msec
