                         Program Version 6.0.0  -   RELEASE  -
|  1> ! r2scan-3c def2/J RI DEFGRID2 scfconv6 printgap
|  2> %output
|  3>     printlevel normal
|  4> end
|  5> * xyz 0 1
|  6> C 5.4288012006 -0.2129512569 -0.8869089129
|  7> C 4.4469803644 -0.9387636193 0.0124853877
|  8> O 3.4438428144 -0.0334077496 0.5138530829
|  9> P 2.020273059 0.1244543723 -0.1799231886
| 10> S 2.0356546782 0.4649945388 -2.1139408231
| 11> O 1.363501141 1.214109326 0.7590725133
| 12> C 1.4528057002 2.6245080449 0.4804694759
| 13> C 2.8749683323 3.1297366541 0.586232094
| 14> S 1.070838894 -1.6460157009 0.4436027063
| 15> C -0.1569089117 -1.8909416912 -0.8891237142
| 16> S -1.8512047416 -1.9422760119 -0.2716162929
| 17> P -2.0569543169 0.1214811588 0.1953381188
| 18> S -1.3390992603 1.3733276501 -1.1292322919
| 19> O -1.3959258819 0.3381956358 1.6097487622
| 20> C -1.4519597519 -0.5595252454 2.747326922
| 21> C -2.8648827212 -0.9235999453 3.145981102
| 22> O -3.6059251252 0.3049217103 0.4919412636
| 23> C -4.5648783073 0.6027933366 -0.5372474464
| 24> C -4.7445684959 -0.5459970069 -1.5085512545
| 25> H 5.883964869 0.615946277 -0.3520817219
| 26> H 6.2023902511 -0.9050420989 -1.2031902749
| 27> H 4.9175288154 0.1724712741 -1.7665210694
| 28> H 4.9377402214 -1.3286298059 0.9060850338
| 29> H 3.9596206332 -1.7586946071 -0.5230134609
| 30> H 1.0434805044 2.8068758522 -0.5191807698
| 31> H 0.796406565 3.0767605983 1.2256755719
| 32> H 3.2948295693 2.8672190603 1.5537793192
| 33> H 3.4830858748 2.6796032442 -0.1977207016
| 34> H 2.8823010196 4.2083635225 0.4644107456
| 35> H 0.030870401 -2.859987319 -1.3437920247
| 36> H -0.043895166 -1.0832138222 -1.6181371699
| 37> H -0.8698744584 -1.4538164736 2.505880632
| 38> H -0.9421112505 0.0060096533 3.5288097989
| 39> H -3.3356240007 -1.5198568594 2.3672306271
| 40> H -2.8312009616 -1.5031196147 4.0634803882
| 41> H -3.4551516149 -0.0255342899 3.3078946713
| 42> H -5.4817176046 0.8092364648 0.0166197697
| 43> H -4.2377291448 1.5044395793 -1.0647254188
| 44> H -5.5735554861 -0.3250776113 -2.1732443953
| 45> H -3.8425435818 -0.6759681565 -2.1043452741
| 46> H -4.9473975252 -1.4690948413 -0.9717801571
| 47> *
| 48>
| 49>                          ****END OF INPUT****

CARTESIAN COORDINATES (ANGSTROEM)
---------------------------------
  C      5.428801   -0.212951   -0.886909
  C      4.446980   -0.938764    0.012485
  O      3.443843   -0.033408    0.513853
  P      2.020273    0.124454   -0.179923
  S      2.035655    0.464995   -2.113941
  O      1.363501    1.214109    0.759073
  C      1.452806    2.624508    0.480469
  C      2.874968    3.129737    0.586232
  S      1.070839   -1.646016    0.443603
  C     -0.156909   -1.890942   -0.889124
  S     -1.851205   -1.942276   -0.271616
  P     -2.056954    0.121481    0.195338
  S     -1.339099    1.373328   -1.129232
  O     -1.395926    0.338196    1.609749
  C     -1.451960   -0.559525    2.747327
  C     -2.864883   -0.923600    3.145981
  O     -3.605925    0.304922    0.491941
  C     -4.564878    0.602793   -0.537247
  C     -4.744568   -0.545997   -1.508551
  H      5.883965    0.615946   -0.352082
  H      6.202390   -0.905042   -1.203190
  H      4.917529    0.172471   -1.766521
  H      4.937740   -1.328630    0.906085
  H      3.959621   -1.758695   -0.523013
  H      1.043481    2.806876   -0.519181
  H      0.796407    3.076761    1.225676
  H      3.294830    2.867219    1.553779
  H      3.483086    2.679603   -0.197721
  H      2.882301    4.208364    0.464411
  H      0.030870   -2.859987   -1.343792
  H     -0.043895   -1.083214   -1.618137
  H     -0.869874   -1.453816    2.505881
  H     -0.942111    0.006010    3.528810
  H     -3.335624   -1.519857    2.367231
  H     -2.831201   -1.503120    4.063480
  H     -3.455152   -0.025534    3.307895
  H     -5.481718    0.809236    0.016620
  H     -4.237729    1.504440   -1.064725
  H     -5.573555   -0.325078   -2.173244
  H     -3.842544   -0.675968   -2.104345
  H     -4.947398   -1.469095   -0.971780

 Total Charge           Charge          ....    0
 Multiplicity           Mult            ....    1
 Number of Electrons    NEL             ....  202
 Basis Dimension        Dim             ....  539

ORBITAL ENERGIES
----------------

  NO   OCC          E(Eh)            E(eV)
   0   2.0000     -88.577295     -2410.3107
   1   2.0000     -88.573592     -2410.2100
   2   2.0000     -88.513929     -2408.5864
   3   2.0000     -88.511746     -2408.5270
   4   2.0000     -76.911552     -2092.8697
   5   2.0000     -76.908789     -2092.7945
   6   2.0000     -18.991358      -516.7811
   7   2.0000     -18.986880      -516.6593
   8   2.0000     -18.986363      -516.6452
   9   2.0000     -18.979716      -516.4643
  10   2.0000     -10.106230      -275.0045
  11   2.0000     -10.097917      -274.7783
  12   2.0000     -10.097598      -274.7696
  13   2.0000     -10.096275      -274.7336
  14   2.0000     -10.084917      -274.4245
  15   2.0000     -10.030452      -272.9425
  16   2.0000     -10.028098      -272.8784
  17   2.0000     -10.022780      -272.7337
  18   2.0000     -10.019987      -272.6577
  19   2.0000      -7.871836      -214.2036
  20   2.0000      -7.868225      -214.1053
  21   2.0000      -7.808696      -212.4854
  22   2.0000      -7.806677      -212.4305
  23   2.0000      -6.589815      -179.3180
  24   2.0000      -6.587104      -179.2442
  25   2.0000      -5.818715      -158.3353
  26   2.0000      -5.815476      -158.2471
  27   2.0000      -5.815006      -158.2344
  28   2.0000      -5.811998      -158.1525
  29   2.0000      -5.809119      -158.0742
  30   2.0000      -5.805446      -157.9742
  31   2.0000      -5.756349      -156.6382
  32   2.0000      -5.754461      -156.5869
  33   2.0000      -5.749167      -156.4428
  34   2.0000      -5.748512      -156.4250
  35   2.0000      -5.746892      -156.3809
  36   2.0000      -5.746583      -156.3725
  37   2.0000      -4.735565      -128.8613
  38   2.0000      -4.734891      -128.8429
  39   2.0000      -4.733202      -128.7970
  40   2.0000      -4.732487      -128.7775
  41   2.0000      -4.731982      -128.7638
  42   2.0000      -4.731017      -128.7375
  43   2.0000      -1.047535       -28.5049
  44   2.0000      -1.042965       -28.3805
  45   2.0000      -1.008106       -27.4320
  46   2.0000      -1.002503       -27.2795
  47   2.0000      -0.799369       -21.7519
  48   2.0000      -0.755131       -20.5482
  49   2.0000      -0.746095       -20.3023
  50   2.0000      -0.733437       -19.9578
  51   2.0000      -0.724339       -19.7103
  52   2.0000      -0.710013       -19.3204
  53   2.0000      -0.684013       -18.6130
  54   2.0000      -0.662651       -18.0317
  55   2.0000      -0.628880       -17.1127
  56   2.0000      -0.620795       -16.8927
  57   2.0000      -0.608185       -16.5496
  58   2.0000      -0.597730       -16.2651
  59   2.0000      -0.590460       -16.0672
  60   2.0000      -0.522018       -14.2048
  61   2.0000      -0.513257       -13.9664
  62   2.0000      -0.488904       -13.3037
  63   2.0000      -0.486016       -13.2252
  64   2.0000      -0.466175       -12.6853
  65   2.0000      -0.462786       -12.5931
  66   2.0000      -0.457576       -12.4513
  67   2.0000      -0.452024       -12.3002
  68   2.0000      -0.446729       -12.1561
  69   2.0000      -0.430804       -11.7228
  70   2.0000      -0.423976       -11.5370
  71   2.0000      -0.414192       -11.2707
  72   2.0000      -0.411124       -11.1872
  73   2.0000      -0.398892       -10.8544
  74   2.0000      -0.394122       -10.7246
  75   2.0000      -0.384717       -10.4687
  76   2.0000      -0.381082       -10.3698
  77   2.0000      -0.374833       -10.1997
  78   2.0000      -0.366178        -9.9642
  79   2.0000      -0.364517        -9.9190
  80   2.0000      -0.360458        -9.8086
  81   2.0000      -0.355857        -9.6834
  82   2.0000      -0.349477        -9.5097
  83   2.0000      -0.348060        -9.4712
  84   2.0000      -0.343141        -9.3373
  85   2.0000      -0.326263        -8.8781
  86   2.0000      -0.322098        -8.7647
  87   2.0000      -0.308649        -8.3988
  88   2.0000      -0.305781        -8.3207
  89   2.0000      -0.304934        -8.2977
  90   2.0000      -0.292151        -7.9498
  91   2.0000      -0.285569        -7.7707
  92   2.0000      -0.277823        -7.5599
  93   2.0000      -0.275477        -7.4961
  94   2.0000      -0.272081        -7.4037
  95   2.0000      -0.249391        -6.7863
  96   2.0000      -0.233580        -6.3560
  97   2.0000      -0.225015        -6.1230
  98   2.0000      -0.214453        -5.8356
  99   2.0000      -0.205790        -5.5998
 100   2.0000      -0.196478        -5.3464
 101   0.0000      -0.041737        -1.1357
 102   0.0000      -0.030242        -0.8229
 103   0.0000      -0.008558        -0.2329
 104   0.0000       0.016444         0.4475
 105   0.0000       0.020026         0.5449

MULLIKEN ATOMIC CHARGES
-----------------------
   0 C :   -0.461519
   1 C :   -0.129393
   2 O :   -0.288474
   3 P :    0.641050
   4 S :   -0.455756
   5 O :   -0.265962
   6 C :   -0.145685
   7 C :   -0.453739
   8 S :   -0.151242
   9 C :   -0.216295
  10 S :   -0.154969
  11 P :    0.651497
  12 S :   -0.428201
  13 O :   -0.256749
  14 C :   -0.137726
  15 C :   -0.440985
  16 O :   -0.281318
  17 C :   -0.166988
  18 C :   -0.456396
  19 H :    0.150872
  20 H :    0.143746
  21 H :    0.184395
  22 H :    0.148939
  23 H :    0.152780
  24 H :    0.180454
  25 H :    0.155465
  26 H :    0.155705
  27 H :    0.167052
  28 H :    0.146167
  29 H :    0.196342
  30 H :    0.219664
  31 H :    0.166816
  32 H :    0.153688
  33 H :    0.158875
  34 H :    0.148984
  35 H :    0.160807
  36 H :    0.147629
  37 H :    0.176773
  38 H :    0.148537
  39 H :    0.182548
  40 H :    0.152615
Sum of atomic charges:   -0.0000000

LOEWDIN ATOMIC CHARGES
----------------------
   0 C :   -0.403185
   1 C :    0.018487
   2 O :   -0.667136
   3 P :    0.368519
   4 S :   -0.124771
   5 O :   -0.662480
   6 C :    0.012978
   7 C :   -0.401323
   8 S :    0.159401
   9 C :   -0.412938
  10 S :    0.131240
  11 P :    0.383391
  12 S :   -0.075076
  13 O :   -0.651665
  14 C :    0.019041
  15 C :   -0.400577
  16 O :   -0.671041
  17 C :    0.020430
  18 C :   -0.408813
  19 H :    0.157285
  20 H :    0.157505
  21 H :    0.169208
  22 H :    0.177560
  23 H :    0.175912
  24 H :    0.184335
  25 H :    0.183067
  26 H :    0.160267
  27 H :    0.164761
  28 H :    0.158765
  29 H :    0.180475
  30 H :    0.203118
  31 H :    0.177860
  32 H :    0.183540
  33 H :    0.163131
  34 H :    0.159382
  35 H :    0.163732
  36 H :    0.179012
  37 H :    0.181506
  38 H :    0.159640
  39 H :    0.166971
  40 H :    0.158485

  Mayer bond orders larger than 0.100000
B(  0-C ,  1-C ) :   0.9494 B(  0-C , 19-H ) :   0.9743 B(  0-C , 20-H ) :   0.9646
B(  0-C , 21-H ) :   0.9585 B(  1-C ,  2-O ) :   0.7850 B(  1-C , 22-H ) :   0.9646
B(  1-C , 23-H ) :   0.9650 B(  2-O ,  3-P ) :   1.0495 B(  3-P ,  4-S ) :   1.7667
B(  3-P ,  5-O ) :   1.1847 B(  3-P ,  8-S ) :   1.1214 B(  5-O ,  6-C ) :   0.8026
B(  6-C ,  7-C ) :   0.9104 B(  6-C , 24-H ) :   0.9630 B(  6-C , 25-H ) :   0.9619
B(  7-C , 26-H ) :   0.9727 B(  7-C , 27-H ) :   0.9608 B(  7-C , 28-H ) :   0.9615
B(  8-S ,  9-C ) :   0.8885 B(  9-C , 10-S ) :   0.9092 B(  9-C , 29-H ) :   0.9125
B(  9-C , 30-H ) :   0.9048 B( 10-S , 11-P ) :   1.0097 B( 11-P , 12-S ) :   1.8154
B( 11-P , 13-O ) :   1.1491 B( 11-P , 16-O ) :   1.0502 B( 13-O , 14-C ) :   0.8112
B( 14-C , 15-C ) :   0.9160 B( 14-C , 31-H ) :   0.9607 B( 14-C , 32-H ) :   0.9587
B( 15-C , 33-H ) :   0.9624 B( 15-C , 34-H ) :   0.9583 B( 15-C , 35-H ) :   0.9705
B( 16-O , 17-C ) :   0.8143 B( 17-C , 18-C ) :   0.9099 B( 17-C , 36-H ) :   0.9616
B( 17-C , 37-H ) :   0.9669 B( 18-C , 38-H ) :   0.9577 B( 18-C , 39-H ) :   0.9628
B( 18-C , 40-H ) :   0.9693

Dispersion correction           -0.022347476
FINAL SINGLE POINT ENERGY     -2932.457920588035

DIPOLE MOMENT
-------------

Method             : SCF
Type of density    : Electron Density
Multiplicity       :   1
Irrep              :   0
Energy             : -2932.4821870595847031 Eh
Relativity type    :
Basis              : AO
                                X                 Y                 Z
Electronic contribution:     -2.104718889      -4.095079395      -4.756868933
Nuclear contribution   :      1.788031750       3.459461544       5.849957944
                        -----------------------------------------
Total Dipole Moment    :     -0.316687139      -0.635617851       1.093089011
                        -----------------------------------------
Magnitude (a.u.)       :      1.303512325
Magnitude (Debye)      :      3.313265022

Rotational constants in cm-1:             0.013798             0.005044             0.004921
Rotational constants in MHz :           413.638844           151.212043           147.539647

                             ****ORCA TERMINATED NORMALLY****
TOTAL RUN TIME: 0 days 0 hours 1 minutes 21 seconds 664 msec
