                         Program Version 6.0.0  -   RELEASE  -
|  1> ! r2scan-3c def2/J RI DEFGRID2 scfconv6 printgap
|  2> %output
|  3>     printlevel normal
|  4> end
|  5> %cpcm
|  6>     smd true
|  7>     smdsolvent "water"
|  8> end
|  9> * xyz 0 1
| 10> C 5.4288012006 -0.2129512569 -0.8869089129
| 11> C 4.4469803644 -0.9387636193 0.0124853877
| 12> O 3.4438428144 -0.0334077496 0.5138530829
| 13> P 2.020273059 0.1244543723 -0.1799231886
| 14> S 2.0356546782 0.4649945388 -2.1139408231
| 15> O 1.363501141 1.214109326 0.7590725133
| 16> C 1.4528057002 2.6245080449 0.4804694759
| 17> C 2.8749683323 3.1297366541 0.586232094
| 18> S 1.070838894 -1.6460157009 0.4436027063
| 19> C -0.1569089117 -1.8909416912 -0.8891237142
| 20> S -1.8512047416 -1.9422760119 -0.2716162929
| 21> P -2.0569543169 0.1214811588 0.1953381188
| 22> S -1.3390992603 1.3733276501 -1.1292322919
| 23> O -1.3959258819 0.3381956358 1.6097487622
| 24> C -1.4519597519 -0.5595252454 2.747326922
| 25> C -2.8648827212 -0.9235999453 3.145981102
| 26> O -3.6059251252 0.3049217103 0.4919412636
| 27> C -4.5648783073 0.6027933366 -0.5372474464
| 28> C -4.7445684959 -0.5459970069 -1.5085512545
| 29> H 5.883964869 0.615946277 -0.3520817219
| 30> H 6.2023902511 -0.9050420989 -1.2031902749
| 31> H 4.9175288154 0.1724712741 -1.7665210694
| 32> H 4.9377402214 -1.3286298059 0.9060850338
| 33> H 3.9596206332 -1.7586946071 -0.5230134609
| 34> H 1.0434805044 2.8068758522 -0.5191807698
| 35> H 0.796406565 3.0767605983 1.2256755719
| 36> H 3.2948295693 2.8672190603 1.5537793192
| 37> H 3.4830858748 2.6796032442 -0.1977207016
| 38> H 2.8823010196 4.2083635225 0.4644107456
| 39> H 0.030870401 -2.859987319 -1.3437920247
| 40> H -0.043895166 -1.0832138222 -1.6181371699
| 41> H -0.8698744584 -1.4538164736 2.505880632
| 42> H -0.9421112505 0.0060096533 3.5288097989
| 43> H -3.3356240007 -1.5198568594 2.3672306271
| 44> H -2.8312009616 -1.5031196147 4.0634803882
| 45> H -3.4551516149 -0.0255342899 3.3078946713
| 46> H -5.4817176046 0.8092364648 0.0166197697
| 47> H -4.2377291448 1.5044395793 -1.0647254188
| 48> H -5.5735554861 -0.3250776113 -2.1732443953
| 49> H -3.8425435818 -0.6759681565 -2.1043452741
| 50> H -4.9473975252 -1.4690948413 -0.9717801571
| 51> *
| 52>
| 53>                          ****END OF INPUT****

CARTESIAN COORDINATES (ANGSTROEM)
---------------------------------
  C      5.428801   -0.212951   -0.886909
  C      4.446980   -0.938764    0.012485
  O      3.443843   -0.033408    0.513853
  P      2.020273    0.124454   -0.179923
  S      2.035655    0.464995   -2.113941
  O      1.363501    1.214109    0.759073
  C      1.452806    2.624508    0.480469
  C      2.874968    3.129737    0.586232
  S      1.070839   -1.646016    0.443603
  C     -0.156909   -1.890942   -0.889124
  S     -1.851205   -1.942276   -0.271616
  P     -2.056954    0.121481    0.195338
  S     -1.339099    1.373328   -1.129232
  O     -1.395926    0.338196    1.609749
  C     -1.451960   -0.559525    2.747327
  C     -2.864883   -0.923600    3.145981
  O     -3.605925    0.304922    0.491941
  C     -4.564878    0.602793   -0.537247
  C     -4.744568   -0.545997   -1.508551
  H      5.883965    0.615946   -0.352082
  H      6.202390   -0.905042   -1.203190
  H      4.917529    0.172471   -1.766521
  H      4.937740   -1.328630    0.906085
  H      3.959621   -1.758695   -0.523013
  H      1.043481    2.806876   -0.519181
  H      0.796407    3.076761    1.225676
  H      3.294830    2.867219    1.553779
  H      3.483086    2.679603   -0.197721
  H      2.882301    4.208364    0.464411
  H      0.030870   -2.859987   -1.343792
  H     -0.043895   -1.083214   -1.618137
  H     -0.869874   -1.453816    2.505881
  H     -0.942111    0.006010    3.528810
  H     -3.335624   -1.519857    2.367231
  H     -2.831201   -1.503120    4.063480
  H     -3.455152   -0.025534    3.307895
  H     -5.481718    0.809236    0.016620
  H     -4.237729    1.504440   -1.064725
  H     -5.573555   -0.325078   -2.173244
  H     -3.842544   -0.675968   -2.104345
  H     -4.947398   -1.469095   -0.971780

 Total Charge           Charge          ....    0
 Multiplicity           Mult            ....    1
 Number of Electrons    NEL             ....  202
 Basis Dimension        Dim             ....  539

ORBITAL ENERGIES
----------------

  NO   OCC          E(Eh)            E(eV)
   0   2.0000     -88.580188     -2410.3894
   1   2.0000     -88.578531     -2410.3444
   2   2.0000     -88.524938     -2408.8860
   3   2.0000     -88.522038     -2408.8071
   4   2.0000     -76.918325     -2093.0540
   5   2.0000     -76.918007     -2093.0454
   6   2.0000     -18.994057      -516.8546
   7   2.0000     -18.993352      -516.8354
   8   2.0000     -18.992475      -516.8115
   9   2.0000     -18.990411      -516.7553
  10   2.0000     -10.105527      -274.9854
  11   2.0000     -10.091255      -274.5970
  12   2.0000     -10.089858      -274.5590
  13   2.0000     -10.089426      -274.5472
  14   2.0000     -10.086769      -274.4749
  15   2.0000     -10.019651      -272.6486
  16   2.0000     -10.018335      -272.6127
  17   2.0000     -10.017639      -272.5938
  18   2.0000     -10.016061      -272.5509
  19   2.0000      -7.874620      -214.2793
  20   2.0000      -7.873107      -214.2381
  21   2.0000      -7.820016      -212.7935
  22   2.0000      -7.817298      -212.7195
  23   2.0000      -6.596665      -179.5044
  24   2.0000      -6.596377      -179.4965
  25   2.0000      -5.821534      -158.4120
  26   2.0000      -5.819896      -158.3674
  27   2.0000      -5.818282      -158.3235
  28   2.0000      -5.816885      -158.2855
  29   2.0000      -5.811861      -158.1488
  30   2.0000      -5.810329      -158.1071
  31   2.0000      -5.767607      -156.9446
  32   2.0000      -5.764977      -156.8730
  33   2.0000      -5.760481      -156.7507
  34   2.0000      -5.759840      -156.7332
  35   2.0000      -5.757592      -156.6720
  36   2.0000      -5.757164      -156.6604
  37   2.0000      -4.742390      -129.0470
  38   2.0000      -4.741728      -129.0290
  39   2.0000      -4.741689      -129.0279
  40   2.0000      -4.741263      -129.0163
  41   2.0000      -4.740338      -128.9912
  42   2.0000      -4.740156      -128.9862
  43   2.0000      -1.052013       -28.6267
  44   2.0000      -1.050725       -28.5917
  45   2.0000      -1.012214       -27.5437
  46   2.0000      -1.010143       -27.4874
  47   2.0000      -0.801586       -21.8123
  48   2.0000      -0.755296       -20.5526
  49   2.0000      -0.744343       -20.2546
  50   2.0000      -0.726015       -19.7559
  51   2.0000      -0.722020       -19.6472
  52   2.0000      -0.711383       -19.3577
  53   2.0000      -0.689407       -18.7597
  54   2.0000      -0.669923       -18.2295
  55   2.0000      -0.631223       -17.1764
  56   2.0000      -0.621813       -16.9204
  57   2.0000      -0.604217       -16.4416
  58   2.0000      -0.595560       -16.2060
  59   2.0000      -0.590785       -16.0761
  60   2.0000      -0.522735       -14.2244
  61   2.0000      -0.511594       -13.9212
  62   2.0000      -0.490396       -13.3444
  63   2.0000      -0.486295       -13.2328
  64   2.0000      -0.468671       -12.7532
  65   2.0000      -0.463707       -12.6181
  66   2.0000      -0.456091       -12.4109
  67   2.0000      -0.452090       -12.3020
  68   2.0000      -0.443808       -12.0766
  69   2.0000      -0.429853       -11.6969
  70   2.0000      -0.423086       -11.5128
  71   2.0000      -0.414738       -11.2856
  72   2.0000      -0.409227       -11.1356
  73   2.0000      -0.401136       -10.9155
  74   2.0000      -0.392406       -10.6779
  75   2.0000      -0.386083       -10.5058
  76   2.0000      -0.381028       -10.3683
  77   2.0000      -0.372175       -10.1274
  78   2.0000      -0.364049        -9.9063
  79   2.0000      -0.359081        -9.7711
  80   2.0000      -0.353061        -9.6073
  81   2.0000      -0.352147        -9.5824
  82   2.0000      -0.351021        -9.5518
  83   2.0000      -0.343979        -9.3601
  84   2.0000      -0.342774        -9.3274
  85   2.0000      -0.326324        -8.8797
  86   2.0000      -0.321586        -8.7508
  87   2.0000      -0.308049        -8.3824
  88   2.0000      -0.304795        -8.2939
  89   2.0000      -0.302517        -8.2319
  90   2.0000      -0.297044        -8.0830
  91   2.0000      -0.288487        -7.8501
  92   2.0000      -0.283961        -7.7270
  93   2.0000      -0.277522        -7.5518
  94   2.0000      -0.275818        -7.5054
  95   2.0000      -0.253340        -6.8937
  96   2.0000      -0.240904        -6.5553
  97   2.0000      -0.235416        -6.4060
  98   2.0000      -0.225389        -6.1331
  99   2.0000      -0.215277        -5.8580
 100   2.0000      -0.207791        -5.6543
 101   0.0000      -0.046215        -1.2576
 102   0.0000      -0.036713        -0.9990
 103   0.0000      -0.012499        -0.3401
 104   0.0000       0.010255         0.2790
 105   0.0000       0.014233         0.3873

MULLIKEN ATOMIC CHARGES
-----------------------
   0 C :   -0.495861
   1 C :   -0.127584
   2 O :   -0.316209
   3 P :    0.672289
   4 S :   -0.508109
   5 O :   -0.297483
   6 C :   -0.144191
   7 C :   -0.496205
   8 S :   -0.148691
   9 C :   -0.216453
  10 S :   -0.148439
  11 P :    0.665766
  12 S :   -0.478774
  13 O :   -0.295443
  14 C :   -0.131047
  15 C :   -0.481772
  16 O :   -0.302690
  17 C :   -0.160915
  18 C :   -0.491707
  19 H :    0.166168
  20 H :    0.169026
  21 H :    0.173026
  22 H :    0.175767
  23 H :    0.164480
  24 H :    0.179932
  25 H :    0.177613
  26 H :    0.170844
  27 H :    0.168601
  28 H :    0.171661
  29 H :    0.238152
  30 H :    0.212781
  31 H :    0.174010
  32 H :    0.178473
  33 H :    0.165025
  34 H :    0.175240
  35 H :    0.171263
  36 H :    0.175173
  37 H :    0.178437
  38 H :    0.172835
  39 H :    0.175008
  40 H :    0.170004
Sum of atomic charges:   -0.0000000

LOEWDIN ATOMIC CHARGES
----------------------
   0 C :   -0.406608
   1 C :    0.023976
   2 O :   -0.680631
   3 P :    0.371991
   4 S :   -0.157154
   5 O :   -0.683545
   6 C :    0.013513
   7 C :   -0.403320
   8 S :    0.164130
   9 C :   -0.406860
  10 S :    0.143383
  11 P :    0.384621
  12 S :   -0.111958
  13 O :   -0.675993
  14 C :    0.024019
  15 C :   -0.401665
  16 O :   -0.679689
  17 C :    0.025369
  18 C :   -0.411315
  19 H :    0.161769
  20 H :    0.166969
  21 H :    0.162909
  22 H :    0.189103
  23 H :    0.180068
  24 H :    0.183303
  25 H :    0.190753
  26 H :    0.164331
  27 H :    0.163195
  28 H :    0.168515
  29 H :    0.197212
  30 H :    0.200176
  31 H :    0.181095
  32 H :    0.193396
  33 H :    0.163395
  34 H :    0.169814
  35 H :    0.165685
  36 H :    0.190747
  37 H :    0.181504
  38 H :    0.168446
  39 H :    0.161847
  40 H :    0.163506

  Mayer bond orders larger than 0.100000
B(  0-C ,  1-C ) :   0.9408 B(  0-C , 19-H ) :   0.9711 B(  0-C , 20-H ) :   0.9594
B(  0-C , 21-H ) :   0.9629 B(  1-C ,  2-O ) :   0.7710 B(  1-C , 22-H ) :   0.9539
B(  1-C , 23-H ) :   0.9583 B(  2-O ,  3-P ) :   1.0566 B(  3-P ,  4-S ) :   1.7170
B(  3-P ,  5-O ) :   1.1794 B(  3-P ,  8-S ) :   1.1472 B(  5-O ,  6-C ) :   0.7875
B(  6-C ,  7-C ) :   0.9073 B(  6-C , 24-H ) :   0.9592 B(  6-C , 25-H ) :   0.9502
B(  7-C , 26-H ) :   0.9709 B(  7-C , 27-H ) :   0.9601 B(  7-C , 28-H ) :   0.9547
B(  8-S ,  9-C ) :   0.8827 B(  9-C , 10-S ) :   0.9030 B(  9-C , 29-H ) :   0.8963
B(  9-C , 30-H ) :   0.9092 B( 10-S , 11-P ) :   1.0303 B( 11-P , 12-S ) :   1.7935
B( 11-P , 13-O ) :   1.1444 B( 11-P , 16-O ) :   1.0588 B( 13-O , 14-C ) :   0.7997
B( 14-C , 15-C ) :   0.9103 B( 14-C , 31-H ) :   0.9528 B( 14-C , 32-H ) :   0.9470
B( 15-C , 33-H ) :   0.9598 B( 15-C , 34-H ) :   0.9513 B( 15-C , 35-H ) :   0.9699
B( 16-O , 17-C ) :   0.8034 B( 17-C , 18-C ) :   0.8995 B( 17-C , 36-H ) :   0.9512
B( 17-C , 37-H ) :   0.9651 B( 18-C , 38-H ) :   0.9524 B( 18-C , 39-H ) :   0.9647
B( 18-C , 40-H ) :   0.9661

Dispersion correction           -0.022347476
FINAL SINGLE POINT ENERGY     -2932.466973558659

DIPOLE MOMENT
-------------

Method             : SCF
Type of density    : Electron Density
Multiplicity       :   1
Irrep              :   0
Energy             : -2932.4912400302087008 Eh
Relativity type    :
Basis              : AO
                                X                 Y                 Z
Electronic contribution:     -2.221566855      -4.635576505      -4.390120495
Nuclear contribution   :      1.788031750       3.459461544       5.849957944
                        -----------------------------------------
Total Dipole Moment    :     -0.433535105      -1.176114961       1.459837449
                        -----------------------------------------
Magnitude (a.u.)       :      1.924142528
Magnitude (Debye)      :      4.890781629

Rotational constants in cm-1:             0.013798             0.005044             0.004921
Rotational constants in MHz :           413.638844           151.212043           147.539647

                             ****ORCA TERMINATED NORMALLY****
TOTAL RUN TIME: 0 days 0 hours 1 minutes 52 seconds 264 msec
