                         Program Version 6.0.0  -   RELEASE  -
|  1> ! pbe def2-sv(p) def2/J RI DEFGRID1 loosescf d4 GCP(DFT/SV(P)) printgap
|  2> %output
|  3>     printlevel normal
|  4> end
|  5> * xyz 0 1
|  6> C 5.6988762078 -1.0780445967 -0.0970089988
|  7> C 4.9032454414 -0.7408783165 -1.3408119851
|  8> O 3.4990180253 -1.0333105651 -1.1854711299
|  9> P 2.569308743 -0.2224973976 -0.1921993195
| 10> S 2.9440131941 1.6998372754 -0.0452180045
| 11> O 2.7354202382 -1.0499237567 1.1561723931
| 12> C 2.3604626661 -0.5272863984 2.4415391549
| 13> C 0.8590595494 -0.3850284609 2.5846030643
| 14> S 0.7080586502 -0.8240372942 -1.0091489058
| 15> C 0.0523878869 0.8064410416 -1.4662842682
| 16> S -0.9457067047 1.5789467295 -0.166995544
| 17> P -2.58650373 0.256079756 -0.3261562686
| 18> S -3.1413017496 -0.2342463421 -2.1335238383
| 19> O -3.7623476935 0.9464979779 0.4779717656
| 20> C -3.6689808242 1.3018175473 1.8812664373
| 21> C -3.3390313992 2.7716939927 2.044385516
| 22> O -2.0521627321 -0.9450158662 0.5876565747
| 23> C -2.4475674892 -2.3082506359 0.3554921022
| 24> C -3.8733121888 -2.5506810006 0.8078339674
| 25> H 5.5038448654 -2.1032820499 0.2062785467
| 26> H 6.7574848512 -0.9565997767 -0.3046089227
| 27> H 5.4192043656 -0.409911999 0.7161947807
| 28> H 5.2025686986 -1.3545193311 -2.1915255838
| 29> H 5.0089866826 0.3196083188 -1.5912114261
| 30> H 2.765833716 -1.2533559673 3.1477518348
| 31> H 2.85046101 0.4421379947 2.5786514409
| 32> H 0.4932773573 0.3944758301 1.916982432
| 33> H 0.3640482911 -1.3204414161 2.3351109123
| 34> H 0.6189055612 -0.1099668024 3.6066457583
| 35> H -0.5728368708 0.6611027603 -2.3469571271
| 36> H 0.876075919 1.4906447746 -1.667015193
| 37> H -4.6579453152 1.0731697788 2.2822767239
| 38> H -2.9169024375 0.6698071734 2.3590940421
| 39> H -2.3485987678 2.9883710613 1.6491605675
| 40> H -4.0669663623 3.3774217602 1.5119103505
| 41> H -3.3642704679 3.0256588372 3.0994062517
| 42> H -2.3353597815 -2.5279281771 -0.7107706341
| 43> H -1.7304664179 -2.8987224599 0.9271759718
| 44> H -4.5517480669 -1.9270802631 0.2257777108
| 45> H -4.1300719385 -3.5932434092 0.6492552657
| 46> H -3.9846191214 -2.3076295034 1.8612787014
| 47> *
| 48>
| 49>                          ****END OF INPUT****

CARTESIAN COORDINATES (ANGSTROEM)
---------------------------------
  C      5.698876   -1.078045   -0.097009
  C      4.903245   -0.740878   -1.340812
  O      3.499018   -1.033311   -1.185471
  P      2.569309   -0.222497   -0.192199
  S      2.944013    1.699837   -0.045218
  O      2.735420   -1.049924    1.156172
  C      2.360463   -0.527286    2.441539
  C      0.859060   -0.385028    2.584603
  S      0.708059   -0.824037   -1.009149
  C      0.052388    0.806441   -1.466284
  S     -0.945707    1.578947   -0.166996
  P     -2.586504    0.256080   -0.326156
  S     -3.141302   -0.234246   -2.133524
  O     -3.762348    0.946498    0.477972
  C     -3.668981    1.301818    1.881266
  C     -3.339031    2.771694    2.044386
  O     -2.052163   -0.945016    0.587657
  C     -2.447567   -2.308251    0.355492
  C     -3.873312   -2.550681    0.807834
  H      5.503845   -2.103282    0.206279
  H      6.757485   -0.956600   -0.304609
  H      5.419204   -0.409912    0.716195
  H      5.202569   -1.354519   -2.191526
  H      5.008987    0.319608   -1.591211
  H      2.765834   -1.253356    3.147752
  H      2.850461    0.442138    2.578651
  H      0.493277    0.394476    1.916982
  H      0.364048   -1.320441    2.335111
  H      0.618906   -0.109967    3.606646
  H     -0.572837    0.661103   -2.346957
  H      0.876076    1.490645   -1.667015
  H     -4.657945    1.073170    2.282277
  H     -2.916902    0.669807    2.359094
  H     -2.348599    2.988371    1.649161
  H     -4.066966    3.377422    1.511910
  H     -3.364270    3.025659    3.099406
  H     -2.335360   -2.527928   -0.710771
  H     -1.730466   -2.898722    0.927176
  H     -4.551748   -1.927080    0.225778
  H     -4.130072   -3.593243    0.649255
  H     -3.984619   -2.307630    1.861279

 Total Charge           Charge          ....    0
 Multiplicity           Mult            ....    1
 Number of Electrons    NEL             ....  202
 Basis Dimension        Dim             ....  334

ORBITAL ENERGIES
----------------

  NO   OCC          E(Eh)            E(eV)
   0   2.0000     -88.042780     -2395.7658
   1   2.0000     -88.040260     -2395.6973
   2   2.0000     -87.994574     -2394.4541
   3   2.0000     -87.987503     -2394.2617
   4   2.0000     -76.427942     -2079.7100
   5   2.0000     -76.426539     -2079.6718
   6   2.0000     -18.797547      -511.5072
   7   2.0000     -18.793444      -511.3956
   8   2.0000     -18.792188      -511.3614
   9   2.0000     -18.789480      -511.2877
  10   2.0000      -9.962254      -271.0867
  11   2.0000      -9.952944      -270.8334
  12   2.0000      -9.952755      -270.8282
  13   2.0000      -9.952301      -270.8159
  14   2.0000      -9.950790      -270.7748
  15   2.0000      -9.892173      -269.1797
  16   2.0000      -9.886356      -269.0214
  17   2.0000      -9.885404      -268.9955
  18   2.0000      -9.880570      -268.8640
  19   2.0000      -7.687483      -209.1870
  20   2.0000      -7.685489      -209.1328
  21   2.0000      -7.639399      -207.8786
  22   2.0000      -7.632743      -207.6975
  23   2.0000      -6.425732      -174.8531
  24   2.0000      -6.424545      -174.8208
  25   2.0000      -5.715199      -155.5185
  26   2.0000      -5.713378      -155.4689
  27   2.0000      -5.712122      -155.4348
  28   2.0000      -5.710155      -155.3812
  29   2.0000      -5.704491      -155.2271
  30   2.0000      -5.702219      -155.1653
  31   2.0000      -5.668137      -154.2378
  32   2.0000      -5.661803      -154.0655
  33   2.0000      -5.660140      -154.0202
  34   2.0000      -5.659658      -154.0071
  35   2.0000      -5.653314      -153.8345
  36   2.0000      -5.652758      -153.8194
  37   2.0000      -4.647997      -126.4784
  38   2.0000      -4.647492      -126.4647
  39   2.0000      -4.647407      -126.4624
  40   2.0000      -4.646526      -126.4384
  41   2.0000      -4.645889      -126.4211
  42   2.0000      -4.645032      -126.3978
  43   2.0000      -0.988036       -26.8858
  44   2.0000      -0.987314       -26.8662
  45   2.0000      -0.946957       -25.7680
  46   2.0000      -0.946151       -25.7461
  47   2.0000      -0.763211       -20.7680
  48   2.0000      -0.724133       -19.7047
  49   2.0000      -0.710885       -19.3442
  50   2.0000      -0.693528       -18.8718
  51   2.0000      -0.687239       -18.7007
  52   2.0000      -0.675204       -18.3732
  53   2.0000      -0.653838       -17.7918
  54   2.0000      -0.640335       -17.4244
  55   2.0000      -0.604464       -16.4483
  56   2.0000      -0.591323       -16.0907
  57   2.0000      -0.581858       -15.8332
  58   2.0000      -0.572899       -15.5894
  59   2.0000      -0.558045       -15.1852
  60   2.0000      -0.502929       -13.6854
  61   2.0000      -0.493975       -13.4417
  62   2.0000      -0.481090       -13.0911
  63   2.0000      -0.473352       -12.8806
  64   2.0000      -0.458786       -12.4842
  65   2.0000      -0.449419       -12.2293
  66   2.0000      -0.440542       -11.9878
  67   2.0000      -0.438409       -11.9297
  68   2.0000      -0.430981       -11.7276
  69   2.0000      -0.415475       -11.3056
  70   2.0000      -0.406994       -11.0749
  71   2.0000      -0.400821       -10.9069
  72   2.0000      -0.394549       -10.7362
  73   2.0000      -0.388525       -10.5723
  74   2.0000      -0.380838       -10.3631
  75   2.0000      -0.374910       -10.2018
  76   2.0000      -0.370999       -10.0954
  77   2.0000      -0.360297        -9.8042
  78   2.0000      -0.358101        -9.7444
  79   2.0000      -0.353679        -9.6241
  80   2.0000      -0.349989        -9.5237
  81   2.0000      -0.347201        -9.4478
  82   2.0000      -0.345009        -9.3882
  83   2.0000      -0.340541        -9.2666
  84   2.0000      -0.337592        -9.1863
  85   2.0000      -0.321073        -8.7368
  86   2.0000      -0.313817        -8.5394
  87   2.0000      -0.306034        -8.3276
  88   2.0000      -0.296395        -8.0653
  89   2.0000      -0.285947        -7.7810
  90   2.0000      -0.282485        -7.6868
  91   2.0000      -0.274959        -7.4820
  92   2.0000      -0.273752        -7.4492
  93   2.0000      -0.271508        -7.3881
  94   2.0000      -0.261127        -7.1056
  95   2.0000      -0.228684        -6.2228
  96   2.0000      -0.219321        -5.9680
  97   2.0000      -0.215345        -5.8598
  98   2.0000      -0.208720        -5.6796
  99   2.0000      -0.206194        -5.6108
 100   2.0000      -0.201545        -5.4843
 101   0.0000      -0.044059        -1.1989
 102   0.0000      -0.027373        -0.7449
 103   0.0000      -0.007914        -0.2153
 104   0.0000       0.005110         0.1391
 105   0.0000       0.010882         0.2961

MULLIKEN ATOMIC CHARGES
-----------------------
   0 C :   -0.307856
   1 C :   -0.002705
   2 O :   -0.366087
   3 P :    0.613625
   4 S :   -0.336259
   5 O :   -0.371900
   6 C :   -0.001534
   7 C :   -0.338937
   8 S :   -0.071437
   9 C :   -0.351306
  10 S :   -0.096366
  11 P :    0.616816
  12 S :   -0.309707
  13 O :   -0.365914
  14 C :   -0.032955
  15 C :   -0.298681
  16 O :   -0.378893
  17 C :   -0.009520
  18 C :   -0.310861
  19 H :    0.118420
  20 H :    0.112305
  21 H :    0.121987
  22 H :    0.107785
  23 H :    0.111493
  24 H :    0.102720
  25 H :    0.108739
  26 H :    0.147261
  27 H :    0.121916
  28 H :    0.104823
  29 H :    0.194594
  30 H :    0.192943
  31 H :    0.112656
  32 H :    0.114171
  33 H :    0.136843
  34 H :    0.125627
  35 H :    0.112788
  36 H :    0.114223
  37 H :    0.106136
  38 H :    0.129195
  39 H :    0.114117
  40 H :    0.109738
Sum of atomic charges:   -0.0000000

LOEWDIN ATOMIC CHARGES
----------------------
   0 C :   -0.364650
   1 C :   -0.115297
   2 O :   -0.244217
   3 P :    0.573192
   4 S :   -0.317424
   5 O :   -0.243682
   6 C :   -0.118384
   7 C :   -0.374407
   8 S :    0.095918
   9 C :   -0.482399
  10 S :    0.097806
  11 P :    0.569521
  12 S :   -0.305182
  13 O :   -0.241633
  14 C :   -0.117473
  15 C :   -0.360301
  16 O :   -0.249589
  17 C :   -0.123037
  18 C :   -0.364925
  19 H :    0.127238
  20 H :    0.130445
  21 H :    0.122529
  22 H :    0.120337
  23 H :    0.111259
  24 H :    0.117328
  25 H :    0.109182
  26 H :    0.113468
  27 H :    0.124525
  28 H :    0.127651
  29 H :    0.130579
  30 H :    0.129538
  31 H :    0.122042
  32 H :    0.111254
  33 H :    0.120644
  34 H :    0.131830
  35 H :    0.131782
  36 H :    0.109506
  37 H :    0.116178
  38 H :    0.125554
  39 H :    0.131674
  40 H :    0.121622

  Mayer bond orders larger than 0.100000
B(  0-C ,  1-C ) :   1.1628 B(  0-C , 19-H ) :   0.9459 B(  0-C , 20-H ) :   0.9384
B(  0-C , 21-H ) :   0.9385 B(  1-C ,  2-O ) :   0.9116 B(  1-C , 22-H ) :   0.9354
B(  1-C , 23-H ) :   0.9190 B(  2-O ,  3-P ) :   1.1355 B(  3-P ,  4-S ) :   1.5874
B(  3-P ,  5-O ) :   1.1056 B(  3-P ,  8-S ) :   0.9633 B(  4-S ,  8-S ) :   0.1141
B(  5-O ,  6-C ) :   0.9105 B(  6-C ,  7-C ) :   1.1629 B(  6-C , 24-H ) :   0.9336
B(  6-C , 25-H ) :   0.9163 B(  7-C , 26-H ) :   0.9208 B(  7-C , 27-H ) :   0.9416
B(  7-C , 28-H ) :   0.9370 B(  8-S ,  9-C ) :   1.0124 B(  9-C , 10-S ) :   1.0049
B(  9-C , 29-H ) :   0.8733 B(  9-C , 30-H ) :   0.8722 B( 10-S , 11-P ) :   0.9624
B( 10-S , 12-S ) :   0.1005 B( 11-P , 12-S ) :   1.6355 B( 11-P , 13-O ) :   1.1278
B( 11-P , 16-O ) :   1.0711 B( 13-O , 14-C ) :   0.8972 B( 14-C , 15-C ) :   1.1681
B( 14-C , 31-H ) :   0.9335 B( 14-C , 32-H ) :   0.9147 B( 15-C , 33-H ) :   0.9342
B( 15-C , 34-H ) :   0.9456 B( 15-C , 35-H ) :   0.9383 B( 16-O , 17-C ) :   0.9058
B( 17-C , 18-C ) :   1.1616 B( 17-C , 36-H ) :   0.9120 B( 17-C , 37-H ) :   0.9307
B( 18-C , 38-H ) :   0.9357 B( 18-C , 39-H ) :   0.9404 B( 18-C , 40-H ) :   0.9476

Dispersion correction           -0.064813683
FINAL SINGLE POINT ENERGY     -2929.522049368299

DIPOLE MOMENT
-------------

Method             : SCF
Type of density    : Electron Density
Multiplicity       :   1
Irrep              :   0
Energy             : -2929.6425083830649783 Eh
Relativity type    :
Basis              : AO
                                X                 Y                 Z
Electronic contribution:     -0.803488945       5.413957714     -17.924278390
Nuclear contribution   :      1.160829162      -6.054625670      19.583786185
                        -----------------------------------------
Total Dipole Moment    :      0.357340218      -0.640667956       1.659507795
                        -----------------------------------------
Magnitude (a.u.)       :      1.814418249
Magnitude (Debye)      :      4.611884677

Rotational constants in cm-1:             0.013598             0.004389             0.004249
Rotational constants in MHz :           407.651409           131.582634           127.378335

                             ****ORCA TERMINATED NORMALLY****
TOTAL RUN TIME: 0 days 0 hours 0 minutes 21 seconds 111 msec
