                         Program Version 6.0.0  -   RELEASE  -
|  1> ! pbe def2-sv(p) def2/J RI DEFGRID1 loosescf d4 GCP(DFT/SV(P)) printgap
|  2> %output
|  3>     printlevel normal
|  4> end
|  5> * xyz 0 1
|  6> C 3.2098490661 -1.2960407258 -2.9314632042
|  7> C 3.9707806383 -0.4349828098 -1.9437430637
|  8> O 3.4734060014 -0.5983066267 -0.6084114802
|  9> P 2.0353052912 -0.0702266924 -0.1667774637
| 10> S 1.6216398881 1.6750014572 -0.9719753181
| 11> O 2.1295777788 -0.1677465104 1.4096594537
| 12> C 2.5720147809 0.9381965882 2.2216795219
| 13> C 4.0295105096 1.2661828984 1.9826756213
| 14> S 0.844770869 -1.7844168126 -0.5431799644
| 15> C -0.2740047562 -1.9475395612 0.8909117319
| 16> S -2.0147630699 -1.7091227082 0.4655861145
| 17> P -1.9294617642 0.4021036885 0.2602105825
| 18> S -0.8533636481 1.3206150456 1.6144299324
| 19> O -3.4436276915 0.8721438519 0.2023759647
| 20> C -4.2121209475 1.1749435503 1.3800782107
| 21> C -4.4725676008 -0.0514658641 2.2306276135
| 22> O -1.4102426007 0.6854467723 -1.198380979
| 23> C -1.7459743361 -0.0401835847 -2.4076015669
| 24> C -3.2358170045 -0.1225141114 -2.6531834186
| 25> H 2.1703780698 -0.9683662412 -2.974042877
| 26> H 3.6525677439 -1.1970848728 -3.9171903393
| 27> H 3.2332579747 -2.3380540354 -2.6235081611
| 28> H 3.8914559444 0.6231828638 -2.2156264533
| 29> H 5.0197223148 -0.7254203836 -1.8745438627
| 30> H 1.9323751871 1.801412627 2.0094312817
| 31> H 2.3899713724 0.5977828184 3.2420994561
| 32> H 4.6396400207 0.3757687995 2.1100114941
| 33> H 4.1619114923 1.6447456259 0.9697516172
| 34> H 4.3441041587 2.0285403282 2.6883736144
| 35> H 0.0157113372 -1.2254012561 1.6540874355
| 36> H -0.1801221444 -2.9690317633 1.248753418
| 37> H -3.6769189631 1.9365417447 1.9561094864
| 38> H -5.1373897609 1.5942768682 0.9824659835
| 39> H -5.1681620666 0.206129376 3.0228351121
| 40> H -4.8932902146 -0.850556537 1.6257880579
| 41> H -3.5432677977 -0.3997897954 2.6781468746
| 42> H -1.235535183 0.5343454333 -3.1827286905
| 43> H -1.3029672695 -1.0386205286 -2.3392303649
| 44> H -3.7121834029 -0.7297198124 -1.8861710105
| 45> H -3.6752223398 0.8715248505 -2.6408015445
| 46> H -3.4052776766 -0.5795287198 -3.6232678449
| 47> *
| 48>
| 49>                          ****END OF INPUT****

CARTESIAN COORDINATES (ANGSTROEM)
---------------------------------
  C      3.209849   -1.296041   -2.931463
  C      3.970781   -0.434983   -1.943743
  O      3.473406   -0.598307   -0.608411
  P      2.035305   -0.070227   -0.166777
  S      1.621640    1.675001   -0.971975
  O      2.129578   -0.167747    1.409659
  C      2.572015    0.938197    2.221680
  C      4.029511    1.266183    1.982676
  S      0.844771   -1.784417   -0.543180
  C     -0.274005   -1.947540    0.890912
  S     -2.014763   -1.709123    0.465586
  P     -1.929462    0.402104    0.260211
  S     -0.853364    1.320615    1.614430
  O     -3.443628    0.872144    0.202376
  C     -4.212121    1.174944    1.380078
  C     -4.472568   -0.051466    2.230628
  O     -1.410243    0.685447   -1.198381
  C     -1.745974   -0.040184   -2.407602
  C     -3.235817   -0.122514   -2.653183
  H      2.170378   -0.968366   -2.974043
  H      3.652568   -1.197085   -3.917190
  H      3.233258   -2.338054   -2.623508
  H      3.891456    0.623183   -2.215626
  H      5.019722   -0.725420   -1.874544
  H      1.932375    1.801413    2.009431
  H      2.389971    0.597783    3.242099
  H      4.639640    0.375769    2.110011
  H      4.161911    1.644746    0.969752
  H      4.344104    2.028540    2.688374
  H      0.015711   -1.225401    1.654087
  H     -0.180122   -2.969032    1.248753
  H     -3.676919    1.936542    1.956109
  H     -5.137390    1.594277    0.982466
  H     -5.168162    0.206129    3.022835
  H     -4.893290   -0.850557    1.625788
  H     -3.543268   -0.399790    2.678147
  H     -1.235535    0.534345   -3.182729
  H     -1.302967   -1.038621   -2.339230
  H     -3.712183   -0.729720   -1.886171
  H     -3.675222    0.871525   -2.640802
  H     -3.405278   -0.579529   -3.623268

 Total Charge           Charge          ....    0
 Multiplicity           Mult            ....    1
 Number of Electrons    NEL             ....  202
 Basis Dimension        Dim             ....  334

ORBITAL ENERGIES
----------------

  NO   OCC          E(Eh)            E(eV)
   0   2.0000     -88.044729     -2395.8189
   1   2.0000     -88.037881     -2395.6325
   2   2.0000     -87.981444     -2394.0968
   3   2.0000     -87.975500     -2393.9351
   4   2.0000     -76.424791     -2079.6243
   5   2.0000     -76.418833     -2079.4622
   6   2.0000     -18.793369      -511.3936
   7   2.0000     -18.786012      -511.1934
   8   2.0000     -18.785642      -511.1833
   9   2.0000     -18.781680      -511.0755
  10   2.0000      -9.956904      -270.9411
  11   2.0000      -9.952890      -270.8319
  12   2.0000      -9.948500      -270.7125
  13   2.0000      -9.945669      -270.6354
  14   2.0000      -9.943851      -270.5859
  15   2.0000      -9.884939      -268.9829
  16   2.0000      -9.883764      -268.9509
  17   2.0000      -9.883171      -268.9348
  18   2.0000      -9.876935      -268.7651
  19   2.0000      -7.689775      -209.2494
  20   2.0000      -7.682956      -209.0639
  21   2.0000      -7.626417      -207.5254
  22   2.0000      -7.620353      -207.3604
  23   2.0000      -6.422061      -174.7532
  24   2.0000      -6.416311      -174.5967
  25   2.0000      -5.717508      -155.5813
  26   2.0000      -5.714199      -155.4913
  27   2.0000      -5.711226      -155.4104
  28   2.0000      -5.707211      -155.3011
  29   2.0000      -5.706967      -155.2945
  30   2.0000      -5.699738      -155.0978
  31   2.0000      -5.655273      -153.8878
  32   2.0000      -5.649333      -153.7262
  33   2.0000      -5.647043      -153.6639
  34   2.0000      -5.646576      -153.6511
  35   2.0000      -5.641248      -153.5062
  36   2.0000      -5.640234      -153.4786
  37   2.0000      -4.644817      -126.3919
  38   2.0000      -4.643944      -126.3681
  39   2.0000      -4.642284      -126.3230
  40   2.0000      -4.638847      -126.2294
  41   2.0000      -4.638175      -126.2111
  42   2.0000      -4.636709      -126.1713
  43   2.0000      -0.984889       -26.8002
  44   2.0000      -0.979964       -26.6662
  45   2.0000      -0.942625       -25.6501
  46   2.0000      -0.939470       -25.5643
  47   2.0000      -0.760880       -20.7046
  48   2.0000      -0.716724       -19.5030
  49   2.0000      -0.706104       -19.2141
  50   2.0000      -0.688979       -18.7481
  51   2.0000      -0.682819       -18.5805
  52   2.0000      -0.671778       -18.2800
  53   2.0000      -0.649188       -17.6653
  54   2.0000      -0.630834       -17.1659
  55   2.0000      -0.599434       -16.3114
  56   2.0000      -0.589640       -16.0449
  57   2.0000      -0.574047       -15.6206
  58   2.0000      -0.567522       -15.4431
  59   2.0000      -0.561076       -15.2677
  60   2.0000      -0.492123       -13.3913
  61   2.0000      -0.485567       -13.2129
  62   2.0000      -0.468925       -12.7601
  63   2.0000      -0.466918       -12.7055
  64   2.0000      -0.451541       -12.2871
  65   2.0000      -0.445000       -12.1091
  66   2.0000      -0.441429       -12.0119
  67   2.0000      -0.433398       -11.7934
  68   2.0000      -0.428065       -11.6482
  69   2.0000      -0.416162       -11.3244
  70   2.0000      -0.412934       -11.2365
  71   2.0000      -0.393737       -10.7141
  72   2.0000      -0.390026       -10.6132
  73   2.0000      -0.384960       -10.4753
  74   2.0000      -0.380002       -10.3404
  75   2.0000      -0.374500       -10.1907
  76   2.0000      -0.365629        -9.9493
  77   2.0000      -0.357880        -9.7384
  78   2.0000      -0.351731        -9.5711
  79   2.0000      -0.349671        -9.5150
  80   2.0000      -0.345545        -9.4028
  81   2.0000      -0.343521        -9.3477
  82   2.0000      -0.339912        -9.2495
  83   2.0000      -0.333745        -9.0817
  84   2.0000      -0.326233        -8.8773
  85   2.0000      -0.313038        -8.5182
  86   2.0000      -0.305805        -8.3214
  87   2.0000      -0.292575        -7.9614
  88   2.0000      -0.291537        -7.9331
  89   2.0000      -0.287725        -7.8294
  90   2.0000      -0.277853        -7.5608
  91   2.0000      -0.268275        -7.3001
  92   2.0000      -0.267375        -7.2756
  93   2.0000      -0.261453        -7.1145
  94   2.0000      -0.254745        -6.9320
  95   2.0000      -0.238259        -6.4834
  96   2.0000      -0.217761        -5.9256
  97   2.0000      -0.210233        -5.7207
  98   2.0000      -0.200408        -5.4534
  99   2.0000      -0.189865        -5.1665
 100   2.0000      -0.177445        -4.8285
 101   0.0000      -0.043257        -1.1771
 102   0.0000      -0.026977        -0.7341
 103   0.0000      -0.021325        -0.5803
 104   0.0000       0.003162         0.0860
 105   0.0000       0.024800         0.6748

MULLIKEN ATOMIC CHARGES
-----------------------
   0 C :   -0.324591
   1 C :   -0.001343
   2 O :   -0.371493
   3 P :    0.613971
   4 S :   -0.303244
   5 O :   -0.372582
   6 C :   -0.007365
   7 C :   -0.302062
   8 S :   -0.117671
   9 C :   -0.340430
  10 S :   -0.110643
  11 P :    0.604638
  12 S :   -0.313873
  13 O :   -0.372320
  14 C :   -0.000878
  15 C :   -0.318511
  16 O :   -0.339196
  17 C :   -0.005629
  18 C :   -0.305189
  19 H :    0.123917
  20 H :    0.113978
  21 H :    0.121591
  22 H :    0.106979
  23 H :    0.102633
  24 H :    0.127413
  25 H :    0.101449
  26 H :    0.114091
  27 H :    0.123246
  28 H :    0.110109
  29 H :    0.208321
  30 H :    0.183020
  31 H :    0.114674
  32 H :    0.105160
  33 H :    0.114106
  34 H :    0.115714
  35 H :    0.127122
  36 H :    0.111587
  37 H :    0.115744
  38 H :    0.114216
  39 H :    0.121692
  40 H :    0.111649
Sum of atomic charges:   -0.0000000

LOEWDIN ATOMIC CHARGES
----------------------
   0 C :   -0.370819
   1 C :   -0.124395
   2 O :   -0.246339
   3 P :    0.568100
   4 S :   -0.302625
   5 O :   -0.236860
   6 C :   -0.117911
   7 C :   -0.365615
   8 S :    0.076926
   9 C :   -0.475870
  10 S :    0.071105
  11 P :    0.573415
  12 S :   -0.300064
  13 O :   -0.239837
  14 C :   -0.117401
  15 C :   -0.371498
  16 O :   -0.222265
  17 C :   -0.115980
  18 C :   -0.366447
  19 H :    0.117733
  20 H :    0.131398
  21 H :    0.125152
  22 H :    0.106626
  23 H :    0.117725
  24 H :    0.111582
  25 H :    0.117515
  26 H :    0.125220
  27 H :    0.122669
  28 H :    0.129813
  29 H :    0.131480
  30 H :    0.138690
  31 H :    0.113240
  32 H :    0.118869
  33 H :    0.131699
  34 H :    0.122697
  35 H :    0.121116
  36 H :    0.123255
  37 H :    0.102728
  38 H :    0.116330
  39 H :    0.128277
  40 H :    0.130567

  Mayer bond orders larger than 0.100000
B(  0-C ,  1-C ) :   1.1645 B(  0-C , 19-H ) :   0.9319 B(  0-C , 20-H ) :   0.9389
B(  0-C , 21-H ) :   0.9432 B(  1-C ,  2-O ) :   0.9193 B(  1-C , 22-H ) :   0.9085
B(  1-C , 23-H ) :   0.9319 B(  2-O ,  3-P ) :   1.0796 B(  3-P ,  4-S ) :   1.6320
B(  3-P ,  5-O ) :   1.1238 B(  3-P ,  8-S ) :   0.9384 B(  4-S ,  8-S ) :   0.1047
B(  5-O ,  6-C ) :   0.8938 B(  6-C ,  7-C ) :   1.1645 B(  6-C , 24-H ) :   0.9117
B(  6-C , 25-H ) :   0.9361 B(  7-C , 26-H ) :   0.9449 B(  7-C , 27-H ) :   0.9345
B(  7-C , 28-H ) :   0.9389 B(  8-S ,  9-C ) :   0.9967 B(  9-C , 10-S ) :   1.0047
B(  9-C , 29-H ) :   0.8603 B(  9-C , 30-H ) :   0.9103 B( 10-S , 11-P ) :   0.9333
B( 10-S , 12-S ) :   0.1045 B( 11-P , 12-S ) :   1.6137 B( 11-P , 13-O ) :   1.0975
B( 11-P , 16-O ) :   1.1675 B( 13-O , 14-C ) :   0.9048 B( 14-C , 15-C ) :   1.1656
B( 14-C , 31-H ) :   0.9157 B( 14-C , 32-H ) :   0.9339 B( 15-C , 33-H ) :   0.9374
B( 15-C , 34-H ) :   0.9449 B( 15-C , 35-H ) :   0.9341 B( 16-O , 17-C ) :   0.8958
B( 17-C , 18-C ) :   1.1686 B( 17-C , 36-H ) :   0.9323 B( 17-C , 37-H ) :   0.9092
B( 18-C , 38-H ) :   0.9386 B( 18-C , 39-H ) :   0.9433 B( 18-C , 40-H ) :   0.9365

Dispersion correction           -0.069136742
FINAL SINGLE POINT ENERGY     -2929.512378436949

DIPOLE MOMENT
-------------

Method             : SCF
Type of density    : Electron Density
Multiplicity       :   1
Irrep              :   0
Energy             : -2929.6298441159328831 Eh
Relativity type    :
Basis              : AO
                                X                 Y                 Z
Electronic contribution:      0.119780426       0.196773276       2.914738477
Nuclear contribution   :     -0.521459341      -1.027804770      -3.000972702
                        -----------------------------------------
Total Dipole Moment    :     -0.401678915      -0.831031494      -0.086234224
                        -----------------------------------------
Magnitude (a.u.)       :      0.927035941
Magnitude (Debye)      :      2.356338100

Rotational constants in cm-1:             0.012739             0.005669             0.004990
Rotational constants in MHz :           381.893040           169.960472           149.589130

                             ****ORCA TERMINATED NORMALLY****
TOTAL RUN TIME: 0 days 0 hours 0 minutes 21 seconds 586 msec
