                         Program Version 6.0.0  -   RELEASE  -
|  1> ! pbe def2-sv(p) def2/J RI DEFGRID1 loosescf d4 GCP(DFT/SV(P)) printgap
|  2> %output
|  3>     printlevel normal
|  4> end
|  5> * xyz 0 1
|  6> C 3.8869585974 0.3765410245 -2.7226682693
|  7> C 2.5720567966 0.3240822891 -1.9728726996
|  8> O 2.8095554778 -0.3333732412 -0.7132889901
|  9> P 1.8755013307 -0.1531010361 0.5551967092
| 10> S 1.4192692606 1.6881988648 1.0235524035
| 11> O 2.6976897742 -0.8229798761 1.7195909812
| 12> C 3.3157451403 -2.1323092766 1.6356451655
| 13> C 4.7634607519 -2.0176310223 1.2051113722
| 14> S 0.3361781939 -1.5847426168 0.1475726939
| 15> C -0.6776113058 -1.3598997113 1.6259526233
| 16> S -1.5859546443 0.2252962171 1.7035186296
| 17> P -2.1220434228 0.4734786733 -0.3217410529
| 18> S -0.8613222666 0.9964844593 -1.7403914811
| 19> O -3.3341445573 1.4993404576 -0.2059229271
| 20> C -3.1530332881 2.921680404 -0.292099088
| 21> C -2.3742564659 3.4653024319 0.8888617024
| 22> O -2.869823329 -0.8991867692 -0.5438165908
| 23> C -3.0377858726 -1.5435047527 -1.8278053506
| 24> C -2.6400024433 -3.0002028511 -1.6989141206
| 25> H 4.2639338014 -0.6293827169 -2.8832069056
| 26> H 3.7261600283 0.8576689229 -3.6816229762
| 27> H 4.6180347614 0.9450525879 -2.1544308919
| 28> H 1.8169371833 -0.2452935008 -2.5210698885
| 29> H 2.175138941 1.3261927072 -1.7803122752
| 30> H 3.2340978015 -2.5339116999 2.6472807851
| 31> H 2.7432120317 -2.7515673213 0.9398394889
| 32> H 5.300437542 -1.3550522231 1.8784045547
| 33> H 5.2197949269 -3.0022790484 1.2306312436
| 34> H 4.8267856544 -1.6180172625 0.1967740453
| 35> H -0.0506250422 -1.3852292767 2.5156905078
| 36> H -1.3960316096 -2.1765950938 1.6247223807
| 37> H -2.6361100381 3.1492929494 -1.230389854
| 38> H -4.1698595718 3.3152275497 -0.3217601484
| 39> H -2.8415678931 3.1625501313 1.8228911798
| 40> H -1.3511503738 3.0852228156 0.8729575656
| 41> H -2.3415524308 4.5486503854 0.8347315009
| 42> H -4.0905301482 -1.4352367373 -2.095233108
| 43> H -2.4182115106 -1.0246334771 -2.5671053673
| 44> H -1.5904142249 -3.0782710021 -1.4235858578
| 45> H -3.2436177031 -3.4848211698 -0.9371298835
| 46> H -2.7979990423 -3.4953595328 -2.6513397713
| 47> *
| 48>
| 49>                          ****END OF INPUT****

CARTESIAN COORDINATES (ANGSTROEM)
---------------------------------
  C      3.886959    0.376541   -2.722668
  C      2.572057    0.324082   -1.972873
  O      2.809555   -0.333373   -0.713289
  P      1.875501   -0.153101    0.555197
  S      1.419269    1.688199    1.023552
  O      2.697690   -0.822980    1.719591
  C      3.315745   -2.132309    1.635645
  C      4.763461   -2.017631    1.205111
  S      0.336178   -1.584743    0.147573
  C     -0.677611   -1.359900    1.625953
  S     -1.585955    0.225296    1.703519
  P     -2.122043    0.473479   -0.321741
  S     -0.861322    0.996484   -1.740391
  O     -3.334145    1.499340   -0.205923
  C     -3.153033    2.921680   -0.292099
  C     -2.374256    3.465302    0.888862
  O     -2.869823   -0.899187   -0.543817
  C     -3.037786   -1.543505   -1.827805
  C     -2.640002   -3.000203   -1.698914
  H      4.263934   -0.629383   -2.883207
  H      3.726160    0.857669   -3.681623
  H      4.618035    0.945053   -2.154431
  H      1.816937   -0.245294   -2.521070
  H      2.175139    1.326193   -1.780312
  H      3.234098   -2.533912    2.647281
  H      2.743212   -2.751567    0.939839
  H      5.300438   -1.355052    1.878405
  H      5.219795   -3.002279    1.230631
  H      4.826786   -1.618017    0.196774
  H     -0.050625   -1.385229    2.515691
  H     -1.396032   -2.176595    1.624722
  H     -2.636110    3.149293   -1.230390
  H     -4.169860    3.315228   -0.321760
  H     -2.841568    3.162550    1.822891
  H     -1.351150    3.085223    0.872958
  H     -2.341552    4.548650    0.834732
  H     -4.090530   -1.435237   -2.095233
  H     -2.418212   -1.024633   -2.567105
  H     -1.590414   -3.078271   -1.423586
  H     -3.243618   -3.484821   -0.937130
  H     -2.797999   -3.495360   -2.651340

 Total Charge           Charge          ....    0
 Multiplicity           Mult            ....    1
 Number of Electrons    NEL             ....  202
 Basis Dimension        Dim             ....  334

ORBITAL ENERGIES
----------------

  NO   OCC          E(Eh)            E(eV)
   0   2.0000     -88.043545     -2395.7867
   1   2.0000     -88.033801     -2395.5215
   2   2.0000     -87.977517     -2393.9900
   3   2.0000     -87.976125     -2393.9521
   4   2.0000     -76.422767     -2079.5692
   5   2.0000     -76.420892     -2079.5182
   6   2.0000     -18.792870      -511.3800
   7   2.0000     -18.791361      -511.3389
   8   2.0000     -18.787509      -511.2341
   9   2.0000     -18.781972      -511.0835
  10   2.0000      -9.960121      -271.0287
  11   2.0000      -9.955801      -270.9111
  12   2.0000      -9.948481      -270.7119
  13   2.0000      -9.946955      -270.6704
  14   2.0000      -9.942789      -270.5570
  15   2.0000      -9.886095      -269.0143
  16   2.0000      -9.885835      -269.0073
  17   2.0000      -9.885211      -268.9903
  18   2.0000      -9.874328      -268.6941
  19   2.0000      -7.687725      -209.1936
  20   2.0000      -7.679117      -208.9594
  21   2.0000      -7.622358      -207.4149
  22   2.0000      -7.621153      -207.3821
  23   2.0000      -6.420087      -174.6994
  24   2.0000      -6.418026      -174.6434
  25   2.0000      -5.715560      -155.5283
  26   2.0000      -5.712229      -155.4377
  27   2.0000      -5.707366      -155.3053
  28   2.0000      -5.704806      -155.2357
  29   2.0000      -5.703689      -155.2053
  30   2.0000      -5.695581      -154.9846
  31   2.0000      -5.651226      -153.7777
  32   2.0000      -5.650333      -153.7534
  33   2.0000      -5.643066      -153.5556
  34   2.0000      -5.642468      -153.5394
  35   2.0000      -5.641707      -153.5187
  36   2.0000      -5.641101      -153.5022
  37   2.0000      -4.643114      -126.3456
  38   2.0000      -4.641940      -126.3136
  39   2.0000      -4.640704      -126.2800
  40   2.0000      -4.640045      -126.2620
  41   2.0000      -4.639894      -126.2579
  42   2.0000      -4.638357      -126.2161
  43   2.0000      -0.987288       -26.8655
  44   2.0000      -0.979633       -26.6572
  45   2.0000      -0.944967       -25.7139
  46   2.0000      -0.939589       -25.5675
  47   2.0000      -0.761280       -20.7155
  48   2.0000      -0.718796       -19.5594
  49   2.0000      -0.708893       -19.2900
  50   2.0000      -0.691151       -18.8072
  51   2.0000      -0.679922       -18.5016
  52   2.0000      -0.666742       -18.1430
  53   2.0000      -0.647017       -17.6062
  54   2.0000      -0.633927       -17.2500
  55   2.0000      -0.593544       -16.1511
  56   2.0000      -0.584191       -15.8966
  57   2.0000      -0.570625       -15.5275
  58   2.0000      -0.567064       -15.4306
  59   2.0000      -0.560681       -15.2569
  60   2.0000      -0.507750       -13.8166
  61   2.0000      -0.495995       -13.4967
  62   2.0000      -0.481787       -13.1101
  63   2.0000      -0.465460       -12.6658
  64   2.0000      -0.454204       -12.3595
  65   2.0000      -0.443189       -12.0598
  66   2.0000      -0.435705       -11.8561
  67   2.0000      -0.431406       -11.7392
  68   2.0000      -0.425865       -11.5884
  69   2.0000      -0.414108       -11.2684
  70   2.0000      -0.407087       -11.0774
  71   2.0000      -0.390721       -10.6321
  72   2.0000      -0.387907       -10.5555
  73   2.0000      -0.385408       -10.4875
  74   2.0000      -0.380855       -10.3636
  75   2.0000      -0.370797       -10.0899
  76   2.0000      -0.363172        -9.8824
  77   2.0000      -0.356636        -9.7046
  78   2.0000      -0.353655        -9.6235
  79   2.0000      -0.350785        -9.5454
  80   2.0000      -0.348236        -9.4760
  81   2.0000      -0.344031        -9.3616
  82   2.0000      -0.342109        -9.3093
  83   2.0000      -0.337271        -9.1776
  84   2.0000      -0.327808        -8.9201
  85   2.0000      -0.316649        -8.6165
  86   2.0000      -0.308317        -8.3897
  87   2.0000      -0.297053        -8.0832
  88   2.0000      -0.292398        -7.9565
  89   2.0000      -0.289493        -7.8775
  90   2.0000      -0.278667        -7.5829
  91   2.0000      -0.273856        -7.4520
  92   2.0000      -0.266164        -7.2427
  93   2.0000      -0.256131        -6.9697
  94   2.0000      -0.254418        -6.9231
  95   2.0000      -0.246619        -6.7109
  96   2.0000      -0.221470        -6.0265
  97   2.0000      -0.207834        -5.6555
  98   2.0000      -0.186176        -5.0661
  99   2.0000      -0.180757        -4.9186
 100   2.0000      -0.179999        -4.8980
 101   0.0000      -0.049746        -1.3537
 102   0.0000      -0.029903        -0.8137
 103   0.0000      -0.010482        -0.2852
 104   0.0000       0.004509         0.1227
 105   0.0000       0.018184         0.4948

MULLIKEN ATOMIC CHARGES
-----------------------
   0 C :   -0.279097
   1 C :   -0.023907
   2 O :   -0.386811
   3 P :    0.612612
   4 S :   -0.283108
   5 O :   -0.360688
   6 C :   -0.012075
   7 C :   -0.293244
   8 S :   -0.126834
   9 C :   -0.316682
  10 S :   -0.084249
  11 P :    0.616201
  12 S :   -0.333686
  13 O :   -0.369219
  14 C :    0.001223
  15 C :   -0.342403
  16 O :   -0.374105
  17 C :   -0.000521
  18 C :   -0.301608
  19 H :    0.112324
  20 H :    0.113911
  21 H :    0.119340
  22 H :    0.110413
  23 H :    0.122204
  24 H :    0.105337
  25 H :    0.099828
  26 H :    0.120437
  27 H :    0.108137
  28 H :    0.125776
  29 H :    0.180114
  30 H :    0.186211
  31 H :    0.108769
  32 H :    0.101297
  33 H :    0.118178
  34 H :    0.153516
  35 H :    0.111766
  36 H :    0.104768
  37 H :    0.106171
  38 H :    0.125971
  39 H :    0.113548
  40 H :    0.110187
Sum of atomic charges:    0.0000000

LOEWDIN ATOMIC CHARGES
----------------------
   0 C :   -0.351736
   1 C :   -0.120067
   2 O :   -0.246948
   3 P :    0.563308
   4 S :   -0.292759
   5 O :   -0.238809
   6 C :   -0.117802
   7 C :   -0.359876
   8 S :    0.075631
   9 C :   -0.469703
  10 S :    0.090272
  11 P :    0.567914
  12 S :   -0.316402
  13 O :   -0.246896
  14 C :   -0.121427
  15 C :   -0.374011
  16 O :   -0.245725
  17 C :   -0.116758
  18 C :   -0.357882
  19 H :    0.123403
  20 H :    0.131975
  21 H :    0.127995
  22 H :    0.109623
  23 H :    0.112317
  24 H :    0.118696
  25 H :    0.102100
  26 H :    0.129058
  27 H :    0.128843
  28 H :    0.126508
  29 H :    0.133262
  30 H :    0.134664
  31 H :    0.108411
  32 H :    0.116808
  33 H :    0.123430
  34 H :    0.125739
  35 H :    0.131054
  36 H :    0.116163
  37 H :    0.105814
  38 H :    0.119463
  39 H :    0.124104
  40 H :    0.130246

  Mayer bond orders larger than 0.100000
B(  0-C ,  1-C ) :   1.1534 B(  0-C , 19-H ) :   0.9499 B(  0-C , 20-H ) :   0.9423
B(  0-C , 21-H ) :   0.9498 B(  1-C ,  2-O ) :   0.8989 B(  1-C , 22-H ) :   0.9289
B(  1-C , 23-H ) :   0.9107 B(  2-O ,  3-P ) :   1.0878 B(  3-P ,  4-S ) :   1.7023
B(  3-P ,  5-O ) :   1.1226 B(  3-P ,  8-S ) :   0.9173 B(  4-S ,  8-S ) :   0.1150
B(  5-O ,  6-C ) :   0.8954 B(  6-C ,  7-C ) :   1.1662 B(  6-C , 24-H ) :   0.9361
B(  6-C , 25-H ) :   0.9087 B(  7-C , 26-H ) :   0.9469 B(  7-C , 27-H ) :   0.9395
B(  7-C , 28-H ) :   0.9411 B(  8-S ,  9-C ) :   1.0134 B(  9-C , 10-S ) :   0.9838
B(  9-C , 29-H ) :   0.9069 B(  9-C , 30-H ) :   0.9082 B( 10-S , 11-P ) :   0.9828
B( 10-S , 12-S ) :   0.1158 B( 11-P , 12-S ) :   1.5831 B( 11-P , 13-O ) :   1.1159
B( 11-P , 16-O ) :   1.1189 B( 13-O , 14-C ) :   0.9111 B( 14-C , 15-C ) :   1.1626
B( 14-C , 31-H ) :   0.9128 B( 14-C , 32-H ) :   0.9329 B( 15-C , 33-H ) :   0.9435
B( 15-C , 34-H ) :   0.9262 B( 15-C , 35-H ) :   0.9378 B( 16-O , 17-C ) :   0.8965
B( 17-C , 18-C ) :   1.1637 B( 17-C , 36-H ) :   0.9339 B( 17-C , 37-H ) :   0.8991
B( 18-C , 38-H ) :   0.9408 B( 18-C , 39-H ) :   0.9499 B( 18-C , 40-H ) :   0.9408

Dispersion correction           -0.067178210
FINAL SINGLE POINT ENERGY     -2929.510698752314

DIPOLE MOMENT
-------------

Method             : SCF
Type of density    : Electron Density
Multiplicity       :   1
Irrep              :   0
Energy             : -2929.6269257314829701 Eh
Relativity type    :
Basis              : AO
                                X                 Y                 Z
Electronic contribution:     -8.559975204       6.305317683       8.929343352
Nuclear contribution   :      8.670597807      -7.674795765      -9.322192577
                        -----------------------------------------
Total Dipole Moment    :      0.110622603      -1.369478082      -0.392849225
                        -----------------------------------------
Magnitude (a.u.)       :      1.428998982
Magnitude (Debye)      :      3.632226755

Rotational constants in cm-1:             0.011293             0.005530             0.005232
Rotational constants in MHz :           338.561451           165.782350           156.863323

                             ****ORCA TERMINATED NORMALLY****
TOTAL RUN TIME: 0 days 0 hours 0 minutes 21 seconds 172 msec
