                         Program Version 6.0.1  -  RELEASE   -
|  1> ! pbe def2-sv(p) def2/J RI DEFGRID1 loosescf d4 GCP(DFT/SV(P)) printgap
|  2> %output
|  3>     printlevel normal
|  4> end
|  5> * xyz 0 1
|  6> C 3.8381642717 -3.6685563805 0.1168752504
|  7> C 3.9674664114 -2.9311048756 -1.2060526647
|  8> O 2.6832190295 -2.4517181163 -1.6563054223
|  9> C 2.2575119789 -1.2873553774 -1.2191020172
| 10> O 2.8840305899 -0.5536021621 -0.4812466897
| 11> C 0.8716410605 -0.9691561658 -1.7345153036
| 12> C 0.5225210258 0.4858963716 -1.4427328445
| 13> H 0.9777646357 1.1745148583 -2.1550149081
| 14> C 0.9182981793 0.8836101118 -0.0349315109
| 15> O 0.5009448479 0.2756260907 0.9346309225
| 16> O 1.6404556487 1.9686017691 -0.007912175
| 17> C 2.0510082412 2.5046799977 1.2674046693
| 18> C 1.1000419719 3.6033506489 1.7127463148
| 19> S -1.2780297053 0.7593118755 -1.5525205315
| 20> P -2.0404345573 0.1381700939 0.3321450448
| 21> S -2.0213572448 1.3082792921 1.9139255379
| 22> O -3.5581967251 -0.1089510054 -0.1294589518
| 23> C -4.4799645649 0.9655568852 -0.3275324413
| 24> O -1.6169538823 -1.390102584 0.4655073455
| 25> C -1.3635872162 -1.9930737532 1.7420818361
| 26> H 3.1275645699 -4.4850526454 0.0234656509
| 27> H 4.8063050506 -4.0670287655 0.4014838632
| 28> H 3.4957710167 -2.9874652448 0.8932745197
| 29> H 4.3012523369 -3.5960490606 -2.0023586119
| 30> H 4.6436835491 -2.0771657615 -1.1097567097
| 31> H 0.1765419178 -1.6343605869 -1.2137491176
| 32> H 0.8048717164 -1.1841715896 -2.8001585238
| 33> H 2.0812404408 1.6887659798 1.994031104
| 34> H 3.0547500238 2.8913927971 1.0890027854
| 35> H 0.1082486017 3.1948118406 1.8988452819
| 36> H 1.4716924133 4.0461348491 2.6306536868
| 37> H 1.0283945297 4.3692177434 0.9457822032
| 38> H -5.4676170537 0.5114186848 -0.3217906894
| 39> H -4.2846325736 1.4496595541 -1.2840420422
| 40> H -4.3890450869 1.6908728751 0.4837514084
| 41> H -2.2468396893 -1.928349421 2.3758942555
| 42> H -0.52488609 -1.4892009469 2.2236393038
| 43> H -1.1201417382 -3.0301358471 1.525912639
| 44> *
| 45>
| 46>                          ****END OF INPUT****

CARTESIAN COORDINATES (ANGSTROEM)
---------------------------------
  C      3.838164   -3.668556    0.116875
  C      3.967466   -2.931105   -1.206053
  O      2.683219   -2.451718   -1.656305
  C      2.257512   -1.287355   -1.219102
  O      2.884031   -0.553602   -0.481247
  C      0.871641   -0.969156   -1.734515
  C      0.522521    0.485896   -1.442733
  H      0.977765    1.174515   -2.155015
  C      0.918298    0.883610   -0.034932
  O      0.500945    0.275626    0.934631
  O      1.640456    1.968602   -0.007912
  C      2.051008    2.504680    1.267405
  C      1.100042    3.603351    1.712746
  S     -1.278030    0.759312   -1.552521
  P     -2.040435    0.138170    0.332145
  S     -2.021357    1.308279    1.913926
  O     -3.558197   -0.108951   -0.129459
  C     -4.479965    0.965557   -0.327532
  O     -1.616954   -1.390103    0.465507
  C     -1.363587   -1.993074    1.742082
  H      3.127565   -4.485053    0.023466
  H      4.806305   -4.067029    0.401484
  H      3.495771   -2.987465    0.893275
  H      4.301252   -3.596049   -2.002359
  H      4.643684   -2.077166   -1.109757
  H      0.176542   -1.634361   -1.213749
  H      0.804872   -1.184172   -2.800159
  H      2.081240    1.688766    1.994031
  H      3.054750    2.891393    1.089003
  H      0.108249    3.194812    1.898845
  H      1.471692    4.046135    2.630654
  H      1.028395    4.369218    0.945782
  H     -5.467617    0.511419   -0.321791
  H     -4.284633    1.449660   -1.284042
  H     -4.389045    1.690873    0.483751
  H     -2.246840   -1.928349    2.375894
  H     -0.524886   -1.489201    2.223639
  H     -1.120142   -3.030136    1.525913

 Total Charge           Charge          ....    0
 Multiplicity           Mult            ....    1
 Number of Electrons    NEL             ....  174
 Basis Dimension        Dim             ....  316

ORBITAL ENERGIES
----------------

  NO   OCC          E(Eh)            E(eV)
   0   2.0000     -88.036820     -2395.6037
   1   2.0000     -87.970455     -2393.7978
   2   2.0000     -76.418652     -2079.4572
   3   2.0000     -18.813333      -511.9368
   4   2.0000     -18.802533      -511.6429
   5   2.0000     -18.784772      -511.1596
   6   2.0000     -18.776640      -510.9383
   7   2.0000     -18.752378      -510.2781
   8   2.0000     -18.736965      -509.8587
   9   2.0000     -10.021580      -272.7011
  10   2.0000     -10.014787      -272.5162
  11   2.0000      -9.957017      -270.9442
  12   2.0000      -9.946763      -270.6652
  13   2.0000      -9.940173      -270.4859
  14   2.0000      -9.935310      -270.3535
  15   2.0000      -9.933373      -270.3008
  16   2.0000      -9.913917      -269.7714
  17   2.0000      -9.894350      -269.2389
  18   2.0000      -9.873058      -268.6596
  19   2.0000      -7.681933      -209.0360
  20   2.0000      -7.615491      -207.2281
  21   2.0000      -6.414865      -174.5574
  22   2.0000      -5.710082      -155.3792
  23   2.0000      -5.706341      -155.2774
  24   2.0000      -5.698697      -155.0694
  25   2.0000      -5.644551      -153.5960
  26   2.0000      -5.636212      -153.3691
  27   2.0000      -5.635383      -153.3466
  28   2.0000      -4.637419      -126.1906
  29   2.0000      -4.636898      -126.1764
  30   2.0000      -4.635364      -126.1347
  31   2.0000      -1.022784       -27.8314
  32   2.0000      -1.011476       -27.5237
  33   2.0000      -0.973856       -26.5000
  34   2.0000      -0.931770       -25.3548
  35   2.0000      -0.929456       -25.2918
  36   2.0000      -0.917374       -24.9630
  37   2.0000      -0.763535       -20.7769
  38   2.0000      -0.719145       -19.5689
  39   2.0000      -0.699248       -19.0275
  40   2.0000      -0.688278       -18.7290
  41   2.0000      -0.656864       -17.8742
  42   2.0000      -0.623042       -16.9538
  43   2.0000      -0.617506       -16.8032
  44   2.0000      -0.612102       -16.6561
  45   2.0000      -0.599787       -16.3210
  46   2.0000      -0.557981       -15.1834
  47   2.0000      -0.507908       -13.8209
  48   2.0000      -0.507122       -13.7995
  49   2.0000      -0.493230       -13.4215
  50   2.0000      -0.482337       -13.1250
  51   2.0000      -0.464958       -12.6521
  52   2.0000      -0.461304       -12.5527
  53   2.0000      -0.440924       -11.9981
  54   2.0000      -0.436918       -11.8891
  55   2.0000      -0.431793       -11.7497
  56   2.0000      -0.425693       -11.5837
  57   2.0000      -0.418930       -11.3997
  58   2.0000      -0.414626       -11.2825
  59   2.0000      -0.407348       -11.0845
  60   2.0000      -0.401090       -10.9142
  61   2.0000      -0.398918       -10.8551
  62   2.0000      -0.388253       -10.5649
  63   2.0000      -0.381490       -10.3809
  64   2.0000      -0.373805       -10.1717
  65   2.0000      -0.365463        -9.9448
  66   2.0000      -0.360258        -9.8031
  67   2.0000      -0.357316        -9.7231
  68   2.0000      -0.345412        -9.3991
  69   2.0000      -0.339592        -9.2408
  70   2.0000      -0.336165        -9.1475
  71   2.0000      -0.327568        -8.9136
  72   2.0000      -0.319476        -8.6934
  73   2.0000      -0.306665        -8.3448
  74   2.0000      -0.298346        -8.1184
  75   2.0000      -0.293832        -7.9956
  76   2.0000      -0.287507        -7.8235
  77   2.0000      -0.282288        -7.6814
  78   2.0000      -0.272792        -7.4231
  79   2.0000      -0.267084        -7.2677
  80   2.0000      -0.255728        -6.9587
  81   2.0000      -0.249954        -6.8016
  82   2.0000      -0.238090        -6.4788
  83   2.0000      -0.228222        -6.2102
  84   2.0000      -0.222091        -6.0434
  85   2.0000      -0.187957        -5.1146
  86   2.0000      -0.180842        -4.9210
  87   0.0000      -0.046165        -1.2562
  88   0.0000      -0.034429        -0.9369
  89   0.0000      -0.017918        -0.4876
  90   0.0000       0.005391         0.1467
  91   0.0000       0.035456         0.9648

MULLIKEN ATOMIC CHARGES
-----------------------
   0 C :   -0.307433
   1 C :   -0.013289
   2 O :   -0.225514
   3 C :    0.128098
   4 O :   -0.205983
   5 C :   -0.072664
   6 C :   -0.273312
   7 H :    0.131021
   8 C :    0.191372
   9 O :   -0.212798
  10 O :   -0.207683
  11 C :   -0.009621
  12 C :   -0.311098
  13 S :   -0.092638
  14 P :    0.608793
  15 S :   -0.323221
  16 O :   -0.376931
  17 C :   -0.103744
  18 O :   -0.374101
  19 C :   -0.099360
  20 H :    0.116546
  21 H :    0.116463
  22 H :    0.131266
  23 H :    0.106861
  24 H :    0.111751
  25 H :    0.148955
  26 H :    0.122733
  27 H :    0.112931
  28 H :    0.101845
  29 H :    0.144267
  30 H :    0.105734
  31 H :    0.107990
  32 H :    0.121048
  33 H :    0.111524
  34 H :    0.115040
  35 H :    0.118723
  36 H :    0.141437
  37 H :    0.114990
Sum of atomic charges:   -0.0000000

LOEWDIN ATOMIC CHARGES
----------------------
   0 C :   -0.355854
   1 C :   -0.109091
   2 O :   -0.054946
   3 C :    0.042241
   4 O :   -0.154208
   5 C :   -0.258221
   6 C :   -0.256357
   7 H :    0.141436
   8 C :    0.008858
   9 O :   -0.175342
  10 O :   -0.033032
  11 C :   -0.103873
  12 C :   -0.361408
  13 S :    0.105273
  14 P :    0.581088
  15 S :   -0.311778
  16 O :   -0.262767
  17 C :   -0.220509
  18 O :   -0.246151
  19 C :   -0.210680
  20 H :    0.126075
  21 H :    0.132507
  22 H :    0.132403
  23 H :    0.119847
  24 H :    0.121199
  25 H :    0.154092
  26 H :    0.145007
  27 H :    0.122692
  28 H :    0.117681
  29 H :    0.126100
  30 H :    0.128128
  31 H :    0.122934
  32 H :    0.120318
  33 H :    0.107893
  34 H :    0.106797
  35 H :    0.113781
  36 H :    0.120541
  37 H :    0.117327

  Mayer bond orders larger than 0.100000
B(  0-C ,  1-C ) :   1.1750 B(  0-C , 20-H ) :   0.9487 B(  0-C , 21-H ) :   0.9436
B(  0-C , 22-H ) :   0.9455 B(  1-C ,  2-O ) :   0.9088 B(  1-C , 23-H ) :   0.9369
B(  1-C , 24-H ) :   0.9148 B(  2-O ,  3-C ) :   1.2505 B(  3-C ,  4-O ) :   1.9803
B(  3-C ,  5-C ) :   1.0103 B(  4-O ,  8-C ) :   0.1008 B(  5-C ,  6-C ) :   1.0033
B(  5-C , 25-H ) :   0.8637 B(  5-C , 26-H ) :   0.8999 B(  6-C ,  7-H ) :   0.8848
B(  6-C ,  8-C ) :   0.9096 B(  6-C , 13-S ) :   1.0179 B(  8-C ,  9-O ) :   1.8960
B(  8-C , 10-O ) :   1.2886 B(  9-O , 14-P ) :   0.1097 B( 10-O , 11-C ) :   0.9014
B( 11-C , 12-C ) :   1.1762 B( 11-C , 27-H ) :   0.9113 B( 11-C , 28-H ) :   0.9372
B( 12-C , 29-H ) :   0.9243 B( 12-C , 30-H ) :   0.9422 B( 12-C , 31-H ) :   0.9478
B( 13-S , 14-P ) :   0.9507 B( 13-S , 15-S ) :   0.1138 B( 14-P , 15-S ) :   1.5900
B( 14-P , 16-O ) :   1.0776 B( 14-P , 18-O ) :   1.0976 B( 16-O , 17-C ) :   0.9401
B( 17-C , 32-H ) :   0.9596 B( 17-C , 33-H ) :   0.9504 B( 17-C , 34-H ) :   0.9265
B( 18-O , 19-C ) :   0.9131 B( 19-C , 35-H ) :   0.9495 B( 19-C , 36-H ) :   0.9380
B( 19-C , 37-H ) :   0.9576

Dispersion correction           -0.051864580
FINAL SINGLE POINT ENERGY     -1979.011209277648

DIPOLE MOMENT
-------------

Method             : SCF
Type of density    : Electron Density
Multiplicity       :   1
Irrep              :   0
Energy             : -1979.1430536367656714 Eh
Relativity type    :
Basis              : AO
                                X                 Y                 Z
Electronic contribution:    -12.209284325       4.481795925      -5.579364158
Nuclear contribution   :     13.256373117      -5.341253906       4.932503901
                        -----------------------------------------
Total Dipole Moment    :      1.047088792      -0.859457981      -0.646860257
                        -----------------------------------------
Magnitude (a.u.)       :      1.501163266
Magnitude (Debye)      :      3.815653788

Rotational constants in cm-1:             0.013658             0.006783             0.005740
Rotational constants in MHz :           409.457791           203.348539           172.068074

                             ****ORCA TERMINATED NORMALLY****
TOTAL RUN TIME: 0 days 0 hours 0 minutes 40 seconds 887 msec
