                         Program Version 6.0.0  -   RELEASE  -
|  1> ! pbe def2-sv(p) def2/J RI DEFGRID1 loosescf d4 GCP(DFT/SV(P)) printgap
|  2> %output
|  3>     printlevel normal
|  4> end
|  5> * xyz 0 1
|  6> C 4.6562092564 -1.373298131 -0.9001908977
|  7> C 4.6165192261 0.0920722341 -0.5177541723
|  8> O 3.4623097661 0.4127728977 0.2778778552
|  9> P 1.9819580386 0.3908902408 -0.3106012301
| 10> S 1.8697340946 1.0532092513 -2.1583948685
| 11> O 1.2195305307 1.1991697554 0.8161841965
| 12> C 1.314900248 2.6370676783 0.8989175487
| 13> C 0.5002722174 3.0797005479 2.095241296
| 14> S 1.2939755538 -1.5507109664 0.0749224292
| 15> C 0.0526390683 -1.7232420314 -1.2535899554
| 16> S -1.6186427945 -1.9994605109 -0.6290877915
| 17> P -1.9817022116 -0.0646450363 0.178723407
| 18> S -1.5056772605 1.4599404428 -0.950928753
| 19> O -1.2583328815 -0.0403323224 1.577567993
| 20> C -1.5176145379 -1.0228177666 2.6152935403
| 21> C -0.3204007935 -1.0469114064 3.5416597657
| 22> O -3.5105407903 -0.138279204 0.6139767423
| 23> C -4.5987714336 0.1717042463 -0.2745902052
| 24> C -4.7166499165 -0.820204067 -1.4133349526
| 25> H 4.549813246 -1.9978987861 -0.0169627413
| 26> H 3.8447199451 -1.5975802054 -1.591112174
| 27> H 5.6017821397 -1.590738026 -1.3862808979
| 28> H 4.6033907319 0.7224618576 -1.4127213118
| 29> H 5.4575347258 0.3668861123 0.1202322013
| 30> H 2.3684828152 2.9112362211 1.000950944
| 31> H 0.9211459759 3.0590114597 -0.0324484451
| 32> H -0.5295282025 2.7522264803 1.9741209527
| 33> H 0.9059978226 2.642786886 3.0029371794
| 34> H 0.5278602027 4.1621107072 2.1658576908
| 35> H 0.3030208261 -2.6072502957 -1.8342321608
| 36> H 0.078982582 -0.8230135122 -1.8740680575
| 37> H -2.427422503 -0.7175131133 3.135007989
| 38> H -1.6787521818 -1.9968846465 2.1441022671
| 39> H -0.1642783023 -0.0633515947 3.9751097988
| 40> H -0.4992582613 -1.7667984559 4.33367887
| 41> H 0.573081688 -1.3320480722 2.9918305535
| 42> H -5.4752298515 0.1459553811 0.3745722217
| 43> H -4.4501715096 1.1850251385 -0.6602797467
| 44> H -4.7353308011 -1.8372240005 -1.0298996609
| 45> H -5.6311672963 -0.6241934873 -1.9638622243
| 46> H -3.8702126958 -0.7147565586 -2.0900724308
| 47> *
| 48>
| 49>                          ****END OF INPUT****

CARTESIAN COORDINATES (ANGSTROEM)
---------------------------------
  C      4.656209   -1.373298   -0.900191
  C      4.616519    0.092072   -0.517754
  O      3.462310    0.412773    0.277878
  P      1.981958    0.390890   -0.310601
  S      1.869734    1.053209   -2.158395
  O      1.219531    1.199170    0.816184
  C      1.314900    2.637068    0.898918
  C      0.500272    3.079701    2.095241
  S      1.293976   -1.550711    0.074922
  C      0.052639   -1.723242   -1.253590
  S     -1.618643   -1.999461   -0.629088
  P     -1.981702   -0.064645    0.178723
  S     -1.505677    1.459940   -0.950929
  O     -1.258333   -0.040332    1.577568
  C     -1.517615   -1.022818    2.615294
  C     -0.320401   -1.046911    3.541660
  O     -3.510541   -0.138279    0.613977
  C     -4.598771    0.171704   -0.274590
  C     -4.716650   -0.820204   -1.413335
  H      4.549813   -1.997899   -0.016963
  H      3.844720   -1.597580   -1.591112
  H      5.601782   -1.590738   -1.386281
  H      4.603391    0.722462   -1.412721
  H      5.457535    0.366886    0.120232
  H      2.368483    2.911236    1.000951
  H      0.921146    3.059011   -0.032448
  H     -0.529528    2.752226    1.974121
  H      0.905998    2.642787    3.002937
  H      0.527860    4.162111    2.165858
  H      0.303021   -2.607250   -1.834232
  H      0.078983   -0.823014   -1.874068
  H     -2.427423   -0.717513    3.135008
  H     -1.678752   -1.996885    2.144102
  H     -0.164278   -0.063352    3.975110
  H     -0.499258   -1.766798    4.333679
  H      0.573082   -1.332048    2.991831
  H     -5.475230    0.145955    0.374572
  H     -4.450172    1.185025   -0.660280
  H     -4.735331   -1.837224   -1.029900
  H     -5.631167   -0.624193   -1.963862
  H     -3.870213   -0.714757   -2.090072

 Total Charge           Charge          ....    0
 Multiplicity           Mult            ....    1
 Number of Electrons    NEL             ....  202
 Basis Dimension        Dim             ....  334

ORBITAL ENERGIES
----------------

  NO   OCC          E(Eh)            E(eV)
   0   2.0000     -88.044552     -2395.8141
   1   2.0000     -88.043172     -2395.7765
   2   2.0000     -87.982947     -2394.1377
   3   2.0000     -87.980268     -2394.0648
   4   2.0000     -76.424114     -2079.6059
   5   2.0000     -76.419712     -2079.4861
   6   2.0000     -18.793690      -511.4023
   7   2.0000     -18.788454      -511.2598
   8   2.0000     -18.787673      -511.2386
   9   2.0000     -18.778515      -510.9894
  10   2.0000      -9.955828      -270.9118
  11   2.0000      -9.953486      -270.8481
  12   2.0000      -9.951550      -270.7954
  13   2.0000      -9.947448      -270.6838
  14   2.0000      -9.939567      -270.4694
  15   2.0000      -9.884764      -268.9781
  16   2.0000      -9.882563      -268.9182
  17   2.0000      -9.881011      -268.8760
  18   2.0000      -9.874043      -268.6864
  19   2.0000      -7.689557      -209.2435
  20   2.0000      -7.688347      -209.2105
  21   2.0000      -7.627852      -207.5644
  22   2.0000      -7.625207      -207.4924
  23   2.0000      -6.421570      -174.7398
  24   2.0000      -6.417467      -174.6281
  25   2.0000      -5.717396      -155.5783
  26   2.0000      -5.716201      -155.5457
  27   2.0000      -5.713862      -155.4821
  28   2.0000      -5.712876      -155.4553
  29   2.0000      -5.706763      -155.2889
  30   2.0000      -5.705220      -155.2469
  31   2.0000      -5.656818      -153.9298
  32   2.0000      -5.654105      -153.8560
  33   2.0000      -5.648353      -153.6995
  34   2.0000      -5.648072      -153.6919
  35   2.0000      -5.646001      -153.6355
  36   2.0000      -5.645234      -153.6146
  37   2.0000      -4.644450      -126.3819
  38   2.0000      -4.643331      -126.3515
  39   2.0000      -4.641763      -126.3088
  40   2.0000      -4.639828      -126.2561
  41   2.0000      -4.639051      -126.2350
  42   2.0000      -4.638246      -126.2131
  43   2.0000      -0.987082       -26.8599
  44   2.0000      -0.979642       -26.6574
  45   2.0000      -0.943099       -25.6630
  46   2.0000      -0.935897       -25.4670
  47   2.0000      -0.763143       -20.7662
  48   2.0000      -0.719479       -19.5780
  49   2.0000      -0.707119       -19.2417
  50   2.0000      -0.688397       -18.7322
  51   2.0000      -0.682011       -18.5585
  52   2.0000      -0.673055       -18.3148
  53   2.0000      -0.648082       -17.6352
  54   2.0000      -0.630878       -17.1671
  55   2.0000      -0.597902       -16.2697
  56   2.0000      -0.586923       -15.9710
  57   2.0000      -0.568853       -15.4793
  58   2.0000      -0.565069       -15.3763
  59   2.0000      -0.554702       -15.0942
  60   2.0000      -0.503758       -13.7079
  61   2.0000      -0.496138       -13.5006
  62   2.0000      -0.473553       -12.8860
  63   2.0000      -0.466584       -12.6964
  64   2.0000      -0.450949       -12.2709
  65   2.0000      -0.445351       -12.1186
  66   2.0000      -0.436916       -11.8891
  67   2.0000      -0.434028       -11.8105
  68   2.0000      -0.425244       -11.5715
  69   2.0000      -0.419152       -11.4057
  70   2.0000      -0.413278       -11.2459
  71   2.0000      -0.391646       -10.6572
  72   2.0000      -0.387504       -10.5445
  73   2.0000      -0.383547       -10.4368
  74   2.0000      -0.379948       -10.3389
  75   2.0000      -0.365551        -9.9472
  76   2.0000      -0.361647        -9.8409
  77   2.0000      -0.354929        -9.6581
  78   2.0000      -0.351507        -9.5650
  79   2.0000      -0.349306        -9.5051
  80   2.0000      -0.344418        -9.3721
  81   2.0000      -0.339829        -9.2472
  82   2.0000      -0.336910        -9.1678
  83   2.0000      -0.334308        -9.0970
  84   2.0000      -0.324518        -8.8306
  85   2.0000      -0.314212        -8.5502
  86   2.0000      -0.308350        -8.3906
  87   2.0000      -0.301874        -8.2144
  88   2.0000      -0.293603        -7.9894
  89   2.0000      -0.291203        -7.9240
  90   2.0000      -0.278922        -7.5899
  91   2.0000      -0.267146        -7.2694
  92   2.0000      -0.264183        -7.1888
  93   2.0000      -0.261321        -7.1109
  94   2.0000      -0.256876        -6.9900
  95   2.0000      -0.237640        -6.4665
  96   2.0000      -0.219852        -5.9825
  97   2.0000      -0.214280        -5.8309
  98   2.0000      -0.203711        -5.5432
  99   2.0000      -0.193465        -5.2644
 100   2.0000      -0.184186        -5.0120
 101   0.0000      -0.040394        -1.0992
 102   0.0000      -0.030172        -0.8210
 103   0.0000      -0.011289        -0.3072
 104   0.0000       0.012493         0.3400
 105   0.0000       0.022092         0.6012

MULLIKEN ATOMIC CHARGES
-----------------------
   0 C :   -0.310402
   1 C :   -0.002733
   2 O :   -0.379951
   3 P :    0.612417
   4 S :   -0.320337
   5 O :   -0.354103
   6 C :   -0.002858
   7 C :   -0.282855
   8 S :   -0.091191
   9 C :   -0.356665
  10 S :   -0.103680
  11 P :    0.598679
  12 S :   -0.292159
  13 O :   -0.346083
  14 C :   -0.011974
  15 C :   -0.281986
  16 O :   -0.386042
  17 C :    0.001258
  18 C :   -0.322452
  19 H :    0.115131
  20 H :    0.120274
  21 H :    0.111138
  22 H :    0.110024
  23 H :    0.101940
  24 H :    0.095072
  25 H :    0.113308
  26 H :    0.125326
  27 H :    0.109226
  28 H :    0.104005
  29 H :    0.183152
  30 H :    0.208749
  31 H :    0.105525
  32 H :    0.100252
  33 H :    0.119547
  34 H :    0.105162
  35 H :    0.125471
  36 H :    0.103963
  37 H :    0.111431
  38 H :    0.117558
  39 H :    0.114839
  40 H :    0.132024
Sum of atomic charges:   -0.0000000

LOEWDIN ATOMIC CHARGES
----------------------
   0 C :   -0.369089
   1 C :   -0.121051
   2 O :   -0.249330
   3 P :    0.568514
   4 S :   -0.312899
   5 O :   -0.233405
   6 C :   -0.116839
   7 C :   -0.352505
   8 S :    0.090967
   9 C :   -0.480160
  10 S :    0.077694
  11 P :    0.563656
  12 S :   -0.289646
  13 O :   -0.227440
  14 C :   -0.116491
  15 C :   -0.352380
  16 O :   -0.251303
  17 C :   -0.116695
  18 C :   -0.371948
  19 H :    0.123026
  20 H :    0.119363
  21 H :    0.129825
  22 H :    0.109420
  23 H :    0.116995
  24 H :    0.106420
  25 H :    0.110731
  26 H :    0.127171
  27 H :    0.121530
  28 H :    0.127373
  29 H :    0.137724
  30 H :    0.127395
  31 H :    0.114085
  32 H :    0.101635
  33 H :    0.127423
  34 H :    0.127768
  35 H :    0.123559
  36 H :    0.118265
  37 H :    0.112575
  38 H :    0.122841
  39 H :    0.132059
  40 H :    0.123164

  Mayer bond orders larger than 0.100000
B(  0-C ,  1-C ) :   1.1658 B(  0-C , 19-H ) :   0.9449 B(  0-C , 20-H ) :   0.9365
B(  0-C , 21-H ) :   0.9385 B(  1-C ,  2-O ) :   0.9137 B(  1-C , 22-H ) :   0.9130
B(  1-C , 23-H ) :   0.9338 B(  2-O ,  3-P ) :   1.0946 B(  3-P ,  4-S ) :   1.6056
B(  3-P ,  5-O ) :   1.1476 B(  3-P ,  8-S ) :   0.9651 B(  4-S ,  8-S ) :   0.1171
B(  5-O ,  6-C ) :   0.8954 B(  6-C ,  7-C ) :   1.1656 B(  6-C , 24-H ) :   0.9262
B(  6-C , 25-H ) :   0.9152 B(  7-C , 26-H ) :   0.9424 B(  7-C , 27-H ) :   0.9480
B(  7-C , 28-H ) :   0.9407 B(  8-S ,  9-C ) :   0.9920 B(  9-C , 10-S ) :   1.0019
B(  9-C , 29-H ) :   0.9114 B(  9-C , 30-H ) :   0.8468 B( 10-S , 11-P ) :   0.9413
B( 10-S , 12-S ) :   0.1040 B( 11-P , 12-S ) :   1.6484 B( 11-P , 13-O ) :   1.1387
B( 11-P , 16-O ) :   1.0805 B( 13-O , 14-C ) :   0.8890 B( 14-C , 15-C ) :   1.1655
B( 14-C , 31-H ) :   0.9313 B( 14-C , 32-H ) :   0.9083 B( 15-C , 33-H ) :   0.9477
B( 15-C , 34-H ) :   0.9399 B( 15-C , 35-H ) :   0.9431 B( 16-O , 17-C ) :   0.9089
B( 17-C , 18-C ) :   1.1667 B( 17-C , 36-H ) :   0.9343 B( 17-C , 37-H ) :   0.9176
B( 18-C , 38-H ) :   0.9434 B( 18-C , 39-H ) :   0.9371 B( 18-C , 40-H ) :   0.9347

Dispersion correction           -0.068266865
FINAL SINGLE POINT ENERGY     -2929.522617368862

DIPOLE MOMENT
-------------

Method             : SCF
Type of density    : Electron Density
Multiplicity       :   1
Irrep              :   0
Energy             : -2929.6401482696055609 Eh
Relativity type    :
Basis              : AO
                                X                 Y                 Z
Electronic contribution:     -0.486069257      -0.762517721      -9.930818441
Nuclear contribution   :      0.254833838       0.020978477      10.898707996
                        -----------------------------------------
Total Dipole Moment    :     -0.231235419      -0.741539244       0.967889556
                        -----------------------------------------
Magnitude (a.u.)       :      1.241032014
Magnitude (Debye)      :      3.154452692

Rotational constants in cm-1:             0.012121             0.005572             0.005402
Rotational constants in MHz :           363.379887           167.033778           161.955737

                             ****ORCA TERMINATED NORMALLY****
TOTAL RUN TIME: 0 days 0 hours 0 minutes 22 seconds 183 msec
