                         Program Version 6.0.0  -   RELEASE  -
|  1> ! pbe def2-sv(p) def2/J RI DEFGRID1 loosescf d4 GCP(DFT/SV(P)) printgap
|  2> %output
|  3>     printlevel normal
|  4> end
|  5> * xyz 0 1
|  6> C 5.1625989795 -1.551707549 -0.7803220376
|  7> C 4.470226469 -0.6179937361 -1.7507765047
|  8> O 3.0939308869 -0.3829269967 -1.3869554712
|  9> P 2.7023873711 0.4230401182 -0.0749594932
| 10> S 3.9034598435 1.874473829 0.4550643964
| 11> O 2.5500900818 -0.7591503259 0.9840903177
| 12> C 2.5707114312 -0.5213299517 2.4019362293
| 13> C 1.3298022744 0.2100318197 2.8709269518
| 14> S 0.7357390481 0.9641584843 -0.6319856844
| 15> C 0.059111392 -0.7165242746 -0.884486095
| 16> S -1.1514617916 -1.1589724297 0.3713814126
| 17> P -2.7410516551 0.0329635481 -0.4057953236
| 18> S -2.8177146553 0.1500762607 -2.3609501189
| 19> O -2.6069321376 1.4892863269 0.1755171982
| 20> C -2.1879936437 1.8878127757 1.5039092546
| 21> C -2.8840712197 1.1333595458 2.6158275465
| 22> O -4.0292633991 -0.5192200793 0.3374261702
| 23> C -4.3967999686 -1.9062950013 0.4569572829
| 24> C -4.4762910055 -2.6129570822 -0.8800005482
| 25> H 5.247469789 -1.0741164421 0.1948680733
| 26> H 4.5985390483 -2.4746489256 -0.6747309408
| 27> H 6.158283082 -1.7768835239 -1.1494675978
| 28> H 4.4040334092 -1.0461344432 -2.7519211601
| 29> H 4.9855271036 0.346768709 -1.7920056089
| 30> H 2.6394806295 -1.5197306431 2.8352671598
| 31> H 3.4691392198 0.0566562984 2.6408819009
| 32> H 1.3587481618 0.3127689376 3.9507246276
| 33> H 1.301147773 1.2038817284 2.4230983504
| 34> H 0.4369217324 -0.3407449815 2.5845591856
| 35> H 0.8668932277 -1.4404337643 -0.8378724087
| 36> H -0.4320434728 -0.7200736004 -1.8591704832
| 37> H -1.10335118 1.7617860235 1.5577690126
| 38> H -2.4290201097 2.9517163827 1.5288226571
| 39> H -3.962466026 1.2103922188 2.50486377
| 40> H -2.6001984216 0.0830214552 2.6033814744
| 41> H -2.5894718147 1.5662148102 3.5669901202
| 42> H -3.6688724594 -2.3962951561 1.1094190372
| 43> H -5.3713714516 -1.8714662667 0.9468279639
| 44> H -5.1494179072 -2.0833413318 -1.550123862
| 45> H -3.4927621973 -2.6518110765 -1.3459000267
| 46> H -4.8386539997 -3.6251797772 -0.7322287642
| 47> *
| 48>
| 49>                          ****END OF INPUT****

CARTESIAN COORDINATES (ANGSTROEM)
---------------------------------
  C      5.162599   -1.551708   -0.780322
  C      4.470226   -0.617994   -1.750777
  O      3.093931   -0.382927   -1.386955
  P      2.702387    0.423040   -0.074959
  S      3.903460    1.874474    0.455064
  O      2.550090   -0.759150    0.984090
  C      2.570711   -0.521330    2.401936
  C      1.329802    0.210032    2.870927
  S      0.735739    0.964158   -0.631986
  C      0.059111   -0.716524   -0.884486
  S     -1.151462   -1.158972    0.371381
  P     -2.741052    0.032964   -0.405795
  S     -2.817715    0.150076   -2.360950
  O     -2.606932    1.489286    0.175517
  C     -2.187994    1.887813    1.503909
  C     -2.884071    1.133360    2.615828
  O     -4.029263   -0.519220    0.337426
  C     -4.396800   -1.906295    0.456957
  C     -4.476291   -2.612957   -0.880001
  H      5.247470   -1.074116    0.194868
  H      4.598539   -2.474649   -0.674731
  H      6.158283   -1.776884   -1.149468
  H      4.404033   -1.046134   -2.751921
  H      4.985527    0.346769   -1.792006
  H      2.639481   -1.519731    2.835267
  H      3.469139    0.056656    2.640882
  H      1.358748    0.312769    3.950725
  H      1.301148    1.203882    2.423098
  H      0.436922   -0.340745    2.584559
  H      0.866893   -1.440434   -0.837872
  H     -0.432043   -0.720074   -1.859170
  H     -1.103351    1.761786    1.557769
  H     -2.429020    2.951716    1.528823
  H     -3.962466    1.210392    2.504864
  H     -2.600198    0.083021    2.603381
  H     -2.589472    1.566215    3.566990
  H     -3.668872   -2.396295    1.109419
  H     -5.371371   -1.871466    0.946828
  H     -5.149418   -2.083341   -1.550124
  H     -3.492762   -2.651811   -1.345900
  H     -4.838654   -3.625180   -0.732229

 Total Charge           Charge          ....    0
 Multiplicity           Mult            ....    1
 Number of Electrons    NEL             ....  202
 Basis Dimension        Dim             ....  334

ORBITAL ENERGIES
----------------

  NO   OCC          E(Eh)            E(eV)
   0   2.0000     -88.052150     -2396.0208
   1   2.0000     -88.042954     -2395.7706
   2   2.0000     -87.992346     -2394.3935
   3   2.0000     -87.982493     -2394.1254
   4   2.0000     -76.429953     -2079.7647
   5   2.0000     -76.429167     -2079.7434
   6   2.0000     -18.798095      -511.5222
   7   2.0000     -18.796964      -511.4914
   8   2.0000     -18.792964      -511.3825
   9   2.0000     -18.791750      -511.3495
  10   2.0000      -9.963126      -271.1104
  11   2.0000      -9.957237      -270.9502
  12   2.0000      -9.956696      -270.9355
  13   2.0000      -9.956128      -270.9200
  14   2.0000      -9.954771      -270.8831
  15   2.0000      -9.891461      -269.1603
  16   2.0000      -9.887369      -269.0490
  17   2.0000      -9.887233      -269.0453
  18   2.0000      -9.885910      -269.0093
  19   2.0000      -7.696672      -209.4371
  20   2.0000      -7.687980      -209.2006
  21   2.0000      -7.637437      -207.8252
  22   2.0000      -7.627776      -207.5623
  23   2.0000      -6.426969      -174.8867
  24   2.0000      -6.426944      -174.8860
  25   2.0000      -5.724201      -155.7634
  26   2.0000      -5.721127      -155.6798
  27   2.0000      -5.716217      -155.5462
  28   2.0000      -5.714134      -155.4895
  29   2.0000      -5.712388      -155.4420
  30   2.0000      -5.704685      -155.2324
  31   2.0000      -5.666414      -154.1910
  32   2.0000      -5.658035      -153.9630
  33   2.0000      -5.657581      -153.9506
  34   2.0000      -5.656894      -153.9319
  35   2.0000      -5.648416      -153.7012
  36   2.0000      -5.647673      -153.6810
  37   2.0000      -4.649694      -126.5246
  38   2.0000      -4.649299      -126.5139
  39   2.0000      -4.649237      -126.5122
  40   2.0000      -4.648880      -126.5025
  41   2.0000      -4.647425      -126.4629
  42   2.0000      -4.646881      -126.4481
  43   2.0000      -0.990299       -26.9474
  44   2.0000      -0.990151       -26.9434
  45   2.0000      -0.949132       -25.8272
  46   2.0000      -0.947986       -25.7960
  47   2.0000      -0.767287       -20.8789
  48   2.0000      -0.725627       -19.7453
  49   2.0000      -0.714291       -19.4368
  50   2.0000      -0.694630       -18.9018
  51   2.0000      -0.690886       -18.8000
  52   2.0000      -0.678834       -18.4720
  53   2.0000      -0.657617       -17.8947
  54   2.0000      -0.641126       -17.4459
  55   2.0000      -0.601817       -16.3763
  56   2.0000      -0.594560       -16.1788
  57   2.0000      -0.582316       -15.8456
  58   2.0000      -0.575872       -15.6703
  59   2.0000      -0.568964       -15.4823
  60   2.0000      -0.499695       -13.5974
  61   2.0000      -0.495288       -13.4775
  62   2.0000      -0.477058       -12.9814
  63   2.0000      -0.474593       -12.9143
  64   2.0000      -0.462386       -12.5822
  65   2.0000      -0.451642       -12.2898
  66   2.0000      -0.445188       -12.1142
  67   2.0000      -0.441539       -12.0149
  68   2.0000      -0.434458       -11.8222
  69   2.0000      -0.417937       -11.3726
  70   2.0000      -0.415038       -11.2938
  71   2.0000      -0.405705       -11.0398
  72   2.0000      -0.400201       -10.8900
  73   2.0000      -0.397438       -10.8148
  74   2.0000      -0.395949       -10.7743
  75   2.0000      -0.373200       -10.1553
  76   2.0000      -0.367611       -10.0032
  77   2.0000      -0.358125        -9.7451
  78   2.0000      -0.355668        -9.6782
  79   2.0000      -0.352243        -9.5850
  80   2.0000      -0.350926        -9.5492
  81   2.0000      -0.348887        -9.4937
  82   2.0000      -0.346605        -9.4316
  83   2.0000      -0.343346        -9.3429
  84   2.0000      -0.335667        -9.1340
  85   2.0000      -0.325919        -8.8687
  86   2.0000      -0.318558        -8.6684
  87   2.0000      -0.300635        -8.1807
  88   2.0000      -0.298333        -8.1181
  89   2.0000      -0.290403        -7.9023
  90   2.0000      -0.288417        -7.8482
  91   2.0000      -0.278476        -7.5777
  92   2.0000      -0.276014        -7.5107
  93   2.0000      -0.269978        -7.3465
  94   2.0000      -0.264905        -7.2084
  95   2.0000      -0.240402        -6.5417
  96   2.0000      -0.221014        -6.0141
  97   2.0000      -0.211871        -5.7653
  98   2.0000      -0.207773        -5.6538
  99   2.0000      -0.201946        -5.4952
 100   2.0000      -0.196117        -5.3366
 101   0.0000      -0.044131        -1.2009
 102   0.0000      -0.033473        -0.9108
 103   0.0000      -0.021360        -0.5812
 104   0.0000       0.002289         0.0623
 105   0.0000       0.015720         0.4278

MULLIKEN ATOMIC CHARGES
-----------------------
   0 C :   -0.307794
   1 C :   -0.005219
   2 O :   -0.378284
   3 P :    0.595168
   4 S :   -0.316865
   5 O :   -0.382369
   6 C :    0.001499
   7 C :   -0.349534
   8 S :   -0.051465
   9 C :   -0.351486
  10 S :   -0.122735
  11 P :    0.591491
  12 S :   -0.301856
  13 O :   -0.353095
  14 C :   -0.014428
  15 C :   -0.315599
  16 O :   -0.373199
  17 C :   -0.011103
  18 C :   -0.306765
  19 H :    0.122932
  20 H :    0.114873
  21 H :    0.113913
  22 H :    0.108424
  23 H :    0.115873
  24 H :    0.104638
  25 H :    0.111160
  26 H :    0.110887
  27 H :    0.138095
  28 H :    0.134188
  29 H :    0.192351
  30 H :    0.200799
  31 H :    0.131056
  32 H :    0.112405
  33 H :    0.125314
  34 H :    0.116277
  35 H :    0.115205
  36 H :    0.109217
  37 H :    0.111041
  38 H :    0.129421
  39 H :    0.124385
  40 H :    0.111184
Sum of atomic charges:    0.0000000

LOEWDIN ATOMIC CHARGES
----------------------
   0 C :   -0.365534
   1 C :   -0.115212
   2 O :   -0.249039
   3 P :    0.567962
   4 S :   -0.316902
   5 O :   -0.248986
   6 C :   -0.119181
   7 C :   -0.376207
   8 S :    0.101750
   9 C :   -0.479639
  10 S :    0.074670
  11 P :    0.567377
  12 S :   -0.302986
  13 O :   -0.231391
  14 C :   -0.113139
  15 C :   -0.367616
  16 O :   -0.240365
  17 C :   -0.114006
  18 C :   -0.368706
  19 H :    0.122413
  20 H :    0.125343
  21 H :    0.131399
  22 H :    0.120493
  23 H :    0.113479
  24 H :    0.118605
  25 H :    0.110045
  26 H :    0.130572
  27 H :    0.121487
  28 H :    0.116103
  29 H :    0.135066
  30 H :    0.129896
  31 H :    0.109927
  32 H :    0.124939
  33 H :    0.129113
  34 H :    0.114427
  35 H :    0.132283
  36 H :    0.106398
  37 H :    0.122234
  38 H :    0.131854
  39 H :    0.120991
  40 H :    0.130083

  Mayer bond orders larger than 0.100000
B(  0-C ,  1-C ) :   1.1622 B(  0-C , 19-H ) :   0.9359 B(  0-C , 20-H ) :   0.9465
B(  0-C , 21-H ) :   0.9381 B(  1-C ,  2-O ) :   0.9065 B(  1-C , 22-H ) :   0.9354
B(  1-C , 23-H ) :   0.9189 B(  2-O ,  3-P ) :   1.0985 B(  3-P ,  4-S ) :   1.6317
B(  3-P ,  5-O ) :   1.0634 B(  3-P ,  8-S ) :   0.9956 B(  5-O ,  6-C ) :   0.9101
B(  6-C ,  7-C ) :   1.1648 B(  6-C , 24-H ) :   0.9332 B(  6-C , 25-H ) :   0.9142
B(  7-C , 26-H ) :   0.9351 B(  7-C , 27-H ) :   0.9281 B(  7-C , 28-H ) :   0.9292
B(  8-S ,  9-C ) :   0.9723 B(  9-C , 10-S ) :   1.0084 B(  9-C , 29-H ) :   0.8885
B(  9-C , 30-H ) :   0.8587 B( 10-S , 11-P ) :   0.9236 B( 10-S , 12-S ) :   0.1095
B( 11-P , 12-S ) :   1.6434 B( 11-P , 13-O ) :   1.1505 B( 11-P , 16-O ) :   1.0975
B( 13-O , 14-C ) :   0.8971 B( 14-C , 15-C ) :   1.1686 B( 14-C , 31-H ) :   0.9112
B( 14-C , 32-H ) :   0.9336 B( 15-C , 33-H ) :   0.9416 B( 15-C , 34-H ) :   0.9380
B( 15-C , 35-H ) :   0.9356 B( 16-O , 17-C ) :   0.9109 B( 17-C , 18-C ) :   1.1672
B( 17-C , 36-H ) :   0.9259 B( 17-C , 37-H ) :   0.9333 B( 18-C , 38-H ) :   0.9425
B( 18-C , 39-H ) :   0.9331 B( 18-C , 40-H ) :   0.9349

Dispersion correction           -0.064968460
FINAL SINGLE POINT ENERGY     -2929.514123116954

DIPOLE MOMENT
-------------

Method             : SCF
Type of density    : Electron Density
Multiplicity       :   1
Irrep              :   0
Energy             : -2929.6357385875257933 Eh
Relativity type    :
Basis              : AO
                                X                 Y                 Z
Electronic contribution:      0.130283059      11.577689762     -13.730995172
Nuclear contribution   :     -0.160388499     -13.154217848      15.273909016
                        -----------------------------------------
Total Dipole Moment    :     -0.030105439      -1.576528086       1.542913844
                        -----------------------------------------
Magnitude (a.u.)       :      2.206112027
Magnitude (Debye)      :      5.607491137

Rotational constants in cm-1:             0.013898             0.004258             0.003963
Rotational constants in MHz :           416.658379           127.665824           118.816775

                             ****ORCA TERMINATED NORMALLY****
TOTAL RUN TIME: 0 days 0 hours 0 minutes 21 seconds 27 msec
