                         Program Version 6.0.0  -   RELEASE  -
|  1> ! pbe def2-sv(p) def2/J RI DEFGRID1 loosescf d4 GCP(DFT/SV(P)) printgap
|  2> %output
|  3>     printlevel normal
|  4> end
|  5> * xyz 0 1
|  6> C 3.6264592205 -1.8502567722 -2.2117091881
|  7> C 4.1581304607 -0.5346563374 -1.6789707714
|  8> O 3.6751448198 -0.2460951634 -0.3579956061
|  9> P 2.1485177205 0.0904743034 -0.0392695302
| 10> S 1.3008552108 1.1993632977 -1.4227110989
| 11> O 2.2926025492 0.6585252218 1.4263612169
| 12> C 2.4672099177 2.0580724925 1.7162169265
| 13> C 3.7735086627 2.5972521755 1.1728376052
| 14> S 1.2640252723 -1.7727258583 0.4038861023
| 15> C -0.0526876885 -1.8166743775 -0.8663918198
| 16> S -1.7274363311 -1.8871959241 -0.1853171308
| 17> P -2.0259160997 0.1671348917 0.2886017928
| 18> S -0.8698295305 1.0083238177 1.625215677
| 19> O -3.5735931381 0.2049975606 0.650736442
| 20> C -4.0627050698 -0.0282514676 1.9829326704
| 21> C -3.8212204146 -1.4518592632 2.4406282352
| 22> O -1.9519145611 0.9171989573 -1.0933235004
| 23> C -2.7293591251 0.5734449028 -2.2678000328
| 24> C -4.0151100305 1.3720896115 -2.3200034179
| 25> H 3.8010222023 -2.6465099995 -1.4925545581
| 26> H 2.5563094664 -1.769332554 -2.397298811
| 27> H 4.1283702173 -2.088262117 -3.1440232254
| 28> H 3.8713360476 0.290652559 -2.3389777382
| 29> H 5.2423168734 -0.5568643526 -1.5609911769
| 30> H 1.6112606337 2.6038013852 1.3050127857
| 31> H 2.4269365011 2.1002804977 2.8056169059
| 32> H 4.6038925732 1.9931636214 1.5291525543
| 33> H 3.7610046649 2.5739545112 0.0834607022
| 34> H 3.9013475117 3.6235681903 1.5024514548
| 35> H 0.0676309659 -2.7353131596 -1.4341091282
| 36> H 0.048906185 -0.9309277917 -1.500571732
| 37> H -3.5749421854 0.6818417665 2.6580921589
| 38> H -5.1275490867 0.1979315435 1.9123701116
| 39> H -4.2044295902 -2.1563382617 1.7066309155
| 40> H -2.7535781826 -1.6252860133 2.570033002
| 41> H -4.3193732288 -1.6122277177 3.3913776442
| 42> H -2.0700535135 0.8227980604 -3.1019924862
| 43> H -2.9326878238 -0.5009634018 -2.257092951
| 44> H -3.7950401749 2.4351170049 -2.270548618
| 45> H -4.5272793697 1.1549049292 -3.2521559945
| 46> H -4.658276967 1.106975138 -1.4853717087
| 47> *
| 48>
| 49>                          ****END OF INPUT****

CARTESIAN COORDINATES (ANGSTROEM)
---------------------------------
  C      3.626459   -1.850257   -2.211709
  C      4.158130   -0.534656   -1.678971
  O      3.675145   -0.246095   -0.357996
  P      2.148518    0.090474   -0.039270
  S      1.300855    1.199363   -1.422711
  O      2.292603    0.658525    1.426361
  C      2.467210    2.058072    1.716217
  C      3.773509    2.597252    1.172838
  S      1.264025   -1.772726    0.403886
  C     -0.052688   -1.816674   -0.866392
  S     -1.727436   -1.887196   -0.185317
  P     -2.025916    0.167135    0.288602
  S     -0.869830    1.008324    1.625216
  O     -3.573593    0.204998    0.650736
  C     -4.062705   -0.028251    1.982933
  C     -3.821220   -1.451859    2.440628
  O     -1.951915    0.917199   -1.093324
  C     -2.729359    0.573445   -2.267800
  C     -4.015110    1.372090   -2.320003
  H      3.801022   -2.646510   -1.492555
  H      2.556309   -1.769333   -2.397299
  H      4.128370   -2.088262   -3.144023
  H      3.871336    0.290653   -2.338978
  H      5.242317   -0.556864   -1.560991
  H      1.611261    2.603801    1.305013
  H      2.426937    2.100280    2.805617
  H      4.603893    1.993164    1.529153
  H      3.761005    2.573955    0.083461
  H      3.901348    3.623568    1.502451
  H      0.067631   -2.735313   -1.434109
  H      0.048906   -0.930928   -1.500572
  H     -3.574942    0.681842    2.658092
  H     -5.127549    0.197932    1.912370
  H     -4.204430   -2.156338    1.706631
  H     -2.753578   -1.625286    2.570033
  H     -4.319373   -1.612228    3.391378
  H     -2.070054    0.822798   -3.101992
  H     -2.932688   -0.500963   -2.257093
  H     -3.795040    2.435117   -2.270549
  H     -4.527279    1.154905   -3.252156
  H     -4.658277    1.106975   -1.485372

 Total Charge           Charge          ....    0
 Multiplicity           Mult            ....    1
 Number of Electrons    NEL             ....  202
 Basis Dimension        Dim             ....  334

ORBITAL ENERGIES
----------------

  NO   OCC          E(Eh)            E(eV)
   0   2.0000     -88.041989     -2395.7443
   1   2.0000     -88.035746     -2395.5744
   2   2.0000     -87.985007     -2394.1938
   3   2.0000     -87.976823     -2393.9711
   4   2.0000     -76.421601     -2079.5375
   5   2.0000     -76.420283     -2079.5016
   6   2.0000     -18.791078      -511.3312
   7   2.0000     -18.787727      -511.2400
   8   2.0000     -18.780865      -511.0533
   9   2.0000     -18.780440      -511.0417
  10   2.0000      -9.955930      -270.9146
  11   2.0000      -9.952391      -270.8183
  12   2.0000      -9.951607      -270.7970
  13   2.0000      -9.947673      -270.6899
  14   2.0000      -9.942864      -270.5591
  15   2.0000      -9.883734      -268.9501
  16   2.0000      -9.883587      -268.9461
  17   2.0000      -9.883563      -268.9454
  18   2.0000      -9.876653      -268.7574
  19   2.0000      -7.686956      -209.1727
  20   2.0000      -7.681169      -209.0152
  21   2.0000      -7.629816      -207.6178
  22   2.0000      -7.621795      -207.3996
  23   2.0000      -6.419111      -174.6729
  24   2.0000      -6.417669      -174.6336
  25   2.0000      -5.714671      -155.5041
  26   2.0000      -5.711339      -155.4134
  27   2.0000      -5.709065      -155.3516
  28   2.0000      -5.705897      -155.2654
  29   2.0000      -5.704218      -155.2197
  30   2.0000      -5.697817      -155.0455
  31   2.0000      -5.658543      -153.9768
  32   2.0000      -5.650987      -153.7712
  33   2.0000      -5.650789      -153.7658
  34   2.0000      -5.649617      -153.7339
  35   2.0000      -5.642285      -153.5344
  36   2.0000      -5.642003      -153.5267
  37   2.0000      -4.642143      -126.3191
  38   2.0000      -4.640950      -126.2867
  39   2.0000      -4.639827      -126.2561
  40   2.0000      -4.639315      -126.2422
  41   2.0000      -4.639077      -126.2357
  42   2.0000      -4.638642      -126.2239
  43   2.0000      -0.985131       -26.8068
  44   2.0000      -0.978237       -26.6192
  45   2.0000      -0.943450       -25.6726
  46   2.0000      -0.935809       -25.4647
  47   2.0000      -0.758354       -20.6359
  48   2.0000      -0.716763       -19.5041
  49   2.0000      -0.706338       -19.2204
  50   2.0000      -0.688743       -18.7417
  51   2.0000      -0.682374       -18.5683
  52   2.0000      -0.671748       -18.2792
  53   2.0000      -0.648463       -17.6456
  54   2.0000      -0.632608       -17.2141
  55   2.0000      -0.599443       -16.3117
  56   2.0000      -0.588228       -16.0065
  57   2.0000      -0.573923       -15.6172
  58   2.0000      -0.566953       -15.4276
  59   2.0000      -0.557071       -15.1587
  60   2.0000      -0.498490       -13.5646
  61   2.0000      -0.485895       -13.2219
  62   2.0000      -0.473198       -12.8764
  63   2.0000      -0.464860       -12.6495
  64   2.0000      -0.450573       -12.2607
  65   2.0000      -0.444822       -12.1042
  66   2.0000      -0.437150       -11.8955
  67   2.0000      -0.433942       -11.8082
  68   2.0000      -0.427152       -11.6234
  69   2.0000      -0.417504       -11.3609
  70   2.0000      -0.408269       -11.1096
  71   2.0000      -0.391451       -10.6519
  72   2.0000      -0.388163       -10.5625
  73   2.0000      -0.384161       -10.4535
  74   2.0000      -0.378921       -10.3110
  75   2.0000      -0.376852       -10.2547
  76   2.0000      -0.361978        -9.8499
  77   2.0000      -0.356064        -9.6890
  78   2.0000      -0.350765        -9.5448
  79   2.0000      -0.349483        -9.5099
  80   2.0000      -0.345520        -9.4021
  81   2.0000      -0.343401        -9.3444
  82   2.0000      -0.338617        -9.2142
  83   2.0000      -0.333760        -9.0821
  84   2.0000      -0.330248        -8.9865
  85   2.0000      -0.313625        -8.5342
  86   2.0000      -0.307784        -8.3752
  87   2.0000      -0.293128        -7.9764
  88   2.0000      -0.289968        -7.8904
  89   2.0000      -0.288297        -7.8450
  90   2.0000      -0.277493        -7.5510
  91   2.0000      -0.268471        -7.3055
  92   2.0000      -0.265253        -7.2179
  93   2.0000      -0.260416        -7.0863
  94   2.0000      -0.256533        -6.9806
  95   2.0000      -0.235498        -6.4082
  96   2.0000      -0.216532        -5.8921
  97   2.0000      -0.206879        -5.6295
  98   2.0000      -0.202329        -5.5056
  99   2.0000      -0.188531        -5.1302
 100   2.0000      -0.185494        -5.0476
 101   0.0000      -0.036493        -0.9930
 102   0.0000      -0.027646        -0.7523
 103   0.0000      -0.013064        -0.3555
 104   0.0000       0.005077         0.1381
 105   0.0000       0.027471         0.7475

MULLIKEN ATOMIC CHARGES
-----------------------
   0 C :   -0.317111
   1 C :    0.001711
   2 O :   -0.371989
   3 P :    0.616171
   4 S :   -0.320332
   5 O :   -0.362776
   6 C :   -0.002489
   7 C :   -0.304910
   8 S :   -0.065844
   9 C :   -0.374096
  10 S :   -0.099913
  11 P :    0.604282
  12 S :   -0.303600
  13 O :   -0.382158
  14 C :    0.001005
  15 C :   -0.328378
  16 O :   -0.346451
  17 C :   -0.016526
  18 C :   -0.288581
  19 H :    0.120977
  20 H :    0.118204
  21 H :    0.110515
  22 H :    0.105414
  23 H :    0.103097
  24 H :    0.122450
  25 H :    0.105214
  26 H :    0.115318
  27 H :    0.122096
  28 H :    0.109583
  29 H :    0.183340
  30 H :    0.199516
  31 H :    0.113589
  32 H :    0.103320
  33 H :    0.118170
  34 H :    0.136578
  35 H :    0.115438
  36 H :    0.109918
  37 H :    0.098269
  38 H :    0.121250
  39 H :    0.107484
  40 H :    0.122248
Sum of atomic charges:    0.0000000

LOEWDIN ATOMIC CHARGES
----------------------
   0 C :   -0.368698
   1 C :   -0.120086
   2 O :   -0.249429
   3 P :    0.574203
   4 S :   -0.304806
   5 O :   -0.232431
   6 C :   -0.114664
   7 C :   -0.366066
   8 S :    0.089071
   9 C :   -0.485310
  10 S :    0.077127
  11 P :    0.566807
  12 S :   -0.300432
  13 O :   -0.248004
  14 C :   -0.118418
  15 C :   -0.373354
  16 O :   -0.227084
  17 C :   -0.117093
  18 C :   -0.359823
  19 H :    0.125775
  20 H :    0.117653
  21 H :    0.129335
  22 H :    0.106953
  23 H :    0.117909
  24 H :    0.112621
  25 H :    0.120026
  26 H :    0.125645
  27 H :    0.121502
  28 H :    0.129428
  29 H :    0.135307
  30 H :    0.120251
  31 H :    0.112798
  32 H :    0.117593
  33 H :    0.122823
  34 H :    0.124859
  35 H :    0.132541
  36 H :    0.120345
  37 H :    0.101129
  38 H :    0.129379
  39 H :    0.128715
  40 H :    0.125904

  Mayer bond orders larger than 0.100000
B(  0-C ,  1-C ) :   1.1637 B(  0-C , 19-H ) :   0.9425 B(  0-C , 20-H ) :   0.9389
B(  0-C , 21-H ) :   0.9380 B(  1-C ,  2-O ) :   0.9250 B(  1-C , 22-H ) :   0.9139
B(  1-C , 23-H ) :   0.9342 B(  2-O ,  3-P ) :   1.0865 B(  3-P ,  4-S ) :   1.5787
B(  3-P ,  5-O ) :   1.1486 B(  3-P ,  8-S ) :   0.9581 B(  4-S ,  8-S ) :   0.1166
B(  4-S , 30-H ) :   0.1095 B(  5-O ,  6-C ) :   0.9018 B(  6-C ,  7-C ) :   1.1629
B(  6-C , 24-H ) :   0.9168 B(  6-C , 25-H ) :   0.9360 B(  7-C , 26-H ) :   0.9450
B(  7-C , 27-H ) :   0.9362 B(  7-C , 28-H ) :   0.9385 B(  8-S ,  9-C ) :   1.0072
B(  9-C , 10-S ) :   0.9931 B(  9-C , 29-H ) :   0.9086 B(  9-C , 30-H ) :   0.8469
B( 10-S , 11-P ) :   0.9484 B( 10-S , 12-S ) :   0.1107 B( 11-P , 12-S ) :   1.6617
B( 11-P , 13-O ) :   1.0767 B( 11-P , 16-O ) :   1.1372 B( 13-O , 14-C ) :   0.9064
B( 14-C , 15-C ) :   1.1652 B( 14-C , 31-H ) :   0.9158 B( 14-C , 32-H ) :   0.9334
B( 15-C , 33-H ) :   0.9427 B( 15-C , 34-H ) :   0.9328 B( 15-C , 35-H ) :   0.9373
B( 16-O , 17-C ) :   0.8965 B( 17-C , 18-C ) :   1.1682 B( 17-C , 36-H ) :   0.9327
B( 17-C , 37-H ) :   0.9072 B( 18-C , 38-H ) :   0.9475 B( 18-C , 39-H ) :   0.9394
B( 18-C , 40-H ) :   0.9412

Dispersion correction           -0.067516634
FINAL SINGLE POINT ENERGY     -2929.516235826805

DIPOLE MOMENT
-------------

Method             : SCF
Type of density    : Electron Density
Multiplicity       :   1
Irrep              :   0
Energy             : -2929.6339336183004889 Eh
Relativity type    :
Basis              : AO
                                X                 Y                 Z
Electronic contribution:      1.536675099      -3.079948266       5.893575610
Nuclear contribution   :     -1.924809845       2.614360239      -6.578521492
                        -----------------------------------------
Total Dipole Moment    :     -0.388134746      -0.465588027      -0.684945882
                        -----------------------------------------
Magnitude (a.u.)       :      0.914642910
Magnitude (Debye)      :      2.324837520

Rotational constants in cm-1:             0.012327             0.005186             0.004948
Rotational constants in MHz :           369.542615           155.467171           148.347641

                             ****ORCA TERMINATED NORMALLY****
TOTAL RUN TIME: 0 days 0 hours 0 minutes 20 seconds 639 msec
