                         Program Version 6.0.0  -   RELEASE  -
|  1> ! pbe def2-sv(p) def2/J RI DEFGRID1 loosescf d4 GCP(DFT/SV(P)) printgap
|  2> %output
|  3>     printlevel normal
|  4> end
|  5> * xyz 0 1
|  6> C 5.5532884464 1.0166415508 -1.2356761168
|  7> C 4.3129243815 1.3385817586 -0.4272990259
|  8> O 3.3280018777 0.3187587267 -0.6968387128
|  9> P 2.1193606294 0.0455645489 0.2940112662
| 10> S 2.6154785984 -0.1228542049 2.1864422007
| 11> O 1.4252764173 -1.2081435487 -0.3716191894
| 12> C 1.7040623177 -2.5594673033 0.0415018269
| 13> C 3.1124082067 -2.9743354172 -0.3253915194
| 14> S 0.7552206655 1.5739372666 -0.1826323713
| 15> C -0.2771468504 1.4122583037 1.3031170991
| 16> S -1.0686856606 -0.2131574989 1.4585479265
| 17> P -2.166534613 -0.2759091329 -0.3636824491
| 18> S -1.3327271954 -0.7802693241 -2.055028402
| 19> O -2.8813652105 1.1514740054 -0.3363307939
| 20> C -2.9809743747 2.041558907 -1.4686582423
| 21> C -2.2718987459 3.3486957311 -1.1768811046
| 22> O -3.288763594 -1.3311174674 0.0003376024
| 23> C -4.1980356604 -1.1700653723 1.1205836432
| 24> C -5.5072475774 -1.840091772 0.7571747471
| 25> H 6.2922178374 1.7951666501 -1.0772548473
| 26> H 5.9670302345 0.0611317795 -0.9258698936
| 27> H 5.3028828337 0.9655251683 -2.291316941
| 28> H 3.8887162074 2.3042043837 -0.7149727535
| 29> H 4.5232448677 1.3440675094 0.6477098507
| 30> H 1.5431415329 -2.630163638 1.1228869078
| 31> H 0.9519068956 -3.1506486976 -0.4841152563
| 32> H 3.2561633236 -4.0213572931 -0.077795293
| 33> H 3.2800921583 -2.8240613379 -1.3887541868
| 34> H 3.8289836467 -2.3740068646 0.2345965788
| 35> H -1.0356637832 2.1888739714 1.2511883502
| 36> H 0.3460167859 1.5209246332 2.1910646173
| 37> H -2.553834663 1.545432861 -2.3463513172
| 38> H -4.0501432543 2.1986517542 -1.6237209302
| 39> H -2.6626174573 3.7937602073 -0.2659615211
| 40> H -1.200698891 3.1866971864 -1.0696273627
| 41> H -2.4413096312 4.0291763484 -2.0049596174
| 42> H -3.733320566 -1.6421284061 1.9890650024
| 43> H -4.3340309794 -0.1039488053 1.3148384754
| 44> H -5.3359006846 -2.8875907726 0.5264789766
| 45> H -6.191156855 -1.7631261783 1.5962651918
| 46> H -5.9471977346 -1.3598547978 -0.1124273002
| 47> *
| 48>
| 49>                          ****END OF INPUT****

CARTESIAN COORDINATES (ANGSTROEM)
---------------------------------
  C      5.553288    1.016642   -1.235676
  C      4.312924    1.338582   -0.427299
  O      3.328002    0.318759   -0.696839
  P      2.119361    0.045565    0.294011
  S      2.615479   -0.122854    2.186442
  O      1.425276   -1.208144   -0.371619
  C      1.704062   -2.559467    0.041502
  C      3.112408   -2.974335   -0.325392
  S      0.755221    1.573937   -0.182632
  C     -0.277147    1.412258    1.303117
  S     -1.068686   -0.213157    1.458548
  P     -2.166535   -0.275909   -0.363682
  S     -1.332727   -0.780269   -2.055028
  O     -2.881365    1.151474   -0.336331
  C     -2.980974    2.041559   -1.468658
  C     -2.271899    3.348696   -1.176881
  O     -3.288764   -1.331117    0.000338
  C     -4.198036   -1.170065    1.120584
  C     -5.507248   -1.840092    0.757175
  H      6.292218    1.795167   -1.077255
  H      5.967030    0.061132   -0.925870
  H      5.302883    0.965525   -2.291317
  H      3.888716    2.304204   -0.714973
  H      4.523245    1.344068    0.647710
  H      1.543142   -2.630164    1.122887
  H      0.951907   -3.150649   -0.484115
  H      3.256163   -4.021357   -0.077795
  H      3.280092   -2.824061   -1.388754
  H      3.828984   -2.374007    0.234597
  H     -1.035664    2.188874    1.251188
  H      0.346017    1.520925    2.191065
  H     -2.553835    1.545433   -2.346351
  H     -4.050143    2.198652   -1.623721
  H     -2.662617    3.793760   -0.265962
  H     -1.200699    3.186697   -1.069627
  H     -2.441310    4.029176   -2.004960
  H     -3.733321   -1.642128    1.989065
  H     -4.334031   -0.103949    1.314838
  H     -5.335901   -2.887591    0.526479
  H     -6.191157   -1.763126    1.596265
  H     -5.947198   -1.359855   -0.112427

 Total Charge           Charge          ....    0
 Multiplicity           Mult            ....    1
 Number of Electrons    NEL             ....  202
 Basis Dimension        Dim             ....  334

ORBITAL ENERGIES
----------------

  NO   OCC          E(Eh)            E(eV)
   0   2.0000     -88.041907     -2395.7421
   1   2.0000     -88.038920     -2395.6608
   2   2.0000     -87.985278     -2394.2011
   3   2.0000     -87.975884     -2393.9455
   4   2.0000     -76.423380     -2079.5859
   5   2.0000     -76.421039     -2079.5222
   6   2.0000     -18.793929      -511.4088
   7   2.0000     -18.791653      -511.3469
   8   2.0000     -18.787867      -511.2438
   9   2.0000     -18.781770      -511.0779
  10   2.0000      -9.957488      -270.9570
  11   2.0000      -9.954115      -270.8653
  12   2.0000      -9.952406      -270.8187
  13   2.0000      -9.952064      -270.8094
  14   2.0000      -9.941572      -270.5239
  15   2.0000      -9.889983      -269.1201
  16   2.0000      -9.889018      -269.0938
  17   2.0000      -9.887512      -269.0529
  18   2.0000      -9.876711      -268.7590
  19   2.0000      -7.686926      -209.1719
  20   2.0000      -7.683800      -209.0868
  21   2.0000      -7.630260      -207.6299
  22   2.0000      -7.621313      -207.3865
  23   2.0000      -6.421004      -174.7244
  24   2.0000      -6.418518      -174.6568
  25   2.0000      -5.714779      -155.5070
  26   2.0000      -5.711831      -155.4268
  27   2.0000      -5.711531      -155.4187
  28   2.0000      -5.708205      -155.3282
  29   2.0000      -5.703801      -155.2083
  30   2.0000      -5.700748      -155.1252
  31   2.0000      -5.659005      -153.9894
  32   2.0000      -5.650964      -153.7705
  33   2.0000      -5.650531      -153.7588
  34   2.0000      -5.650376      -153.7545
  35   2.0000      -5.641763      -153.5202
  36   2.0000      -5.641418      -153.5108
  37   2.0000      -4.643338      -126.3516
  38   2.0000      -4.642764      -126.3360
  39   2.0000      -4.641680      -126.3065
  40   2.0000      -4.641671      -126.3063
  41   2.0000      -4.640053      -126.2623
  42   2.0000      -4.638669      -126.2246
  43   2.0000      -0.983101       -26.7515
  44   2.0000      -0.982612       -26.7382
  45   2.0000      -0.942593       -25.6493
  46   2.0000      -0.941419       -25.6173
  47   2.0000      -0.763287       -20.7701
  48   2.0000      -0.721374       -19.6296
  49   2.0000      -0.709372       -19.3030
  50   2.0000      -0.693492       -18.8709
  51   2.0000      -0.683929       -18.6107
  52   2.0000      -0.668717       -18.1967
  53   2.0000      -0.645551       -17.5663
  54   2.0000      -0.636929       -17.3317
  55   2.0000      -0.595436       -16.2026
  56   2.0000      -0.587114       -15.9762
  57   2.0000      -0.570584       -15.5264
  58   2.0000      -0.566279       -15.4092
  59   2.0000      -0.559566       -15.2266
  60   2.0000      -0.507516       -13.8102
  61   2.0000      -0.500456       -13.6181
  62   2.0000      -0.482205       -13.1215
  63   2.0000      -0.471972       -12.8430
  64   2.0000      -0.457142       -12.4395
  65   2.0000      -0.442719       -12.0470
  66   2.0000      -0.437755       -11.9119
  67   2.0000      -0.433167       -11.7871
  68   2.0000      -0.427413       -11.6305
  69   2.0000      -0.410351       -11.1662
  70   2.0000      -0.401278       -10.9193
  71   2.0000      -0.393862       -10.7175
  72   2.0000      -0.390973       -10.6389
  73   2.0000      -0.386212       -10.5094
  74   2.0000      -0.379603       -10.3295
  75   2.0000      -0.370553       -10.0833
  76   2.0000      -0.367936       -10.0121
  77   2.0000      -0.361249        -9.8301
  78   2.0000      -0.356074        -9.6893
  79   2.0000      -0.354448        -9.6450
  80   2.0000      -0.345061        -9.3896
  81   2.0000      -0.341975        -9.3056
  82   2.0000      -0.339354        -9.2343
  83   2.0000      -0.338406        -9.2085
  84   2.0000      -0.332089        -9.0366
  85   2.0000      -0.319583        -8.6963
  86   2.0000      -0.308692        -8.3999
  87   2.0000      -0.306488        -8.3400
  88   2.0000      -0.298845        -8.1320
  89   2.0000      -0.284410        -7.7392
  90   2.0000      -0.278724        -7.5845
  91   2.0000      -0.270153        -7.3512
  92   2.0000      -0.265771        -7.2320
  93   2.0000      -0.264320        -7.1925
  94   2.0000      -0.259878        -7.0716
  95   2.0000      -0.235800        -6.4164
  96   2.0000      -0.217131        -5.9084
  97   2.0000      -0.206227        -5.6117
  98   2.0000      -0.202633        -5.5139
  99   2.0000      -0.192320        -5.2333
 100   2.0000      -0.186760        -5.0820
 101   0.0000      -0.047007        -1.2791
 102   0.0000      -0.022712        -0.6180
 103   0.0000      -0.005702        -0.1551
 104   0.0000       0.005587         0.1520
 105   0.0000       0.021082         0.5737

MULLIKEN ATOMIC CHARGES
-----------------------
   0 C :   -0.281810
   1 C :   -0.012099
   2 O :   -0.372452
   3 P :    0.633395
   4 S :   -0.344480
   5 O :   -0.341703
   6 C :    0.001358
   7 C :   -0.310130
   8 S :   -0.101291
   9 C :   -0.360445
  10 S :   -0.096623
  11 P :    0.608713
  12 S :   -0.288604
  13 O :   -0.397519
  14 C :   -0.006677
  15 C :   -0.314656
  16 O :   -0.367185
  17 C :   -0.024095
  18 C :   -0.276745
  19 H :    0.111530
  20 H :    0.120491
  21 H :    0.119129
  22 H :    0.101825
  23 H :    0.105539
  24 H :    0.109312
  25 H :    0.108714
  26 H :    0.109946
  27 H :    0.118625
  28 H :    0.119038
  29 H :    0.185919
  30 H :    0.193262
  31 H :    0.116101
  32 H :    0.100733
  33 H :    0.116520
  34 H :    0.134243
  35 H :    0.114950
  36 H :    0.111783
  37 H :    0.106932
  38 H :    0.122633
  39 H :    0.110254
  40 H :    0.115568
Sum of atomic charges:    0.0000000

LOEWDIN ATOMIC CHARGES
----------------------
   0 C :   -0.350224
   1 C :   -0.120524
   2 O :   -0.244417
   3 P :    0.573127
   4 S :   -0.330330
   5 O :   -0.223763
   6 C :   -0.115922
   7 C :   -0.365329
   8 S :    0.087730
   9 C :   -0.476466
  10 S :    0.078557
  11 P :    0.558304
  12 S :   -0.293759
  13 O :   -0.259972
  14 C :   -0.118614
  15 C :   -0.361265
  16 O :   -0.247604
  17 C :   -0.120499
  18 C :   -0.350205
  19 H :    0.130705
  20 H :    0.128372
  21 H :    0.128170
  22 H :    0.110051
  23 H :    0.107797
  24 H :    0.109334
  25 H :    0.120438
  26 H :    0.129336
  27 H :    0.127053
  28 H :    0.119564
  29 H :    0.130286
  30 H :    0.131716
  31 H :    0.109402
  32 H :    0.115107
  33 H :    0.123488
  34 H :    0.116791
  35 H :    0.133536
  36 H :    0.113468
  37 H :    0.109289
  38 H :    0.130283
  39 H :    0.129665
  40 H :    0.127323

  Mayer bond orders larger than 0.100000
B(  0-C ,  1-C ) :   1.1616 B(  0-C , 19-H ) :   0.9417 B(  0-C , 20-H ) :   0.9513
B(  0-C , 21-H ) :   0.9501 B(  1-C ,  2-O ) :   0.9039 B(  1-C , 22-H ) :   0.9296
B(  1-C , 23-H ) :   0.9080 B(  2-O ,  3-P ) :   1.1124 B(  3-P ,  4-S ) :   1.5920
B(  3-P ,  5-O ) :   1.1556 B(  3-P ,  8-S ) :   0.9523 B(  4-S ,  8-S ) :   0.1061
B(  5-O ,  6-C ) :   0.9030 B(  6-C ,  7-C ) :   1.1641 B(  6-C , 24-H ) :   0.9183
B(  6-C , 25-H ) :   0.9297 B(  7-C , 26-H ) :   0.9396 B(  7-C , 27-H ) :   0.9459
B(  7-C , 28-H ) :   0.9359 B(  8-S ,  9-C ) :   1.0102 B(  9-C , 10-S ) :   1.0022
B(  9-C , 29-H ) :   0.8984 B(  9-C , 30-H ) :   0.8842 B( 10-S , 11-P ) :   0.9501
B( 10-S , 12-S ) :   0.1052 B( 11-P , 12-S ) :   1.6852 B( 11-P , 13-O ) :   1.0532
B( 11-P , 16-O ) :   1.1279 B( 13-O , 14-C ) :   0.9067 B( 14-C , 15-C ) :   1.1673
B( 14-C , 31-H ) :   0.8970 B( 14-C , 32-H ) :   0.9339 B( 15-C , 33-H ) :   0.9437
B( 15-C , 34-H ) :   0.9315 B( 15-C , 35-H ) :   0.9374 B( 16-O , 17-C ) :   0.8966
B( 17-C , 18-C ) :   1.1623 B( 17-C , 36-H ) :   0.9307 B( 17-C , 37-H ) :   0.9184
B( 18-C , 38-H ) :   0.9499 B( 18-C , 39-H ) :   0.9411 B( 18-C , 40-H ) :   0.9502

Dispersion correction           -0.064757751
FINAL SINGLE POINT ENERGY     -2929.519456703194

DIPOLE MOMENT
-------------

Method             : SCF
Type of density    : Electron Density
Multiplicity       :   1
Irrep              :   0
Energy             : -2929.6381986835031057 Eh
Relativity type    :
Basis              : AO
                                X                 Y                 Z
Electronic contribution:     -0.276533706      -1.388734421       3.434676753
Nuclear contribution   :     -0.293482769       2.218876317      -3.291362970
                        -----------------------------------------
Total Dipole Moment    :     -0.570016475       0.830141896       0.143313783
                        -----------------------------------------
Magnitude (a.u.)       :      1.017149542
Magnitude (Debye)      :      2.585388672

Rotational constants in cm-1:             0.012846             0.004865             0.004428
Rotational constants in MHz :           385.117724           145.840530           132.733463

                             ****ORCA TERMINATED NORMALLY****
TOTAL RUN TIME: 0 days 0 hours 0 minutes 20 seconds 811 msec
