                         Program Version 6.0.0  -   RELEASE  -
|  1> ! pbe def2-sv(p) def2/J RI DEFGRID1 loosescf d4 GCP(DFT/SV(P)) printgap
|  2> %output
|  3>     printlevel normal
|  4> end
|  5> * xyz 0 1
|  6> C 4.5607955884 1.1140577396 -1.9631123868
|  7> C 4.7423523575 0.3232999658 -0.6849587459
|  8> O 3.668012804 0.5245615723 0.2540001628
|  9> P 2.1237328302 0.3206545485 -0.0557467165
| 10> S 1.1811792027 1.7440654615 -1.0142987159
| 11> O 1.532917646 0.1750896329 1.3967093437
| 12> C 2.0310982408 -0.7852425241 2.366340094
| 13> C 0.9503384449 -0.9978347976 3.405291472
| 14> S 2.0771485915 -1.599169143 -0.9709971594
| 15> C 0.3268597308 -1.610527277 -1.4029998874
| 16> S -0.7522404093 -1.8030782835 0.0569270945
| 17> P -1.9207633095 -0.0599306798 -0.0691662913
| 18> S -2.1986630201 0.6786678003 -1.8684334684
| 19> O -1.2825455943 0.8696695849 1.0369847238
| 20> C -1.5342319989 2.286597588 1.0917156208
| 21> C -2.9769588736 2.5897995256 1.4322804185
| 22> O -3.2565422965 -0.5207543367 0.6610697986
| 23> C -4.2400517615 -1.3353457431 -0.0062126396
| 24> C -5.5482855044 -1.2008269989 0.746767386
| 25> H 5.4323809703 0.9824568688 -2.5960162165
| 26> H 3.6779593743 0.766898858 -2.4984229202
| 27> H 4.4315796509 2.1709721908 -1.741604327
| 28> H 5.6260954952 0.6508521667 -0.1347216274
| 29> H 4.8099581876 -0.7468877823 -0.8980150496
| 30> H 2.2715161977 -1.7169239099 1.8453050506
| 31> H 2.9394459089 -0.3685408532 2.8050293569
| 32> H 0.0516830024 -1.3908241539 2.9358343438
| 33> H 1.3056906686 -1.7049882059 4.1477178895
| 34> H 0.7062586621 -0.0563640969 3.8889263407
| 35> H 0.1779537868 -2.4723545637 -2.0482438148
| 36> H 0.0602905899 -0.681495558 -1.9154297561
| 37> H -0.8450828375 2.641497686 1.8596439937
| 38> H -1.2556795177 2.7258514292 0.1275643466
| 39> H -3.0969527216 3.6607970071 1.562334481
| 40> H -3.6235428388 2.2567019269 0.6211431893
| 41> H -3.2620258843 2.075356281 2.3462046287
| 42> H -4.3332273988 -0.9901981153 -1.0416826413
| 43> H -3.8834382595 -2.3689618934 -0.004605225
| 44> H -5.889851857 -0.1698112402 0.725113321
| 45> H -6.2941497068 -1.8345740755 0.2786025348
| 46> H -5.4125207335 -1.5054218864 1.780285119
| 47> *
| 48>
| 49>                          ****END OF INPUT****

CARTESIAN COORDINATES (ANGSTROEM)
---------------------------------
  C      4.560796    1.114058   -1.963112
  C      4.742352    0.323300   -0.684959
  O      3.668013    0.524562    0.254000
  P      2.123733    0.320655   -0.055747
  S      1.181179    1.744065   -1.014299
  O      1.532918    0.175090    1.396709
  C      2.031098   -0.785243    2.366340
  C      0.950338   -0.997835    3.405291
  S      2.077149   -1.599169   -0.970997
  C      0.326860   -1.610527   -1.403000
  S     -0.752240   -1.803078    0.056927
  P     -1.920763   -0.059931   -0.069166
  S     -2.198663    0.678668   -1.868433
  O     -1.282546    0.869670    1.036985
  C     -1.534232    2.286598    1.091716
  C     -2.976959    2.589800    1.432280
  O     -3.256542   -0.520754    0.661070
  C     -4.240052   -1.335346   -0.006213
  C     -5.548286   -1.200827    0.746767
  H      5.432381    0.982457   -2.596016
  H      3.677959    0.766899   -2.498423
  H      4.431580    2.170972   -1.741604
  H      5.626095    0.650852   -0.134722
  H      4.809958   -0.746888   -0.898015
  H      2.271516   -1.716924    1.845305
  H      2.939446   -0.368541    2.805029
  H      0.051683   -1.390824    2.935834
  H      1.305691   -1.704988    4.147718
  H      0.706259   -0.056364    3.888926
  H      0.177954   -2.472355   -2.048244
  H      0.060291   -0.681496   -1.915430
  H     -0.845083    2.641498    1.859644
  H     -1.255680    2.725851    0.127564
  H     -3.096953    3.660797    1.562334
  H     -3.623543    2.256702    0.621143
  H     -3.262026    2.075356    2.346205
  H     -4.333227   -0.990198   -1.041683
  H     -3.883438   -2.368962   -0.004605
  H     -5.889852   -0.169811    0.725113
  H     -6.294150   -1.834574    0.278603
  H     -5.412521   -1.505422    1.780285

 Total Charge           Charge          ....    0
 Multiplicity           Mult            ....    1
 Number of Electrons    NEL             ....  202
 Basis Dimension        Dim             ....  334

ORBITAL ENERGIES
----------------

  NO   OCC          E(Eh)            E(eV)
   0   2.0000     -88.046273     -2395.8609
   1   2.0000     -88.041059     -2395.7190
   2   2.0000     -87.980388     -2394.0681
   3   2.0000     -87.978145     -2394.0070
   4   2.0000     -76.423105     -2079.5784
   5   2.0000     -76.420135     -2079.4976
   6   2.0000     -18.794253      -511.4176
   7   2.0000     -18.788150      -511.2516
   8   2.0000     -18.785982      -511.1926
   9   2.0000     -18.780442      -511.0418
  10   2.0000      -9.959737      -271.0182
  11   2.0000      -9.955595      -270.9055
  12   2.0000      -9.949940      -270.7516
  13   2.0000      -9.948031      -270.6997
  14   2.0000      -9.938718      -270.4463
  15   2.0000      -9.885890      -269.0087
  16   2.0000      -9.882895      -268.9272
  17   2.0000      -9.881447      -268.8879
  18   2.0000      -9.875478      -268.7254
  19   2.0000      -7.691332      -209.2918
  20   2.0000      -7.686263      -209.1539
  21   2.0000      -7.625299      -207.4949
  22   2.0000      -7.623120      -207.4356
  23   2.0000      -6.420403      -174.7080
  24   2.0000      -6.417780      -174.6367
  25   2.0000      -5.719033      -155.6228
  26   2.0000      -5.715610      -155.5296
  27   2.0000      -5.714125      -155.4892
  28   2.0000      -5.710723      -155.3967
  29   2.0000      -5.708722      -155.3422
  30   2.0000      -5.703225      -155.1926
  31   2.0000      -5.654175      -153.8579
  32   2.0000      -5.652221      -153.8047
  33   2.0000      -5.646083      -153.6377
  34   2.0000      -5.645354      -153.6179
  35   2.0000      -5.643624      -153.5708
  36   2.0000      -5.643187      -153.5589
  37   2.0000      -4.643203      -126.3480
  38   2.0000      -4.642544      -126.3300
  39   2.0000      -4.640325      -126.2697
  40   2.0000      -4.640037      -126.2618
  41   2.0000      -4.639486      -126.2468
  42   2.0000      -4.638545      -126.2212
  43   2.0000      -0.986521       -26.8446
  44   2.0000      -0.980693       -26.6860
  45   2.0000      -0.942004       -25.6332
  46   2.0000      -0.938117       -25.5275
  47   2.0000      -0.763072       -20.7643
  48   2.0000      -0.719670       -19.5832
  49   2.0000      -0.708721       -19.2853
  50   2.0000      -0.688750       -18.7418
  51   2.0000      -0.683007       -18.5856
  52   2.0000      -0.672435       -18.2979
  53   2.0000      -0.646921       -17.6036
  54   2.0000      -0.631452       -17.1827
  55   2.0000      -0.594796       -16.1852
  56   2.0000      -0.586449       -15.9581
  57   2.0000      -0.568500       -15.4697
  58   2.0000      -0.565554       -15.3895
  59   2.0000      -0.558043       -15.1851
  60   2.0000      -0.506100       -13.7717
  61   2.0000      -0.497176       -13.5288
  62   2.0000      -0.473556       -12.8861
  63   2.0000      -0.468219       -12.7409
  64   2.0000      -0.453808       -12.3487
  65   2.0000      -0.446182       -12.1412
  66   2.0000      -0.434338       -11.8189
  67   2.0000      -0.431931       -11.7534
  68   2.0000      -0.426385       -11.6025
  69   2.0000      -0.416371       -11.3300
  70   2.0000      -0.412140       -11.2149
  71   2.0000      -0.396443       -10.7878
  72   2.0000      -0.391692       -10.6585
  73   2.0000      -0.381721       -10.3872
  74   2.0000      -0.379862       -10.3366
  75   2.0000      -0.369956       -10.0670
  76   2.0000      -0.356482        -9.7004
  77   2.0000      -0.353179        -9.6105
  78   2.0000      -0.349282        -9.5044
  79   2.0000      -0.346124        -9.4185
  80   2.0000      -0.344170        -9.3653
  81   2.0000      -0.339649        -9.2423
  82   2.0000      -0.337675        -9.1886
  83   2.0000      -0.336092        -9.1455
  84   2.0000      -0.330686        -8.9984
  85   2.0000      -0.318092        -8.6557
  86   2.0000      -0.307751        -8.3743
  87   2.0000      -0.296952        -8.0805
  88   2.0000      -0.296156        -8.0588
  89   2.0000      -0.293293        -7.9809
  90   2.0000      -0.275726        -7.5029
  91   2.0000      -0.271716        -7.3938
  92   2.0000      -0.265793        -7.2326
  93   2.0000      -0.259555        -7.0629
  94   2.0000      -0.255837        -6.9617
  95   2.0000      -0.238552        -6.4913
  96   2.0000      -0.221467        -6.0264
  97   2.0000      -0.211604        -5.7580
  98   2.0000      -0.199788        -5.4365
  99   2.0000      -0.191304        -5.2056
 100   2.0000      -0.182552        -4.9675
 101   0.0000      -0.039559        -1.0765
 102   0.0000      -0.028944        -0.7876
 103   0.0000      -0.011432        -0.3111
 104   0.0000       0.013320         0.3625
 105   0.0000       0.022508         0.6125

MULLIKEN ATOMIC CHARGES
-----------------------
   0 C :   -0.308273
   1 C :   -0.014043
   2 O :   -0.382320
   3 P :    0.590332
   4 S :   -0.292639
   5 O :   -0.344678
   6 C :   -0.009770
   7 C :   -0.278096
   8 S :   -0.119909
   9 C :   -0.351383
  10 S :   -0.104729
  11 P :    0.614829
  12 S :   -0.320183
  13 O :   -0.349088
  14 C :   -0.002441
  15 C :   -0.304018
  16 O :   -0.379227
  17 C :   -0.009353
  18 C :   -0.281363
  19 H :    0.110895
  20 H :    0.128067
  21 H :    0.127571
  22 H :    0.109555
  23 H :    0.113322
  24 H :    0.096828
  25 H :    0.104094
  26 H :    0.125123
  27 H :    0.104400
  28 H :    0.115835
  29 H :    0.182788
  30 H :    0.212566
  31 H :    0.102407
  32 H :    0.123486
  33 H :    0.109307
  34 H :    0.120844
  35 H :    0.111820
  36 H :    0.103423
  37 H :    0.098074
  38 H :    0.119906
  39 H :    0.110688
  40 H :    0.115357
Sum of atomic charges:    0.0000000

LOEWDIN ATOMIC CHARGES
----------------------
   0 C :   -0.369208
   1 C :   -0.114484
   2 O :   -0.248181
   3 P :    0.560983
   4 S :   -0.286801
   5 O :   -0.229090
   6 C :   -0.117422
   7 C :   -0.351621
   8 S :    0.064345
   9 C :   -0.477774
  10 S :    0.077852
  11 P :    0.569495
  12 S :   -0.313542
  13 O :   -0.226246
  14 C :   -0.117790
  15 C :   -0.366509
  16 O :   -0.249110
  17 C :   -0.123349
  18 C :   -0.350430
  19 H :    0.129855
  20 H :    0.122409
  21 H :    0.131082
  22 H :    0.121467
  23 H :    0.107722
  24 H :    0.100752
  25 H :    0.113032
  26 H :    0.123304
  27 H :    0.127166
  28 H :    0.127250
  29 H :    0.137381
  30 H :    0.127494
  31 H :    0.118417
  32 H :    0.109962
  33 H :    0.129229
  34 H :    0.120370
  35 H :    0.123680
  36 H :    0.106468
  37 H :    0.107567
  38 H :    0.127833
  39 H :    0.130152
  40 H :    0.126288

  Mayer bond orders larger than 0.100000
B(  0-C ,  1-C ) :   1.1664 B(  0-C , 19-H ) :   0.9348 B(  0-C , 20-H ) :   0.9316
B(  0-C , 21-H ) :   0.9430 B(  1-C ,  2-O ) :   0.9150 B(  1-C , 22-H ) :   0.9335
B(  1-C , 23-H ) :   0.9267 B(  2-O ,  3-P ) :   1.0821 B(  3-P ,  4-S ) :   1.6582
B(  3-P ,  5-O ) :   1.1444 B(  3-P ,  8-S ) :   0.9340 B(  4-S ,  8-S ) :   0.1052
B(  5-O ,  6-C ) :   0.8881 B(  6-C ,  7-C ) :   1.1660 B(  6-C , 24-H ) :   0.9101
B(  6-C , 25-H ) :   0.9313 B(  7-C , 26-H ) :   0.9436 B(  7-C , 27-H ) :   0.9409
B(  7-C , 28-H ) :   0.9495 B(  8-S ,  9-C ) :   1.0046 B(  9-C , 10-S ) :   0.9928
B(  9-C , 29-H ) :   0.9114 B(  9-C , 30-H ) :   0.8450 B( 10-S , 11-P ) :   0.9588
B( 10-S , 12-S ) :   0.1150 B( 11-P , 12-S ) :   1.6055 B( 11-P , 13-O ) :   1.1560
B( 11-P , 16-O ) :   1.0924 B( 13-O , 14-C ) :   0.8997 B( 14-C , 15-C ) :   1.1582
B( 14-C , 31-H ) :   0.9355 B( 14-C , 32-H ) :   0.9127 B( 15-C , 33-H ) :   0.9389
B( 15-C , 34-H ) :   0.9353 B( 15-C , 35-H ) :   0.9448 B( 16-O , 17-C ) :   0.9080
B( 17-C , 18-C ) :   1.1601 B( 17-C , 36-H ) :   0.9067 B( 17-C , 37-H ) :   0.9279
B( 18-C , 38-H ) :   0.9515 B( 18-C , 39-H ) :   0.9423 B( 18-C , 40-H ) :   0.9504

Dispersion correction           -0.067232579
FINAL SINGLE POINT ENERGY     -2929.520137158235

DIPOLE MOMENT
-------------

Method             : SCF
Type of density    : Electron Density
Multiplicity       :   1
Irrep              :   0
Energy             : -2929.6383671672174387 Eh
Relativity type    :
Basis              : AO
                                X                 Y                 Z
Electronic contribution:      6.715050209      -2.535790929     -10.672021244
Nuclear contribution   :     -6.190060113       1.616003791      11.571357809
                        -----------------------------------------
Total Dipole Moment    :      0.524990096      -0.919787137       0.899336565
                        -----------------------------------------
Magnitude (a.u.)       :      1.389398876
Magnitude (Debye)      :      3.531571285

Rotational constants in cm-1:             0.013234             0.005107             0.005016
Rotational constants in MHz :           396.750960           153.111344           150.361968

                             ****ORCA TERMINATED NORMALLY****
TOTAL RUN TIME: 0 days 0 hours 0 minutes 21 seconds 513 msec
