                         Program Version 6.0.0  -   RELEASE  -
|  1> ! pbe def2-sv(p) def2/J RI DEFGRID1 loosescf d4 GCP(DFT/SV(P)) printgap
|  2> %output
|  3>     printlevel normal
|  4> end
|  5> * xyz 0 1
|  6> C -0.4160150953 -1.7119988954 2.7791579056
|  7> C 0.8836833555 -1.8341615368 2.0111929312
|  8> O 1.2777669449 -0.5087056007 1.5894224236
|  9> P 2.2393149651 -0.2096101234 0.3663303447
| 10> S 2.9352804096 -1.8146886802 -0.5267018001
| 11> O 3.2617474214 0.7284232791 1.1303062337
| 12> C 4.1326413764 1.6948126056 0.5143283159
| 13> C 4.9943374868 1.0960418528 -0.5782915511
| 14> S 1.1805266424 1.1649844916 -0.8687145216
| 15> C 0.4175356451 -0.0749576257 -1.9440857595
| 16> S -0.7409852123 -1.1448115432 -1.0655315548
| 17> P -2.2638146601 0.3115597092 -0.6740232388
| 18> S -2.3366592205 1.7905912216 -1.9495516868
| 19> O -2.0868396003 0.7224454814 0.8564982863
| 20> C -1.3709990949 1.8798007206 1.3215622422
| 21> C -2.2081840234 2.5660610378 2.3823531278
| 22> O -3.6015996633 -0.5139665034 -0.6430211636
| 23> C -4.0181834309 -1.4393079475 0.3941857885
| 24> C -3.4040076822 -2.8106767024 0.2049460133
| 25> H -0.2761687007 -1.0732340747 3.6464081442
| 26> H -1.1863883935 -1.2814625163 2.1453921799
| 27> H -0.7297160763 -2.6985876467 3.1037471608
| 28> H 0.7745625909 -2.4734274736 1.1293651082
| 29> H 1.6823467863 -2.2338142522 2.6401861281
| 30> H 3.5173607752 2.5090772363 0.1211138176
| 31> H 4.7389973029 2.0584036986 1.3458361311
| 32> H 4.3729162934 0.7657508342 -1.4096628273
| 33> H 5.6943163965 1.8440458716 -0.9365041833
| 34> H 5.5457811469 0.2387054295 -0.1992642679
| 35> H 1.1885150421 -0.7268511496 -2.3545516905
| 36> H -0.1079991268 0.4731348489 -2.7255736174
| 37> H -0.4169130686 1.5328909796 1.7283266883
| 38> H -1.1818460576 2.5477409469 0.4745617065
| 39> H -1.6620038722 3.4223202752 2.7642100107
| 40> H -3.1481057552 2.9044170003 1.9536948106
| 41> H -2.4169962038 1.8797618957 3.1979740056
| 42> H -3.7614160239 -1.0153519107 1.366083299
| 43> H -5.1027701079 -1.4719643328 0.2792264781
| 44> H -2.322946361 -2.7711378693 0.3223381253
| 45> H -3.8162648522 -3.4872233132 0.9470045856
| 46> H -3.6288952645 -3.188670863 -0.7886842012
| 47> *
| 48>
| 49>                          ****END OF INPUT****

CARTESIAN COORDINATES (ANGSTROEM)
---------------------------------
  C     -0.416015   -1.711999    2.779158
  C      0.883683   -1.834162    2.011193
  O      1.277767   -0.508706    1.589422
  P      2.239315   -0.209610    0.366330
  S      2.935280   -1.814689   -0.526702
  O      3.261747    0.728423    1.130306
  C      4.132641    1.694813    0.514328
  C      4.994337    1.096042   -0.578292
  S      1.180527    1.164984   -0.868715
  C      0.417536   -0.074958   -1.944086
  S     -0.740985   -1.144812   -1.065532
  P     -2.263815    0.311560   -0.674023
  S     -2.336659    1.790591   -1.949552
  O     -2.086840    0.722445    0.856498
  C     -1.370999    1.879801    1.321562
  C     -2.208184    2.566061    2.382353
  O     -3.601600   -0.513967   -0.643021
  C     -4.018183   -1.439308    0.394186
  C     -3.404008   -2.810677    0.204946
  H     -0.276169   -1.073234    3.646408
  H     -1.186388   -1.281463    2.145392
  H     -0.729716   -2.698588    3.103747
  H      0.774563   -2.473427    1.129365
  H      1.682347   -2.233814    2.640186
  H      3.517361    2.509077    0.121114
  H      4.738997    2.058404    1.345836
  H      4.372916    0.765751   -1.409663
  H      5.694316    1.844046   -0.936504
  H      5.545781    0.238705   -0.199264
  H      1.188515   -0.726851   -2.354552
  H     -0.107999    0.473135   -2.725574
  H     -0.416913    1.532891    1.728327
  H     -1.181846    2.547741    0.474562
  H     -1.662004    3.422320    2.764210
  H     -3.148106    2.904417    1.953695
  H     -2.416996    1.879762    3.197974
  H     -3.761416   -1.015352    1.366083
  H     -5.102770   -1.471964    0.279226
  H     -2.322946   -2.771138    0.322338
  H     -3.816265   -3.487223    0.947005
  H     -3.628895   -3.188671   -0.788684

 Total Charge           Charge          ....    0
 Multiplicity           Mult            ....    1
 Number of Electrons    NEL             ....  202
 Basis Dimension        Dim             ....  334

ORBITAL ENERGIES
----------------

  NO   OCC          E(Eh)            E(eV)
   0   2.0000     -88.045669     -2395.8445
   1   2.0000     -88.043179     -2395.7767
   2   2.0000     -87.988879     -2394.2991
   3   2.0000     -87.988036     -2394.2762
   4   2.0000     -76.429757     -2079.7594
   5   2.0000     -76.429657     -2079.7567
   6   2.0000     -18.797760      -511.5131
   7   2.0000     -18.794500      -511.4244
   8   2.0000     -18.794400      -511.4216
   9   2.0000     -18.790387      -511.3124
  10   2.0000      -9.963258      -271.1140
  11   2.0000      -9.959802      -271.0200
  12   2.0000      -9.953896      -270.8593
  13   2.0000      -9.950766      -270.7741
  14   2.0000      -9.947336      -270.6808
  15   2.0000      -9.895314      -269.2652
  16   2.0000      -9.886965      -269.0380
  17   2.0000      -9.885393      -268.9952
  18   2.0000      -9.884764      -268.9781
  19   2.0000      -7.690210      -209.2612
  20   2.0000      -7.687514      -209.1879
  21   2.0000      -7.633852      -207.7277
  22   2.0000      -7.633275      -207.7120
  23   2.0000      -6.427078      -174.8897
  24   2.0000      -6.426581      -174.8761
  25   2.0000      -5.717921      -155.5925
  26   2.0000      -5.715404      -155.5241
  27   2.0000      -5.714746      -155.5061
  28   2.0000      -5.712042      -155.4326
  29   2.0000      -5.707401      -155.3063
  30   2.0000      -5.704585      -155.2297
  31   2.0000      -5.662729      -154.0907
  32   2.0000      -5.662327      -154.0797
  33   2.0000      -5.654458      -153.8656
  34   2.0000      -5.654093      -153.8557
  35   2.0000      -5.653619      -153.8428
  36   2.0000      -5.653521      -153.8401
  37   2.0000      -4.650060      -126.5346
  38   2.0000      -4.648951      -126.5044
  39   2.0000      -4.648593      -126.4946
  40   2.0000      -4.648591      -126.4946
  41   2.0000      -4.647437      -126.4632
  42   2.0000      -4.647052      -126.4527
  43   2.0000      -0.990924       -26.9644
  44   2.0000      -0.988556       -26.9000
  45   2.0000      -0.946530       -25.7564
  46   2.0000      -0.945147       -25.7188
  47   2.0000      -0.765984       -20.8435
  48   2.0000      -0.725583       -19.7441
  49   2.0000      -0.716120       -19.4866
  50   2.0000      -0.694331       -18.8937
  51   2.0000      -0.687919       -18.7192
  52   2.0000      -0.675906       -18.3923
  53   2.0000      -0.652101       -17.7446
  54   2.0000      -0.640388       -17.4259
  55   2.0000      -0.600517       -16.3409
  56   2.0000      -0.594214       -16.1694
  57   2.0000      -0.577931       -15.7263
  58   2.0000      -0.572455       -15.5773
  59   2.0000      -0.561683       -15.2842
  60   2.0000      -0.508737       -13.8434
  61   2.0000      -0.500795       -13.6273
  62   2.0000      -0.482422       -13.1274
  63   2.0000      -0.473105       -12.8738
  64   2.0000      -0.462220       -12.5776
  65   2.0000      -0.450976       -12.2717
  66   2.0000      -0.441156       -12.0045
  67   2.0000      -0.433178       -11.7874
  68   2.0000      -0.429511       -11.6876
  69   2.0000      -0.421736       -11.4760
  70   2.0000      -0.415964       -11.3189
  71   2.0000      -0.399709       -10.8766
  72   2.0000      -0.392068       -10.6687
  73   2.0000      -0.388100       -10.5607
  74   2.0000      -0.382933       -10.4201
  75   2.0000      -0.377693       -10.2776
  76   2.0000      -0.368928       -10.0390
  77   2.0000      -0.361243        -9.8299
  78   2.0000      -0.357064        -9.7162
  79   2.0000      -0.354668        -9.6510
  80   2.0000      -0.351074        -9.5532
  81   2.0000      -0.349060        -9.4984
  82   2.0000      -0.345506        -9.4017
  83   2.0000      -0.341735        -9.2991
  84   2.0000      -0.333262        -9.0685
  85   2.0000      -0.323465        -8.8019
  86   2.0000      -0.312459        -8.5025
  87   2.0000      -0.304190        -8.2774
  88   2.0000      -0.298391        -8.1196
  89   2.0000      -0.294832        -8.0228
  90   2.0000      -0.290499        -7.9049
  91   2.0000      -0.278303        -7.5730
  92   2.0000      -0.274922        -7.4810
  93   2.0000      -0.264712        -7.2032
  94   2.0000      -0.257802        -7.0151
  95   2.0000      -0.237275        -6.4566
  96   2.0000      -0.216777        -5.8988
  97   2.0000      -0.213682        -5.8146
  98   2.0000      -0.207635        -5.6500
  99   2.0000      -0.201554        -5.4846
 100   2.0000      -0.200116        -5.4454
 101   0.0000      -0.049434        -1.3452
 102   0.0000      -0.028439        -0.7739
 103   0.0000      -0.005731        -0.1559
 104   0.0000      -0.003186        -0.0867
 105   0.0000       0.000329         0.0090

MULLIKEN ATOMIC CHARGES
-----------------------
   0 C :   -0.319112
   1 C :   -0.004549
   2 O :   -0.367046
   3 P :    0.608051
   4 S :   -0.329664
   5 O :   -0.364717
   6 C :   -0.011804
   7 C :   -0.310222
   8 S :   -0.105177
   9 C :   -0.340619
  10 S :   -0.126074
  11 P :    0.636093
  12 S :   -0.311685
  13 O :   -0.391974
  14 C :   -0.028877
  15 C :   -0.274258
  16 O :   -0.361986
  17 C :   -0.017842
  18 C :   -0.326037
  19 H :    0.113837
  20 H :    0.138530
  21 H :    0.107976
  22 H :    0.116977
  23 H :    0.105088
  24 H :    0.115086
  25 H :    0.110087
  26 H :    0.125355
  27 H :    0.112217
  28 H :    0.126924
  29 H :    0.192934
  30 H :    0.194238
  31 H :    0.116680
  32 H :    0.113594
  33 H :    0.110160
  34 H :    0.115426
  35 H :    0.109471
  36 H :    0.122111
  37 H :    0.114011
  38 H :    0.142345
  39 H :    0.116021
  40 H :    0.128432
Sum of atomic charges:    0.0000000

LOEWDIN ATOMIC CHARGES
----------------------
   0 C :   -0.360657
   1 C :   -0.116717
   2 O :   -0.241026
   3 P :    0.569938
   4 S :   -0.315448
   5 O :   -0.239781
   6 C :   -0.114910
   7 C :   -0.369010
   8 S :    0.083668
   9 C :   -0.483691
  10 S :    0.076197
  11 P :    0.572224
  12 S :   -0.303530
  13 O :   -0.245987
  14 C :   -0.127623
  15 C :   -0.352320
  16 O :   -0.236301
  17 C :   -0.109827
  18 C :   -0.365106
  19 H :    0.125448
  20 H :    0.119978
  21 H :    0.128643
  22 H :    0.103355
  23 H :    0.113444
  24 H :    0.108818
  25 H :    0.121903
  26 H :    0.121138
  27 H :    0.130432
  28 H :    0.130218
  29 H :    0.130765
  30 H :    0.131056
  31 H :    0.108618
  32 H :    0.104486
  33 H :    0.130325
  34 H :    0.126514
  35 H :    0.122690
  36 H :    0.114129
  37 H :    0.124565
  38 H :    0.117236
  39 H :    0.133298
  40 H :    0.132849

  Mayer bond orders larger than 0.100000
B(  0-C ,  1-C ) :   1.1648 B(  0-C , 19-H ) :   0.9464 B(  0-C , 20-H ) :   0.9226
B(  0-C , 21-H ) :   0.9404 B(  1-C ,  2-O ) :   0.8931 B(  1-C , 22-H ) :   0.9066
B(  1-C , 23-H ) :   0.9335 B(  2-O ,  3-P ) :   1.1142 B(  3-P ,  4-S ) :   1.6064
B(  3-P ,  5-O ) :   1.1312 B(  3-P ,  8-S ) :   0.9351 B(  4-S ,  8-S ) :   0.1108
B(  5-O ,  6-C ) :   0.9144 B(  6-C ,  7-C ) :   1.1641 B(  6-C , 24-H ) :   0.9258
B(  6-C , 25-H ) :   0.9338 B(  7-C , 26-H ) :   0.9336 B(  7-C , 27-H ) :   0.9354
B(  7-C , 28-H ) :   0.9432 B(  8-S ,  9-C ) :   1.0032 B(  9-C , 10-S ) :   1.0122
B(  9-C , 29-H ) :   0.8774 B(  9-C , 30-H ) :   0.8756 B( 10-S , 11-P ) :   0.9250
B( 10-S , 12-S ) :   0.1077 B( 11-P , 12-S ) :   1.6488 B( 11-P , 13-O ) :   1.0652
B( 11-P , 16-O ) :   1.1507 B( 13-O , 14-C ) :   0.8899 B( 14-C , 15-C ) :   1.1574
B( 14-C , 31-H ) :   0.9197 B( 14-C , 32-H ) :   0.9037 B( 15-C , 33-H ) :   0.9419
B( 15-C , 34-H ) :   0.9486 B( 15-C , 35-H ) :   0.9511 B( 16-O , 17-C ) :   0.8986
B( 17-C , 18-C ) :   1.1695 B( 17-C , 36-H ) :   0.9189 B( 17-C , 37-H ) :   0.9329
B( 18-C , 38-H ) :   0.9262 B( 18-C , 39-H ) :   0.9368 B( 18-C , 40-H ) :   0.9444

Dispersion correction           -0.067108774
FINAL SINGLE POINT ENERGY     -2929.521060754457

DIPOLE MOMENT
-------------

Method             : SCF
Type of density    : Electron Density
Multiplicity       :   1
Irrep              :   0
Energy             : -2929.6401592473357596 Eh
Relativity type    :
Basis              : AO
                                X                 Y                 Z
Electronic contribution:      2.074188162       2.115847146     -16.617022870
Nuclear contribution   :     -2.130090786      -2.191279821      18.037911282
                        -----------------------------------------
Total Dipole Moment    :     -0.055902624      -0.075432675       1.420888412
                        -----------------------------------------
Magnitude (a.u.)       :      1.423987034
Magnitude (Debye)      :      3.619487394

Rotational constants in cm-1:             0.011683             0.005482             0.005130
Rotational constants in MHz :           350.240105           164.355296           153.783005

                             ****ORCA TERMINATED NORMALLY****
TOTAL RUN TIME: 0 days 0 hours 0 minutes 22 seconds 58 msec
