                         Program Version 6.0.0  -   RELEASE  -
|  1> ! pbe def2-sv(p) def2/J RI DEFGRID1 loosescf d4 GCP(DFT/SV(P)) printgap
|  2> %output
|  3>     printlevel normal
|  4> end
|  5> * xyz 0 1
|  6> C 1.8765024072 2.594803621 -0.8665833123
|  7> C 2.6254337384 1.2988036849 -1.1052022386
|  8> O 1.7788946286 0.1691695654 -0.7936288401
|  9> P 1.9613907201 -0.7160322501 0.5020433132
| 10> S 2.535580015 0.2178376802 2.1303800776
| 11> O 2.9571486322 -1.8348716419 -0.0349247792
| 12> C 3.4792451719 -2.8750453724 0.8201691395
| 13> C 4.8632311665 -2.5125133723 1.3222722408
| 14> S 0.1218999818 -1.7257363831 0.5904491425
| 15> C -0.7409686044 -0.5304845125 1.6555332218
| 16> S -0.883137502 1.1183481392 0.9203988916
| 17> P -1.9093327262 0.6563016908 -0.87842308
| 18> S -1.0254287619 -0.1278663761 -2.4344319522
| 19> O -2.4995476306 2.0668165219 -1.2897563948
| 20> C -3.3107699189 2.8913120504 -0.41484398
| 21> C -2.5143689603 4.0853892014 0.0715978594
| 22> O -3.1363700504 -0.1830907797 -0.2880187483
| 23> C -3.6610887753 -1.3918543154 -0.8728914166
| 24> C -3.4370004355 -2.5691153691 0.0554389404
| 25> H 0.9380940103 2.585817993 -1.418231346
| 26> H 1.6599821873 2.7158734732 0.1929951618
| 27> H 2.4841535162 3.4271017323 -1.2062807559
| 28> H 3.5305632899 1.2503272253 -0.4931590327
| 29> H 2.8824291074 1.1729452109 -2.1582888877
| 30> H 2.790279015 -3.0373441932 1.6539035045
| 31> H 3.503274153 -3.7650902386 0.1887736914
| 32> H 5.2593471766 -3.3391386436 1.9030952737
| 33> H 5.5237155175 -2.3121031384 0.4832334509
| 34> H 4.8150583428 -1.6269488279 1.9523059866
| 35> H -0.1762719422 -0.3923314188 2.5778889312
| 36> H -1.7295808063 -0.9379024003 1.8510246172
| 37> H -4.1535433467 3.204280867 -1.0334633798
| 38> H -3.6696284103 2.2835906851 0.4185220436
| 39> H -2.1279992288 4.6446149252 -0.7758971974
| 40> H -3.1613540763 4.7275940031 0.6605576823
| 41> H -1.6786134946 3.7600403872 0.6874553761
| 42> H -4.7255926553 -1.2035945747 -1.0246211396
| 43> H -3.1762799322 -1.5559134468 -1.8409020088
| 44> H -3.877235675 -2.3708967024 1.0288495542
| 45> H -3.9067148259 -3.4479635807 -0.3740744106
| 46> H -2.3720024825 -2.7630490116 0.1737007665
| 47> *
| 48>
| 49>                          ****END OF INPUT****

CARTESIAN COORDINATES (ANGSTROEM)
---------------------------------
  C      1.876502    2.594804   -0.866583
  C      2.625434    1.298804   -1.105202
  O      1.778895    0.169170   -0.793629
  P      1.961391   -0.716032    0.502043
  S      2.535580    0.217838    2.130380
  O      2.957149   -1.834872   -0.034925
  C      3.479245   -2.875045    0.820169
  C      4.863231   -2.512513    1.322272
  S      0.121900   -1.725736    0.590449
  C     -0.740969   -0.530485    1.655533
  S     -0.883138    1.118348    0.920399
  P     -1.909333    0.656302   -0.878423
  S     -1.025429   -0.127866   -2.434432
  O     -2.499548    2.066817   -1.289756
  C     -3.310770    2.891312   -0.414844
  C     -2.514369    4.085389    0.071598
  O     -3.136370   -0.183091   -0.288019
  C     -3.661089   -1.391854   -0.872891
  C     -3.437000   -2.569115    0.055439
  H      0.938094    2.585818   -1.418231
  H      1.659982    2.715873    0.192995
  H      2.484154    3.427102   -1.206281
  H      3.530563    1.250327   -0.493159
  H      2.882429    1.172945   -2.158289
  H      2.790279   -3.037344    1.653904
  H      3.503274   -3.765090    0.188774
  H      5.259347   -3.339139    1.903095
  H      5.523716   -2.312103    0.483233
  H      4.815058   -1.626949    1.952306
  H     -0.176272   -0.392331    2.577889
  H     -1.729581   -0.937902    1.851025
  H     -4.153543    3.204281   -1.033463
  H     -3.669628    2.283591    0.418522
  H     -2.127999    4.644615   -0.775897
  H     -3.161354    4.727594    0.660558
  H     -1.678613    3.760040    0.687455
  H     -4.725593   -1.203595   -1.024621
  H     -3.176280   -1.555913   -1.840902
  H     -3.877236   -2.370897    1.028850
  H     -3.906715   -3.447964   -0.374074
  H     -2.372002   -2.763049    0.173701

 Total Charge           Charge          ....    0
 Multiplicity           Mult            ....    1
 Number of Electrons    NEL             ....  202
 Basis Dimension        Dim             ....  334

ORBITAL ENERGIES
----------------

  NO   OCC          E(Eh)            E(eV)
   0   2.0000     -88.044290     -2395.8069
   1   2.0000     -88.042838     -2395.7674
   2   2.0000     -87.986025     -2394.2215
   3   2.0000     -87.976869     -2393.9723
   4   2.0000     -76.424299     -2079.6109
   5   2.0000     -76.422576     -2079.5640
   6   2.0000     -18.792634      -511.3736
   7   2.0000     -18.789656      -511.2925
   8   2.0000     -18.788737      -511.2675
   9   2.0000     -18.780420      -511.0412
  10   2.0000      -9.959487      -271.0114
  11   2.0000      -9.955685      -270.9080
  12   2.0000      -9.952504      -270.8214
  13   2.0000      -9.951757      -270.8011
  14   2.0000      -9.944291      -270.5979
  15   2.0000      -9.889678      -269.1118
  16   2.0000      -9.887633      -269.0562
  17   2.0000      -9.879743      -268.8415
  18   2.0000      -9.871280      -268.6112
  19   2.0000      -7.689266      -209.2356
  20   2.0000      -7.687439      -209.1858
  21   2.0000      -7.631034      -207.6510
  22   2.0000      -7.622242      -207.4117
  23   2.0000      -6.421767      -174.7452
  24   2.0000      -6.419919      -174.6949
  25   2.0000      -5.717120      -155.5708
  26   2.0000      -5.715463      -155.5257
  27   2.0000      -5.713829      -155.4812
  28   2.0000      -5.711803      -155.4261
  29   2.0000      -5.706175      -155.2729
  30   2.0000      -5.704422      -155.2252
  31   2.0000      -5.659783      -154.0105
  32   2.0000      -5.651837      -153.7943
  33   2.0000      -5.651415      -153.7828
  34   2.0000      -5.651191      -153.7767
  35   2.0000      -5.642648      -153.5442
  36   2.0000      -5.642292      -153.5346
  37   2.0000      -4.644212      -126.3754
  38   2.0000      -4.643512      -126.3564
  39   2.0000      -4.643024      -126.3431
  40   2.0000      -4.642414      -126.3265
  41   2.0000      -4.641480      -126.3011
  42   2.0000      -4.640113      -126.2639
  43   2.0000      -0.982653       -26.7394
  44   2.0000      -0.980589       -26.6832
  45   2.0000      -0.943123       -25.6637
  46   2.0000      -0.938268       -25.5316
  47   2.0000      -0.765818       -20.8390
  48   2.0000      -0.720843       -19.6151
  49   2.0000      -0.708034       -19.2666
  50   2.0000      -0.692884       -18.8543
  51   2.0000      -0.680559       -18.5189
  52   2.0000      -0.670229       -18.2378
  53   2.0000      -0.647660       -17.6237
  54   2.0000      -0.638179       -17.3657
  55   2.0000      -0.592654       -16.1269
  56   2.0000      -0.585232       -15.9250
  57   2.0000      -0.575052       -15.6480
  58   2.0000      -0.570723       -15.5302
  59   2.0000      -0.557518       -15.1708
  60   2.0000      -0.505769       -13.7627
  61   2.0000      -0.500546       -13.6206
  62   2.0000      -0.478278       -13.0146
  63   2.0000      -0.471075       -12.8186
  64   2.0000      -0.458653       -12.4806
  65   2.0000      -0.443640       -12.0720
  66   2.0000      -0.434891       -11.8340
  67   2.0000      -0.433680       -11.8010
  68   2.0000      -0.426063       -11.5938
  69   2.0000      -0.413469       -11.2511
  70   2.0000      -0.405143       -11.0245
  71   2.0000      -0.394616       -10.7380
  72   2.0000      -0.388827       -10.5805
  73   2.0000      -0.382697       -10.4137
  74   2.0000      -0.378685       -10.3045
  75   2.0000      -0.372464       -10.1353
  76   2.0000      -0.366631        -9.9765
  77   2.0000      -0.359200        -9.7743
  78   2.0000      -0.354046        -9.6341
  79   2.0000      -0.352359        -9.5882
  80   2.0000      -0.346551        -9.4301
  81   2.0000      -0.343946        -9.3592
  82   2.0000      -0.338191        -9.2026
  83   2.0000      -0.334961        -9.1147
  84   2.0000      -0.330851        -9.0029
  85   2.0000      -0.317849        -8.6491
  86   2.0000      -0.306829        -8.3493
  87   2.0000      -0.299719        -8.1558
  88   2.0000      -0.295451        -8.0396
  89   2.0000      -0.284030        -7.7288
  90   2.0000      -0.283224        -7.7069
  91   2.0000      -0.273763        -7.4495
  92   2.0000      -0.267536        -7.2800
  93   2.0000      -0.263691        -7.1754
  94   2.0000      -0.260337        -7.0841
  95   2.0000      -0.236375        -6.4321
  96   2.0000      -0.219458        -5.9718
  97   2.0000      -0.207487        -5.6460
  98   2.0000      -0.200657        -5.4601
  99   2.0000      -0.193025        -5.2525
 100   2.0000      -0.187089        -5.0909
 101   0.0000      -0.049182        -1.3383
 102   0.0000      -0.025346        -0.6897
 103   0.0000      -0.008179        -0.2226
 104   0.0000       0.000288         0.0078
 105   0.0000       0.018960         0.5159

MULLIKEN ATOMIC CHARGES
-----------------------
   0 C :   -0.300452
   1 C :    0.004768
   2 O :   -0.346547
   3 P :    0.624366
   4 S :   -0.345160
   5 O :   -0.371175
   6 C :   -0.006203
   7 C :   -0.289908
   8 S :   -0.090802
   9 C :   -0.354861
  10 S :   -0.099968
  11 P :    0.611232
  12 S :   -0.287945
  13 O :   -0.364407
  14 C :   -0.021487
  15 C :   -0.295192
  16 O :   -0.395608
  17 C :   -0.006839
  18 C :   -0.315461
  19 H :    0.123035
  20 H :    0.124700
  21 H :    0.102392
  22 H :    0.099288
  23 H :    0.108363
  24 H :    0.098423
  25 H :    0.107727
  26 H :    0.106545
  27 H :    0.112713
  28 H :    0.127137
  29 H :    0.193352
  30 H :    0.186693
  31 H :    0.109574
  32 H :    0.107349
  33 H :    0.121907
  34 H :    0.110476
  35 H :    0.130473
  36 H :    0.101320
  37 H :    0.115268
  38 H :    0.116773
  39 H :    0.115035
  40 H :    0.133108
Sum of atomic charges:    0.0000000

LOEWDIN ATOMIC CHARGES
----------------------
   0 C :   -0.363517
   1 C :   -0.108499
   2 O :   -0.229018
   3 P :    0.569852
   4 S :   -0.331150
   5 O :   -0.247979
   6 C :   -0.115681
   7 C :   -0.362104
   8 S :    0.094903
   9 C :   -0.477266
  10 S :    0.097953
  11 P :    0.558635
  12 S :   -0.292273
  13 O :   -0.243896
  14 C :   -0.119218
  15 C :   -0.359747
  16 O :   -0.261994
  17 C :   -0.119473
  18 C :   -0.361547
  19 H :    0.123279
  20 H :    0.121601
  21 H :    0.125487
  22 H :    0.106459
  23 H :    0.120250
  24 H :    0.106288
  25 H :    0.118843
  26 H :    0.128260
  27 H :    0.125422
  28 H :    0.124647
  29 H :    0.132550
  30 H :    0.130887
  31 H :    0.120797
  32 H :    0.108560
  33 H :    0.129440
  34 H :    0.130407
  35 H :    0.120479
  36 H :    0.115540
  37 H :    0.108888
  38 H :    0.122980
  39 H :    0.133398
  40 H :    0.117558

  Mayer bond orders larger than 0.100000
B(  0-C ,  1-C ) :   1.1732 B(  0-C , 19-H ) :   0.9402 B(  0-C , 20-H ) :   0.9396
B(  0-C , 21-H ) :   0.9391 B(  1-C ,  2-O ) :   0.8906 B(  1-C , 22-H ) :   0.9138
B(  1-C , 23-H ) :   0.9321 B(  2-O ,  3-P ) :   1.1606 B(  3-P ,  4-S ) :   1.5822
B(  3-P ,  5-O ) :   1.1163 B(  3-P ,  8-S ) :   0.9591 B(  4-S ,  8-S ) :   0.1081
B(  5-O ,  6-C ) :   0.9025 B(  6-C ,  7-C ) :   1.1673 B(  6-C , 24-H ) :   0.9143
B(  6-C , 25-H ) :   0.9356 B(  7-C , 26-H ) :   0.9399 B(  7-C , 27-H ) :   0.9476
B(  7-C , 28-H ) :   0.9337 B(  8-S ,  9-C ) :   1.0095 B(  9-C , 10-S ) :   1.0000
B(  9-C , 29-H ) :   0.8848 B(  9-C , 30-H ) :   0.8967 B( 10-S , 11-P ) :   0.9501
B( 10-S , 12-S ) :   0.1070 B( 11-P , 12-S ) :   1.6679 B( 11-P , 13-O ) :   1.1231
B( 11-P , 16-O ) :   1.0573 B( 13-O , 14-C ) :   0.8972 B( 14-C , 15-C ) :   1.1649
B( 14-C , 31-H ) :   0.9327 B( 14-C , 32-H ) :   0.9164 B( 15-C , 33-H ) :   0.9457
B( 15-C , 34-H ) :   0.9394 B( 15-C , 35-H ) :   0.9384 B( 16-O , 17-C ) :   0.9078
B( 17-C , 18-C ) :   1.1676 B( 17-C , 36-H ) :   0.9334 B( 17-C , 37-H ) :   0.8978
B( 18-C , 38-H ) :   0.9433 B( 18-C , 39-H ) :   0.9376 B( 18-C , 40-H ) :   0.9326

Dispersion correction           -0.066922627
FINAL SINGLE POINT ENERGY     -2929.519108230078

DIPOLE MOMENT
-------------

Method             : SCF
Type of density    : Electron Density
Multiplicity       :   1
Irrep              :   0
Energy             : -2929.6359164641894495 Eh
Relativity type    :
Basis              : AO
                                X                 Y                 Z
Electronic contribution:      0.510405477      -3.140470334      -2.972701719
Nuclear contribution   :     -1.364864840       2.904770991       3.499967748
                        -----------------------------------------
Total Dipole Moment    :     -0.854459363      -0.235699343       0.527266030
                        -----------------------------------------
Magnitude (a.u.)       :      1.031341093
Magnitude (Debye)      :      2.621460727

Rotational constants in cm-1:             0.012161             0.005502             0.004754
Rotational constants in MHz :           364.591746           164.955315           142.524978

                             ****ORCA TERMINATED NORMALLY****
TOTAL RUN TIME: 0 days 0 hours 0 minutes 21 seconds 109 msec
