                         Program Version 6.0.0  -   RELEASE  -
|  1> ! pbe def2-sv(p) def2/J RI DEFGRID1 loosescf d4 GCP(DFT/SV(P)) printgap
|  2> %output
|  3>     printlevel normal
|  4> end
|  5> * xyz 0 1
|  6> C 5.786861484 -0.4499616962 -0.7714050781
|  7> C 4.4958780513 0.3416188253 -0.7239963926
|  8> O 3.4699553827 -0.5169095479 -0.1829758761
|  9> P 2.106467462 0.086468969 0.3624041993
| 10> S 2.2885847706 1.5141565261 1.6828524935
| 11> O 1.3677012879 -1.1864008619 0.9253945492
| 12> C 1.3071526793 -2.4469403158 0.2101124403
| 13> C 2.371200382 -3.3958183771 0.7176148718
| 14> S 1.110866217 0.6244988074 -1.4485477603
| 15> C -0.0748850388 1.7879622834 -0.7134083737
| 16> S -1.0070763168 1.1111075443 0.6834625908
| 17> P -2.3879244363 -0.0900463217 -0.4246011958
| 18> S -1.6773959879 -1.5212633336 -1.5480949713
| 19> O -3.2503925951 0.9280075727 -1.265450591
| 20> C -4.1457553432 1.9202951008 -0.6953376936
| 21> C -3.523507538 3.3020420897 -0.7365482543
| 22> O -3.4023975017 -0.5659967073 0.7049375165
| 23> C -3.1946204138 -1.7714687282 1.4610692652
| 24> C -2.1318551317 -1.5960963994 2.5275263896
| 25> H 6.0703916539 -0.7621478614 0.2298259634
| 26> H 5.6610652099 -1.3305731151 -1.3947993635
| 27> H 6.5709084534 0.1745675337 -1.1865729424
| 28> H 4.1828946934 0.6585886818 -1.7225368052
| 29> H 4.5869070455 1.2220007545 -0.0793245764
| 30> H 0.3027421303 -2.8303510261 0.4014545915
| 31> H 1.4120683103 -2.2567686704 -0.8615058582
| 32> H 2.2647620765 -3.5325002917 1.7902194377
| 33> H 2.2557580195 -4.3527170509 0.2185052298
| 34> H 3.3604626104 -2.997267066 0.5096377096
| 35> H -0.7527322042 2.0792556396 -1.5133842845
| 36> H 0.4704510626 2.6439463086 -0.3180283911
| 37> H -5.0341889894 1.8693634311 -1.3268004638
| 38> H -4.4004716082 1.6264416574 0.3236642653
| 39> H -3.200130501 3.5379770182 -1.7470165494
| 40> H -4.2673146935 4.02906806 -0.4257159836
| 41> H -2.6712829947 3.3640028742 -0.0640921883
| 42> H -4.1711335638 -1.9769408905 1.9020724536
| 43> H -2.9247466092 -2.5735665444 0.7660003947
| 44> H -2.0803416946 -2.4951100392 3.1333697244
| 45> H -1.1568846693 -1.4212286638 2.0739762764
| 46> H -2.3704574687 -0.7471834533 3.1633013733
| 47> *
| 48>
| 49>                          ****END OF INPUT****

CARTESIAN COORDINATES (ANGSTROEM)
---------------------------------
  C      5.786861   -0.449962   -0.771405
  C      4.495878    0.341619   -0.723996
  O      3.469955   -0.516910   -0.182976
  P      2.106467    0.086469    0.362404
  S      2.288585    1.514157    1.682852
  O      1.367701   -1.186401    0.925395
  C      1.307153   -2.446940    0.210112
  C      2.371200   -3.395818    0.717615
  S      1.110866    0.624499   -1.448548
  C     -0.074885    1.787962   -0.713408
  S     -1.007076    1.111108    0.683463
  P     -2.387924   -0.090046   -0.424601
  S     -1.677396   -1.521263   -1.548095
  O     -3.250393    0.928008   -1.265451
  C     -4.145755    1.920295   -0.695338
  C     -3.523508    3.302042   -0.736548
  O     -3.402398   -0.565997    0.704938
  C     -3.194620   -1.771469    1.461069
  C     -2.131855   -1.596096    2.527526
  H      6.070392   -0.762148    0.229826
  H      5.661065   -1.330573   -1.394799
  H      6.570908    0.174568   -1.186573
  H      4.182895    0.658589   -1.722537
  H      4.586907    1.222001   -0.079325
  H      0.302742   -2.830351    0.401455
  H      1.412068   -2.256769   -0.861506
  H      2.264762   -3.532500    1.790219
  H      2.255758   -4.352717    0.218505
  H      3.360463   -2.997267    0.509638
  H     -0.752732    2.079256   -1.513384
  H      0.470451    2.643946   -0.318028
  H     -5.034189    1.869363   -1.326800
  H     -4.400472    1.626442    0.323664
  H     -3.200131    3.537977   -1.747017
  H     -4.267315    4.029068   -0.425716
  H     -2.671283    3.364003   -0.064092
  H     -4.171134   -1.976941    1.902072
  H     -2.924747   -2.573567    0.766000
  H     -2.080342   -2.495110    3.133370
  H     -1.156885   -1.421229    2.073976
  H     -2.370457   -0.747183    3.163301

 Total Charge           Charge          ....    0
 Multiplicity           Mult            ....    1
 Number of Electrons    NEL             ....  202
 Basis Dimension        Dim             ....  334

ORBITAL ENERGIES
----------------

  NO   OCC          E(Eh)            E(eV)
   0   2.0000     -88.041578     -2395.7331
   1   2.0000     -88.035176     -2395.5589
   2   2.0000     -87.982632     -2394.1291
   3   2.0000     -87.982154     -2394.1161
   4   2.0000     -76.424897     -2079.6272
   5   2.0000     -76.423566     -2079.5910
   6   2.0000     -18.794848      -511.4338
   7   2.0000     -18.794227      -511.4169
   8   2.0000     -18.793034      -511.3845
   9   2.0000     -18.788789      -511.2689
  10   2.0000      -9.958922      -270.9960
  11   2.0000      -9.956502      -270.9302
  12   2.0000      -9.953440      -270.8469
  13   2.0000      -9.953340      -270.8441
  14   2.0000      -9.946888      -270.6686
  15   2.0000      -9.890795      -269.1422
  16   2.0000      -9.889483      -269.1065
  17   2.0000      -9.883575      -268.9458
  18   2.0000      -9.880800      -268.8702
  19   2.0000      -7.685664      -209.1375
  20   2.0000      -7.680283      -208.9911
  21   2.0000      -7.627795      -207.5629
  22   2.0000      -7.627492      -207.5546
  23   2.0000      -6.422514      -174.7655
  24   2.0000      -6.420938      -174.7226
  25   2.0000      -5.713424      -155.4702
  26   2.0000      -5.710331      -155.3860
  27   2.0000      -5.708117      -155.3258
  28   2.0000      -5.704881      -155.2377
  29   2.0000      -5.702730      -155.1792
  30   2.0000      -5.697220      -155.0292
  31   2.0000      -5.656756      -153.9282
  32   2.0000      -5.656498      -153.9211
  33   2.0000      -5.648526      -153.7042
  34   2.0000      -5.648046      -153.6911
  35   2.0000      -5.647753      -153.6832
  36   2.0000      -5.647598      -153.6789
  37   2.0000      -4.645690      -126.4157
  38   2.0000      -4.644195      -126.3750
  39   2.0000      -4.643891      -126.3667
  40   2.0000      -4.642711      -126.3346
  41   2.0000      -4.642486      -126.3285
  42   2.0000      -4.641070      -126.2899
  43   2.0000      -0.989193       -26.9173
  44   2.0000      -0.987684       -26.8763
  45   2.0000      -0.946537       -25.7566
  46   2.0000      -0.943643       -25.6778
  47   2.0000      -0.760953       -20.7066
  48   2.0000      -0.720242       -19.5988
  49   2.0000      -0.711329       -19.3563
  50   2.0000      -0.691086       -18.8054
  51   2.0000      -0.690212       -18.7816
  52   2.0000      -0.671773       -18.2799
  53   2.0000      -0.647501       -17.6194
  54   2.0000      -0.637095       -17.3362
  55   2.0000      -0.592736       -16.1292
  56   2.0000      -0.585768       -15.9396
  57   2.0000      -0.580582       -15.7984
  58   2.0000      -0.566387       -15.4122
  59   2.0000      -0.563232       -15.3263
  60   2.0000      -0.507933       -13.8216
  61   2.0000      -0.502742       -13.6803
  62   2.0000      -0.478330       -13.0160
  63   2.0000      -0.475948       -12.9512
  64   2.0000      -0.459152       -12.4942
  65   2.0000      -0.446730       -12.1561
  66   2.0000      -0.442912       -12.0522
  67   2.0000      -0.435928       -11.8622
  68   2.0000      -0.429049       -11.6750
  69   2.0000      -0.415444       -11.3048
  70   2.0000      -0.408193       -11.1075
  71   2.0000      -0.394746       -10.7416
  72   2.0000      -0.387066       -10.5326
  73   2.0000      -0.381058       -10.3691
  74   2.0000      -0.375915       -10.2292
  75   2.0000      -0.373769       -10.1708
  76   2.0000      -0.366379        -9.9697
  77   2.0000      -0.361269        -9.8306
  78   2.0000      -0.358186        -9.7467
  79   2.0000      -0.352533        -9.5929
  80   2.0000      -0.351737        -9.5713
  81   2.0000      -0.347770        -9.4633
  82   2.0000      -0.343225        -9.3396
  83   2.0000      -0.338197        -9.2028
  84   2.0000      -0.330961        -9.0059
  85   2.0000      -0.319962        -8.7066
  86   2.0000      -0.314849        -8.5675
  87   2.0000      -0.304240        -8.2788
  88   2.0000      -0.300075        -8.1655
  89   2.0000      -0.292781        -7.9670
  90   2.0000      -0.289596        -7.8803
  91   2.0000      -0.271975        -7.4008
  92   2.0000      -0.270803        -7.3689
  93   2.0000      -0.262219        -7.1354
  94   2.0000      -0.256197        -6.9715
  95   2.0000      -0.238621        -6.4932
  96   2.0000      -0.216642        -5.8951
  97   2.0000      -0.207072        -5.6347
  98   2.0000      -0.201694        -5.4884
  99   2.0000      -0.196345        -5.3428
 100   2.0000      -0.185474        -5.0470
 101   0.0000      -0.042189        -1.1480
 102   0.0000      -0.026418        -0.7189
 103   0.0000      -0.001787        -0.0486
 104   0.0000       0.003826         0.1041
 105   0.0000       0.016617         0.4522

MULLIKEN ATOMIC CHARGES
-----------------------
   0 C :   -0.283592
   1 C :   -0.010334
   2 O :   -0.383999
   3 P :    0.600017
   4 S :   -0.319948
   5 O :   -0.351324
   6 C :   -0.018002
   7 C :   -0.284765
   8 S :   -0.085138
   9 C :   -0.351869
  10 S :   -0.085906
  11 P :    0.600795
  12 S :   -0.308789
  13 O :   -0.367296
  14 C :   -0.010509
  15 C :   -0.307001
  16 O :   -0.384087
  17 C :   -0.004722
  18 C :   -0.346991
  19 H :    0.122421
  20 H :    0.117001
  21 H :    0.113451
  22 H :    0.104492
  23 H :    0.105607
  24 H :    0.112067
  25 H :    0.110647
  26 H :    0.114496
  27 H :    0.109142
  28 H :    0.119436
  29 H :    0.184360
  30 H :    0.192221
  31 H :    0.112376
  32 H :    0.113780
  33 H :    0.121156
  34 H :    0.113856
  35 H :    0.127709
  36 H :    0.104561
  37 H :    0.110263
  38 H :    0.112893
  39 H :    0.162800
  40 H :    0.118725
Sum of atomic charges:    0.0000000

LOEWDIN ATOMIC CHARGES
----------------------
   0 C :   -0.350838
   1 C :   -0.120715
   2 O :   -0.248581
   3 P :    0.567117
   4 S :   -0.319647
   5 O :   -0.231008
   6 C :   -0.116463
   7 C :   -0.359717
   8 S :    0.066552
   9 C :   -0.478419
  10 S :    0.091292
  11 P :    0.562246
  12 S :   -0.303992
  13 O :   -0.244238
  14 C :   -0.110296
  15 C :   -0.363895
  16 O :   -0.248292
  17 C :   -0.119197
  18 C :   -0.373024
  19 H :    0.129249
  20 H :    0.126186
  21 H :    0.131648
  22 H :    0.109214
  23 H :    0.109574
  24 H :    0.112871
  25 H :    0.108104
  26 H :    0.126538
  27 H :    0.129439
  28 H :    0.124193
  29 H :    0.131177
  30 H :    0.133402
  31 H :    0.122739
  32 H :    0.114151
  33 H :    0.126871
  34 H :    0.132153
  35 H :    0.121062
  36 H :    0.118278
  37 H :    0.108254
  38 H :    0.131611
  39 H :    0.127701
  40 H :    0.126700

  Mayer bond orders larger than 0.100000
B(  0-C ,  1-C ) :   1.1592 B(  0-C , 19-H ) :   0.9506 B(  0-C , 20-H ) :   0.9506
B(  0-C , 21-H ) :   0.9418 B(  1-C ,  2-O ) :   0.9045 B(  1-C , 22-H ) :   0.9271
B(  1-C , 23-H ) :   0.9099 B(  2-O ,  3-P ) :   1.0766 B(  3-P ,  4-S ) :   1.6348
B(  3-P ,  5-O ) :   1.1354 B(  3-P ,  8-S ) :   0.9638 B(  4-S ,  8-S ) :   0.1121
B(  5-O ,  6-C ) :   0.8814 B(  6-C ,  7-C ) :   1.1577 B(  6-C , 24-H ) :   0.9234
B(  6-C , 25-H ) :   0.9186 B(  7-C , 26-H ) :   0.9464 B(  7-C , 27-H ) :   0.9407
B(  7-C , 28-H ) :   0.9416 B(  8-S ,  9-C ) :   1.0034 B(  9-C , 10-S ) :   0.9935
B(  9-C , 29-H ) :   0.8942 B(  9-C , 30-H ) :   0.8920 B( 10-S , 11-P ) :   0.9449
B( 10-S , 12-S ) :   0.1129 B( 11-P , 12-S ) :   1.6690 B( 11-P , 13-O ) :   1.1176
B( 11-P , 16-O ) :   1.0792 B( 13-O , 14-C ) :   0.8951 B( 14-C , 15-C ) :   1.1682
B( 14-C , 31-H ) :   0.9353 B( 14-C , 32-H ) :   0.9177 B( 15-C , 33-H ) :   0.9434
B( 15-C , 34-H ) :   0.9387 B( 15-C , 35-H ) :   0.9327 B( 16-O , 17-C ) :   0.9067
B( 17-C , 18-C ) :   1.1637 B( 17-C , 36-H ) :   0.9330 B( 17-C , 37-H ) :   0.9114
B( 18-C , 38-H ) :   0.9385 B( 18-C , 39-H ) :   0.9221 B( 18-C , 40-H ) :   0.9441

Dispersion correction           -0.065601434
FINAL SINGLE POINT ENERGY     -2929.519630690965

DIPOLE MOMENT
-------------

Method             : SCF
Type of density    : Electron Density
Multiplicity       :   1
Irrep              :   0
Energy             : -2929.6387818888974834 Eh
Relativity type    :
Basis              : AO
                                X                 Y                 Z
Electronic contribution:     -4.375867588       5.769225036      -3.797488116
Nuclear contribution   :      4.058595227      -5.762478746       3.709349408
                        -----------------------------------------
Total Dipole Moment    :     -0.317272361       0.006746290      -0.088138708
                        -----------------------------------------
Magnitude (a.u.)       :      0.329356487
Magnitude (Debye)      :      0.837157659

Rotational constants in cm-1:             0.012537             0.005139             0.004574
Rotational constants in MHz :           375.835337           154.077933           137.135760

                             ****ORCA TERMINATED NORMALLY****
TOTAL RUN TIME: 0 days 0 hours 0 minutes 21 seconds 197 msec
