                         Program Version 6.0.0  -   RELEASE  -
|  1> ! pbe def2-sv(p) def2/J RI DEFGRID1 loosescf d4 GCP(DFT/SV(P)) printgap
|  2> %output
|  3>     printlevel normal
|  4> end
|  5> * xyz 0 1
|  6> C 3.0386442962 0.3602040898 -3.2557637443
|  7> C 3.3202412093 0.8568872646 -1.8519209659
|  8> O 2.8817638239 -0.1459139919 -0.9088708798
|  9> P 2.0285505965 0.1487026055 0.386110431
| 10> S 1.0290563378 1.8481003982 0.378129334
| 11> O 3.1425369366 0.1381136431 1.5236209146
| 12> C 2.9034269997 0.6307985696 2.8514942813
| 13> C 1.9180900837 -0.2384644731 3.6064253572
| 14> S 1.1490200642 -1.7511006167 0.624410502
| 15> C 0.4402607107 -2.003018966 -1.0366903896
| 16> S -0.3379299524 -0.5315186551 -1.7694629287
| 17> P -1.8196318196 0.0457829168 -0.3700885993
| 18> S -1.6546998383 -0.1078916673 1.5803649872
| 19> O -3.1410454131 -0.6636180677 -0.9204069538
| 20> C -3.829499935 -1.7306865028 -0.2522565026
| 21> C -3.0709806647 -3.0401130662 -0.3383786879
| 22> O -1.9589456647 1.4985200822 -0.9806086994
| 23> C -2.49310501 2.6077403854 -0.2364017006
| 24> C -3.9751685 2.4468092991 0.032449395
| 25> H 3.4016709759 1.0925780777 -3.9693401201
| 26> H 3.5439970852 -0.5863417704 -3.4233730197
| 27> H 1.9687983518 0.2221806343 -3.3968326527
| 28> H 2.7899673324 1.7930631369 -1.6456651116
| 29> H 4.3890019582 1.0015212764 -1.6824503248
| 30> H 3.8899188089 0.6225554075 3.3167563326
| 31> H 2.5331332659 1.6589470005 2.7781396588
| 32> H 2.2435948862 -1.2757409305 3.5971203096
| 33> H 1.8396665358 0.1080978754 4.6317921196
| 34> H 0.9322154814 -0.178835892 3.1425060156
| 35> H -0.2759056807 -2.8156686108 -0.9405615261
| 36> H 1.2394332209 -2.2692390075 -1.7255716964
| 37> H -3.9829102869 -1.448640427 0.7941671494
| 38> H -4.788606333 -1.7853052616 -0.7687816137
| 39> H -2.1637653798 -2.9769848248 0.2623558108
| 40> H -3.6904597125 -3.8403665366 0.053872883
| 41> H -2.814644477 -3.2584631277 -1.3722926746
| 42> H -1.9291663229 2.7006637775 0.6981336589
| 43> H -2.2842261271 3.4709878349 -0.8700481087
| 44> H -4.353858523 3.3478391487 0.5045272356
| 45> H -4.5066100873 2.2724488288 -0.8995624354
| 46> H -4.1410822923 1.6009319182 0.69889776
| 47> *
| 48>
| 49>                          ****END OF INPUT****

CARTESIAN COORDINATES (ANGSTROEM)
---------------------------------
  C      3.038644    0.360204   -3.255764
  C      3.320241    0.856887   -1.851921
  O      2.881764   -0.145914   -0.908871
  P      2.028551    0.148703    0.386110
  S      1.029056    1.848100    0.378129
  O      3.142537    0.138114    1.523621
  C      2.903427    0.630799    2.851494
  C      1.918090   -0.238464    3.606425
  S      1.149020   -1.751101    0.624411
  C      0.440261   -2.003019   -1.036690
  S     -0.337930   -0.531519   -1.769463
  P     -1.819632    0.045783   -0.370089
  S     -1.654700   -0.107892    1.580365
  O     -3.141045   -0.663618   -0.920407
  C     -3.829500   -1.730687   -0.252257
  C     -3.070981   -3.040113   -0.338379
  O     -1.958946    1.498520   -0.980609
  C     -2.493105    2.607740   -0.236402
  C     -3.975169    2.446809    0.032449
  H      3.401671    1.092578   -3.969340
  H      3.543997   -0.586342   -3.423373
  H      1.968798    0.222181   -3.396833
  H      2.789967    1.793063   -1.645665
  H      4.389002    1.001521   -1.682450
  H      3.889919    0.622555    3.316756
  H      2.533133    1.658947    2.778140
  H      2.243595   -1.275741    3.597120
  H      1.839667    0.108098    4.631792
  H      0.932215   -0.178836    3.142506
  H     -0.275906   -2.815669   -0.940562
  H      1.239433   -2.269239   -1.725572
  H     -3.982910   -1.448640    0.794167
  H     -4.788606   -1.785305   -0.768782
  H     -2.163765   -2.976985    0.262356
  H     -3.690460   -3.840367    0.053873
  H     -2.814644   -3.258463   -1.372293
  H     -1.929166    2.700664    0.698134
  H     -2.284226    3.470988   -0.870048
  H     -4.353859    3.347839    0.504527
  H     -4.506610    2.272449   -0.899562
  H     -4.141082    1.600932    0.698898

 Total Charge           Charge          ....    0
 Multiplicity           Mult            ....    1
 Number of Electrons    NEL             ....  202
 Basis Dimension        Dim             ....  334

ORBITAL ENERGIES
----------------

  NO   OCC          E(Eh)            E(eV)
   0   2.0000     -88.040619     -2395.7070
   1   2.0000     -88.035571     -2395.5697
   2   2.0000     -87.984580     -2394.1821
   3   2.0000     -87.977237     -2393.9823
   4   2.0000     -76.423812     -2079.5977
   5   2.0000     -76.421067     -2079.5230
   6   2.0000     -18.789417      -511.2860
   7   2.0000     -18.785813      -511.1880
   8   2.0000     -18.785521      -511.1800
   9   2.0000     -18.784405      -511.1496
  10   2.0000      -9.960206      -271.0310
  11   2.0000      -9.950158      -270.7576
  12   2.0000      -9.946677      -270.6629
  13   2.0000      -9.945534      -270.6317
  14   2.0000      -9.943477      -270.5758
  15   2.0000      -9.889117      -269.0966
  16   2.0000      -9.884030      -268.9581
  17   2.0000      -9.880022      -268.8491
  18   2.0000      -9.877071      -268.7688
  19   2.0000      -7.685460      -209.1320
  20   2.0000      -7.681059      -209.0122
  21   2.0000      -7.629114      -207.5987
  22   2.0000      -7.621799      -207.3997
  23   2.0000      -6.420790      -174.7186
  24   2.0000      -6.418196      -174.6480
  25   2.0000      -5.713515      -155.4726
  26   2.0000      -5.710147      -155.3810
  27   2.0000      -5.709295      -155.3578
  28   2.0000      -5.705551      -155.2559
  29   2.0000      -5.701990      -155.1590
  30   2.0000      -5.697546      -155.0381
  31   2.0000      -5.658114      -153.9651
  32   2.0000      -5.650678      -153.7628
  33   2.0000      -5.650073      -153.7463
  34   2.0000      -5.648900      -153.7144
  35   2.0000      -5.642459      -153.5391
  36   2.0000      -5.642012      -153.5269
  37   2.0000      -4.643110      -126.3455
  38   2.0000      -4.642571      -126.3308
  39   2.0000      -4.641562      -126.3033
  40   2.0000      -4.640848      -126.2839
  41   2.0000      -4.640092      -126.2633
  42   2.0000      -4.638508      -126.2202
  43   2.0000      -0.980477       -26.6801
  44   2.0000      -0.980159       -26.6715
  45   2.0000      -0.940220       -25.5847
  46   2.0000      -0.939704       -25.5706
  47   2.0000      -0.760745       -20.7009
  48   2.0000      -0.717595       -19.5268
  49   2.0000      -0.706518       -19.2253
  50   2.0000      -0.684910       -18.6374
  51   2.0000      -0.680299       -18.5119
  52   2.0000      -0.665856       -18.1189
  53   2.0000      -0.651497       -17.7281
  54   2.0000      -0.634444       -17.2641
  55   2.0000      -0.599913       -16.3245
  56   2.0000      -0.588210       -16.0060
  57   2.0000      -0.572019       -15.5654
  58   2.0000      -0.566986       -15.4285
  59   2.0000      -0.559859       -15.2345
  60   2.0000      -0.496976       -13.5234
  61   2.0000      -0.489569       -13.3219
  62   2.0000      -0.469996       -12.7892
  63   2.0000      -0.466074       -12.6825
  64   2.0000      -0.453732       -12.3467
  65   2.0000      -0.436871       -11.8879
  66   2.0000      -0.435044       -11.8381
  67   2.0000      -0.430844       -11.7239
  68   2.0000      -0.424641       -11.5551
  69   2.0000      -0.413860       -11.2617
  70   2.0000      -0.407322       -11.0838
  71   2.0000      -0.392691       -10.6857
  72   2.0000      -0.388453       -10.5703
  73   2.0000      -0.384749       -10.4695
  74   2.0000      -0.383994       -10.4490
  75   2.0000      -0.373592       -10.1659
  76   2.0000      -0.369193       -10.0463
  77   2.0000      -0.355858        -9.6834
  78   2.0000      -0.352332        -9.5874
  79   2.0000      -0.348622        -9.4865
  80   2.0000      -0.345468        -9.4007
  81   2.0000      -0.340935        -9.2773
  82   2.0000      -0.338847        -9.2205
  83   2.0000      -0.336049        -9.1444
  84   2.0000      -0.327732        -8.9180
  85   2.0000      -0.319136        -8.6841
  86   2.0000      -0.303966        -8.2713
  87   2.0000      -0.292095        -7.9483
  88   2.0000      -0.290638        -7.9087
  89   2.0000      -0.279734        -7.6120
  90   2.0000      -0.278344        -7.5741
  91   2.0000      -0.271513        -7.3883
  92   2.0000      -0.266894        -7.2625
  93   2.0000      -0.261231        -7.1085
  94   2.0000      -0.255214        -6.9447
  95   2.0000      -0.240785        -6.5521
  96   2.0000      -0.217318        -5.9135
  97   2.0000      -0.213945        -5.8217
  98   2.0000      -0.188365        -5.1257
  99   2.0000      -0.185371        -5.0442
 100   2.0000      -0.179734        -4.8908
 101   0.0000      -0.052979        -1.4416
 102   0.0000      -0.034284        -0.9329
 103   0.0000      -0.012197        -0.3319
 104   0.0000       0.006319         0.1720
 105   0.0000       0.022002         0.5987

MULLIKEN ATOMIC CHARGES
-----------------------
   0 C :   -0.301561
   1 C :    0.001069
   2 O :   -0.376036
   3 P :    0.611560
   4 S :   -0.320434
   5 O :   -0.370480
   6 C :    0.004278
   7 C :   -0.343577
   8 S :   -0.092988
   9 C :   -0.328203
  10 S :   -0.102359
  11 P :    0.634820
  12 S :   -0.300140
  13 O :   -0.374353
  14 C :   -0.000395
  15 C :   -0.325735
  16 O :   -0.375435
  17 C :   -0.000005
  18 C :   -0.305690
  19 H :    0.110207
  20 H :    0.111729
  21 H :    0.129214
  22 H :    0.109456
  23 H :    0.103264
  24 H :    0.101038
  25 H :    0.107979
  26 H :    0.117301
  27 H :    0.111431
  28 H :    0.152364
  29 H :    0.181610
  30 H :    0.186790
  31 H :    0.110230
  32 H :    0.103042
  33 H :    0.126073
  34 H :    0.113204
  35 H :    0.120741
  36 H :    0.120487
  37 H :    0.104458
  38 H :    0.109841
  39 H :    0.114398
  40 H :    0.120807
Sum of atomic charges:   -0.0000000

LOEWDIN ATOMIC CHARGES
----------------------
   0 C :   -0.357233
   1 C :   -0.115966
   2 O :   -0.245219
   3 P :    0.564443
   4 S :   -0.309543
   5 O :   -0.248220
   6 C :   -0.120609
   7 C :   -0.374183
   8 S :    0.089126
   9 C :   -0.468773
  10 S :    0.098709
  11 P :    0.568270
  12 S :   -0.294333
  13 O :   -0.252926
  14 C :   -0.120985
  15 C :   -0.367927
  16 O :   -0.239478
  17 C :   -0.114272
  18 C :   -0.365305
  19 H :    0.130432
  20 H :    0.123083
  21 H :    0.121429
  22 H :    0.107444
  23 H :    0.115263
  24 H :    0.116749
  25 H :    0.108406
  26 H :    0.123102
  27 H :    0.130932
  28 H :    0.123645
  29 H :    0.128910
  30 H :    0.135826
  31 H :    0.107367
  32 H :    0.118419
  33 H :    0.119327
  34 H :    0.132128
  35 H :    0.124545
  36 H :    0.112384
  37 H :    0.119598
  38 H :    0.129478
  39 H :    0.125349
  40 H :    0.120611

  Mayer bond orders larger than 0.100000
B(  0-C ,  1-C ) :   1.1634 B(  0-C , 19-H ) :   0.9408 B(  0-C , 20-H ) :   0.9498
B(  0-C , 21-H ) :   0.9410 B(  1-C ,  2-O ) :   0.8960 B(  1-C , 22-H ) :   0.8998
B(  1-C , 23-H ) :   0.9342 B(  2-O ,  3-P ) :   1.1183 B(  3-P ,  4-S ) :   1.5964
B(  3-P ,  5-O ) :   1.1122 B(  3-P ,  8-S ) :   0.9696 B(  4-S ,  8-S ) :   0.1158
B(  5-O ,  6-C ) :   0.9124 B(  6-C ,  7-C ) :   1.1628 B(  6-C , 24-H ) :   0.9331
B(  6-C , 25-H ) :   0.9121 B(  7-C , 26-H ) :   0.9435 B(  7-C , 27-H ) :   0.9379
B(  7-C , 28-H ) :   0.9253 B(  8-S ,  9-C ) :   0.9940 B(  9-C , 10-S ) :   1.0143
B(  9-C , 29-H ) :   0.8955 B(  9-C , 30-H ) :   0.9071 B( 10-S , 11-P ) :   0.9268
B( 10-S , 12-S ) :   0.1184 B( 11-P , 12-S ) :   1.6017 B( 11-P , 13-O ) :   1.0856
B( 11-P , 16-O ) :   1.1253 B( 13-O , 14-C ) :   0.9221 B( 14-C , 15-C ) :   1.1633
B( 14-C , 31-H ) :   0.9102 B( 14-C , 32-H ) :   0.9326 B( 15-C , 33-H ) :   0.9232
B( 15-C , 34-H ) :   0.9361 B( 15-C , 35-H ) :   0.9421 B( 16-O , 17-C ) :   0.9043
B( 17-C , 18-C ) :   1.1619 B( 17-C , 36-H ) :   0.9164 B( 17-C , 37-H ) :   0.9356
B( 18-C , 38-H ) :   0.9394 B( 18-C , 39-H ) :   0.9457 B( 18-C , 40-H ) :   0.9357

Dispersion correction           -0.069708025
FINAL SINGLE POINT ENERGY     -2929.510388542406

DIPOLE MOMENT
-------------

Method             : SCF
Type of density    : Electron Density
Multiplicity       :   1
Irrep              :   0
Energy             : -2929.6243306318287978 Eh
Relativity type    :
Basis              : AO
                                X                 Y                 Z
Electronic contribution:      5.785211763       0.215500225      -0.134311889
Nuclear contribution   :     -5.957334657      -0.655974000      -0.259754654
                        -----------------------------------------
Total Dipole Moment    :     -0.172122894      -0.440473775      -0.394066543
                        -----------------------------------------
Magnitude (a.u.)       :      0.615574429
Magnitude (Debye)      :      1.564665853

Rotational constants in cm-1:             0.010861             0.005991             0.005773
Rotational constants in MHz :           325.612985           179.615247           173.056677

                             ****ORCA TERMINATED NORMALLY****
TOTAL RUN TIME: 0 days 0 hours 0 minutes 23 seconds 132 msec
