                         Program Version 6.0.0  -   RELEASE  -
|  1> ! pbe def2-sv(p) def2/J RI DEFGRID1 loosescf d4 GCP(DFT/SV(P)) printgap
|  2> %output
|  3>     printlevel normal
|  4> end
|  5> * xyz 0 1
|  6> C 3.0250434947 -3.1718455198 -0.7929493586
|  7> C 3.5952624347 -2.1211094734 -1.7197402699
|  8> O 3.8285098115 -0.8523896035 -1.0565892066
|  9> P 2.7817420508 -0.022149704 -0.2320873465
| 10> S 3.3144487736 1.8520619672 -0.034188366
| 11> O 2.7282849822 -0.8279594654 1.1399797157
| 12> C 2.0891906074 -0.3408745145 2.3323667827
| 13> C 0.8549463061 -1.16678603 2.6391729462
| 14> S 0.9245095331 -0.334966986 -1.2514822283
| 15> C 0.2354657449 1.3207618311 -1.0734589043
| 16> S -0.5989672886 1.5744550788 0.5188576324
| 17> P -2.3226970183 0.4553673617 0.0430826336
| 18> S -3.0326099101 0.6744621995 -1.7766087982
| 19> O -3.3448093319 0.8172879963 1.2032818084
| 20> C -4.1353147572 2.0226157139 1.1857066442
| 21> C -5.3668738648 1.7857994337 2.0365686632
| 22> O -1.8849995081 -1.0035367955 0.454602598
| 23> C -2.4975301928 -2.2034711868 -0.0766461228
| 24> C -1.4047612687 -3.1768395671 -0.4689710902
| 25> H 3.6644178676 -3.2932984412 0.0773041238
| 26> H 2.0300446754 -2.8788369224 -0.4639717906
| 27> H 2.9565184415 -4.1150008119 -1.326055595
| 28> H 2.9266292302 -1.9417150287 -2.5653726337
| 29> H 4.5870141021 -2.3949311328 -2.0825175318
| 30> H 2.8361661051 -0.4432135336 3.1225291201
| 31> H 1.8443631905 0.7197157972 2.209799755
| 32> H 0.114245472 -1.0620343042 1.8502240449
| 33> H 1.1253602817 -2.2146738131 2.7337111319
| 34> H 0.4208039502 -0.8216986038 3.5719741975
| 35> H -0.4870160816 1.4564458056 -1.8787041538
| 36> H 1.0413099822 2.0546321754 -1.1260047653
| 37> H -3.5228077085 2.8348821359 1.5853989239
| 38> H -4.4034177523 2.2511758655 0.1484966698
| 39> H -5.0720935158 1.5188852884 3.0471896195
| 40> H -5.9617654119 2.6928570682 2.0621814467
| 41> H -5.9613267757 0.9787495192 1.6175868711
| 42> H -3.1325679204 -2.6070455526 0.7140726895
| 43> H -3.1149118028 -1.9326572603 -0.9393560084
| 44> H -0.7805565021 -3.4027149284 0.3907146864
| 45> H -1.8602167977 -4.0922734846 -0.8321499989
| 46> H -0.7865159032 -2.7473985329 -1.2536314746
| 47> *
| 48>
| 49>                          ****END OF INPUT****

CARTESIAN COORDINATES (ANGSTROEM)
---------------------------------
  C      3.025043   -3.171846   -0.792949
  C      3.595262   -2.121109   -1.719740
  O      3.828510   -0.852390   -1.056589
  P      2.781742   -0.022150   -0.232087
  S      3.314449    1.852062   -0.034188
  O      2.728285   -0.827959    1.139980
  C      2.089191   -0.340875    2.332367
  C      0.854946   -1.166786    2.639173
  S      0.924510   -0.334967   -1.251482
  C      0.235466    1.320762   -1.073459
  S     -0.598967    1.574455    0.518858
  P     -2.322697    0.455367    0.043083
  S     -3.032610    0.674462   -1.776609
  O     -3.344809    0.817288    1.203282
  C     -4.135315    2.022616    1.185707
  C     -5.366874    1.785799    2.036569
  O     -1.885000   -1.003537    0.454603
  C     -2.497530   -2.203471   -0.076646
  C     -1.404761   -3.176840   -0.468971
  H      3.664418   -3.293298    0.077304
  H      2.030045   -2.878837   -0.463972
  H      2.956518   -4.115001   -1.326056
  H      2.926629   -1.941715   -2.565373
  H      4.587014   -2.394931   -2.082518
  H      2.836166   -0.443214    3.122529
  H      1.844363    0.719716    2.209800
  H      0.114245   -1.062034    1.850224
  H      1.125360   -2.214674    2.733711
  H      0.420804   -0.821699    3.571974
  H     -0.487016    1.456446   -1.878704
  H      1.041310    2.054632   -1.126005
  H     -3.522808    2.834882    1.585399
  H     -4.403418    2.251176    0.148497
  H     -5.072094    1.518885    3.047190
  H     -5.961765    2.692857    2.062181
  H     -5.961327    0.978750    1.617587
  H     -3.132568   -2.607046    0.714073
  H     -3.114912   -1.932657   -0.939356
  H     -0.780557   -3.402715    0.390715
  H     -1.860217   -4.092273   -0.832150
  H     -0.786516   -2.747399   -1.253631

 Total Charge           Charge          ....    0
 Multiplicity           Mult            ....    1
 Number of Electrons    NEL             ....  202
 Basis Dimension        Dim             ....  334

ORBITAL ENERGIES
----------------

  NO   OCC          E(Eh)            E(eV)
   0   2.0000     -88.046654     -2395.8713
   1   2.0000     -88.044229     -2395.8053
   2   2.0000     -87.992882     -2394.4081
   3   2.0000     -87.984357     -2394.1761
   4   2.0000     -76.431084     -2079.7955
   5   2.0000     -76.426969     -2079.6836
   6   2.0000     -18.797689      -511.5111
   7   2.0000     -18.797243      -511.4990
   8   2.0000     -18.794981      -511.4374
   9   2.0000     -18.788002      -511.2475
  10   2.0000      -9.962013      -271.0801
  11   2.0000      -9.957296      -270.9518
  12   2.0000      -9.956441      -270.9285
  13   2.0000      -9.952615      -270.8244
  14   2.0000      -9.946944      -270.6701
  15   2.0000      -9.893030      -269.2030
  16   2.0000      -9.891401      -269.1587
  17   2.0000      -9.889534      -269.1079
  18   2.0000      -9.877115      -268.7700
  19   2.0000      -7.691822      -209.3051
  20   2.0000      -7.688892      -209.2254
  21   2.0000      -7.637803      -207.8352
  22   2.0000      -7.629608      -207.6122
  23   2.0000      -6.428962      -174.9410
  24   2.0000      -6.424379      -174.8162
  25   2.0000      -5.719554      -155.6370
  26   2.0000      -5.716711      -155.5596
  27   2.0000      -5.716448      -155.5525
  28   2.0000      -5.713332      -155.4677
  29   2.0000      -5.708809      -155.3446
  30   2.0000      -5.706068      -155.2700
  31   2.0000      -5.666533      -154.1942
  32   2.0000      -5.658609      -153.9786
  33   2.0000      -5.658437      -153.9739
  34   2.0000      -5.658153      -153.9662
  35   2.0000      -5.650253      -153.7512
  36   2.0000      -5.649604      -153.7335
  37   2.0000      -4.651424      -126.5717
  38   2.0000      -4.650736      -126.5530
  39   2.0000      -4.649414      -126.5170
  40   2.0000      -4.647080      -126.4535
  41   2.0000      -4.646127      -126.4276
  42   2.0000      -4.644749      -126.3900
  43   2.0000      -0.992423       -27.0052
  44   2.0000      -0.987333       -26.8667
  45   2.0000      -0.951178       -25.8829
  46   2.0000      -0.944431       -25.6993
  47   2.0000      -0.766533       -20.8584
  48   2.0000      -0.726866       -19.7790
  49   2.0000      -0.715716       -19.4756
  50   2.0000      -0.693382       -18.8679
  51   2.0000      -0.690560       -18.7911
  52   2.0000      -0.676979       -18.4215
  53   2.0000      -0.650227       -17.6936
  54   2.0000      -0.639120       -17.3914
  55   2.0000      -0.602349       -16.3907
  56   2.0000      -0.595842       -16.2137
  57   2.0000      -0.574102       -15.6221
  58   2.0000      -0.570387       -15.5210
  59   2.0000      -0.560759       -15.2590
  60   2.0000      -0.512974       -13.9587
  61   2.0000      -0.497737       -13.5441
  62   2.0000      -0.486333       -13.2338
  63   2.0000      -0.477919       -13.0048
  64   2.0000      -0.462869       -12.5953
  65   2.0000      -0.447582       -12.1793
  66   2.0000      -0.444899       -12.1063
  67   2.0000      -0.438736       -11.9386
  68   2.0000      -0.433627       -11.7996
  69   2.0000      -0.419347       -11.4110
  70   2.0000      -0.405695       -11.0395
  71   2.0000      -0.401547       -10.9266
  72   2.0000      -0.394128       -10.7248
  73   2.0000      -0.385057       -10.4779
  74   2.0000      -0.383928       -10.4472
  75   2.0000      -0.380045       -10.3415
  76   2.0000      -0.365302        -9.9404
  77   2.0000      -0.360852        -9.8193
  78   2.0000      -0.359424        -9.7804
  79   2.0000      -0.357891        -9.7387
  80   2.0000      -0.352716        -9.5979
  81   2.0000      -0.346000        -9.4151
  82   2.0000      -0.345129        -9.3914
  83   2.0000      -0.341320        -9.2878
  84   2.0000      -0.333261        -9.0685
  85   2.0000      -0.324043        -8.8177
  86   2.0000      -0.313003        -8.5173
  87   2.0000      -0.304451        -8.2845
  88   2.0000      -0.294773        -8.0212
  89   2.0000      -0.293282        -7.9806
  90   2.0000      -0.288101        -7.8396
  91   2.0000      -0.283038        -7.7019
  92   2.0000      -0.276934        -7.5358
  93   2.0000      -0.267674        -7.2838
  94   2.0000      -0.256703        -6.9853
  95   2.0000      -0.237761        -6.4698
  96   2.0000      -0.221394        -6.0244
  97   2.0000      -0.214930        -5.8485
  98   2.0000      -0.206992        -5.6325
  99   2.0000      -0.203879        -5.5478
 100   2.0000      -0.199157        -5.4193
 101   0.0000      -0.047618        -1.2957
 102   0.0000      -0.029256        -0.7961
 103   0.0000      -0.010471        -0.2849
 104   0.0000       0.000821         0.0223
 105   0.0000       0.009780         0.2661

MULLIKEN ATOMIC CHARGES
-----------------------
   0 C :   -0.326772
   1 C :   -0.007333
   2 O :   -0.359073
   3 P :    0.599807
   4 S :   -0.308139
   5 O :   -0.372996
   6 C :   -0.003399
   7 C :   -0.324821
   8 S :   -0.122900
   9 C :   -0.361326
  10 S :   -0.081006
  11 P :    0.615264
  12 S :   -0.335483
  13 O :   -0.376319
  14 C :   -0.012046
  15 C :   -0.281543
  16 O :   -0.357133
  17 C :   -0.007347
  18 C :   -0.303431
  19 H :    0.127409
  20 H :    0.136479
  21 H :    0.115848
  22 H :    0.116897
  23 H :    0.115911
  24 H :    0.104097
  25 H :    0.104349
  26 H :    0.152705
  27 H :    0.105610
  28 H :    0.104690
  29 H :    0.195740
  30 H :    0.197684
  31 H :    0.105124
  32 H :    0.108615
  33 H :    0.117389
  34 H :    0.114038
  35 H :    0.118137
  36 H :    0.106253
  37 H :    0.110199
  38 H :    0.125432
  39 H :    0.110224
  40 H :    0.133167
Sum of atomic charges:    0.0000000

LOEWDIN ATOMIC CHARGES
----------------------
   0 C :   -0.368617
   1 C :   -0.111540
   2 O :   -0.233396
   3 P :    0.570350
   4 S :   -0.304176
   5 O :   -0.245254
   6 C :   -0.117643
   7 C :   -0.369301
   8 S :    0.072429
   9 C :   -0.488699
  10 S :    0.092366
  11 P :    0.567943
  12 S :   -0.320798
  13 O :   -0.248970
  14 C :   -0.119419
  15 C :   -0.350506
  16 O :   -0.233608
  17 C :   -0.113810
  18 C :   -0.356903
  19 H :    0.131581
  20 H :    0.120152
  21 H :    0.132551
  22 H :    0.111615
  23 H :    0.125331
  24 H :    0.117110
  25 H :    0.101980
  26 H :    0.119899
  27 H :    0.120396
  28 H :    0.128427
  29 H :    0.129097
  30 H :    0.128695
  31 H :    0.112366
  32 H :    0.108811
  33 H :    0.127226
  34 H :    0.131819
  35 H :    0.128049
  36 H :    0.116316
  37 H :    0.108375
  38 H :    0.126829
  39 H :    0.129915
  40 H :    0.123012

  Mayer bond orders larger than 0.100000
B(  0-C ,  1-C ) :   1.1687 B(  0-C , 19-H ) :   0.9411 B(  0-C , 20-H ) :   0.9327
B(  0-C , 21-H ) :   0.9342 B(  1-C ,  2-O ) :   0.9001 B(  1-C , 22-H ) :   0.9221
B(  1-C , 23-H ) :   0.9340 B(  2-O ,  3-P ) :   1.1558 B(  3-P ,  4-S ) :   1.6409
B(  3-P ,  5-O ) :   1.0923 B(  3-P ,  8-S ) :   0.9257 B(  4-S ,  8-S ) :   0.1107
B(  4-S , 30-H ) :   0.1034 B(  5-O ,  6-C ) :   0.9031 B(  6-C ,  7-C ) :   1.1643
B(  6-C , 24-H ) :   0.9351 B(  6-C , 25-H ) :   0.9021 B(  7-C , 26-H ) :   0.9189
B(  7-C , 27-H ) :   0.9453 B(  7-C , 28-H ) :   0.9397 B(  8-S ,  9-C ) :   1.0192
B(  9-C , 10-S ) :   1.0008 B(  9-C , 29-H ) :   0.8672 B(  9-C , 30-H ) :   0.8575
B( 10-S , 11-P ) :   0.9715 B( 10-S , 12-S ) :   0.1067 B( 11-P , 12-S ) :   1.6049
B( 11-P , 13-O ) :   1.1190 B( 11-P , 16-O ) :   1.1305 B( 13-O , 14-C ) :   0.9029
B( 14-C , 15-C ) :   1.1621 B( 14-C , 31-H ) :   0.9308 B( 14-C , 32-H ) :   0.9080
B( 15-C , 33-H ) :   0.9507 B( 15-C , 34-H ) :   0.9416 B( 15-C , 35-H ) :   0.9511
B( 16-O , 17-C ) :   0.8902 B( 17-C , 18-C ) :   1.1672 B( 17-C , 36-H ) :   0.9332
B( 17-C , 37-H ) :   0.9027 B( 18-C , 38-H ) :   0.9468 B( 18-C , 39-H ) :   0.9387
B( 18-C , 40-H ) :   0.9403

Dispersion correction           -0.064296679
FINAL SINGLE POINT ENERGY     -2929.521799243128

DIPOLE MOMENT
-------------

Method             : SCF
Type of density    : Electron Density
Multiplicity       :   1
Irrep              :   0
Energy             : -2929.6425915574159262 Eh
Relativity type    :
Basis              : AO
                                X                 Y                 Z
Electronic contribution:     10.303730133      17.308348688      -9.611598773
Nuclear contribution   :    -11.231141047     -18.761941849      10.272409638
                        -----------------------------------------
Total Dipole Moment    :     -0.927410914      -1.453593161       0.660810865
                        -----------------------------------------
Magnitude (a.u.)       :      1.846535968
Magnitude (Debye)      :      4.693521431

Rotational constants in cm-1:             0.012612             0.004775             0.004422
Rotational constants in MHz :           378.097731           143.159645           132.558594

                             ****ORCA TERMINATED NORMALLY****
TOTAL RUN TIME: 0 days 0 hours 0 minutes 21 seconds 404 msec
