                         Program Version 6.0.0  -   RELEASE  -
|  1> ! pbe def2-sv(p) def2/J RI DEFGRID1 loosescf d4 GCP(DFT/SV(P)) printgap
|  2> %output
|  3>     printlevel normal
|  4> end
|  5> * xyz 0 1
|  6> C 0.699923405 -0.8665780351 3.4161015544
|  7> C 1.6924475816 -0.0933660706 2.5725931375
|  8> O 2.142389227 -0.9697777215 1.5067879542
|  9> P 2.6889007191 -0.4565582581 0.1244870235
| 10> S 3.2090581153 -1.9942250932 -0.9678747621
| 11> O 3.7983440345 0.5835790074 0.5817897933
| 12> C 4.3800759069 1.6062367662 -0.248264994
| 13> C 4.9688240803 1.0557081019 -1.5299360615
| 14> S 1.1777824057 0.798993754 -0.7280602456
| 15> C 0.1335736842 -0.5580674799 -1.3035453004
| 16> S -1.0274955262 -1.121625358 -0.0438076679
| 17> P -2.5005083931 0.3798906717 -0.4525092011
| 18> S -2.8408742784 0.7139125455 -2.3506602669
| 19> O -1.9906242186 1.7109185826 0.21429146
| 20> C -1.7077278753 1.8595341995 1.6277118627
| 21> C -2.8738391853 2.5167404621 2.3368166148
| 22> O -3.7052060786 -0.0417404262 0.4897109108
| 23> C -4.2875585154 -1.3573043748 0.5544571989
| 24> C -4.7481085732 -1.861339334 -0.7966942009
| 25> H -0.1356646205 -1.1956970463 2.803079754
| 26> H 1.1790659846 -1.7443170458 3.8394808008
| 27> H 0.3385341099 -0.2307087794 4.2177694797
| 28> H 2.570709052 0.2012665243 3.1493115571
| 29> H 1.2389874018 0.7964026852 2.1255384584
| 30> H 3.6075556139 2.3491580245 -0.4654675156
| 31> H 5.1500058011 2.0451895612 0.3887134709
| 32> H 4.1821394606 0.6367355281 -2.1562274525
| 33> H 5.4643231879 1.854379079 -2.0725219988
| 34> H 5.6868394667 0.2689366125 -1.3107387035
| 35> H 0.7715088058 -1.4023828966 -1.5729548405
| 36> H -0.4324476117 -0.1987546345 -2.1654932467
| 37> H -1.4895223811 0.8766603616 2.0536129725
| 38> H -0.8162693203 2.4892025725 1.6608540413
| 39> H -2.61457282 2.6735581804 3.3790890136
| 40> H -3.0977435455 3.4739292096 1.8742023106
| 41> H -3.755999732 1.8851893309 2.2753543437
| 42> H -3.548797176 -2.0367678997 0.9883690718
| 43> H -5.1273105555 -1.2332112253 1.2404117471
| 44> H -5.2522965941 -2.8145726479 -0.6744868665
| 45> H -5.4296792386 -1.1491668043 -1.2559612568
| 46> H -3.8945147742 -1.9947919549 -1.4601504182
| 47> *
| 48>
| 49>                          ****END OF INPUT****

CARTESIAN COORDINATES (ANGSTROEM)
---------------------------------
  C      0.699923   -0.866578    3.416102
  C      1.692448   -0.093366    2.572593
  O      2.142389   -0.969778    1.506788
  P      2.688901   -0.456558    0.124487
  S      3.209058   -1.994225   -0.967875
  O      3.798344    0.583579    0.581790
  C      4.380076    1.606237   -0.248265
  C      4.968824    1.055708   -1.529936
  S      1.177782    0.798994   -0.728060
  C      0.133574   -0.558067   -1.303545
  S     -1.027496   -1.121625   -0.043808
  P     -2.500508    0.379891   -0.452509
  S     -2.840874    0.713913   -2.350660
  O     -1.990624    1.710919    0.214291
  C     -1.707728    1.859534    1.627712
  C     -2.873839    2.516740    2.336817
  O     -3.705206   -0.041740    0.489711
  C     -4.287559   -1.357304    0.554457
  C     -4.748109   -1.861339   -0.796694
  H     -0.135665   -1.195697    2.803080
  H      1.179066   -1.744317    3.839481
  H      0.338534   -0.230709    4.217769
  H      2.570709    0.201267    3.149312
  H      1.238987    0.796403    2.125538
  H      3.607556    2.349158   -0.465468
  H      5.150006    2.045190    0.388713
  H      4.182139    0.636736   -2.156227
  H      5.464323    1.854379   -2.072522
  H      5.686839    0.268937   -1.310739
  H      0.771509   -1.402383   -1.572955
  H     -0.432448   -0.198755   -2.165493
  H     -1.489522    0.876660    2.053613
  H     -0.816269    2.489203    1.660854
  H     -2.614573    2.673558    3.379089
  H     -3.097744    3.473929    1.874202
  H     -3.756000    1.885189    2.275354
  H     -3.548797   -2.036768    0.988369
  H     -5.127311   -1.233211    1.240412
  H     -5.252297   -2.814573   -0.674487
  H     -5.429679   -1.149167   -1.255961
  H     -3.894515   -1.994792   -1.460150

 Total Charge           Charge          ....    0
 Multiplicity           Mult            ....    1
 Number of Electrons    NEL             ....  202
 Basis Dimension        Dim             ....  334

ORBITAL ENERGIES
----------------

  NO   OCC          E(Eh)            E(eV)
   0   2.0000     -88.046722     -2395.8731
   1   2.0000     -88.045313     -2395.8348
   2   2.0000     -87.985277     -2394.2011
   3   2.0000     -87.983708     -2394.1584
   4   2.0000     -76.430357     -2079.7758
   5   2.0000     -76.427902     -2079.7089
   6   2.0000     -18.802881      -511.6524
   7   2.0000     -18.798750      -511.5400
   8   2.0000     -18.795588      -511.4540
   9   2.0000     -18.793594      -511.3997
  10   2.0000      -9.965421      -271.1729
  11   2.0000      -9.962586      -271.0958
  12   2.0000      -9.961233      -271.0589
  13   2.0000      -9.958724      -270.9907
  14   2.0000      -9.951597      -270.7967
  15   2.0000      -9.891572      -269.1634
  16   2.0000      -9.891459      -269.1603
  17   2.0000      -9.887035      -269.0399
  18   2.0000      -9.885078      -268.9867
  19   2.0000      -7.691407      -209.2938
  20   2.0000      -7.690076      -209.2576
  21   2.0000      -7.630578      -207.6386
  22   2.0000      -7.629037      -207.5967
  23   2.0000      -6.427748      -174.9079
  24   2.0000      -6.425325      -174.8420
  25   2.0000      -5.718943      -155.6204
  26   2.0000      -5.717615      -155.5842
  27   2.0000      -5.715963      -155.5393
  28   2.0000      -5.714629      -155.5030
  29   2.0000      -5.708756      -155.3432
  30   2.0000      -5.707421      -155.3068
  31   2.0000      -5.659723      -154.0089
  32   2.0000      -5.658147      -153.9660
  33   2.0000      -5.651179      -153.7764
  34   2.0000      -5.650490      -153.7577
  35   2.0000      -5.649650      -153.7348
  36   2.0000      -5.648966      -153.7162
  37   2.0000      -4.650743      -126.5532
  38   2.0000      -4.649712      -126.5251
  39   2.0000      -4.648270      -126.4858
  40   2.0000      -4.647632      -126.4685
  41   2.0000      -4.647313      -126.4598
  42   2.0000      -4.645239      -126.4034
  43   2.0000      -0.995525       -27.0896
  44   2.0000      -0.992333       -27.0028
  45   2.0000      -0.952111       -25.9083
  46   2.0000      -0.948603       -25.8128
  47   2.0000      -0.766461       -20.8565
  48   2.0000      -0.726815       -19.7776
  49   2.0000      -0.717941       -19.5362
  50   2.0000      -0.697281       -18.9740
  51   2.0000      -0.693960       -18.8836
  52   2.0000      -0.680397       -18.5145
  53   2.0000      -0.652792       -17.7634
  54   2.0000      -0.640209       -17.4210
  55   2.0000      -0.595341       -16.2001
  56   2.0000      -0.592087       -16.1115
  57   2.0000      -0.581017       -15.8103
  58   2.0000      -0.576008       -15.6740
  59   2.0000      -0.568558       -15.4712
  60   2.0000      -0.513528       -13.9738
  61   2.0000      -0.505760       -13.7624
  62   2.0000      -0.481425       -13.1002
  63   2.0000      -0.478077       -13.0091
  64   2.0000      -0.466710       -12.6998
  65   2.0000      -0.453587       -12.3427
  66   2.0000      -0.443399       -12.0655
  67   2.0000      -0.440078       -11.9751
  68   2.0000      -0.436842       -11.8871
  69   2.0000      -0.420282       -11.4364
  70   2.0000      -0.417324       -11.3560
  71   2.0000      -0.409710       -11.1488
  72   2.0000      -0.398530       -10.8446
  73   2.0000      -0.391581       -10.6555
  74   2.0000      -0.386244       -10.5102
  75   2.0000      -0.370631       -10.0854
  76   2.0000      -0.363361        -9.8876
  77   2.0000      -0.360581        -9.8119
  78   2.0000      -0.358651        -9.7594
  79   2.0000      -0.352086        -9.5808
  80   2.0000      -0.350240        -9.5305
  81   2.0000      -0.349938        -9.5223
  82   2.0000      -0.344592        -9.3768
  83   2.0000      -0.342363        -9.3162
  84   2.0000      -0.341195        -9.2844
  85   2.0000      -0.325529        -8.8581
  86   2.0000      -0.322168        -8.7666
  87   2.0000      -0.303035        -8.2460
  88   2.0000      -0.300394        -8.1741
  89   2.0000      -0.298692        -8.1278
  90   2.0000      -0.294422        -8.0116
  91   2.0000      -0.284721        -7.7476
  92   2.0000      -0.279564        -7.6073
  93   2.0000      -0.269552        -7.3349
  94   2.0000      -0.258101        -7.0233
  95   2.0000      -0.242180        -6.5901
  96   2.0000      -0.226043        -6.1509
  97   2.0000      -0.206923        -5.6307
  98   2.0000      -0.201034        -5.4704
  99   2.0000      -0.199904        -5.4397
 100   2.0000      -0.196529        -5.3478
 101   0.0000      -0.043164        -1.1746
 102   0.0000      -0.031017        -0.8440
 103   0.0000      -0.015889        -0.4324
 104   0.0000      -0.001696        -0.0462
 105   0.0000       0.014252         0.3878

MULLIKEN ATOMIC CHARGES
-----------------------
   0 C :   -0.294010
   1 C :   -0.015759
   2 O :   -0.354332
   3 P :    0.591056
   4 S :   -0.301556
   5 O :   -0.383569
   6 C :   -0.013549
   7 C :   -0.310252
   8 S :   -0.104593
   9 C :   -0.362702
  10 S :   -0.103395
  11 P :    0.589802
  12 S :   -0.300902
  13 O :   -0.347060
  14 C :   -0.037505
  15 C :   -0.279490
  16 O :   -0.380754
  17 C :   -0.014129
  18 C :   -0.310465
  19 H :    0.134373
  20 H :    0.122700
  21 H :    0.104775
  22 H :    0.108541
  23 H :    0.102002
  24 H :    0.114975
  25 H :    0.109860
  26 H :    0.129959
  27 H :    0.113020
  28 H :    0.127885
  29 H :    0.194142
  30 H :    0.195615
  31 H :    0.107416
  32 H :    0.118719
  33 H :    0.107410
  34 H :    0.122062
  35 H :    0.120482
  36 H :    0.115852
  37 H :    0.110438
  38 H :    0.113914
  39 H :    0.128365
  40 H :    0.130658
Sum of atomic charges:    0.0000000

LOEWDIN ATOMIC CHARGES
----------------------
   0 C :   -0.356811
   1 C :   -0.115600
   2 O :   -0.235095
   3 P :    0.568579
   4 S :   -0.304090
   5 O :   -0.246629
   6 C :   -0.113929
   7 C :   -0.368519
   8 S :    0.066374
   9 C :   -0.491481
  10 S :    0.069891
  11 P :    0.569014
  12 S :   -0.302066
  13 O :   -0.231673
  14 C :   -0.118567
  15 C :   -0.357171
  16 O :   -0.243954
  17 C :   -0.114285
  18 C :   -0.368583
  19 H :    0.120561
  20 H :    0.131123
  21 H :    0.126793
  22 H :    0.116539
  23 H :    0.100295
  24 H :    0.109098
  25 H :    0.121564
  26 H :    0.123766
  27 H :    0.131014
  28 H :    0.131148
  29 H :    0.128044
  30 H :    0.128269
  31 H :    0.104529
  32 H :    0.118970
  33 H :    0.128392
  34 H :    0.130206
  35 H :    0.126655
  36 H :    0.109151
  37 H :    0.121580
  38 H :    0.131563
  39 H :    0.131438
  40 H :    0.123897

  Mayer bond orders larger than 0.100000
B(  0-C ,  1-C ) :   1.1680 B(  0-C , 19-H ) :   0.9325 B(  0-C , 20-H ) :   0.9456
B(  0-C , 21-H ) :   0.9404 B(  1-C ,  2-O ) :   0.8866 B(  1-C , 22-H ) :   0.9308
B(  1-C , 23-H ) :   0.9067 B(  2-O ,  3-P ) :   1.1402 B(  3-P ,  4-S ) :   1.6479
B(  3-P ,  5-O ) :   1.0888 B(  3-P ,  8-S ) :   0.9406 B(  4-S ,  8-S ) :   0.1106
B(  4-S , 29-H ) :   0.1108 B(  5-O ,  6-C ) :   0.9116 B(  6-C ,  7-C ) :   1.1669
B(  6-C , 24-H ) :   0.9268 B(  6-C , 25-H ) :   0.9333 B(  7-C , 26-H ) :   0.9319
B(  7-C , 27-H ) :   0.9348 B(  7-C , 28-H ) :   0.9435 B(  8-S ,  9-C ) :   1.0024
B(  9-C , 10-S ) :   1.0023 B(  9-C , 29-H ) :   0.8550 B(  9-C , 30-H ) :   0.8563
B( 10-S , 11-P ) :   0.9405 B( 10-S , 12-S ) :   0.1107 B( 11-P , 12-S ) :   1.6491
B( 11-P , 13-O ) :   1.1411 B( 11-P , 16-O ) :   1.0832 B( 12-S , 30-H ) :   0.1074
B( 13-O , 14-C ) :   0.8929 B( 14-C , 15-C ) :   1.1587 B( 14-C , 31-H ) :   0.9066
B( 14-C , 32-H ) :   0.9284 B( 15-C , 33-H ) :   0.9404 B( 15-C , 34-H ) :   0.9461
B( 15-C , 35-H ) :   0.9422 B( 16-O , 17-C ) :   0.9081 B( 17-C , 18-C ) :   1.1677
B( 17-C , 36-H ) :   0.9261 B( 17-C , 37-H ) :   0.9329 B( 18-C , 38-H ) :   0.9346
B( 18-C , 39-H ) :   0.9433 B( 18-C , 40-H ) :   0.9315

Dispersion correction           -0.064080326
FINAL SINGLE POINT ENERGY     -2929.515241752365

DIPOLE MOMENT
-------------

Method             : SCF
Type of density    : Electron Density
Multiplicity       :   1
Irrep              :   0
Energy             : -2929.6362195554797836 Eh
Relativity type    :
Basis              : AO
                                X                 Y                 Z
Electronic contribution:      4.969220133      -4.546319699     -14.298733108
Nuclear contribution   :     -5.250669558       5.340980500      16.272105041
                        -----------------------------------------
Total Dipole Moment    :     -0.281449425       0.794660801       1.973371933
                        -----------------------------------------
Magnitude (a.u.)       :      2.145902224
Magnitude (Debye)      :      5.454449981

Rotational constants in cm-1:             0.012478             0.004532             0.004299
Rotational constants in MHz :           374.078698           135.862469           128.883147

                             ****ORCA TERMINATED NORMALLY****
TOTAL RUN TIME: 0 days 0 hours 0 minutes 21 seconds 39 msec
