                         Program Version 6.0.1  -  RELEASE   -
|  1> ! r2scan-3c def2/J RI DEFGRID2 scfconv6 printgap
|  2> %output
|  3>     printlevel normal
|  4> end
|  5> * xyz 0 1
|  6> C 4.6247011238 -3.2656641534 -2.2081430898
|  7> C 3.593342867 -3.6712998413 -1.1671679675
|  8> O 3.2658144283 -2.5634177816 -0.3057786838
|  9> C 2.3222505436 -1.7266412643 -0.6902717715
| 10> O 1.6780047102 -1.8316940292 -1.709364935
| 11> C 2.1499719279 -0.6048462418 0.3179666435
| 12> C 0.8081587356 0.0827003827 0.1234059498
| 13> H 0.6550119133 0.2842766775 -0.9451386266
| 14> C 0.6690267301 1.4002695075 0.8607885658
| 15> O -0.3329296338 1.6912749184 1.4817013101
| 16> O 1.7230792909 2.1583229438 0.7243930563
| 17> C 1.6745314258 3.4989604161 1.2615068944
| 18> C 1.0629712104 4.4519367 0.2482440644
| 19> S -0.5579368177 -1.0009828095 0.6643947626
| 20> P -2.1698359275 0.2773151792 0.131980311
| 21> S -1.844401032 1.6483901421 -1.225816796
| 22> O -3.2512767962 -0.8143597064 -0.3514538747
| 23> C -3.0746927401 -1.5390076762 -1.57003514
| 24> O -2.9120806352 0.8031946413 1.4206596523
| 25> C -3.2651910036 -0.0595689194 2.5192194703
| 26> H 4.2096024271 -2.5102651284 -2.8715094684
| 27> H 5.5095792718 -2.8640796687 -1.7222441021
| 28> H 4.9021707809 -4.1345835152 -2.7956269792
| 29> H 3.9863248581 -4.4323068509 -0.4930959257
| 30> H 2.6756446425 -4.0225224184 -1.6470877892
| 31> H 2.9492996536 0.1222702908 0.1569645044
| 32> H 2.2475101051 -1.0152484437 1.3228492515
| 33> H 1.0900317976 3.4838403441 2.1850216531
| 34> H 2.7159002817 3.7454744293 1.4670647286
| 35> H 1.0528334738 5.4564024917 0.6577188255
| 36> H 1.6390053207 4.4435083593 -0.6727800553
| 37> H 0.0409462186 4.1530731234 0.0199915124
| 38> H -2.2211156927 -2.2128931742 -1.4865228001
| 39> H -2.9154487965 -0.8458788603 -2.3978662544
| 40> H -3.99422798 -2.100079751 -1.7138856647
| 41> H -3.9868969324 -0.8044616238 2.1884679061
| 42> H -3.6988831675 0.6006420206 3.265656139
| 43> H -2.3715419383 -0.5470341855 2.9090511448
| 44> *
| 45>
| 46>                          ****END OF INPUT****

CARTESIAN COORDINATES (ANGSTROEM)
---------------------------------
  C      4.624701   -3.265664   -2.208143
  C      3.593343   -3.671300   -1.167168
  O      3.265814   -2.563418   -0.305779
  C      2.322251   -1.726641   -0.690272
  O      1.678005   -1.831694   -1.709365
  C      2.149972   -0.604846    0.317967
  C      0.808159    0.082700    0.123406
  H      0.655012    0.284277   -0.945139
  C      0.669027    1.400270    0.860789
  O     -0.332930    1.691275    1.481701
  O      1.723079    2.158323    0.724393
  C      1.674531    3.498960    1.261507
  C      1.062971    4.451937    0.248244
  S     -0.557937   -1.000983    0.664395
  P     -2.169836    0.277315    0.131980
  S     -1.844401    1.648390   -1.225817
  O     -3.251277   -0.814360   -0.351454
  C     -3.074693   -1.539008   -1.570035
  O     -2.912081    0.803195    1.420660
  C     -3.265191   -0.059569    2.519219
  H      4.209602   -2.510265   -2.871509
  H      5.509579   -2.864080   -1.722244
  H      4.902171   -4.134584   -2.795627
  H      3.986325   -4.432307   -0.493096
  H      2.675645   -4.022522   -1.647088
  H      2.949300    0.122270    0.156965
  H      2.247510   -1.015248    1.322849
  H      1.090032    3.483840    2.185022
  H      2.715900    3.745474    1.467065
  H      1.052833    5.456402    0.657719
  H      1.639005    4.443508   -0.672780
  H      0.040946    4.153073    0.019992
  H     -2.221116   -2.212893   -1.486523
  H     -2.915449   -0.845879   -2.397866
  H     -3.994228   -2.100080   -1.713886
  H     -3.986897   -0.804462    2.188468
  H     -3.698883    0.600642    3.265656
  H     -2.371542   -0.547034    2.909051

 Total Charge           Charge          ....    0
 Multiplicity           Mult            ....    1
 Number of Electrons    NEL             ....  174
 Basis Dimension        Dim             ....  510

ORBITAL ENERGIES
----------------

  NO   OCC          E(Eh)            E(eV)
   0   2.0000     -88.567404     -2410.0416
   1   2.0000     -88.505437     -2408.3554
   2   2.0000     -76.903583     -2092.6529
   3   2.0000     -19.012653      -517.3606
   4   2.0000     -19.009022      -517.2618
   5   2.0000     -18.979851      -516.4680
   6   2.0000     -18.975465      -516.3486
   7   2.0000     -18.941143      -515.4147
   8   2.0000     -18.938259      -515.3362
   9   2.0000     -10.166556      -276.6460
  10   2.0000     -10.165595      -276.6199
  11   2.0000     -10.100214      -274.8408
  12   2.0000     -10.098911      -274.8053
  13   2.0000     -10.091640      -274.6075
  14   2.0000     -10.087301      -274.4894
  15   2.0000     -10.076717      -274.2014
  16   2.0000     -10.067168      -273.9416
  17   2.0000     -10.035873      -273.0900
  18   2.0000     -10.027748      -272.8689
  19   2.0000      -7.861728      -213.9285
  20   2.0000      -7.800416      -212.2601
  21   2.0000      -6.581396      -179.0889
  22   2.0000      -5.808576      -158.0594
  23   2.0000      -5.805758      -157.9827
  24   2.0000      -5.798703      -157.7907
  25   2.0000      -5.748357      -156.4208
  26   2.0000      -5.740801      -156.2151
  27   2.0000      -5.739978      -156.1927
  28   2.0000      -4.727081      -128.6304
  29   2.0000      -4.726582      -128.6168
  30   2.0000      -4.724871      -128.5703
  31   2.0000      -1.090268       -29.6677
  32   2.0000      -1.085626       -29.5414
  33   2.0000      -1.036748       -28.2113
  34   2.0000      -0.994413       -27.0594
  35   2.0000      -0.990740       -26.9594
  36   2.0000      -0.990325       -26.9481
  37   2.0000      -0.809939       -22.0396
  38   2.0000      -0.758429       -20.6379
  39   2.0000      -0.747692       -20.3457
  40   2.0000      -0.725456       -19.7407
  41   2.0000      -0.695377       -18.9222
  42   2.0000      -0.663446       -18.0533
  43   2.0000      -0.658194       -17.9104
  44   2.0000      -0.645004       -17.5515
  45   2.0000      -0.632580       -17.2134
  46   2.0000      -0.596569       -16.2335
  47   2.0000      -0.535258       -14.5651
  48   2.0000      -0.533421       -14.5151
  49   2.0000      -0.522711       -14.2237
  50   2.0000      -0.502359       -13.6699
  51   2.0000      -0.484584       -13.1862
  52   2.0000      -0.481035       -13.0896
  53   2.0000      -0.474120       -12.9015
  54   2.0000      -0.459774       -12.5111
  55   2.0000      -0.454870       -12.3776
  56   2.0000      -0.442186       -12.0325
  57   2.0000      -0.438930       -11.9439
  58   2.0000      -0.434120       -11.8130
  59   2.0000      -0.423660       -11.5284
  60   2.0000      -0.420473       -11.4417
  61   2.0000      -0.415621       -11.3096
  62   2.0000      -0.408790       -11.1238
  63   2.0000      -0.404832       -11.0160
  64   2.0000      -0.396165       -10.7802
  65   2.0000      -0.384732       -10.4691
  66   2.0000      -0.376456       -10.2439
  67   2.0000      -0.369916       -10.0659
  68   2.0000      -0.362346        -9.8599
  69   2.0000      -0.351120        -9.5545
  70   2.0000      -0.349287        -9.5046
  71   2.0000      -0.345726        -9.4077
  72   2.0000      -0.340617        -9.2687
  73   2.0000      -0.324835        -8.8392
  74   2.0000      -0.318031        -8.6541
  75   2.0000      -0.316318        -8.6075
  76   2.0000      -0.307787        -8.3753
  77   2.0000      -0.302314        -8.2264
  78   2.0000      -0.284583        -7.7439
  79   2.0000      -0.283508        -7.7147
  80   2.0000      -0.276530        -7.5248
  81   2.0000      -0.264369        -7.1938
  82   2.0000      -0.251856        -6.8534
  83   2.0000      -0.247784        -6.7426
  84   2.0000      -0.227247        -6.1837
  85   2.0000      -0.207697        -5.6517
  86   2.0000      -0.200152        -5.4464
  87   0.0000      -0.040580        -1.1042
  88   0.0000      -0.029728        -0.8089
  89   0.0000      -0.017493        -0.4760
  90   0.0000       0.010975         0.2987
  91   0.0000       0.028823         0.7843

MULLIKEN ATOMIC CHARGES
-----------------------
   0 C :   -0.469116
   1 C :   -0.136585
   2 O :   -0.171879
   3 C :    0.384273
   4 O :   -0.420186
   5 C :   -0.430831
   6 C :   -0.038844
   7 H :    0.261043
   8 C :    0.366415
   9 O :   -0.402597
  10 O :   -0.172572
  11 C :   -0.134857
  12 C :   -0.467897
  13 S :   -0.217451
  14 P :    0.816147
  15 S :   -0.470679
  16 O :   -0.363602
  17 C :   -0.296068
  18 O :   -0.302647
  19 C :   -0.298307
  20 H :    0.173084
  21 H :    0.153345
  22 H :    0.149681
  23 H :    0.151030
  24 H :    0.169604
  25 H :    0.203255
  26 H :    0.190437
  27 H :    0.169683
  28 H :    0.148501
  29 H :    0.147383
  30 H :    0.152462
  31 H :    0.190645
  32 H :    0.159419
  33 H :    0.173368
  34 H :    0.146504
  35 H :    0.167063
  36 H :    0.155005
  37 H :    0.165773
Sum of atomic charges:    0.0000000

LOEWDIN ATOMIC CHARGES
----------------------
   0 C :   -0.388635
   1 C :    0.030931
   2 O :   -0.584252
   3 C :    0.355690
   4 O :   -0.433552
   5 C :   -0.202286
   6 C :   -0.198372
   7 H :    0.224022
   8 C :    0.347988
   9 O :   -0.453136
  10 O :   -0.581864
  11 C :    0.035343
  12 C :   -0.387233
  13 S :    0.207852
  14 P :    0.409721
  15 S :   -0.088356
  16 O :   -0.693673
  17 C :   -0.064594
  18 O :   -0.639113
  19 C :   -0.050875
  20 H :    0.165398
  21 H :    0.157777
  22 H :    0.160656
  23 H :    0.179363
  24 H :    0.189235
  25 H :    0.205505
  26 H :    0.191570
  27 H :    0.190005
  28 H :    0.178222
  29 H :    0.159650
  30 H :    0.158200
  31 H :    0.174236
  32 H :    0.169726
  33 H :    0.175903
  34 H :    0.174149
  35 H :    0.171886
  36 H :    0.180244
  37 H :    0.172669

  Mayer bond orders larger than 0.100000
B(  0-C ,  1-C ) :   0.9394 B(  0-C , 20-H ) :   0.9706 B(  0-C , 21-H ) :   0.9735
B(  0-C , 22-H ) :   0.9635 B(  1-C ,  2-O ) :   0.8048 B(  1-C , 23-H ) :   0.9619
B(  1-C , 24-H ) :   0.9670 B(  2-O ,  3-C ) :   1.1005 B(  3-C ,  4-O ) :   1.8385
B(  3-C ,  5-C ) :   0.9590 B(  5-C ,  6-C ) :   0.8947 B(  5-C , 25-H ) :   0.9202
B(  5-C , 26-H ) :   0.9675 B(  6-C ,  7-H ) :   0.9101 B(  6-C ,  8-C ) :   0.8839
B(  6-C , 13-S ) :   0.8854 B(  8-C ,  9-O ) :   1.8374 B(  8-C , 10-O ) :   1.1451
B( 10-O , 11-C ) :   0.7904 B( 11-C , 12-C ) :   0.9463 B( 11-C , 27-H ) :   0.9665
B( 11-C , 28-H ) :   0.9614 B( 12-C , 29-H ) :   0.9646 B( 12-C , 30-H ) :   0.9723
B( 12-C , 31-H ) :   0.9600 B( 13-S , 14-P ) :   0.9804 B( 14-P , 15-S ) :   1.7689
B( 14-P , 16-O ) :   1.0077 B( 14-P , 18-O ) :   1.1935 B( 16-O , 17-C ) :   0.8409
B( 17-C , 32-H ) :   0.9538 B( 17-C , 33-H ) :   0.9586 B( 17-C , 34-H ) :   0.9692
B( 18-O , 19-C ) :   0.7963 B( 19-C , 35-H ) :   0.9633 B( 19-C , 36-H ) :   0.9654
B( 19-C , 37-H ) :   0.9589

Dispersion correction           -0.016562497
FINAL SINGLE POINT ENERGY     -1981.448901368280

DIPOLE MOMENT
-------------

Method             : SCF
Type of density    : Electron Density
Multiplicity       :   1
Irrep              :   0
Energy             : -1981.4698753265843152 Eh
Relativity type    :
Basis              : AO
                                X                 Y                 Z
Electronic contribution:    -14.024017392       2.402269162       3.298817767
Nuclear contribution   :     15.600945562      -3.276791394      -2.496898195
                        -----------------------------------------
Total Dipole Moment    :      1.576928170      -0.874522232       0.801919571
                        -----------------------------------------
Magnitude (a.u.)       :      1.973465628
Magnitude (Debye)      :      5.016150987

Rotational constants in cm-1:             0.011614             0.006561             0.005008
Rotational constants in MHz :           348.168041           196.703936           150.145359

                             ****ORCA TERMINATED NORMALLY****
TOTAL RUN TIME: 0 days 0 hours 1 minutes 10 seconds 1 msec
