                         Program Version 6.0.1  -  RELEASE   -
|  1> ! r2scan-3c def2/J RI DEFGRID2 scfconv6 printgap
|  2> %output
|  3>     printlevel normal
|  4> end
|  5> %cpcm
|  6>     smd true
|  7>     smdsolvent "water"
|  8> end
|  9> * xyz 0 1
| 10> C 4.6247011238 -3.2656641534 -2.2081430898
| 11> C 3.593342867 -3.6712998413 -1.1671679675
| 12> O 3.2658144283 -2.5634177816 -0.3057786838
| 13> C 2.3222505436 -1.7266412643 -0.6902717715
| 14> O 1.6780047102 -1.8316940292 -1.709364935
| 15> C 2.1499719279 -0.6048462418 0.3179666435
| 16> C 0.8081587356 0.0827003827 0.1234059498
| 17> H 0.6550119133 0.2842766775 -0.9451386266
| 18> C 0.6690267301 1.4002695075 0.8607885658
| 19> O -0.3329296338 1.6912749184 1.4817013101
| 20> O 1.7230792909 2.1583229438 0.7243930563
| 21> C 1.6745314258 3.4989604161 1.2615068944
| 22> C 1.0629712104 4.4519367 0.2482440644
| 23> S -0.5579368177 -1.0009828095 0.6643947626
| 24> P -2.1698359275 0.2773151792 0.131980311
| 25> S -1.844401032 1.6483901421 -1.225816796
| 26> O -3.2512767962 -0.8143597064 -0.3514538747
| 27> C -3.0746927401 -1.5390076762 -1.57003514
| 28> O -2.9120806352 0.8031946413 1.4206596523
| 29> C -3.2651910036 -0.0595689194 2.5192194703
| 30> H 4.2096024271 -2.5102651284 -2.8715094684
| 31> H 5.5095792718 -2.8640796687 -1.7222441021
| 32> H 4.9021707809 -4.1345835152 -2.7956269792
| 33> H 3.9863248581 -4.4323068509 -0.4930959257
| 34> H 2.6756446425 -4.0225224184 -1.6470877892
| 35> H 2.9492996536 0.1222702908 0.1569645044
| 36> H 2.2475101051 -1.0152484437 1.3228492515
| 37> H 1.0900317976 3.4838403441 2.1850216531
| 38> H 2.7159002817 3.7454744293 1.4670647286
| 39> H 1.0528334738 5.4564024917 0.6577188255
| 40> H 1.6390053207 4.4435083593 -0.6727800553
| 41> H 0.0409462186 4.1530731234 0.0199915124
| 42> H -2.2211156927 -2.2128931742 -1.4865228001
| 43> H -2.9154487965 -0.8458788603 -2.3978662544
| 44> H -3.99422798 -2.100079751 -1.7138856647
| 45> H -3.9868969324 -0.8044616238 2.1884679061
| 46> H -3.6988831675 0.6006420206 3.265656139
| 47> H -2.3715419383 -0.5470341855 2.9090511448
| 48> *
| 49>
| 50>                          ****END OF INPUT****

CARTESIAN COORDINATES (ANGSTROEM)
---------------------------------
  C      4.624701   -3.265664   -2.208143
  C      3.593343   -3.671300   -1.167168
  O      3.265814   -2.563418   -0.305779
  C      2.322251   -1.726641   -0.690272
  O      1.678005   -1.831694   -1.709365
  C      2.149972   -0.604846    0.317967
  C      0.808159    0.082700    0.123406
  H      0.655012    0.284277   -0.945139
  C      0.669027    1.400270    0.860789
  O     -0.332930    1.691275    1.481701
  O      1.723079    2.158323    0.724393
  C      1.674531    3.498960    1.261507
  C      1.062971    4.451937    0.248244
  S     -0.557937   -1.000983    0.664395
  P     -2.169836    0.277315    0.131980
  S     -1.844401    1.648390   -1.225817
  O     -3.251277   -0.814360   -0.351454
  C     -3.074693   -1.539008   -1.570035
  O     -2.912081    0.803195    1.420660
  C     -3.265191   -0.059569    2.519219
  H      4.209602   -2.510265   -2.871509
  H      5.509579   -2.864080   -1.722244
  H      4.902171   -4.134584   -2.795627
  H      3.986325   -4.432307   -0.493096
  H      2.675645   -4.022522   -1.647088
  H      2.949300    0.122270    0.156965
  H      2.247510   -1.015248    1.322849
  H      1.090032    3.483840    2.185022
  H      2.715900    3.745474    1.467065
  H      1.052833    5.456402    0.657719
  H      1.639005    4.443508   -0.672780
  H      0.040946    4.153073    0.019992
  H     -2.221116   -2.212893   -1.486523
  H     -2.915449   -0.845879   -2.397866
  H     -3.994228   -2.100080   -1.713886
  H     -3.986897   -0.804462    2.188468
  H     -3.698883    0.600642    3.265656
  H     -2.371542   -0.547034    2.909051

 Total Charge           Charge          ....    0
 Multiplicity           Mult            ....    1
 Number of Electrons    NEL             ....  174
 Basis Dimension        Dim             ....  510

ORBITAL ENERGIES
----------------

  NO   OCC          E(Eh)            E(eV)
   0   2.0000     -88.577760     -2410.3234
   1   2.0000     -88.525074     -2408.8897
   2   2.0000     -76.919299     -2093.0805
   3   2.0000     -19.015222      -517.4305
   4   2.0000     -19.008446      -517.2461
   5   2.0000     -18.995055      -516.8817
   6   2.0000     -18.988431      -516.7015
   7   2.0000     -18.951432      -515.6947
   8   2.0000     -18.950449      -515.6679
   9   2.0000     -10.175813      -276.8979
  10   2.0000     -10.172122      -276.7975
  11   2.0000     -10.096467      -274.7388
  12   2.0000     -10.089068      -274.5375
  13   2.0000     -10.086179      -274.4589
  14   2.0000     -10.084461      -274.4121
  15   2.0000     -10.078425      -274.2479
  16   2.0000     -10.060541      -273.7612
  17   2.0000     -10.020162      -272.6625
  18   2.0000     -10.019335      -272.6400
  19   2.0000      -7.872019      -214.2085
  20   2.0000      -7.820371      -212.8031
  21   2.0000      -6.597258      -179.5205
  22   2.0000      -5.818860      -158.3392
  23   2.0000      -5.816040      -158.2625
  24   2.0000      -5.809020      -158.0715
  25   2.0000      -5.768183      -156.9602
  26   2.0000      -5.760813      -156.7597
  27   2.0000      -5.759941      -156.7360
  28   2.0000      -4.742931      -129.0617
  29   2.0000      -4.742362      -129.0462
  30   2.0000      -4.740833      -129.0046
  31   2.0000      -1.094824       -29.7917
  32   2.0000      -1.086770       -29.5725
  33   2.0000      -1.050860       -28.5954
  34   2.0000      -1.007264       -27.4090
  35   2.0000      -1.001784       -27.2599
  36   2.0000      -0.997717       -27.1493
  37   2.0000      -0.812495       -22.1091
  38   2.0000      -0.750874       -20.4323
  39   2.0000      -0.745733       -20.2924
  40   2.0000      -0.728419       -19.8213
  41   2.0000      -0.696242       -18.9457
  42   2.0000      -0.666797       -18.1445
  43   2.0000      -0.660029       -17.9603
  44   2.0000      -0.656031       -17.8515
  45   2.0000      -0.625382       -17.0175
  46   2.0000      -0.594716       -16.1830
  47   2.0000      -0.538486       -14.6530
  48   2.0000      -0.527369       -14.3504
  49   2.0000      -0.522967       -14.2307
  50   2.0000      -0.503630       -13.7045
  51   2.0000      -0.489411       -13.3175
  52   2.0000      -0.486958       -13.2508
  53   2.0000      -0.475453       -12.9377
  54   2.0000      -0.463041       -12.6000
  55   2.0000      -0.462047       -12.5729
  56   2.0000      -0.447441       -12.1755
  57   2.0000      -0.445686       -12.1277
  58   2.0000      -0.436514       -11.8781
  59   2.0000      -0.426719       -11.6116
  60   2.0000      -0.421143       -11.4599
  61   2.0000      -0.415074       -11.2947
  62   2.0000      -0.409218       -11.1354
  63   2.0000      -0.402711       -10.9583
  64   2.0000      -0.394534       -10.7358
  65   2.0000      -0.384188       -10.4543
  66   2.0000      -0.370524       -10.0825
  67   2.0000      -0.367872       -10.0103
  68   2.0000      -0.359469        -9.7816
  69   2.0000      -0.351002        -9.5513
  70   2.0000      -0.349641        -9.5142
  71   2.0000      -0.341889        -9.3033
  72   2.0000      -0.340692        -9.2707
  73   2.0000      -0.329557        -8.9677
  74   2.0000      -0.318852        -8.6764
  75   2.0000      -0.312378        -8.5002
  76   2.0000      -0.309920        -8.4334
  77   2.0000      -0.308101        -8.3839
  78   2.0000      -0.289944        -7.8898
  79   2.0000      -0.286413        -7.7937
  80   2.0000      -0.283902        -7.7254
  81   2.0000      -0.275983        -7.5099
  82   2.0000      -0.263876        -7.1804
  83   2.0000      -0.258941        -7.0461
  84   2.0000      -0.240008        -6.5309
  85   2.0000      -0.227794        -6.1986
  86   2.0000      -0.220285        -5.9943
  87   0.0000      -0.050463        -1.3732
  88   0.0000      -0.038221        -1.0401
  89   0.0000      -0.022580        -0.6144
  90   0.0000       0.001879         0.0511
  91   0.0000       0.016142         0.4392

MULLIKEN ATOMIC CHARGES
-----------------------
   0 C :   -0.496157
   1 C :   -0.141109
   2 O :   -0.183562
   3 C :    0.418234
   4 O :   -0.492069
   5 C :   -0.440485
   6 C :   -0.027355
   7 H :    0.261032
   8 C :    0.379236
   9 O :   -0.458455
  10 O :   -0.176139
  11 C :   -0.132058
  12 C :   -0.502572
  13 S :   -0.215430
  14 P :    0.816509
  15 S :   -0.515547
  16 O :   -0.391365
  17 C :   -0.308986
  18 O :   -0.352221
  19 C :   -0.302357
  20 H :    0.170205
  21 H :    0.166943
  22 H :    0.171657
  23 H :    0.176806
  24 H :    0.174396
  25 H :    0.235290
  26 H :    0.221964
  27 H :    0.178469
  28 H :    0.179495
  29 H :    0.173606
  30 H :    0.170794
  31 H :    0.170775
  32 H :    0.171358
  33 H :    0.175833
  34 H :    0.177416
  35 H :    0.185032
  36 H :    0.182122
  37 H :    0.178693
Sum of atomic charges:    0.0000000

LOEWDIN ATOMIC CHARGES
----------------------
   0 C :   -0.391537
   1 C :    0.036299
   2 O :   -0.582365
   3 C :    0.367192
   4 O :   -0.486433
   5 C :   -0.193466
   6 C :   -0.193836
   7 H :    0.223951
   8 C :    0.356886
   9 O :   -0.496435
  10 O :   -0.573711
  11 C :    0.042987
  12 C :   -0.391418
  13 S :    0.214713
  14 P :    0.404862
  15 S :   -0.126070
  16 O :   -0.706889
  17 C :   -0.061234
  18 O :   -0.670681
  19 C :   -0.043024
  20 H :    0.162870
  21 H :    0.162582
  22 H :    0.168566
  23 H :    0.190571
  24 H :    0.190817
  25 H :    0.219703
  26 H :    0.204401
  27 H :    0.192683
  28 H :    0.192026
  29 H :    0.169381
  30 H :    0.163213
  31 H :    0.163935
  32 H :    0.174274
  33 H :    0.176035
  34 H :    0.187343
  35 H :    0.180950
  36 H :    0.191635
  37 H :    0.179224

  Mayer bond orders larger than 0.100000
B(  0-C ,  1-C ) :   0.9376 B(  0-C , 20-H ) :   0.9691 B(  0-C , 21-H ) :   0.9695
B(  0-C , 22-H ) :   0.9588 B(  1-C ,  2-O ) :   0.7869 B(  1-C , 23-H ) :   0.9524
B(  1-C , 24-H ) :   0.9630 B(  2-O ,  3-C ) :   1.1231 B(  3-C ,  4-O ) :   1.7865
B(  3-C ,  5-C ) :   0.9524 B(  5-C ,  6-C ) :   0.9003 B(  5-C , 25-H ) :   0.9066
B(  5-C , 26-H ) :   0.9603 B(  6-C ,  7-H ) :   0.9004 B(  6-C ,  8-C ) :   0.8983
B(  6-C , 13-S ) :   0.8735 B(  8-C ,  9-O ) :   1.7979 B(  8-C , 10-O ) :   1.1681
B( 10-O , 11-C ) :   0.7741 B( 11-C , 12-C ) :   0.9312 B( 11-C , 27-H ) :   0.9638
B( 11-C , 28-H ) :   0.9508 B( 12-C , 29-H ) :   0.9589 B( 12-C , 30-H ) :   0.9699
B( 12-C , 31-H ) :   0.9662 B( 13-S , 14-P ) :   1.0004 B( 14-P , 15-S ) :   1.7694
B( 14-P , 16-O ) :   1.0052 B( 14-P , 18-O ) :   1.1826 B( 16-O , 17-C ) :   0.8319
B( 17-C , 32-H ) :   0.9494 B( 17-C , 33-H ) :   0.9552 B( 17-C , 34-H ) :   0.9584
B( 18-O , 19-C ) :   0.7894 B( 19-C , 35-H ) :   0.9536 B( 19-C , 36-H ) :   0.9544
B( 19-C , 37-H ) :   0.9489

Dispersion correction           -0.016562497
FINAL SINGLE POINT ENERGY     -1981.463713660244

DIPOLE MOMENT
-------------

Method             : SCF
Type of density    : Electron Density
Multiplicity       :   1
Irrep              :   0
Energy             : -1981.4846876185481506 Eh
Relativity type    :
Basis              : AO
                                X                 Y                 Z
Electronic contribution:    -13.220179160       1.956382634       3.712441773
Nuclear contribution   :     15.600945562      -3.276791394      -2.496898195
                        -----------------------------------------
Total Dipole Moment    :      2.380766402      -1.320408760       1.215543578
                        -----------------------------------------
Magnitude (a.u.)       :      2.981455039
Magnitude (Debye)      :      7.578256454

Rotational constants in cm-1:             0.011614             0.006561             0.005008
Rotational constants in MHz :           348.168041           196.703936           150.145359

                             ****ORCA TERMINATED NORMALLY****
TOTAL RUN TIME: 0 days 0 hours 1 minutes 40 seconds 811 msec
