                         Program Version 6.0.0  -   RELEASE  -
|  1> ! pbe def2-sv(p) def2/J RI DEFGRID1 loosescf d4 GCP(DFT/SV(P)) printgap
|  2> %output
|  3>     printlevel normal
|  4> end
|  5> * xyz 0 1
|  6> C 4.6327222434 -1.5260063925 -1.1262794701
|  7> C 4.6863525167 -0.0877378676 -0.6534982553
|  8> O 3.5775494569 0.2425319932 0.2009232739
|  9> P 2.0801430784 0.3308434736 -0.3349534363
| 10> S 1.9426093565 1.1047101068 -2.1359892023
| 11> O 1.3972635902 1.1041317865 0.8666675943
| 12> C 1.5608681234 2.5297039034 1.0261069732
| 13> C 0.7889775549 2.9428264824 2.260757322
| 14> S 1.3040686473 -1.5910617464 -0.0279571379
| 15> C -0.0103697377 -1.627419941 -1.3004475857
| 16> S -1.6543140692 -1.8833869175 -0.603414774
| 17> P -1.9236551486 0.0284609824 0.2898032142
| 18> S -1.3506543934 1.5711751754 -0.7735326871
| 19> O -1.2044431117 -0.0193068252 1.6907883645
| 20> C -1.1417177366 -1.1462219434 2.6000731877
| 21> C -2.5067858992 -1.6782888403 2.976615571
| 22> O -3.4623626492 0.0539337585 0.686336611
| 23> C -4.4908083577 0.5007520592 -0.2124783237
| 24> C -4.6799317057 -0.4388587361 -1.3860349102
| 25> H 3.7873471173 -1.6627087074 -1.7993347802
| 26> H 5.5479906509 -1.7618764026 -1.659455403
| 27> H 4.5218367322 -2.1988470485 -0.279728349
| 28> H 4.6788120258 0.5977455902 -1.5070424185
| 29> H 5.5611877305 0.1014270246 -0.0300527881
| 30> H 2.6278924499 2.7485556228 1.1214364476
| 31> H 1.1708788017 3.0198165085 0.1271075671
| 32> H 0.8733432138 4.0166204352 2.3918523151
| 33> H -0.2583152237 2.675338077 2.1410941762
| 34> H 1.1854434104 2.4344475665 3.1346726293
| 35> H 0.1765873583 -2.4779408108 -1.9506023908
| 36> H 0.0213843138 -0.6876584167 -1.8589064743
| 37> H -0.5303206816 -1.9267185701 2.137664393
| 38> H -0.6148866019 -0.7350320007 3.4624457456
| 39> H -2.993962415 -2.1174546916 2.1086643348
| 40> H -2.3871660578 -2.4418514353 3.7390908502
| 41> H -3.1309112166 -0.8769610058 3.3631990929
| 42> H -5.381717778 0.5446544196 0.4155570873
| 43> H -4.2326766706 1.5054372245 -0.5624409984
| 44> H -5.5556715158 -0.1339701073 -1.9499393475
| 45> H -3.8105367636 -0.3994001337 -2.0402660269
| 46> H -4.811530093 -1.4598881751 -1.0374755486
| 47> *
| 48>
| 49>                          ****END OF INPUT****

CARTESIAN COORDINATES (ANGSTROEM)
---------------------------------
  C      4.632722   -1.526006   -1.126279
  C      4.686353   -0.087738   -0.653498
  O      3.577549    0.242532    0.200923
  P      2.080143    0.330843   -0.334953
  S      1.942609    1.104710   -2.135989
  O      1.397264    1.104132    0.866668
  C      1.560868    2.529704    1.026107
  C      0.788978    2.942826    2.260757
  S      1.304069   -1.591062   -0.027957
  C     -0.010370   -1.627420   -1.300448
  S     -1.654314   -1.883387   -0.603415
  P     -1.923655    0.028461    0.289803
  S     -1.350654    1.571175   -0.773533
  O     -1.204443   -0.019307    1.690788
  C     -1.141718   -1.146222    2.600073
  C     -2.506786   -1.678289    2.976616
  O     -3.462363    0.053934    0.686337
  C     -4.490808    0.500752   -0.212478
  C     -4.679932   -0.438859   -1.386035
  H      3.787347   -1.662709   -1.799335
  H      5.547991   -1.761876   -1.659455
  H      4.521837   -2.198847   -0.279728
  H      4.678812    0.597746   -1.507042
  H      5.561188    0.101427   -0.030053
  H      2.627892    2.748556    1.121436
  H      1.170879    3.019817    0.127108
  H      0.873343    4.016620    2.391852
  H     -0.258315    2.675338    2.141094
  H      1.185443    2.434448    3.134673
  H      0.176587   -2.477941   -1.950602
  H      0.021384   -0.687658   -1.858906
  H     -0.530321   -1.926719    2.137664
  H     -0.614887   -0.735032    3.462446
  H     -2.993962   -2.117455    2.108664
  H     -2.387166   -2.441851    3.739091
  H     -3.130911   -0.876961    3.363199
  H     -5.381718    0.544654    0.415557
  H     -4.232677    1.505437   -0.562441
  H     -5.555672   -0.133970   -1.949939
  H     -3.810537   -0.399400   -2.040266
  H     -4.811530   -1.459888   -1.037476

 Total Charge           Charge          ....    0
 Multiplicity           Mult            ....    1
 Number of Electrons    NEL             ....  202
 Basis Dimension        Dim             ....  334

ORBITAL ENERGIES
----------------

  NO   OCC          E(Eh)            E(eV)
   0   2.0000     -88.046993     -2395.8805
   1   2.0000     -88.043798     -2395.7935
   2   2.0000     -87.980611     -2394.0741
   3   2.0000     -87.980536     -2394.0721
   4   2.0000     -76.425195     -2079.6353
   5   2.0000     -76.419637     -2079.4840
   6   2.0000     -18.793420      -511.3949
   7   2.0000     -18.789201      -511.2801
   8   2.0000     -18.787581      -511.2361
   9   2.0000     -18.777906      -510.9728
  10   2.0000      -9.957104      -270.9466
  11   2.0000      -9.952206      -270.8133
  12   2.0000      -9.952170      -270.8123
  13   2.0000      -9.947516      -270.6857
  14   2.0000      -9.938863      -270.4502
  15   2.0000      -9.886058      -269.0133
  16   2.0000      -9.884112      -268.9604
  17   2.0000      -9.881193      -268.8809
  18   2.0000      -9.872911      -268.6556
  19   2.0000      -7.691844      -209.3057
  20   2.0000      -7.688943      -209.2268
  21   2.0000      -7.625492      -207.5002
  22   2.0000      -7.625475      -207.4997
  23   2.0000      -6.422419      -174.7629
  24   2.0000      -6.417413      -174.6267
  25   2.0000      -5.719699      -155.6409
  26   2.0000      -5.716783      -155.5616
  27   2.0000      -5.716164      -155.5447
  28   2.0000      -5.713451      -155.4709
  29   2.0000      -5.709050      -155.3511
  30   2.0000      -5.705859      -155.2643
  31   2.0000      -5.654442      -153.8652
  32   2.0000      -5.654360      -153.8629
  33   2.0000      -5.646280      -153.6431
  34   2.0000      -5.646079      -153.6376
  35   2.0000      -5.645605      -153.6247
  36   2.0000      -5.645532      -153.6227
  37   2.0000      -4.645187      -126.4020
  38   2.0000      -4.644313      -126.3782
  39   2.0000      -4.642616      -126.3320
  40   2.0000      -4.639770      -126.2546
  41   2.0000      -4.638988      -126.2333
  42   2.0000      -4.638205      -126.2120
  43   2.0000      -0.986023       -26.8311
  44   2.0000      -0.979289       -26.6478
  45   2.0000      -0.944389       -25.6981
  46   2.0000      -0.935446       -25.4548
  47   2.0000      -0.763949       -20.7881
  48   2.0000      -0.719083       -19.5672
  49   2.0000      -0.707147       -19.2424
  50   2.0000      -0.689720       -18.7682
  51   2.0000      -0.682268       -18.5654
  52   2.0000      -0.673473       -18.3261
  53   2.0000      -0.648434       -17.6448
  54   2.0000      -0.630744       -17.1634
  55   2.0000      -0.599187       -16.3047
  56   2.0000      -0.589647       -16.0451
  57   2.0000      -0.575505       -15.6603
  58   2.0000      -0.565395       -15.3852
  59   2.0000      -0.554583       -15.0910
  60   2.0000      -0.496583       -13.5127
  61   2.0000      -0.491414       -13.3720
  62   2.0000      -0.470820       -12.8117
  63   2.0000      -0.466378       -12.6908
  64   2.0000      -0.450253       -12.2520
  65   2.0000      -0.445471       -12.1219
  66   2.0000      -0.441353       -12.0098
  67   2.0000      -0.433896       -11.8069
  68   2.0000      -0.425384       -11.5753
  69   2.0000      -0.418641       -11.3918
  70   2.0000      -0.413294       -11.2463
  71   2.0000      -0.397012       -10.8032
  72   2.0000      -0.387443       -10.5429
  73   2.0000      -0.384819       -10.4715
  74   2.0000      -0.380771       -10.3613
  75   2.0000      -0.367466        -9.9993
  76   2.0000      -0.364315        -9.9135
  77   2.0000      -0.356233        -9.6936
  78   2.0000      -0.351577        -9.5669
  79   2.0000      -0.349209        -9.5025
  80   2.0000      -0.346363        -9.4250
  81   2.0000      -0.343545        -9.3483
  82   2.0000      -0.336914        -9.1679
  83   2.0000      -0.333751        -9.0818
  84   2.0000      -0.323435        -8.8011
  85   2.0000      -0.313630        -8.5343
  86   2.0000      -0.309152        -8.4125
  87   2.0000      -0.295013        -8.0277
  88   2.0000      -0.291187        -7.9236
  89   2.0000      -0.291087        -7.9209
  90   2.0000      -0.278674        -7.5831
  91   2.0000      -0.271280        -7.3819
  92   2.0000      -0.263541        -7.1713
  93   2.0000      -0.260085        -7.0773
  94   2.0000      -0.257023        -6.9940
  95   2.0000      -0.239180        -6.5084
  96   2.0000      -0.220755        -6.0070
  97   2.0000      -0.213285        -5.8038
  98   2.0000      -0.202111        -5.4997
  99   2.0000      -0.193524        -5.2661
 100   2.0000      -0.183433        -4.9915
 101   0.0000      -0.042513        -1.1568
 102   0.0000      -0.031096        -0.8462
 103   0.0000      -0.012132        -0.3301
 104   0.0000       0.011692         0.3181
 105   0.0000       0.023066         0.6276

MULLIKEN ATOMIC CHARGES
-----------------------
   0 C :   -0.311364
   1 C :   -0.002216
   2 O :   -0.379386
   3 P :    0.613769
   4 S :   -0.319801
   5 O :   -0.356708
   6 C :   -0.002159
   7 C :   -0.280291
   8 S :   -0.095452
   9 C :   -0.349743
  10 S :   -0.112261
  11 P :    0.600577
  12 S :   -0.297675
  13 O :   -0.347958
  14 C :   -0.003161
  15 C :   -0.305164
  16 O :   -0.375050
  17 C :   -0.001678
  18 C :   -0.319014
  19 H :    0.120293
  20 H :    0.111296
  21 H :    0.115532
  22 H :    0.109981
  23 H :    0.102021
  24 H :    0.094819
  25 H :    0.112621
  26 H :    0.103628
  27 H :    0.127038
  28 H :    0.104834
  29 H :    0.183739
  30 H :    0.209929
  31 H :    0.114802
  32 H :    0.108118
  33 H :    0.116771
  34 H :    0.112141
  35 H :    0.120423
  36 H :    0.103832
  37 H :    0.113006
  38 H :    0.114318
  39 H :    0.130436
  40 H :    0.115158
Sum of atomic charges:    0.0000000

LOEWDIN ATOMIC CHARGES
----------------------
   0 C :   -0.369263
   1 C :   -0.120979
   2 O :   -0.248899
   3 P :    0.568388
   4 S :   -0.312587
   5 O :   -0.235765
   6 C :   -0.117078
   7 C :   -0.352514
   8 S :    0.090852
   9 C :   -0.477659
  10 S :    0.076633
  11 P :    0.567833
  12 S :   -0.292223
  13 O :   -0.225887
  14 C :   -0.115668
  15 C :   -0.366591
  16 O :   -0.243125
  17 C :   -0.118985
  18 C :   -0.371159
  19 H :    0.119354
  20 H :    0.129919
  21 H :    0.123116
  22 H :    0.109446
  23 H :    0.117056
  24 H :    0.106281
  25 H :    0.110419
  26 H :    0.127179
  27 H :    0.127690
  28 H :    0.121495
  29 H :    0.137899
  30 H :    0.127823
  31 H :    0.102124
  32 H :    0.122148
  33 H :    0.117141
  34 H :    0.130738
  35 H :    0.127812
  36 H :    0.118167
  37 H :    0.112151
  38 H :    0.131810
  39 H :    0.122580
  40 H :    0.122329

  Mayer bond orders larger than 0.100000
B(  0-C ,  1-C ) :   1.1655 B(  0-C , 19-H ) :   0.9364 B(  0-C , 20-H ) :   0.9385
B(  0-C , 21-H ) :   0.9449 B(  1-C ,  2-O ) :   0.9134 B(  1-C , 22-H ) :   0.9131
B(  1-C , 23-H ) :   0.9338 B(  2-O ,  3-P ) :   1.0955 B(  3-P ,  4-S ) :   1.6075
B(  3-P ,  5-O ) :   1.1465 B(  3-P ,  8-S ) :   0.9629 B(  4-S ,  8-S ) :   0.1158
B(  5-O ,  6-C ) :   0.8951 B(  6-C ,  7-C ) :   1.1655 B(  6-C , 24-H ) :   0.9267
B(  6-C , 25-H ) :   0.9152 B(  7-C , 26-H ) :   0.9413 B(  7-C , 27-H ) :   0.9415
B(  7-C , 28-H ) :   0.9503 B(  8-S ,  9-C ) :   0.9915 B(  9-C , 10-S ) :   1.0065
B(  9-C , 29-H ) :   0.9109 B(  9-C , 30-H ) :   0.8470 B( 10-S , 11-P ) :   0.9312
B( 10-S , 12-S ) :   0.1039 B( 11-P , 12-S ) :   1.6316 B( 11-P , 13-O ) :   1.1458
B( 11-P , 16-O ) :   1.0884 B( 13-O , 14-C ) :   0.8992 B( 14-C , 15-C ) :   1.1688
B( 14-C , 31-H ) :   0.9088 B( 14-C , 32-H ) :   0.9343 B( 15-C , 33-H ) :   0.9383
B( 15-C , 34-H ) :   0.9362 B( 15-C , 35-H ) :   0.9434 B( 16-O , 17-C ) :   0.9069
B( 17-C , 18-C ) :   1.1664 B( 17-C , 36-H ) :   0.9337 B( 17-C , 37-H ) :   0.9139
B( 18-C , 38-H ) :   0.9375 B( 18-C , 39-H ) :   0.9346 B( 18-C , 40-H ) :   0.9449

Dispersion correction           -0.068596442
FINAL SINGLE POINT ENERGY     -2929.520455847510

DIPOLE MOMENT
-------------

Method             : SCF
Type of density    : Electron Density
Multiplicity       :   1
Irrep              :   0
Energy             : -2929.6381069592657695 Eh
Relativity type    :
Basis              : AO
                                X                 Y                 Z
Electronic contribution:      3.259411490       0.583393661      -8.187133208
Nuclear contribution   :     -3.477450454      -1.437296043       9.076037107
                        -----------------------------------------
Total Dipole Moment    :     -0.218038964      -0.853902382       0.888903899
                        -----------------------------------------
Magnitude (a.u.)       :      1.251734960
Magnitude (Debye)      :      3.181657417

Rotational constants in cm-1:             0.012618             0.005422             0.005231
Rotational constants in MHz :           378.276340           162.549678           156.829854

                             ****ORCA TERMINATED NORMALLY****
TOTAL RUN TIME: 0 days 0 hours 0 minutes 23 seconds 40 msec
