                         Program Version 6.0.1  -  RELEASE   -
|  1> ! pbe def2-sv(p) def2/J RI DEFGRID1 loosescf d4 GCP(DFT/SV(P)) printgap
|  2> %output
|  3>     printlevel normal
|  4> end
|  5> * xyz 0 1
|  6> C 3.2768903772 -1.6967109832 1.6293181153
|  7> C 2.9569631706 -2.3120462876 0.2776225346
|  8> O 2.7187236434 -1.2694106199 -0.6879707574
|  9> C 1.5213453952 -1.104562726 -1.2018607168
| 10> O 0.5506495684 -1.7909175485 -0.9403691149
| 11> C 1.486163352 0.0588193181 -2.1702635338
| 12> C 0.3695291995 1.0357608009 -1.7965793114
| 13> H 0.3295717242 1.8435246873 -2.5325646652
| 14> C 0.5571729961 1.6400346095 -0.4183986575
| 15> O -0.362761266 1.7222213637 0.3763878637
| 16> O 1.7803104058 2.0204430475 -0.1940751209
| 17> C 2.1007615507 2.5887997703 1.0962324748
| 18> C 1.760099711 4.0684798282 1.1382699257
| 19> S -1.2958907928 0.2819403984 -1.8374965672
| 20> P -1.5794306531 -0.4226545008 0.1426913969
| 21> S -0.3954438106 -0.8253160164 1.67162841
| 22> O -2.8806666316 0.381198206 0.6402490087
| 23> C -2.8989584656 1.4152292003 1.620384153
| 24> O -2.3205783457 -1.7327070906 -0.4051653413
| 25> C -2.8658030589 -2.7171628445 0.4734524081
| 26> H 2.4036656152 -1.1764912841 2.0188481663
| 27> H 3.5498743463 -2.4841235507 2.3235999652
| 28> H 4.1013626313 -0.9966043024 1.5338416595
| 29> H 2.0699196736 -2.9487932762 0.335264645
| 30> H 3.8053164971 -2.8788876753 -0.1105392114
| 31> H 1.2809125632 -0.333389519 -3.1670788471
| 32> H 2.4500281052 0.5664760875 -2.1525369767
| 33> H 1.5547846989 2.0346852341 1.865082216
| 34> H 3.172778623 2.4217479265 1.197081556
| 35> H 2.2719646814 4.5936008537 0.3368457857
| 36> H 0.6874232597 4.2118264211 1.0312606459
| 37> H 2.0741905052 4.4774257151 2.0926978907
| 38> H -3.8888313071 1.3817378799 2.069794293
| 39> H -2.7213137743 2.3764348862 1.1419350559
| 40> H -2.1290748658 1.2317424841 2.37205096
| 41> H -2.1505458901 -2.9537714319 1.2646368549
| 42> H -3.0497157407 -3.5929293217 -0.1438036908
| 43> H -3.7941843023 -2.3513019326 0.9128626056
| 44> *
| 45>
| 46>                          ****END OF INPUT****

CARTESIAN COORDINATES (ANGSTROEM)
---------------------------------
  C      3.276890   -1.696711    1.629318
  C      2.956963   -2.312046    0.277623
  O      2.718724   -1.269411   -0.687971
  C      1.521345   -1.104563   -1.201861
  O      0.550650   -1.790918   -0.940369
  C      1.486163    0.058819   -2.170264
  C      0.369529    1.035761   -1.796579
  H      0.329572    1.843525   -2.532565
  C      0.557173    1.640035   -0.418399
  O     -0.362761    1.722221    0.376388
  O      1.780310    2.020443   -0.194075
  C      2.100762    2.588800    1.096232
  C      1.760100    4.068480    1.138270
  S     -1.295891    0.281940   -1.837497
  P     -1.579431   -0.422655    0.142691
  S     -0.395444   -0.825316    1.671628
  O     -2.880667    0.381198    0.640249
  C     -2.898958    1.415229    1.620384
  O     -2.320578   -1.732707   -0.405165
  C     -2.865803   -2.717163    0.473452
  H      2.403666   -1.176491    2.018848
  H      3.549874   -2.484124    2.323600
  H      4.101363   -0.996604    1.533842
  H      2.069920   -2.948793    0.335265
  H      3.805316   -2.878888   -0.110539
  H      1.280913   -0.333390   -3.167079
  H      2.450028    0.566476   -2.152537
  H      1.554785    2.034685    1.865082
  H      3.172779    2.421748    1.197082
  H      2.271965    4.593601    0.336846
  H      0.687423    4.211826    1.031261
  H      2.074191    4.477426    2.092698
  H     -3.888831    1.381738    2.069794
  H     -2.721314    2.376435    1.141935
  H     -2.129075    1.231742    2.372051
  H     -2.150546   -2.953771    1.264637
  H     -3.049716   -3.592929   -0.143804
  H     -3.794184   -2.351302    0.912863

 Total Charge           Charge          ....    0
 Multiplicity           Mult            ....    1
 Number of Electrons    NEL             ....  174
 Basis Dimension        Dim             ....  316

ORBITAL ENERGIES
----------------

  NO   OCC          E(Eh)            E(eV)
   0   2.0000     -88.023739     -2395.2477
   1   2.0000     -87.963748     -2393.6153
   2   2.0000     -76.410961     -2079.2480
   3   2.0000     -18.826913      -512.3063
   4   2.0000     -18.801535      -511.6158
   5   2.0000     -18.764587      -510.6104
   6   2.0000     -18.763856      -510.5905
   7   2.0000     -18.760317      -510.4942
   8   2.0000     -18.733272      -509.7582
   9   2.0000     -10.032063      -272.9863
  10   2.0000     -10.007562      -272.3196
  11   2.0000      -9.960952      -271.0513
  12   2.0000      -9.954284      -270.8698
  13   2.0000      -9.941135      -270.5120
  14   2.0000      -9.921029      -269.9649
  15   2.0000      -9.920841      -269.9598
  16   2.0000      -9.913292      -269.7544
  17   2.0000      -9.898138      -269.3420
  18   2.0000      -9.879517      -268.8353
  19   2.0000      -7.669114      -208.6872
  20   2.0000      -7.608675      -207.0426
  21   2.0000      -6.405708      -174.3082
  22   2.0000      -5.697632      -155.0404
  23   2.0000      -5.694126      -154.9450
  24   2.0000      -5.684808      -154.6915
  25   2.0000      -5.637905      -153.4152
  26   2.0000      -5.629368      -153.1829
  27   2.0000      -5.628375      -153.1559
  28   2.0000      -4.628394      -125.9450
  29   2.0000      -4.627974      -125.9336
  30   2.0000      -4.626231      -125.8861
  31   2.0000      -1.037511       -28.2321
  32   2.0000      -1.007603       -27.4183
  33   2.0000      -0.957083       -26.0435
  34   2.0000      -0.941814       -25.6280
  35   2.0000      -0.913317       -24.8526
  36   2.0000      -0.910837       -24.7851
  37   2.0000      -0.766012       -20.8442
  38   2.0000      -0.716527       -19.4977
  39   2.0000      -0.707276       -19.2460
  40   2.0000      -0.681490       -18.5443
  41   2.0000      -0.646727       -17.5983
  42   2.0000      -0.626729       -17.0542
  43   2.0000      -0.610481       -16.6120
  44   2.0000      -0.608054       -16.5460
  45   2.0000      -0.590612       -16.0714
  46   2.0000      -0.566491       -15.4150
  47   2.0000      -0.514882       -14.0107
  48   2.0000      -0.500902       -13.6302
  49   2.0000      -0.496486       -13.5101
  50   2.0000      -0.485070       -13.1994
  51   2.0000      -0.460962       -12.5434
  52   2.0000      -0.452734       -12.3195
  53   2.0000      -0.450837       -12.2679
  54   2.0000      -0.431482       -11.7412
  55   2.0000      -0.430299       -11.7090
  56   2.0000      -0.426032       -11.5929
  57   2.0000      -0.413536       -11.2529
  58   2.0000      -0.403427       -10.9778
  59   2.0000      -0.401177       -10.9166
  60   2.0000      -0.394934       -10.7467
  61   2.0000      -0.389117       -10.5884
  62   2.0000      -0.383677       -10.4404
  63   2.0000      -0.379570       -10.3286
  64   2.0000      -0.373162       -10.1542
  65   2.0000      -0.370600       -10.0845
  66   2.0000      -0.361067        -9.8251
  67   2.0000      -0.354187        -9.6379
  68   2.0000      -0.350434        -9.5358
  69   2.0000      -0.341433        -9.2909
  70   2.0000      -0.337625        -9.1873
  71   2.0000      -0.328683        -8.9439
  72   2.0000      -0.320839        -8.7305
  73   2.0000      -0.312140        -8.4938
  74   2.0000      -0.294896        -8.0245
  75   2.0000      -0.289807        -7.8860
  76   2.0000      -0.283235        -7.7072
  77   2.0000      -0.280533        -7.6337
  78   2.0000      -0.267196        -7.2708
  79   2.0000      -0.254534        -6.9262
  80   2.0000      -0.253247        -6.8912
  81   2.0000      -0.246454        -6.7064
  82   2.0000      -0.240937        -6.5562
  83   2.0000      -0.223509        -6.0820
  84   2.0000      -0.191301        -5.2056
  85   2.0000      -0.180246        -4.9048
  86   2.0000      -0.172632        -4.6975
  87   0.0000      -0.051526        -1.4021
  88   0.0000      -0.043851        -1.1933
  89   0.0000      -0.025140        -0.6841
  90   0.0000       0.012045         0.3278
  91   0.0000       0.031318         0.8522

MULLIKEN ATOMIC CHARGES
-----------------------
   0 C :   -0.306294
   1 C :   -0.018243
   2 O :   -0.226239
   3 C :    0.089204
   4 O :   -0.183202
   5 C :   -0.022914
   6 C :   -0.331047
   7 H :    0.154465
   8 C :    0.220235
   9 O :   -0.195504
  10 O :   -0.214257
  11 C :   -0.018236
  12 C :   -0.309722
  13 S :   -0.054099
  14 P :    0.661899
  15 S :   -0.361150
  16 O :   -0.393209
  17 C :   -0.083924
  18 O :   -0.384662
  19 C :   -0.090753
  20 H :    0.136364
  21 H :    0.107983
  22 H :    0.103072
  23 H :    0.122054
  24 H :    0.099774
  25 H :    0.125637
  26 H :    0.111499
  27 H :    0.130132
  28 H :    0.110159
  29 H :    0.115980
  30 H :    0.130436
  31 H :    0.120630
  32 H :    0.109166
  33 H :    0.104486
  34 H :    0.108156
  35 H :    0.112300
  36 H :    0.116257
  37 H :    0.103568
Sum of atomic charges:    0.0000000

LOEWDIN ATOMIC CHARGES
----------------------
   0 C :   -0.358942
   1 C :   -0.110362
   2 O :   -0.051323
   3 C :    0.022101
   4 O :   -0.162296
   5 C :   -0.250351
   6 C :   -0.263515
   7 H :    0.152321
   8 C :    0.019649
   9 O :   -0.151704
  10 O :   -0.030625
  11 C :   -0.106303
  12 C :   -0.356053
  13 S :    0.127385
  14 P :    0.605827
  15 S :   -0.328533
  16 O :   -0.263102
  17 C :   -0.215481
  18 O :   -0.257625
  19 C :   -0.214487
  20 H :    0.123064
  21 H :    0.129356
  22 H :    0.119175
  23 H :    0.124818
  24 H :    0.115427
  25 H :    0.148145
  26 H :    0.136793
  27 H :    0.128048
  28 H :    0.121805
  29 H :    0.125948
  30 H :    0.131395
  31 H :    0.135069
  32 H :    0.112598
  33 H :    0.106907
  34 H :    0.103121
  35 H :    0.106505
  36 H :    0.117850
  37 H :    0.107390

  Mayer bond orders larger than 0.100000
B(  0-C ,  1-C ) :   1.1780 B(  0-C , 20-H ) :   0.9307 B(  0-C , 21-H ) :   0.9425
B(  0-C , 22-H ) :   0.9486 B(  1-C ,  2-O ) :   0.9026 B(  1-C , 23-H ) :   0.9032
B(  1-C , 24-H ) :   0.9356 B(  2-O ,  3-C ) :   1.2466 B(  3-C ,  4-O ) :   1.9999
B(  3-C ,  5-C ) :   0.9961 B(  5-C ,  6-C ) :   1.0130 B(  5-C , 25-H ) :   0.8870
B(  5-C , 26-H ) :   0.8859 B(  6-C ,  7-H ) :   0.8729 B(  6-C ,  8-C ) :   0.9036
B(  6-C , 13-S ) :   1.0635 B(  8-C ,  9-O ) :   1.9096 B(  8-C , 10-O ) :   1.2859
B(  9-O , 14-P ) :   0.1196 B( 10-O , 11-C ) :   0.8941 B( 11-C , 12-C ) :   1.1725
B( 11-C , 27-H ) :   0.9117 B( 11-C , 28-H ) :   0.9356 B( 12-C , 29-H ) :   0.9473
B( 12-C , 30-H ) :   0.9448 B( 12-C , 31-H ) :   0.9433 B( 13-S , 14-P ) :   0.9119
B( 13-S , 15-S ) :   0.1167 B( 14-P , 15-S ) :   1.4917 B( 14-P , 16-O ) :   1.0789
B( 14-P , 18-O ) :   1.0878 B( 16-O , 17-C ) :   0.9441 B( 17-C , 32-H ) :   0.9566
B( 17-C , 33-H ) :   0.9523 B( 17-C , 34-H ) :   0.9297 B( 18-O , 19-C ) :   0.9436
B( 19-C , 35-H ) :   0.9314 B( 19-C , 36-H ) :   0.9602 B( 19-C , 37-H ) :   0.9514

Dispersion correction           -0.055647951
FINAL SINGLE POINT ENERGY     -1978.994962098218

DIPOLE MOMENT
-------------

Method             : SCF
Type of density    : Electron Density
Multiplicity       :   1
Irrep              :   0
Energy             : -1979.1234524656010763 Eh
Relativity type    :
Basis              : AO
                                X                 Y                 Z
Electronic contribution:    -11.391694375      -4.432914259     -11.420039099
Nuclear contribution   :     12.727638558       5.471082708      11.482637912
                        -----------------------------------------
Total Dipole Moment    :      1.335944184       1.038168449       0.062598813
                        -----------------------------------------
Magnitude (a.u.)       :      1.693062079
Magnitude (Debye)      :      4.303421805

Rotational constants in cm-1:             0.011810             0.009475             0.007594
Rotational constants in MHz :           354.040610           284.051533           227.673973

                             ****ORCA TERMINATED NORMALLY****
TOTAL RUN TIME: 0 days 0 hours 1 minutes 35 seconds 530 msec
