                         Program Version 6.0.1  -  RELEASE   -
|  1> ! pbe def2-sv(p) def2/J RI DEFGRID1 loosescf d4 GCP(DFT/SV(P)) printgap
|  2> %output
|  3>     printlevel normal
|  4> end
|  5> * xyz 0 1
|  6> C 4.0511758805 -4.0357504118 -0.8531597613
|  7> C 2.645588066 -3.5115487139 -0.6373885384
|  8> O 2.7034738367 -2.069812554 -0.6497798569
|  9> C 1.6142210806 -1.4034090528 -0.3636358036
| 10> O 0.5491068839 -1.9272710745 -0.0952794054
| 11> C 1.8374353376 0.0892229466 -0.3689557439
| 12> C 0.8346545289 0.8585587319 -1.2514261968
| 13> H 1.2828439459 1.0947231191 -2.2177610783
| 14> C 0.4396193173 2.1438292949 -0.5371966237
| 15> O -0.6767118196 2.3525886022 -0.1171778848
| 16> O 1.4597012094 2.9545338439 -0.4205520467
| 17> C 1.2846380953 4.1637896634 0.3508948979
| 18> C 1.5012798454 3.8866495104 1.8296524407
| 19> S -0.7022625152 -0.028893694 -1.6942866738
| 20> P -1.5910824437 -0.2384741315 0.2009501784
| 21> S -0.7302946284 0.0908042749 1.9401214722
| 22> O -2.863694471 0.6789451548 -0.1072741746
| 23> C -3.8283109287 0.9810699395 0.903179624
| 24> O -2.3441622622 -1.654029167 0.1582691563
| 25> C -1.9366744863 -2.854481196 0.8094150063
| 26> H 4.0323572043 -5.1203705004 -0.8556650371
| 27> H 4.4378700943 -3.6814090205 -1.8035783478
| 28> H 4.7042076685 -3.6908069735 -0.0573765916
| 29> H 2.2310907796 -3.8316710098 0.3234137537
| 30> H 1.9654736706 -3.8314780648 -1.4324817029
| 31> H 2.8559842191 0.299504363 -0.6892969753
| 32> H 1.7136792483 0.4033948582 0.6730460001
| 33> H 2.0363056992 4.8462070682 -0.0444389773
| 34> H 0.2782239865 4.5504584311 0.1706218748
| 35> H 0.7717089973 3.1616003162 2.187814307
| 36> H 2.4991795705 3.4913950436 1.996874329
| 37> H 1.3821560356 4.807892086 2.3898696748
| 38> H -4.4432184165 0.1043513313 1.1085496791
| 39> H -4.4313916554 1.7898421197 0.4987653285
| 40> H -3.3246885715 1.303443018 1.8169614322
| 41> H -1.3468725488 -3.4569153537 0.1223941089
| 42> H -2.8531003423 -3.368400552 1.0914630651
| 43> H -1.3411005504 -2.6183168877 1.6928216787
| 44> *
| 45>
| 46>                          ****END OF INPUT****

CARTESIAN COORDINATES (ANGSTROEM)
---------------------------------
  C      4.051176   -4.035750   -0.853160
  C      2.645588   -3.511549   -0.637389
  O      2.703474   -2.069813   -0.649780
  C      1.614221   -1.403409   -0.363636
  O      0.549107   -1.927271   -0.095279
  C      1.837435    0.089223   -0.368956
  C      0.834655    0.858559   -1.251426
  H      1.282844    1.094723   -2.217761
  C      0.439619    2.143829   -0.537197
  O     -0.676712    2.352589   -0.117178
  O      1.459701    2.954534   -0.420552
  C      1.284638    4.163790    0.350895
  C      1.501280    3.886650    1.829652
  S     -0.702263   -0.028894   -1.694287
  P     -1.591082   -0.238474    0.200950
  S     -0.730295    0.090804    1.940121
  O     -2.863694    0.678945   -0.107274
  C     -3.828311    0.981070    0.903180
  O     -2.344162   -1.654029    0.158269
  C     -1.936674   -2.854481    0.809415
  H      4.032357   -5.120371   -0.855665
  H      4.437870   -3.681409   -1.803578
  H      4.704208   -3.690807   -0.057377
  H      2.231091   -3.831671    0.323414
  H      1.965474   -3.831478   -1.432482
  H      2.855984    0.299504   -0.689297
  H      1.713679    0.403395    0.673046
  H      2.036306    4.846207   -0.044439
  H      0.278224    4.550458    0.170622
  H      0.771709    3.161600    2.187814
  H      2.499180    3.491395    1.996874
  H      1.382156    4.807892    2.389870
  H     -4.443218    0.104351    1.108550
  H     -4.431392    1.789842    0.498765
  H     -3.324689    1.303443    1.816961
  H     -1.346873   -3.456915    0.122394
  H     -2.853100   -3.368401    1.091463
  H     -1.341101   -2.618317    1.692822

 Total Charge           Charge          ....    0
 Multiplicity           Mult            ....    1
 Number of Electrons    NEL             ....  174
 Basis Dimension        Dim             ....  316

ORBITAL ENERGIES
----------------

  NO   OCC          E(Eh)            E(eV)
   0   2.0000     -88.024856     -2395.2781
   1   2.0000     -87.965258     -2393.6563
   2   2.0000     -76.410230     -2079.2281
   3   2.0000     -18.811970      -511.8997
   4   2.0000     -18.810501      -511.8597
   5   2.0000     -18.769420      -510.7419
   6   2.0000     -18.760310      -510.4940
   7   2.0000     -18.747836      -510.1546
   8   2.0000     -18.741367      -509.9785
   9   2.0000     -10.016106      -272.5521
  10   2.0000     -10.013396      -272.4784
  11   2.0000      -9.956041      -270.9177
  12   2.0000      -9.951145      -270.7844
  13   2.0000      -9.949652      -270.7438
  14   2.0000      -9.922220      -269.9973
  15   2.0000      -9.920668      -269.9551
  16   2.0000      -9.911732      -269.7120
  17   2.0000      -9.895574      -269.2723
  18   2.0000      -9.885103      -268.9873
  19   2.0000      -7.670150      -208.7154
  20   2.0000      -7.610473      -207.0915
  21   2.0000      -6.405698      -174.3079
  22   2.0000      -5.698525      -155.0647
  23   2.0000      -5.695177      -154.9737
  24   2.0000      -5.685943      -154.7224
  25   2.0000      -5.639567      -153.4604
  26   2.0000      -5.631300      -153.2355
  27   2.0000      -5.630123      -153.2034
  28   2.0000      -4.628094      -125.9368
  29   2.0000      -4.627755      -125.9276
  30   2.0000      -4.626498      -125.8934
  31   2.0000      -1.021536       -27.7974
  32   2.0000      -1.018911       -27.7260
  33   2.0000      -0.959066       -26.0975
  34   2.0000      -0.923775       -25.1372
  35   2.0000      -0.922226       -25.0951
  36   2.0000      -0.913531       -24.8584
  37   2.0000      -0.760547       -20.6955
  38   2.0000      -0.720311       -19.6007
  39   2.0000      -0.705645       -19.2016
  40   2.0000      -0.682743       -18.5784
  41   2.0000      -0.650897       -17.7118
  42   2.0000      -0.619342       -16.8532
  43   2.0000      -0.612388       -16.6639
  44   2.0000      -0.607769       -16.5382
  45   2.0000      -0.591495       -16.0954
  46   2.0000      -0.561446       -15.2777
  47   2.0000      -0.519206       -14.1283
  48   2.0000      -0.502766       -13.6810
  49   2.0000      -0.490941       -13.3592
  50   2.0000      -0.479258       -13.0413
  51   2.0000      -0.456545       -12.4232
  52   2.0000      -0.453529       -12.3411
  53   2.0000      -0.449918       -12.2429
  54   2.0000      -0.446674       -12.1546
  55   2.0000      -0.424368       -11.5477
  56   2.0000      -0.419476       -11.4145
  57   2.0000      -0.409641       -11.1469
  58   2.0000      -0.404125       -10.9968
  59   2.0000      -0.401162       -10.9162
  60   2.0000      -0.392788       -10.6883
  61   2.0000      -0.390139       -10.6162
  62   2.0000      -0.385160       -10.4807
  63   2.0000      -0.376381       -10.2418
  64   2.0000      -0.369309       -10.0494
  65   2.0000      -0.365468        -9.9449
  66   2.0000      -0.361726        -9.8431
  67   2.0000      -0.357637        -9.7318
  68   2.0000      -0.345991        -9.4149
  69   2.0000      -0.339179        -9.2295
  70   2.0000      -0.337816        -9.1924
  71   2.0000      -0.328480        -8.9384
  72   2.0000      -0.319435        -8.6923
  73   2.0000      -0.308975        -8.4076
  74   2.0000      -0.302287        -8.2256
  75   2.0000      -0.294523        -8.0144
  76   2.0000      -0.281610        -7.6630
  77   2.0000      -0.274051        -7.4573
  78   2.0000      -0.267227        -7.2716
  79   2.0000      -0.262500        -7.1430
  80   2.0000      -0.252108        -6.8602
  81   2.0000      -0.248479        -6.7615
  82   2.0000      -0.234995        -6.3945
  83   2.0000      -0.222913        -6.0658
  84   2.0000      -0.192276        -5.2321
  85   2.0000      -0.186784        -5.0827
  86   2.0000      -0.177622        -4.8333
  87   0.0000      -0.034565        -0.9406
  88   0.0000      -0.032199        -0.8762
  89   0.0000      -0.022101        -0.6014
  90   0.0000       0.010936         0.2976
  91   0.0000       0.034972         0.9516

MULLIKEN ATOMIC CHARGES
-----------------------
   0 C :   -0.272469
   1 C :   -0.035343
   2 O :   -0.219041
   3 C :    0.118984
   4 O :   -0.201556
   5 C :   -0.070824
   6 C :   -0.305150
   7 H :    0.143424
   8 C :    0.194488
   9 O :   -0.165066
  10 O :   -0.230980
  11 C :   -0.009825
  12 C :   -0.314493
  13 S :   -0.058079
  14 P :    0.664787
  15 S :   -0.367675
  16 O :   -0.370463
  17 C :   -0.089925
  18 O :   -0.394864
  19 C :   -0.084585
  20 H :    0.114080
  21 H :    0.117018
  22 H :    0.118079
  23 H :    0.111648
  24 H :    0.111240
  25 H :    0.107159
  26 H :    0.143607
  27 H :    0.103462
  28 H :    0.114377
  29 H :    0.142537
  30 H :    0.112165
  31 H :    0.113283
  32 H :    0.103022
  33 H :    0.117526
  34 H :    0.112665
  35 H :    0.109406
  36 H :    0.107284
  37 H :    0.110096
Sum of atomic charges:    0.0000000

LOEWDIN ATOMIC CHARGES
----------------------
   0 C :   -0.350180
   1 C :   -0.106558
   2 O :   -0.050507
   3 C :    0.033567
   4 O :   -0.159772
   5 C :   -0.256533
   6 C :   -0.261291
   7 H :    0.146877
   8 C :    0.011110
   9 O :   -0.144706
  10 O :   -0.052535
  11 C :   -0.107107
  12 C :   -0.358866
  13 S :    0.127536
  14 P :    0.605751
  15 S :   -0.339486
  16 O :   -0.251782
  17 C :   -0.213021
  18 O :   -0.257878
  19 C :   -0.215725
  20 H :    0.132143
  21 H :    0.127809
  22 H :    0.128245
  23 H :    0.119097
  24 H :    0.119140
  25 H :    0.138043
  26 H :    0.148115
  27 H :    0.118138
  28 H :    0.122937
  29 H :    0.134703
  30 H :    0.123874
  31 H :    0.131318
  32 H :    0.106770
  33 H :    0.118623
  34 H :    0.107868
  35 H :    0.108432
  36 H :    0.110850
  37 H :    0.104999

  Mayer bond orders larger than 0.100000
B(  0-C ,  1-C ) :   1.1530 B(  0-C , 20-H ) :   0.9435 B(  0-C , 21-H ) :   0.9493
B(  0-C , 22-H ) :   0.9502 B(  1-C ,  2-O ) :   0.8987 B(  1-C , 23-H ) :   0.9284
B(  1-C , 24-H ) :   0.9330 B(  2-O ,  3-C ) :   1.2632 B(  3-C ,  4-O ) :   1.9244
B(  3-C ,  5-C ) :   1.0469 B(  5-C ,  6-C ) :   1.0077 B(  5-C , 25-H ) :   0.8909
B(  5-C , 26-H ) :   0.8618 B(  6-C ,  7-H ) :   0.8756 B(  6-C ,  8-C ) :   0.8858
B(  6-C , 13-S ) :   1.0883 B(  8-C ,  9-O ) :   2.0443 B(  8-C , 10-O ) :   1.2409
B( 10-O , 11-C ) :   0.9048 B( 11-C , 12-C ) :   1.1754 B( 11-C , 27-H ) :   0.9370
B( 11-C , 28-H ) :   0.9145 B( 12-C , 29-H ) :   0.9353 B( 12-C , 30-H ) :   0.9483
B( 12-C , 31-H ) :   0.9424 B( 13-S , 14-P ) :   0.9249 B( 13-S , 15-S ) :   0.1123
B( 14-P , 15-S ) :   1.5386 B( 14-P , 16-O ) :   1.1019 B( 14-P , 18-O ) :   1.0939
B( 16-O , 17-C ) :   0.9428 B( 17-C , 32-H ) :   0.9505 B( 17-C , 33-H ) :   0.9606
B( 17-C , 34-H ) :   0.9344 B( 18-O , 19-C ) :   0.9355 B( 19-C , 35-H ) :   0.9500
B( 19-C , 36-H ) :   0.9546 B( 19-C , 37-H ) :   0.9314

Dispersion correction           -0.053407659
FINAL SINGLE POINT ENERGY     -1979.001279533804

DIPOLE MOMENT
-------------

Method             : SCF
Type of density    : Electron Density
Multiplicity       :   1
Irrep              :   0
Energy             : -1979.1310375270454642 Eh
Relativity type    :
Basis              : AO
                                X                 Y                 Z
Electronic contribution:    -11.696263655       3.065665273      -6.584819260
Nuclear contribution   :     13.126649749      -3.298665344       6.336017278
                        -----------------------------------------
Total Dipole Moment    :      1.430386095      -0.233000071      -0.248801982
                        -----------------------------------------
Magnitude (a.u.)       :      1.470440695
Magnitude (Debye)      :      3.737563219

Rotational constants in cm-1:             0.011400             0.008355             0.005844
Rotational constants in MHz :           341.752790           250.475806           175.209523

                             ****ORCA TERMINATED NORMALLY****
TOTAL RUN TIME: 0 days 0 hours 0 minutes 42 seconds 110 msec
