                         Program Version 6.0.0  -   RELEASE  -
|  1> ! pbe def2-sv(p) def2/J RI DEFGRID1 loosescf d4 GCP(DFT/SV(P)) printgap
|  2> %output
|  3>     printlevel normal
|  4> end
|  5> * xyz 0 1
|  6> C 4.4258795637 -1.6364754613 -0.8314006197
|  7> C 4.6248468118 -0.135962745 -0.7718483045
|  8> O 3.5882131871 0.5318698079 -0.0307124956
|  9> P 2.0723988051 0.5725849908 -0.5180540988
| 10> S 1.8467641696 0.7245330528 -2.4571423854
| 11> O 1.5278415871 1.8214430186 0.278060345
| 12> C 2.0165054793 2.2849613522 1.5596052652
| 13> C 1.7451362528 1.292237828 2.6696938712
| 14> S 1.2307769837 -1.1797509204 0.3584925915
| 15> C 0.1336458983 -1.7420827868 -0.9790268235
| 16> S -1.5698652128 -1.9951221491 -0.4326003031
| 17> P -1.992508812 -0.0055528786 0.1913984835
| 18> S -1.3751766934 1.4393295333 -0.9775609676
| 19> O -1.3927295808 0.1061066098 1.6466638659
| 20> C -1.734426666 -0.8179468214 2.7150309466
| 21> C -2.761484263 -0.2005935128 3.6409337787
| 22> O -3.5570628537 -0.0383180798 0.4712033292
| 23> C -4.5377308835 0.2262896843 -0.5470528254
| 24> C -4.5414257108 -0.8279670328 -1.6347975816
| 25> H 3.5559250591 -1.8698123947 -1.4433276609
| 26> H 5.30202999 -2.0927787849 -1.2806883757
| 27> H 4.2773197903 -2.0417996276 0.1661089618
| 28> H 4.6509496787 0.2863221803 -1.7810501105
| 29> H 5.5359098888 0.1288316259 -0.2332072957
| 30> H 3.0844863644 2.4913344095 1.4647854957
| 31> H 1.4673481625 3.2162590357 1.7088131081
| 32> H 0.6840970036 1.0576847768 2.7017372265
| 33> H 2.3062451023 0.3744874338 2.4998485082
| 34> H 2.0478841243 1.7264786662 3.6173358061
| 35> H 0.4790453595 -2.7122944873 -1.3272989956
| 36> H 0.1656861159 -1.0006297975 -1.7828468604
| 37> H -2.1053610395 -1.7470465306 2.2744372371
| 38> H -0.790158122 -1.0090041437 3.2290351155
| 39> H -2.3941516616 0.7436970168 4.0333732119
| 40> H -3.6896259371 -0.0199836072 3.1053952914
| 41> H -2.9489225888 -0.8824265973 4.4643979833
| 42> H -5.4813872306 0.2425521999 0.0002279241
| 43> H -4.3350657433 1.214844772 -0.9704984549
| 44> H -3.6232330319 -0.765737571 -2.2171378581
| 45> H -4.615882805 -1.8217052438 -1.2003182441
| 46> H -5.3857738754 -0.657365026 -2.2949928572
| 47> *
| 48>
| 49>                          ****END OF INPUT****

CARTESIAN COORDINATES (ANGSTROEM)
---------------------------------
  C      4.425880   -1.636475   -0.831401
  C      4.624847   -0.135963   -0.771848
  O      3.588213    0.531870   -0.030712
  P      2.072399    0.572585   -0.518054
  S      1.846764    0.724533   -2.457142
  O      1.527842    1.821443    0.278060
  C      2.016505    2.284961    1.559605
  C      1.745136    1.292238    2.669694
  S      1.230777   -1.179751    0.358493
  C      0.133646   -1.742083   -0.979027
  S     -1.569865   -1.995122   -0.432600
  P     -1.992509   -0.005553    0.191398
  S     -1.375177    1.439330   -0.977561
  O     -1.392730    0.106107    1.646664
  C     -1.734427   -0.817947    2.715031
  C     -2.761484   -0.200594    3.640934
  O     -3.557063   -0.038318    0.471203
  C     -4.537731    0.226290   -0.547053
  C     -4.541426   -0.827967   -1.634798
  H      3.555925   -1.869812   -1.443328
  H      5.302030   -2.092779   -1.280688
  H      4.277320   -2.041800    0.166109
  H      4.650950    0.286322   -1.781050
  H      5.535910    0.128832   -0.233207
  H      3.084486    2.491334    1.464785
  H      1.467348    3.216259    1.708813
  H      0.684097    1.057685    2.701737
  H      2.306245    0.374487    2.499849
  H      2.047884    1.726479    3.617336
  H      0.479045   -2.712294   -1.327299
  H      0.165686   -1.000630   -1.782847
  H     -2.105361   -1.747047    2.274437
  H     -0.790158   -1.009004    3.229035
  H     -2.394152    0.743697    4.033373
  H     -3.689626   -0.019984    3.105395
  H     -2.948923   -0.882427    4.464398
  H     -5.481387    0.242552    0.000228
  H     -4.335066    1.214845   -0.970498
  H     -3.623233   -0.765738   -2.217138
  H     -4.615883   -1.821705   -1.200318
  H     -5.385774   -0.657365   -2.294993

 Total Charge           Charge          ....    0
 Multiplicity           Mult            ....    1
 Number of Electrons    NEL             ....  202
 Basis Dimension        Dim             ....  334

ORBITAL ENERGIES
----------------

  NO   OCC          E(Eh)            E(eV)
   0   2.0000     -88.041304     -2395.7257
   1   2.0000     -88.037416     -2395.6199
   2   2.0000     -87.978605     -2394.0196
   3   2.0000     -87.978047     -2394.0044
   4   2.0000     -76.422026     -2079.5491
   5   2.0000     -76.421334     -2079.5302
   6   2.0000     -18.792531      -511.3708
   7   2.0000     -18.789653      -511.2925
   8   2.0000     -18.789228      -511.2809
   9   2.0000     -18.780807      -511.0517
  10   2.0000      -9.954493      -270.8755
  11   2.0000      -9.952525      -270.8220
  12   2.0000      -9.950598      -270.7695
  13   2.0000      -9.950544      -270.7681
  14   2.0000      -9.949509      -270.7399
  15   2.0000      -9.887004      -269.0391
  16   2.0000      -9.883129      -268.9336
  17   2.0000      -9.883042      -268.9313
  18   2.0000      -9.881911      -268.9005
  19   2.0000      -7.686325      -209.1555
  20   2.0000      -7.681836      -209.0334
  21   2.0000      -7.623777      -207.4535
  22   2.0000      -7.622942      -207.4308
  23   2.0000      -6.419420      -174.6813
  24   2.0000      -6.418409      -174.6538
  25   2.0000      -5.714158      -155.4901
  26   2.0000      -5.710699      -155.3960
  27   2.0000      -5.709730      -155.3696
  28   2.0000      -5.706443      -155.2802
  29   2.0000      -5.703491      -155.1999
  30   2.0000      -5.698758      -155.0711
  31   2.0000      -5.652826      -153.8212
  32   2.0000      -5.652019      -153.7993
  33   2.0000      -5.644279      -153.5886
  34   2.0000      -5.643879      -153.5777
  35   2.0000      -5.643402      -153.5648
  36   2.0000      -5.643133      -153.5574
  37   2.0000      -4.642338      -126.3244
  38   2.0000      -4.641423      -126.2995
  39   2.0000      -4.641204      -126.2936
  40   2.0000      -4.639817      -126.2558
  41   2.0000      -4.639536      -126.2482
  42   2.0000      -4.638882      -126.2304
  43   2.0000      -0.986731       -26.8503
  44   2.0000      -0.982273       -26.7290
  45   2.0000      -0.943784       -25.6817
  46   2.0000      -0.936609       -25.4864
  47   2.0000      -0.758688       -20.6450
  48   2.0000      -0.716346       -19.4928
  49   2.0000      -0.707804       -19.2603
  50   2.0000      -0.689710       -18.7680
  51   2.0000      -0.686917       -18.6920
  52   2.0000      -0.675344       -18.3770
  53   2.0000      -0.647395       -17.6165
  54   2.0000      -0.629364       -17.1259
  55   2.0000      -0.596137       -16.2217
  56   2.0000      -0.588296       -16.0083
  57   2.0000      -0.575372       -15.6567
  58   2.0000      -0.573578       -15.6078
  59   2.0000      -0.557314       -15.1653
  60   2.0000      -0.499399       -13.5893
  61   2.0000      -0.491048       -13.3621
  62   2.0000      -0.473223       -12.8771
  63   2.0000      -0.464853       -12.6493
  64   2.0000      -0.448557       -12.2059
  65   2.0000      -0.446965       -12.1625
  66   2.0000      -0.441928       -12.0255
  67   2.0000      -0.437489       -11.9047
  68   2.0000      -0.427836       -11.6420
  69   2.0000      -0.420421       -11.4402
  70   2.0000      -0.411333       -11.1929
  71   2.0000      -0.394955       -10.7473
  72   2.0000      -0.392792       -10.6884
  73   2.0000      -0.383376       -10.4322
  74   2.0000      -0.377586       -10.2746
  75   2.0000      -0.366224        -9.9655
  76   2.0000      -0.362833        -9.8732
  77   2.0000      -0.357547        -9.7293
  78   2.0000      -0.354299        -9.6410
  79   2.0000      -0.350688        -9.5427
  80   2.0000      -0.348050        -9.4709
  81   2.0000      -0.343402        -9.3445
  82   2.0000      -0.340409        -9.2630
  83   2.0000      -0.335117        -9.1190
  84   2.0000      -0.332863        -9.0577
  85   2.0000      -0.315711        -8.5909
  86   2.0000      -0.307992        -8.3809
  87   2.0000      -0.296978        -8.0812
  88   2.0000      -0.292238        -7.9522
  89   2.0000      -0.290584        -7.9072
  90   2.0000      -0.288666        -7.8550
  91   2.0000      -0.271995        -7.4014
  92   2.0000      -0.264915        -7.2087
  93   2.0000      -0.260871        -7.0987
  94   2.0000      -0.253342        -6.8938
  95   2.0000      -0.230387        -6.2692
  96   2.0000      -0.218113        -5.9352
  97   2.0000      -0.209501        -5.7008
  98   2.0000      -0.196730        -5.3533
  99   2.0000      -0.188640        -5.1332
 100   2.0000      -0.182087        -4.9548
 101   0.0000      -0.038465        -1.0467
 102   0.0000      -0.032507        -0.8846
 103   0.0000      -0.007162        -0.1949
 104   0.0000       0.011685         0.3180
 105   0.0000       0.017103         0.4654

MULLIKEN ATOMIC CHARGES
-----------------------
   0 C :   -0.310839
   1 C :    0.003283
   2 O :   -0.390910
   3 P :    0.628324
   4 S :   -0.298778
   5 O :   -0.349415
   6 C :    0.012048
   7 C :   -0.355099
   8 S :   -0.128081
   9 C :   -0.341258
  10 S :   -0.106990
  11 P :    0.580978
  12 S :   -0.277026
  13 O :   -0.352140
  14 C :   -0.010440
  15 C :   -0.284900
  16 O :   -0.382401
  17 C :    0.002293
  18 C :   -0.321945
  19 H :    0.119971
  20 H :    0.111055
  21 H :    0.115777
  22 H :    0.112061
  23 H :    0.101269
  24 H :    0.106246
  25 H :    0.110910
  26 H :    0.155441
  27 H :    0.118702
  28 H :    0.109129
  29 H :    0.177833
  30 H :    0.206814
  31 H :    0.104009
  32 H :    0.108637
  33 H :    0.116010
  34 H :    0.120923
  35 H :    0.108685
  36 H :    0.102907
  37 H :    0.112726
  38 H :    0.133626
  39 H :    0.116156
  40 H :    0.114407
Sum of atomic charges:    0.0000000

LOEWDIN ATOMIC CHARGES
----------------------
   0 C :   -0.370859
   1 C :   -0.116714
   2 O :   -0.251459
   3 P :    0.578588
   4 S :   -0.295953
   5 O :   -0.229005
   6 C :   -0.105859
   7 C :   -0.374168
   8 S :    0.067693
   9 C :   -0.482138
  10 S :    0.072400
  11 P :    0.559279
  12 S :   -0.285820
  13 O :   -0.233459
  14 C :   -0.118223
  15 C :   -0.357839
  16 O :   -0.249947
  17 C :   -0.116836
  18 C :   -0.372017
  19 H :    0.119267
  20 H :    0.129794
  21 H :    0.122268
  22 H :    0.112148
  23 H :    0.116773
  24 H :    0.111936
  25 H :    0.123765
  26 H :    0.131965
  27 H :    0.115046
  28 H :    0.129361
  29 H :    0.134234
  30 H :    0.125302
  31 H :    0.103223
  32 H :    0.115932
  33 H :    0.126727
  34 H :    0.126868
  35 H :    0.129077
  36 H :    0.117386
  37 H :    0.113463
  38 H :    0.123744
  39 H :    0.122265
  40 H :    0.131790

  Mayer bond orders larger than 0.100000
B(  0-C ,  1-C ) :   1.1677 B(  0-C , 19-H ) :   0.9361 B(  0-C , 20-H ) :   0.9368
B(  0-C , 21-H ) :   0.9428 B(  1-C ,  2-O ) :   0.9108 B(  1-C , 22-H ) :   0.9167
B(  1-C , 23-H ) :   0.9344 B(  2-O ,  3-P ) :   1.0631 B(  3-P ,  4-S ) :   1.6226
B(  3-P ,  5-O ) :   1.1391 B(  3-P ,  8-S ) :   0.9363 B(  4-S ,  8-S ) :   0.1187
B(  4-S , 30-H ) :   0.1028 B(  5-O ,  6-C ) :   0.9057 B(  6-C ,  7-C ) :   1.1709
B(  6-C , 24-H ) :   0.9266 B(  6-C , 25-H ) :   0.9317 B(  7-C , 26-H ) :   0.9243
B(  7-C , 27-H ) :   0.9369 B(  7-C , 28-H ) :   0.9352 B(  8-S ,  9-C ) :   1.0003
B(  9-C , 10-S ) :   0.9965 B(  9-C , 29-H ) :   0.9101 B(  9-C , 30-H ) :   0.8445
B( 10-S , 11-P ) :   0.9432 B( 10-S , 12-S ) :   0.1081 B( 11-P , 12-S ) :   1.6773
B( 11-P , 13-O ) :   1.1183 B( 11-P , 16-O ) :   1.0750 B( 13-O , 14-C ) :   0.8779
B( 14-C , 15-C ) :   1.1685 B( 14-C , 31-H ) :   0.9103 B( 14-C , 32-H ) :   0.9296
B( 15-C , 33-H ) :   0.9490 B( 15-C , 34-H ) :   0.9418 B( 15-C , 35-H ) :   0.9402
B( 16-O , 17-C ) :   0.9065 B( 17-C , 18-C ) :   1.1666 B( 17-C , 36-H ) :   0.9342
B( 17-C , 37-H ) :   0.9172 B( 18-C , 38-H ) :   0.9340 B( 18-C , 39-H ) :   0.9433
B( 18-C , 40-H ) :   0.9370

Dispersion correction           -0.068145579
FINAL SINGLE POINT ENERGY     -2929.513413165717

DIPOLE MOMENT
-------------

Method             : SCF
Type of density    : Electron Density
Multiplicity       :   1
Irrep              :   0
Energy             : -2929.6318764348507102 Eh
Relativity type    :
Basis              : AO
                                X                 Y                 Z
Electronic contribution:      1.703169802       4.365418947     -12.746452775
Nuclear contribution   :     -1.773318674      -5.261935949      14.251612695
                        -----------------------------------------
Total Dipole Moment    :     -0.070148873      -0.896517003       1.505159920
                        -----------------------------------------
Magnitude (a.u.)       :      1.753331111
Magnitude (Debye)      :      4.456613510

Rotational constants in cm-1:             0.012656             0.005483             0.004989
Rotational constants in MHz :           379.409132           164.371354           149.553633

                             ****ORCA TERMINATED NORMALLY****
TOTAL RUN TIME: 0 days 0 hours 0 minutes 22 seconds 89 msec
