                         Program Version 6.0.0  -   RELEASE  -
|  1> ! r2scan-3c def2/J RI DEFGRID2 scfconv6 printgap
|  2> %output
|  3>     printlevel normal
|  4> end
|  5> * xyz 0 1
|  6> C 5.8705540409 0.0133038371 -0.2709738705
|  7> C 4.5424737337 -0.6089804474 -0.6529140982
|  8> O 3.5040052416 0.0494953221 0.0995752519
|  9> P 2.0032100593 0.1412641678 -0.4239962019
| 10> S 1.8719861761 0.64448883 -2.3191868541
| 11> O 1.3850361628 1.1115373625 0.6581925463
| 12> C 1.5838529444 2.5414555989 0.5826510433
| 13> C 0.7942417191 3.170715798 1.7097498631
| 14> S 1.1955121268 -1.7146312229 0.1219174641
| 15> C -0.1042667694 -1.8969507374 -1.1499361437
| 16> S -1.7661943919 -1.9979945913 -0.4546609532
| 17> P -1.9404915346 0.0106311195 0.2294405935
| 18> S -1.3912769891 1.411855352 -1.0203967403
| 19> O -1.1384695536 0.0716676888 1.5837284987
| 20> C -1.2821164529 -0.8675110394 2.6780251937
| 21> C -2.3297438128 -0.4014737723 3.6672815361
| 22> O -3.4533421723 0.098824364 0.7102398898
| 23> C -4.5330956848 0.4480296872 -0.1740805683
| 24> C -4.800809915 -0.6248190484 -1.2094724429
| 25> H 5.8848594493 1.0648481338 -0.5443355153
| 26> H 6.0263560653 -0.0753755202 0.8002772685
| 27> H 6.6678003375 -0.5026257683 -0.7956965584
| 28> H 4.512873443 -1.672218893 -0.4024369611
| 29> H 4.3330682634 -0.4827872883 -1.7206438287
| 30> H 2.6538159424 2.745995846 0.6713169462
| 31> H 1.2297411147 2.8845464577 -0.3957478148
| 32> H 1.1483327735 2.7966325005 2.665723368
| 33> H 0.9134651094 4.2484828903 1.6706187826
| 34> H -0.2583700965 2.9206947481 1.6000248866
| 35> H 0.0640915435 -2.8387160057 -1.6656967554
| 36> H -0.0340953148 -1.0517369494 -1.8406205972
| 37> H -1.5325035851 -1.851341788 2.2709157076
| 38> H -0.2883022528 -0.9006105633 3.1290289607
| 39> H -3.3099015039 -0.383138268 3.1989098989
| 40> H -2.3473483035 -1.0870064691 4.5088366351
| 41> H -2.0914301357 0.597068477 4.0233104061
| 42> H -5.3836741103 0.5816348672 0.495856551
| 43> H -4.2881750091 1.3986325791 -0.6579992288
| 44> H -4.9113550979 -1.5943571256 -0.73054873
| 45> H -5.711139611 -0.3815856483 -1.7479913873
| 46> H -3.9764102344 -0.6751232345 -1.9187283014
| 47> *
| 48>
| 49>                          ****END OF INPUT****

CARTESIAN COORDINATES (ANGSTROEM)
---------------------------------
  C      5.870554    0.013304   -0.270974
  C      4.542474   -0.608980   -0.652914
  O      3.504005    0.049495    0.099575
  P      2.003210    0.141264   -0.423996
  S      1.871986    0.644489   -2.319187
  O      1.385036    1.111537    0.658193
  C      1.583853    2.541456    0.582651
  C      0.794242    3.170716    1.709750
  S      1.195512   -1.714631    0.121917
  C     -0.104267   -1.896951   -1.149936
  S     -1.766194   -1.997995   -0.454661
  P     -1.940492    0.010631    0.229441
  S     -1.391277    1.411855   -1.020397
  O     -1.138470    0.071668    1.583728
  C     -1.282116   -0.867511    2.678025
  C     -2.329744   -0.401474    3.667282
  O     -3.453342    0.098824    0.710240
  C     -4.533096    0.448030   -0.174081
  C     -4.800810   -0.624819   -1.209472
  H      5.884859    1.064848   -0.544336
  H      6.026356   -0.075376    0.800277
  H      6.667800   -0.502626   -0.795697
  H      4.512873   -1.672219   -0.402437
  H      4.333068   -0.482787   -1.720644
  H      2.653816    2.745996    0.671317
  H      1.229741    2.884546   -0.395748
  H      1.148333    2.796633    2.665723
  H      0.913465    4.248483    1.670619
  H     -0.258370    2.920695    1.600025
  H      0.064092   -2.838716   -1.665697
  H     -0.034095   -1.051737   -1.840621
  H     -1.532504   -1.851342    2.270916
  H     -0.288302   -0.900611    3.129029
  H     -3.309902   -0.383138    3.198910
  H     -2.347348   -1.087006    4.508837
  H     -2.091430    0.597068    4.023310
  H     -5.383674    0.581635    0.495857
  H     -4.288175    1.398633   -0.657999
  H     -4.911355   -1.594357   -0.730549
  H     -5.711140   -0.381586   -1.747991
  H     -3.976410   -0.675123   -1.918728

 Total Charge           Charge          ....    0
 Multiplicity           Mult            ....    1
 Number of Electrons    NEL             ....  202
 Basis Dimension        Dim             ....  539

ORBITAL ENERGIES
----------------

  NO   OCC          E(Eh)            E(eV)
   0   2.0000     -88.575761     -2410.2690
   1   2.0000     -88.574354     -2410.2307
   2   2.0000     -88.514327     -2408.5973
   3   2.0000     -88.510738     -2408.4996
   4   2.0000     -76.911809     -2092.8767
   5   2.0000     -76.906139     -2092.7224
   6   2.0000     -18.992970      -516.8250
   7   2.0000     -18.987943      -516.6882
   8   2.0000     -18.984411      -516.5921
   9   2.0000     -18.978750      -516.4380
  10   2.0000     -10.105883      -274.9951
  11   2.0000     -10.099047      -274.8090
  12   2.0000     -10.098133      -274.7842
  13   2.0000     -10.091574      -274.6057
  14   2.0000     -10.086537      -274.4686
  15   2.0000     -10.029538      -272.9176
  16   2.0000     -10.029081      -272.9052
  17   2.0000     -10.028783      -272.8971
  18   2.0000     -10.019009      -272.6311
  19   2.0000      -7.870338      -214.1628
  20   2.0000      -7.868921      -214.1242
  21   2.0000      -7.809115      -212.4968
  22   2.0000      -7.805519      -212.3990
  23   2.0000      -6.590131      -179.3266
  24   2.0000      -6.584730      -179.1796
  25   2.0000      -5.817208      -158.2943
  26   2.0000      -5.815736      -158.2542
  27   2.0000      -5.813978      -158.2064
  28   2.0000      -5.812762      -158.1733
  29   2.0000      -5.807609      -158.0331
  30   2.0000      -5.806059      -157.9909
  31   2.0000      -5.756876      -156.6526
  32   2.0000      -5.753153      -156.5513
  33   2.0000      -5.749296      -156.4463
  34   2.0000      -5.749101      -156.4410
  35   2.0000      -5.746017      -156.3571
  36   2.0000      -5.745305      -156.3377
  37   2.0000      -4.735992      -128.8729
  38   2.0000      -4.735163      -128.8503
  39   2.0000      -4.733455      -128.8039
  40   2.0000      -4.730147      -128.7138
  41   2.0000      -4.729586      -128.6986
  42   2.0000      -4.728582      -128.6712
  43   2.0000      -1.049428       -28.5564
  44   2.0000      -1.041310       -28.3355
  45   2.0000      -1.009387       -27.4668
  46   2.0000      -1.000104       -27.2142
  47   2.0000      -0.799317       -21.7505
  48   2.0000      -0.756598       -20.5881
  49   2.0000      -0.747759       -20.3476
  50   2.0000      -0.733917       -19.9709
  51   2.0000      -0.725619       -19.7451
  52   2.0000      -0.709004       -19.2930
  53   2.0000      -0.682141       -18.5620
  54   2.0000      -0.659831       -17.9549
  55   2.0000      -0.627001       -17.0616
  56   2.0000      -0.615882       -16.7590
  57   2.0000      -0.607156       -16.5215
  58   2.0000      -0.596324       -16.2268
  59   2.0000      -0.586423       -15.9574
  60   2.0000      -0.527752       -14.3609
  61   2.0000      -0.520760       -14.1706
  62   2.0000      -0.493855       -13.4385
  63   2.0000      -0.491357       -13.3705
  64   2.0000      -0.467349       -12.7172
  65   2.0000      -0.461641       -12.5619
  66   2.0000      -0.456213       -12.4142
  67   2.0000      -0.449501       -12.2315
  68   2.0000      -0.444603       -12.0983
  69   2.0000      -0.436570       -11.8797
  70   2.0000      -0.425564       -11.5802
  71   2.0000      -0.409682       -11.1480
  72   2.0000      -0.404702       -11.0125
  73   2.0000      -0.395417       -10.7598
  74   2.0000      -0.393183       -10.6990
  75   2.0000      -0.382490       -10.4081
  76   2.0000      -0.377988       -10.2856
  77   2.0000      -0.371066       -10.0972
  78   2.0000      -0.368015       -10.0142
  79   2.0000      -0.366798        -9.9811
  80   2.0000      -0.362140        -9.8543
  81   2.0000      -0.357259        -9.7215
  82   2.0000      -0.351074        -9.5532
  83   2.0000      -0.348444        -9.4817
  84   2.0000      -0.339267        -9.2319
  85   2.0000      -0.327801        -8.9199
  86   2.0000      -0.322245        -8.7687
  87   2.0000      -0.310891        -8.4598
  88   2.0000      -0.308443        -8.3932
  89   2.0000      -0.305345        -8.3089
  90   2.0000      -0.295886        -8.0515
  91   2.0000      -0.284842        -7.7509
  92   2.0000      -0.277450        -7.5498
  93   2.0000      -0.274463        -7.4685
  94   2.0000      -0.270640        -7.3645
  95   2.0000      -0.248949        -6.7743
  96   2.0000      -0.233375        -6.3504
  97   2.0000      -0.226196        -6.1551
  98   2.0000      -0.215260        -5.8575
  99   2.0000      -0.204643        -5.5686
 100   2.0000      -0.194959        -5.3051
 101   0.0000      -0.041816        -1.1379
 102   0.0000      -0.028847        -0.7850
 103   0.0000      -0.008366        -0.2277
 104   0.0000       0.013691         0.3726
 105   0.0000       0.019443         0.5291

MULLIKEN ATOMIC CHARGES
-----------------------
   0 C :   -0.450854
   1 C :   -0.144043
   2 O :   -0.295902
   3 P :    0.669751
   4 S :   -0.473491
   5 O :   -0.254651
   6 C :   -0.125808
   7 C :   -0.466442
   8 S :   -0.144690
   9 C :   -0.224883
  10 S :   -0.152022
  11 P :    0.643777
  12 S :   -0.409055
  13 O :   -0.250412
  14 C :   -0.125289
  15 C :   -0.458807
  16 O :   -0.298673
  17 C :   -0.163702
  18 C :   -0.458541
  19 H :    0.157168
  20 H :    0.152461
  21 H :    0.145714
  22 H :    0.148038
  23 H :    0.171648
  24 H :    0.145962
  25 H :    0.175789
  26 H :    0.145655
  27 H :    0.142313
  28 H :    0.178770
  29 H :    0.195800
  30 H :    0.218984
  31 H :    0.165559
  32 H :    0.163783
  33 H :    0.164067
  34 H :    0.146250
  35 H :    0.156345
  36 H :    0.146940
  37 H :    0.176910
  38 H :    0.153440
  39 H :    0.148834
  40 H :    0.183308
Sum of atomic charges:   -0.0000000

LOEWDIN ATOMIC CHARGES
----------------------
   0 C :   -0.388020
   1 C :    0.016992
   2 O :   -0.669695
   3 P :    0.365377
   4 S :   -0.133496
   5 O :   -0.668573
   6 C :    0.018859
   7 C :   -0.390202
   8 S :    0.173546
   9 C :   -0.412937
  10 S :    0.125606
  11 P :    0.381151
  12 S :   -0.064810
  13 O :   -0.657419
  14 C :    0.016094
  15 C :   -0.394923
  16 O :   -0.673482
  17 C :    0.020103
  18 C :   -0.408779
  19 H :    0.160197
  20 H :    0.158838
  21 H :    0.159215
  22 H :    0.170349
  23 H :    0.181668
  24 H :    0.170333
  25 H :    0.183354
  26 H :    0.156846
  27 H :    0.157868
  28 H :    0.169379
  29 H :    0.181220
  30 H :    0.202614
  31 H :    0.177589
  32 H :    0.183304
  33 H :    0.166310
  34 H :    0.158275
  35 H :    0.160928
  36 H :    0.178696
  37 H :    0.181532
  38 H :    0.159221
  39 H :    0.159804
  40 H :    0.167065

  Mayer bond orders larger than 0.100000
B(  0-C ,  1-C ) :   0.9554 B(  0-C , 19-H ) :   0.9728 B(  0-C , 20-H ) :   0.9725
B(  0-C , 21-H ) :   0.9656 B(  1-C ,  2-O ) :   0.7799 B(  1-C , 22-H ) :   0.9469
B(  1-C , 23-H ) :   0.9498 B(  2-O ,  3-P ) :   1.0769 B(  3-P ,  4-S ) :   1.7456
B(  3-P ,  5-O ) :   1.2136 B(  3-P ,  8-S ) :   1.1015 B(  5-O ,  6-C ) :   0.7551
B(  6-C ,  7-C ) :   0.9376 B(  6-C , 24-H ) :   0.9432 B(  6-C , 25-H ) :   0.9509
B(  7-C , 26-H ) :   0.9726 B(  7-C , 27-H ) :   0.9666 B(  7-C , 28-H ) :   0.9687
B(  8-S ,  9-C ) :   0.8985 B(  9-C , 10-S ) :   0.9133 B(  9-C , 29-H ) :   0.9143
B(  9-C , 30-H ) :   0.9043 B( 10-S , 11-P ) :   1.0207 B( 11-P , 12-S ) :   1.8489
B( 11-P , 13-O ) :   1.1215 B( 11-P , 16-O ) :   1.0419 B( 13-O , 14-C ) :   0.7371
B( 14-C , 15-C ) :   0.9326 B( 14-C , 31-H ) :   0.9577 B( 14-C , 32-H ) :   0.9644
B( 15-C , 33-H ) :   0.9649 B( 15-C , 34-H ) :   0.9664 B( 15-C , 35-H ) :   0.9757
B( 16-O , 17-C ) :   0.8219 B( 17-C , 18-C ) :   0.9124 B( 17-C , 36-H ) :   0.9614
B( 17-C , 37-H ) :   0.9674 B( 18-C , 38-H ) :   0.9683 B( 18-C , 39-H ) :   0.9573
B( 18-C , 40-H ) :   0.9632

Dispersion correction           -0.021939636
FINAL SINGLE POINT ENERGY     -2932.459499748744

DIPOLE MOMENT
-------------

Method             : SCF
Type of density    : Electron Density
Multiplicity       :   1
Irrep              :   0
Energy             : -2932.4841565371061733 Eh
Relativity type    :
Basis              : AO
                                X                 Y                 Z
Electronic contribution:      0.412456698      -5.970729585     -10.960666277
Nuclear contribution   :     -0.704159383       5.318846469      12.159786676
                        -----------------------------------------
Total Dipole Moment    :     -0.291702685      -0.651883116       1.199120400
                        -----------------------------------------
Magnitude (a.u.)       :      1.395683268
Magnitude (Debye)      :      3.547544940

Rotational constants in cm-1:             0.012867             0.005167             0.004990
Rotational constants in MHz :           385.740943           154.909870           149.595063

                             ****ORCA TERMINATED NORMALLY****
TOTAL RUN TIME: 0 days 0 hours 1 minutes 22 seconds 75 msec
