                         Program Version 6.0.0  -   RELEASE  -
|  1> ! r2scan-3c def2/J RI DEFGRID2 scfconv6 printgap
|  2> %output
|  3>     printlevel normal
|  4> end
|  5> %cpcm
|  6>     smd true
|  7>     smdsolvent "water"
|  8> end
|  9> * xyz 0 1
| 10> C 5.8705540409 0.0133038371 -0.2709738705
| 11> C 4.5424737337 -0.6089804474 -0.6529140982
| 12> O 3.5040052416 0.0494953221 0.0995752519
| 13> P 2.0032100593 0.1412641678 -0.4239962019
| 14> S 1.8719861761 0.64448883 -2.3191868541
| 15> O 1.3850361628 1.1115373625 0.6581925463
| 16> C 1.5838529444 2.5414555989 0.5826510433
| 17> C 0.7942417191 3.170715798 1.7097498631
| 18> S 1.1955121268 -1.7146312229 0.1219174641
| 19> C -0.1042667694 -1.8969507374 -1.1499361437
| 20> S -1.7661943919 -1.9979945913 -0.4546609532
| 21> P -1.9404915346 0.0106311195 0.2294405935
| 22> S -1.3912769891 1.411855352 -1.0203967403
| 23> O -1.1384695536 0.0716676888 1.5837284987
| 24> C -1.2821164529 -0.8675110394 2.6780251937
| 25> C -2.3297438128 -0.4014737723 3.6672815361
| 26> O -3.4533421723 0.098824364 0.7102398898
| 27> C -4.5330956848 0.4480296872 -0.1740805683
| 28> C -4.800809915 -0.6248190484 -1.2094724429
| 29> H 5.8848594493 1.0648481338 -0.5443355153
| 30> H 6.0263560653 -0.0753755202 0.8002772685
| 31> H 6.6678003375 -0.5026257683 -0.7956965584
| 32> H 4.512873443 -1.672218893 -0.4024369611
| 33> H 4.3330682634 -0.4827872883 -1.7206438287
| 34> H 2.6538159424 2.745995846 0.6713169462
| 35> H 1.2297411147 2.8845464577 -0.3957478148
| 36> H 1.1483327735 2.7966325005 2.665723368
| 37> H 0.9134651094 4.2484828903 1.6706187826
| 38> H -0.2583700965 2.9206947481 1.6000248866
| 39> H 0.0640915435 -2.8387160057 -1.6656967554
| 40> H -0.0340953148 -1.0517369494 -1.8406205972
| 41> H -1.5325035851 -1.851341788 2.2709157076
| 42> H -0.2883022528 -0.9006105633 3.1290289607
| 43> H -3.3099015039 -0.383138268 3.1989098989
| 44> H -2.3473483035 -1.0870064691 4.5088366351
| 45> H -2.0914301357 0.597068477 4.0233104061
| 46> H -5.3836741103 0.5816348672 0.495856551
| 47> H -4.2881750091 1.3986325791 -0.6579992288
| 48> H -4.9113550979 -1.5943571256 -0.73054873
| 49> H -5.711139611 -0.3815856483 -1.7479913873
| 50> H -3.9764102344 -0.6751232345 -1.9187283014
| 51> *
| 52>
| 53>                          ****END OF INPUT****

CARTESIAN COORDINATES (ANGSTROEM)
---------------------------------
  C      5.870554    0.013304   -0.270974
  C      4.542474   -0.608980   -0.652914
  O      3.504005    0.049495    0.099575
  P      2.003210    0.141264   -0.423996
  S      1.871986    0.644489   -2.319187
  O      1.385036    1.111537    0.658193
  C      1.583853    2.541456    0.582651
  C      0.794242    3.170716    1.709750
  S      1.195512   -1.714631    0.121917
  C     -0.104267   -1.896951   -1.149936
  S     -1.766194   -1.997995   -0.454661
  P     -1.940492    0.010631    0.229441
  S     -1.391277    1.411855   -1.020397
  O     -1.138470    0.071668    1.583728
  C     -1.282116   -0.867511    2.678025
  C     -2.329744   -0.401474    3.667282
  O     -3.453342    0.098824    0.710240
  C     -4.533096    0.448030   -0.174081
  C     -4.800810   -0.624819   -1.209472
  H      5.884859    1.064848   -0.544336
  H      6.026356   -0.075376    0.800277
  H      6.667800   -0.502626   -0.795697
  H      4.512873   -1.672219   -0.402437
  H      4.333068   -0.482787   -1.720644
  H      2.653816    2.745996    0.671317
  H      1.229741    2.884546   -0.395748
  H      1.148333    2.796633    2.665723
  H      0.913465    4.248483    1.670619
  H     -0.258370    2.920695    1.600025
  H      0.064092   -2.838716   -1.665697
  H     -0.034095   -1.051737   -1.840621
  H     -1.532504   -1.851342    2.270916
  H     -0.288302   -0.900611    3.129029
  H     -3.309902   -0.383138    3.198910
  H     -2.347348   -1.087006    4.508837
  H     -2.091430    0.597068    4.023310
  H     -5.383674    0.581635    0.495857
  H     -4.288175    1.398633   -0.657999
  H     -4.911355   -1.594357   -0.730549
  H     -5.711140   -0.381586   -1.747991
  H     -3.976410   -0.675123   -1.918728

 Total Charge           Charge          ....    0
 Multiplicity           Mult            ....    1
 Number of Electrons    NEL             ....  202
 Basis Dimension        Dim             ....  539

ORBITAL ENERGIES
----------------

  NO   OCC          E(Eh)            E(eV)
   0   2.0000     -88.580100     -2410.3871
   1   2.0000     -88.578329     -2410.3389
   2   2.0000     -88.523394     -2408.8440
   3   2.0000     -88.523291     -2408.8412
   4   2.0000     -76.917345     -2093.0274
   5   2.0000     -76.916249     -2092.9976
   6   2.0000     -18.993896      -516.8502
   7   2.0000     -18.992268      -516.8059
   8   2.0000     -18.991514      -516.7854
   9   2.0000     -18.988865      -516.7133
  10   2.0000     -10.105477      -274.9840
  11   2.0000     -10.090269      -274.5702
  12   2.0000     -10.089437      -274.5475
  13   2.0000     -10.087461      -274.4938
  14   2.0000     -10.087137      -274.4849
  15   2.0000     -10.018738      -272.6237
  16   2.0000     -10.018411      -272.6148
  17   2.0000     -10.017654      -272.5942
  18   2.0000     -10.017504      -272.5902
  19   2.0000      -7.874605      -214.2789
  20   2.0000      -7.872821      -214.2303
  21   2.0000      -7.818511      -212.7525
  22   2.0000      -7.818430      -212.7503
  23   2.0000      -6.595706      -179.4783
  24   2.0000      -6.594878      -179.4558
  25   2.0000      -5.821426      -158.4090
  26   2.0000      -5.819717      -158.3626
  27   2.0000      -5.818445      -158.3279
  28   2.0000      -5.816486      -158.2746
  29   2.0000      -5.811755      -158.1459
  30   2.0000      -5.810056      -158.0997
  31   2.0000      -5.766089      -156.9033
  32   2.0000      -5.766061      -156.9025
  33   2.0000      -5.759022      -156.7110
  34   2.0000      -5.758668      -156.7013
  35   2.0000      -5.758394      -156.6939
  36   2.0000      -5.758305      -156.6914
  37   2.0000      -4.741521      -129.0233
  38   2.0000      -4.740701      -129.0010
  39   2.0000      -4.740260      -128.9890
  40   2.0000      -4.739725      -128.9745
  41   2.0000      -4.739147      -128.9587
  42   2.0000      -4.738807      -128.9495
  43   2.0000      -1.051912       -28.6240
  44   2.0000      -1.049485       -28.5579
  45   2.0000      -1.011439       -27.5226
  46   2.0000      -1.007884       -27.4259
  47   2.0000      -0.801757       -21.8169
  48   2.0000      -0.756527       -20.5861
  49   2.0000      -0.744948       -20.2711
  50   2.0000      -0.725259       -19.7353
  51   2.0000      -0.722808       -19.6686
  52   2.0000      -0.710314       -19.3286
  53   2.0000      -0.687263       -18.7014
  54   2.0000      -0.668725       -18.1969
  55   2.0000      -0.627111       -17.0646
  56   2.0000      -0.615120       -16.7383
  57   2.0000      -0.602036       -16.3822
  58   2.0000      -0.594024       -16.1642
  59   2.0000      -0.586779       -15.9671
  60   2.0000      -0.529580       -14.4106
  61   2.0000      -0.518089       -14.0979
  62   2.0000      -0.496367       -13.5068
  63   2.0000      -0.489298       -13.3145
  64   2.0000      -0.467971       -12.7341
  65   2.0000      -0.460111       -12.5203
  66   2.0000      -0.456408       -12.4195
  67   2.0000      -0.451221       -12.2783
  68   2.0000      -0.440161       -11.9774
  69   2.0000      -0.434506       -11.8235
  70   2.0000      -0.422899       -11.5077
  71   2.0000      -0.413048       -11.2396
  72   2.0000      -0.403741       -10.9863
  73   2.0000      -0.394837       -10.7441
  74   2.0000      -0.390747       -10.6328
  75   2.0000      -0.382205       -10.4003
  76   2.0000      -0.377756       -10.2793
  77   2.0000      -0.367657       -10.0045
  78   2.0000      -0.361968        -9.8496
  79   2.0000      -0.361176        -9.8281
  80   2.0000      -0.354659        -9.6508
  81   2.0000      -0.353347        -9.6151
  82   2.0000      -0.346342        -9.4244
  83   2.0000      -0.345187        -9.3930
  84   2.0000      -0.340619        -9.2687
  85   2.0000      -0.325368        -8.8537
  86   2.0000      -0.324129        -8.8200
  87   2.0000      -0.310377        -8.4458
  88   2.0000      -0.309042        -8.4094
  89   2.0000      -0.303082        -8.2473
  90   2.0000      -0.298229        -8.1152
  91   2.0000      -0.286614        -7.7992
  92   2.0000      -0.279857        -7.6153
  93   2.0000      -0.277237        -7.5440
  94   2.0000      -0.274385        -7.4664
  95   2.0000      -0.253056        -6.8860
  96   2.0000      -0.241304        -6.5662
  97   2.0000      -0.236594        -6.4381
  98   2.0000      -0.226463        -6.1624
  99   2.0000      -0.214319        -5.8319
 100   2.0000      -0.206827        -5.6281
 101   0.0000      -0.046818        -1.2740
 102   0.0000      -0.035759        -0.9731
 103   0.0000      -0.012135        -0.3302
 104   0.0000       0.007542         0.2052
 105   0.0000       0.016207         0.4410

MULLIKEN ATOMIC CHARGES
-----------------------
   0 C :   -0.488830
   1 C :   -0.139460
   2 O :   -0.322286
   3 P :    0.698393
   4 S :   -0.530806
   5 O :   -0.281398
   6 C :   -0.121345
   7 C :   -0.509355
   8 S :   -0.142944
   9 C :   -0.225654
  10 S :   -0.149094
  11 P :    0.663194
  12 S :   -0.463611
  13 O :   -0.284093
  14 C :   -0.108349
  15 C :   -0.502750
  16 O :   -0.319139
  17 C :   -0.158136
  18 C :   -0.493535
  19 H :    0.165946
  20 H :    0.165255
  21 H :    0.169089
  22 H :    0.170151
  23 H :    0.170587
  24 H :    0.170520
  25 H :    0.174582
  26 H :    0.166570
  27 H :    0.169616
  28 H :    0.170476
  29 H :    0.237530
  30 H :    0.212426
  31 H :    0.176033
  32 H :    0.180786
  33 H :    0.168953
  34 H :    0.170612
  35 H :    0.168122
  36 H :    0.174793
  37 H :    0.178877
  38 H :    0.169609
  39 H :    0.173076
  40 H :    0.175590
Sum of atomic charges:   -0.0000000

LOEWDIN ATOMIC CHARGES
----------------------
   0 C :   -0.391431
   1 C :    0.021384
   2 O :   -0.682525
   3 P :    0.369147
   4 S :   -0.171300
   5 O :   -0.686468
   6 C :    0.020950
   7 C :   -0.394111
   8 S :    0.177635
   9 C :   -0.407171
  10 S :    0.135463
  11 P :    0.384223
  12 S :   -0.102706
  13 O :   -0.678387
  14 C :    0.022456
  15 C :   -0.397323
  16 O :   -0.679105
  17 C :    0.025204
  18 C :   -0.411464
  19 H :    0.161918
  20 H :    0.162755
  21 H :    0.168405
  22 H :    0.179259
  23 H :    0.181441
  24 H :    0.179814
  25 H :    0.182677
  26 H :    0.162863
  27 H :    0.168259
  28 H :    0.163933
  29 H :    0.197889
  30 H :    0.199656
  31 H :    0.182651
  32 H :    0.190014
  33 H :    0.166227
  34 H :    0.168213
  35 H :    0.163471
  36 H :    0.190557
  37 H :    0.181491
  38 H :    0.163694
  39 H :    0.168553
  40 H :    0.161792

  Mayer bond orders larger than 0.100000
B(  0-C ,  1-C ) :   0.9526 B(  0-C , 19-H ) :   0.9699 B(  0-C , 20-H ) :   0.9693
B(  0-C , 21-H ) :   0.9595 B(  1-C ,  2-O ) :   0.7715 B(  1-C , 22-H ) :   0.9379
B(  1-C , 23-H ) :   0.9478 B(  2-O ,  3-P ) :   1.0836 B(  3-P ,  4-S ) :   1.6956
B(  3-P ,  5-O ) :   1.2121 B(  3-P ,  8-S ) :   1.1305 B(  5-O ,  6-C ) :   0.7479
B(  6-C ,  7-C ) :   0.9276 B(  6-C , 24-H ) :   0.9348 B(  6-C , 25-H ) :   0.9478
B(  7-C , 26-H ) :   0.9693 B(  7-C , 27-H ) :   0.9605 B(  7-C , 28-H ) :   0.9710
B(  8-S ,  9-C ) :   0.8914 B(  9-C , 10-S ) :   0.9093 B(  9-C , 29-H ) :   0.8979
B(  9-C , 30-H ) :   0.9090 B( 10-S , 11-P ) :   1.0380 B( 11-P , 12-S ) :   1.8175
B( 11-P , 13-O ) :   1.1249 B( 11-P , 16-O ) :   1.0517 B( 13-O , 14-C ) :   0.7271
B( 14-C , 15-C ) :   0.9251 B( 14-C , 31-H ) :   0.9492 B( 14-C , 32-H ) :   0.9553
B( 15-C , 33-H ) :   0.9646 B( 15-C , 34-H ) :   0.9594 B( 15-C , 35-H ) :   0.9739
B( 16-O , 17-C ) :   0.8112 B( 17-C , 18-C ) :   0.9011 B( 17-C , 36-H ) :   0.9511
B( 17-C , 37-H ) :   0.9665 B( 18-C , 38-H ) :   0.9651 B( 18-C , 39-H ) :   0.9521
B( 18-C , 40-H ) :   0.9654

Dispersion correction           -0.021939636
FINAL SINGLE POINT ENERGY     -2932.468403799293

DIPOLE MOMENT
-------------

Method             : SCF
Type of density    : Electron Density
Multiplicity       :   1
Irrep              :   0
Energy             : -2932.4930605876547816 Eh
Relativity type    :
Basis              : AO
                                X                 Y                 Z
Electronic contribution:      0.321613438      -6.487196527     -10.586368728
Nuclear contribution   :     -0.704159383       5.318846469      12.159786676
                        -----------------------------------------
Total Dipole Moment    :     -0.382545945      -1.168350058       1.573417948
                        -----------------------------------------
Magnitude (a.u.)       :      1.996754191
Magnitude (Debye)      :      5.075345808

Rotational constants in cm-1:             0.012867             0.005167             0.004990
Rotational constants in MHz :           385.740943           154.909870           149.595063

                             ****ORCA TERMINATED NORMALLY****
TOTAL RUN TIME: 0 days 0 hours 1 minutes 57 seconds 558 msec
