                         Program Version 6.0.1  -  RELEASE   -
|  1> ! pbe def2-sv(p) def2/J RI DEFGRID1 loosescf d4 GCP(DFT/SV(P)) printgap
|  2> %output
|  3>     printlevel normal
|  4> end
|  5> * xyz 0 1
|  6> C 4.3779095825 0.9715093244 -1.3856060246
|  7> C 4.1789736982 -0.3633160477 -2.0844568891
|  8> O 2.8524611969 -0.879532439 -1.8617138389
|  9> C 2.6116666841 -1.5457662595 -0.7513566881
| 10> O 3.4327346804 -1.7902215849 0.1029443163
| 11> C 1.1608114212 -1.9952910877 -0.6872595265
| 12> C 0.2494584937 -0.7718438179 -0.5728398749
| 13> H 0.40264891 -0.101312295 -1.4215832375
| 14> C 0.5428224279 -0.0372798486 0.7223727105
| 15> O -0.1614649943 -0.1267878747 1.7067307124
| 16> O 1.6534020972 0.6472943807 0.6382770766
| 17> C 2.1093306818 1.3446584371 1.8163278892
| 18> C 2.794737575 0.3931791848 2.7835860958
| 19> S -1.4942429979 -1.3030142427 -0.5375293871
| 20> P -2.341792842 0.5369725092 0.0899306799
| 21> S -1.3020170525 2.1458443217 -0.312687135
| 22> O -3.7660775709 0.4885409787 -0.6446017055
| 23> C -3.8729557702 0.5902891476 -2.0690232259
| 24> O -2.8212629107 0.4657649061 1.5900312004
| 25> C -3.494260416 -0.6841005572 2.1406599173
| 26> H 5.3454128518 1.3792736489 -1.6591563179
| 27> H 3.5967186834 1.6683138108 -1.677904323
| 28> H 4.3408305107 0.836268307 -0.3079467917
| 29> H 4.9031568454 -1.0994443572 -1.7238327489
| 30> H 4.2471464331 -0.2597060401 -3.1673839424
| 31> H 1.0280169019 -2.649711413 0.174870335
| 32> H 0.9118910002 -2.5344510225 -1.6016942433
| 33> H 2.7983269051 2.0948211478 1.4285528536
| 34> H 1.2468996483 1.8299304634 2.2826833961
| 35> H 3.2697947457 0.964702413 3.5735933712
| 36> H 2.0671253072 -0.2847571879 3.223657009
| 37> H 3.5445451334 -0.1960303848 2.2598347429
| 38> H -4.9303577008 0.7381667711 -2.2723036224
| 39> H -3.5151017583 -0.3282579895 -2.5336305377
| 40> H -3.293058493 1.4421499464 -2.4274990739
| 41> H -3.8421495257 -0.3643369323 3.1192900005
| 42> H -2.7840328539 -1.5049567395 2.2366486391
| 43> H -4.3292962334 -0.9720897899 1.5046152549
| 44> *
| 45>
| 46>                          ****END OF INPUT****

CARTESIAN COORDINATES (ANGSTROEM)
---------------------------------
  C      4.377910    0.971509   -1.385606
  C      4.178974   -0.363316   -2.084457
  O      2.852461   -0.879532   -1.861714
  C      2.611667   -1.545766   -0.751357
  O      3.432735   -1.790222    0.102944
  C      1.160811   -1.995291   -0.687260
  C      0.249458   -0.771844   -0.572840
  H      0.402649   -0.101312   -1.421583
  C      0.542822   -0.037280    0.722373
  O     -0.161465   -0.126788    1.706731
  O      1.653402    0.647294    0.638277
  C      2.109331    1.344658    1.816328
  C      2.794738    0.393179    2.783586
  S     -1.494243   -1.303014   -0.537529
  P     -2.341793    0.536973    0.089931
  S     -1.302017    2.145844   -0.312687
  O     -3.766078    0.488541   -0.644602
  C     -3.872956    0.590289   -2.069023
  O     -2.821263    0.465765    1.590031
  C     -3.494260   -0.684101    2.140660
  H      5.345413    1.379274   -1.659156
  H      3.596719    1.668314   -1.677904
  H      4.340831    0.836268   -0.307947
  H      4.903157   -1.099444   -1.723833
  H      4.247146   -0.259706   -3.167384
  H      1.028017   -2.649711    0.174870
  H      0.911891   -2.534451   -1.601694
  H      2.798327    2.094821    1.428553
  H      1.246900    1.829930    2.282683
  H      3.269795    0.964702    3.573593
  H      2.067125   -0.284757    3.223657
  H      3.544545   -0.196030    2.259835
  H     -4.930358    0.738167   -2.272304
  H     -3.515102   -0.328258   -2.533631
  H     -3.293058    1.442150   -2.427499
  H     -3.842150   -0.364337    3.119290
  H     -2.784033   -1.504957    2.236649
  H     -4.329296   -0.972090    1.504615

 Total Charge           Charge          ....    0
 Multiplicity           Mult            ....    1
 Number of Electrons    NEL             ....  174
 Basis Dimension        Dim             ....  316

ORBITAL ENERGIES
----------------

  NO   OCC          E(Eh)            E(eV)
   0   2.0000     -88.039677     -2395.6814
   1   2.0000     -87.979830     -2394.0529
   2   2.0000     -76.423047     -2079.5768
   3   2.0000     -18.810115      -511.8493
   4   2.0000     -18.808148      -511.7957
   5   2.0000     -18.788189      -511.2526
   6   2.0000     -18.786765      -511.2139
   7   2.0000     -18.744897      -510.0746
   8   2.0000     -18.740011      -509.9416
   9   2.0000     -10.017364      -272.5863
  10   2.0000     -10.016676      -272.5676
  11   2.0000      -9.952915      -270.8326
  12   2.0000      -9.947837      -270.6944
  13   2.0000      -9.946342      -270.6537
  14   2.0000      -9.943866      -270.5863
  15   2.0000      -9.941961      -270.5345
  16   2.0000      -9.919033      -269.9106
  17   2.0000      -9.888823      -269.0886
  18   2.0000      -9.879033      -268.8222
  19   2.0000      -7.684696      -209.1112
  20   2.0000      -7.625097      -207.4894
  21   2.0000      -6.419870      -174.6935
  22   2.0000      -5.712477      -155.4444
  23   2.0000      -5.709324      -155.3586
  24   2.0000      -5.701676      -155.1505
  25   2.0000      -5.654241      -153.8597
  26   2.0000      -5.645524      -153.6225
  27   2.0000      -5.645159      -153.6126
  28   2.0000      -4.642503      -126.3289
  29   2.0000      -4.641888      -126.3122
  30   2.0000      -4.640203      -126.2664
  31   2.0000      -1.020147       -27.7596
  32   2.0000      -1.014830       -27.6149
  33   2.0000      -0.981943       -26.7200
  34   2.0000      -0.937734       -25.5170
  35   2.0000      -0.922010       -25.0892
  36   2.0000      -0.921185       -25.0667
  37   2.0000      -0.769152       -20.9297
  38   2.0000      -0.715421       -19.4676
  39   2.0000      -0.704032       -19.1577
  40   2.0000      -0.691619       -18.8199
  41   2.0000      -0.661114       -17.9898
  42   2.0000      -0.632650       -17.2153
  43   2.0000      -0.619960       -16.8700
  44   2.0000      -0.616320       -16.7709
  45   2.0000      -0.597707       -16.2644
  46   2.0000      -0.566527       -15.4160
  47   2.0000      -0.512799       -13.9540
  48   2.0000      -0.504678       -13.7330
  49   2.0000      -0.493480       -13.4283
  50   2.0000      -0.479348       -13.0437
  51   2.0000      -0.470567       -12.8048
  52   2.0000      -0.466852       -12.7037
  53   2.0000      -0.444950       -12.1077
  54   2.0000      -0.442219       -12.0334
  55   2.0000      -0.428334       -11.6556
  56   2.0000      -0.426322       -11.6008
  57   2.0000      -0.423545       -11.5253
  58   2.0000      -0.411586       -11.1998
  59   2.0000      -0.407811       -11.0971
  60   2.0000      -0.404126       -10.9968
  61   2.0000      -0.400338       -10.8938
  62   2.0000      -0.393902       -10.7186
  63   2.0000      -0.387057       -10.5324
  64   2.0000      -0.376909       -10.2562
  65   2.0000      -0.367367        -9.9966
  66   2.0000      -0.357198        -9.7198
  67   2.0000      -0.352077        -9.5805
  68   2.0000      -0.345317        -9.3965
  69   2.0000      -0.342136        -9.3100
  70   2.0000      -0.338536        -9.2120
  71   2.0000      -0.330450        -8.9920
  72   2.0000      -0.321870        -8.7585
  73   2.0000      -0.315519        -8.5857
  74   2.0000      -0.301473        -8.2035
  75   2.0000      -0.298797        -8.1307
  76   2.0000      -0.295203        -8.0329
  77   2.0000      -0.291243        -7.9251
  78   2.0000      -0.271913        -7.3991
  79   2.0000      -0.266614        -7.2549
  80   2.0000      -0.259289        -7.0556
  81   2.0000      -0.256894        -6.9904
  82   2.0000      -0.233337        -6.3494
  83   2.0000      -0.227018        -6.1775
  84   2.0000      -0.220391        -5.9972
  85   2.0000      -0.199245        -5.4217
  86   2.0000      -0.197432        -5.3724
  87   0.0000      -0.044314        -1.2058
  88   0.0000      -0.035887        -0.9765
  89   0.0000      -0.021833        -0.5941
  90   0.0000       0.014234         0.3873
  91   0.0000       0.024453         0.6654

MULLIKEN ATOMIC CHARGES
-----------------------
   0 C :   -0.318145
   1 C :   -0.011214
   2 O :   -0.232892
   3 C :    0.105534
   4 O :   -0.194678
   5 C :   -0.041454
   6 C :   -0.292281
   7 H :    0.154026
   8 C :    0.170297
   9 O :   -0.188841
  10 O :   -0.221558
  11 C :   -0.003725
  12 C :   -0.328863
  13 S :   -0.098723
  14 P :    0.612380
  15 S :   -0.322527
  16 O :   -0.386970
  17 C :   -0.100064
  18 O :   -0.347625
  19 C :   -0.102382
  20 H :    0.111958
  21 H :    0.123097
  22 H :    0.137078
  23 H :    0.107694
  24 H :    0.104866
  25 H :    0.111535
  26 H :    0.124696
  27 H :    0.104774
  28 H :    0.118067
  29 H :    0.110407
  30 H :    0.126643
  31 H :    0.138304
  32 H :    0.124519
  33 H :    0.112849
  34 H :    0.116628
  35 H :    0.131146
  36 H :    0.128577
  37 H :    0.116869
Sum of atomic charges:    0.0000000

LOEWDIN ATOMIC CHARGES
----------------------
   0 C :   -0.357261
   1 C :   -0.107726
   2 O :   -0.056813
   3 C :    0.028619
   4 O :   -0.160759
   5 C :   -0.238025
   6 C :   -0.267022
   7 H :    0.139610
   8 C :   -0.002375
   9 O :   -0.167089
  10 O :   -0.033719
  11 C :   -0.105024
  12 C :   -0.362721
  13 S :    0.092689
  14 P :    0.584361
  15 S :   -0.310692
  16 O :   -0.262376
  17 C :   -0.217672
  18 O :   -0.227192
  19 C :   -0.207095
  20 H :    0.130211
  21 H :    0.128870
  22 H :    0.129093
  23 H :    0.119973
  24 H :    0.118939
  25 H :    0.140110
  26 H :    0.143179
  27 H :    0.117003
  28 H :    0.125314
  29 H :    0.129240
  30 H :    0.130719
  31 H :    0.130504
  32 H :    0.122021
  33 H :    0.106853
  34 H :    0.111075
  35 H :    0.127000
  36 H :    0.116597
  37 H :    0.111580

  Mayer bond orders larger than 0.100000
B(  0-C ,  1-C ) :   1.1767 B(  0-C , 20-H ) :   0.9407 B(  0-C , 21-H ) :   0.9462
B(  0-C , 22-H ) :   0.9367 B(  1-C ,  2-O ) :   0.9159 B(  1-C , 23-H ) :   0.9165
B(  1-C , 24-H ) :   0.9376 B(  2-O ,  3-C ) :   1.2162 B(  3-C ,  4-O ) :   2.0403
B(  3-C ,  5-C ) :   1.0200 B(  5-C ,  6-C ) :   1.0549 B(  5-C , 25-H ) :   0.8972
B(  5-C , 26-H ) :   0.8890 B(  6-C ,  7-H ) :   0.8660 B(  6-C ,  8-C ) :   0.8783
B(  6-C , 13-S ) :   1.0157 B(  8-C ,  9-O ) :   2.0175 B(  8-C , 10-O ) :   1.2434
B( 10-O , 11-C ) :   0.8992 B( 11-C , 12-C ) :   1.1734 B( 11-C , 27-H ) :   0.9322
B( 11-C , 28-H ) :   0.9165 B( 12-C , 29-H ) :   0.9424 B( 12-C , 30-H ) :   0.9422
B( 12-C , 31-H ) :   0.9379 B( 13-S , 14-P ) :   0.9499 B( 13-S , 15-S ) :   0.1125
B( 14-P , 15-S ) :   1.6123 B( 14-P , 16-O ) :   1.0717 B( 14-P , 18-O ) :   1.1495
B( 16-O , 17-C ) :   0.9344 B( 17-C , 32-H ) :   0.9587 B( 17-C , 33-H ) :   0.9460
B( 17-C , 34-H ) :   0.9355 B( 18-O , 19-C ) :   0.9164 B( 19-C , 35-H ) :   0.9598
B( 19-C , 36-H ) :   0.9426 B( 19-C , 37-H ) :   0.9451

Dispersion correction           -0.053120469
FINAL SINGLE POINT ENERGY     -1979.017266005769

DIPOLE MOMENT
-------------

Method             : SCF
Type of density    : Electron Density
Multiplicity       :   1
Irrep              :   0
Energy             : -1979.1480666397601453 Eh
Relativity type    :
Basis              : AO
                                X                 Y                 Z
Electronic contribution:    -16.065214547      -0.583755205      -1.606002421
Nuclear contribution   :     16.271536600       0.095969215       0.915256904
                        -----------------------------------------
Total Dipole Moment    :      0.206322053      -0.487785989      -0.690745518
                        -----------------------------------------
Magnitude (a.u.)       :      0.870421353
Magnitude (Debye)      :      2.212435253

Rotational constants in cm-1:             0.016586             0.006225             0.005802
Rotational constants in MHz :           497.223235           186.606025           173.943352

                             ****ORCA TERMINATED NORMALLY****
TOTAL RUN TIME: 0 days 0 hours 0 minutes 43 seconds 628 msec
