                         Program Version 6.0.0  -   RELEASE  -
|  1> ! pbe def2-sv(p) def2/J RI DEFGRID1 loosescf d4 GCP(DFT/SV(P)) printgap
|  2> %output
|  3>     printlevel normal
|  4> end
|  5> * xyz 0 1
|  6> C 2.4346583009 0.3448907469 -2.6384577617
|  7> C 1.6175206249 1.3092529846 -1.8063991348
|  8> O 1.0884891114 0.678886753 -0.6219671076
|  9> P 2.0441273085 0.2995218132 0.5962912861
| 10> S 3.5387165226 1.5289123996 0.8903751736
| 11> O 2.4697920561 -1.1951234096 0.2423894021
| 12> C 3.6221054329 -1.8209476834 0.8327073123
| 13> C 3.3249107954 -2.3485810606 2.2222893071
| 14> S 0.6932509416 0.206767058 2.1989017489
| 15> C -0.350519366 -1.2627020138 1.824802946
| 16> S -0.5261651555 -1.6664689873 0.075278463
| 17> P -1.7770685031 -0.091345162 -0.5921678597
| 18> S -1.6988463563 0.1684212417 -2.5329482139
| 19> O -1.41350565 1.1194726465 0.3597402363
| 20> C -2.3745233448 2.0982075974 0.8162593924
| 21> C -2.9246539239 2.9219600724 -0.3283484152
| 22> O -3.2174215497 -0.485042536 -0.0155780498
| 23> C -4.0329466151 -1.4886737772 -0.6480709331
| 24> C -5.0689576541 -0.8467862349 -1.5503299509
| 25> H 1.8462253088 -0.5417045331 -2.8636354051
| 26> H 2.7218842472 0.8302240534 -3.5658158476
| 27> H 3.3317227484 0.051087171 -2.0955243615
| 28> H 0.7293902332 1.6466230917 -2.3443140006
| 29> H 2.2188461676 2.1707570451 -1.4983551609
| 30> H 3.8693555529 -2.6274749501 0.1410810085
| 31> H 4.4375944679 -1.0901419385 0.8611809155
| 32> H 2.5030550963 -3.0587163138 2.1870282287
| 33> H 4.2085289365 -2.8457834745 2.6095653736
| 34> H 3.0643462006 -1.5263414158 2.8875635319
| 35> H -1.3215550098 -1.047164656 2.2647384868
| 36> H 0.1027283749 -2.1361170508 2.2869028908
| 37> H -3.1756845415 1.5801317073 1.3464016075
| 38> H -1.7983090447 2.7078012799 1.5149843825
| 39> H -3.4576525854 2.278645059 -1.0276015672
| 40> H -3.6079388274 3.6705276167 0.0604307649
| 41> H -2.1165291906 3.4154139838 -0.863417034
| 42> H -3.3918585888 -2.1705492104 -1.2147150322
| 43> H -4.5033803779 -2.0289436672 0.1754451289
| 44> H -5.7115345464 -1.6184890702 -1.9614523827
| 45> H -5.6714469562 -0.1399578472 -0.9866277392
| 46> H -4.5793897964 -0.3226159131 -2.3684912387
| 47> *
| 48>
| 49>                          ****END OF INPUT****

CARTESIAN COORDINATES (ANGSTROEM)
---------------------------------
  C      2.434658    0.344891   -2.638458
  C      1.617521    1.309253   -1.806399
  O      1.088489    0.678887   -0.621967
  P      2.044127    0.299522    0.596291
  S      3.538717    1.528912    0.890375
  O      2.469792   -1.195123    0.242389
  C      3.622105   -1.820948    0.832707
  C      3.324911   -2.348581    2.222289
  S      0.693251    0.206767    2.198902
  C     -0.350519   -1.262702    1.824803
  S     -0.526165   -1.666469    0.075278
  P     -1.777069   -0.091345   -0.592168
  S     -1.698846    0.168421   -2.532948
  O     -1.413506    1.119473    0.359740
  C     -2.374523    2.098208    0.816259
  C     -2.924654    2.921960   -0.328348
  O     -3.217422   -0.485043   -0.015578
  C     -4.032947   -1.488674   -0.648071
  C     -5.068958   -0.846786   -1.550330
  H      1.846225   -0.541705   -2.863635
  H      2.721884    0.830224   -3.565816
  H      3.331723    0.051087   -2.095524
  H      0.729390    1.646623   -2.344314
  H      2.218846    2.170757   -1.498355
  H      3.869356   -2.627475    0.141081
  H      4.437594   -1.090142    0.861181
  H      2.503055   -3.058716    2.187028
  H      4.208529   -2.845783    2.609565
  H      3.064346   -1.526341    2.887564
  H     -1.321555   -1.047165    2.264738
  H      0.102728   -2.136117    2.286903
  H     -3.175685    1.580132    1.346402
  H     -1.798309    2.707801    1.514984
  H     -3.457653    2.278645   -1.027602
  H     -3.607939    3.670528    0.060431
  H     -2.116529    3.415414   -0.863417
  H     -3.391859   -2.170549   -1.214715
  H     -4.503380   -2.028944    0.175445
  H     -5.711535   -1.618489   -1.961452
  H     -5.671447   -0.139958   -0.986628
  H     -4.579390   -0.322616   -2.368491

 Total Charge           Charge          ....    0
 Multiplicity           Mult            ....    1
 Number of Electrons    NEL             ....  202
 Basis Dimension        Dim             ....  334

ORBITAL ENERGIES
----------------

  NO   OCC          E(Eh)            E(eV)
   0   2.0000     -88.044699     -2395.8181
   1   2.0000     -88.039538     -2395.6776
   2   2.0000     -87.989433     -2394.3142
   3   2.0000     -87.981142     -2394.0886
   4   2.0000     -76.431609     -2079.8098
   5   2.0000     -76.421858     -2079.5445
   6   2.0000     -18.796231      -511.4714
   7   2.0000     -18.792395      -511.3671
   8   2.0000     -18.789184      -511.2797
   9   2.0000     -18.779294      -511.0106
  10   2.0000      -9.964268      -271.1415
  11   2.0000      -9.957934      -270.9692
  12   2.0000      -9.957157      -270.9480
  13   2.0000      -9.949688      -270.7448
  14   2.0000      -9.934125      -270.3213
  15   2.0000      -9.886618      -269.0286
  16   2.0000      -9.886213      -269.0175
  17   2.0000      -9.885246      -268.9912
  18   2.0000      -9.869955      -268.5751
  19   2.0000      -7.689741      -209.2485
  20   2.0000      -7.684615      -209.1090
  21   2.0000      -7.634476      -207.7446
  22   2.0000      -7.626354      -207.5236
  23   2.0000      -6.428207      -174.9204
  24   2.0000      -6.419325      -174.6787
  25   2.0000      -5.718163      -155.5991
  26   2.0000      -5.714121      -155.4891
  27   2.0000      -5.713186      -155.4637
  28   2.0000      -5.708826      -155.3451
  29   2.0000      -5.706195      -155.2735
  30   2.0000      -5.701144      -155.1360
  31   2.0000      -5.663413      -154.1093
  32   2.0000      -5.655238      -153.8869
  33   2.0000      -5.655205      -153.8859
  34   2.0000      -5.654495      -153.8666
  35   2.0000      -5.646911      -153.6603
  36   2.0000      -5.646583      -153.6513
  37   2.0000      -4.651270      -126.5675
  38   2.0000      -4.650081      -126.5351
  39   2.0000      -4.648322      -126.4873
  40   2.0000      -4.641622      -126.3049
  41   2.0000      -4.641299      -126.2962
  42   2.0000      -4.639876      -126.2575
  43   2.0000      -0.991246       -26.9732
  44   2.0000      -0.978705       -26.6319
  45   2.0000      -0.945986       -25.7416
  46   2.0000      -0.937619       -25.5139
  47   2.0000      -0.763576       -20.7780
  48   2.0000      -0.720731       -19.6121
  49   2.0000      -0.705172       -19.1887
  50   2.0000      -0.691283       -18.8108
  51   2.0000      -0.682840       -18.5810
  52   2.0000      -0.671526       -18.2732
  53   2.0000      -0.655858       -17.8468
  54   2.0000      -0.635585       -17.2952
  55   2.0000      -0.595710       -16.2101
  56   2.0000      -0.591626       -16.0990
  57   2.0000      -0.578875       -15.7520
  58   2.0000      -0.571086       -15.5400
  59   2.0000      -0.559748       -15.2315
  60   2.0000      -0.507545       -13.8110
  61   2.0000      -0.488235       -13.2855
  62   2.0000      -0.478094       -13.0096
  63   2.0000      -0.467225       -12.7138
  64   2.0000      -0.458024       -12.4635
  65   2.0000      -0.444175       -12.0866
  66   2.0000      -0.439304       -11.9541
  67   2.0000      -0.432758       -11.7759
  68   2.0000      -0.424680       -11.5561
  69   2.0000      -0.416427       -11.3316
  70   2.0000      -0.409443       -11.1415
  71   2.0000      -0.403143       -10.9701
  72   2.0000      -0.394995       -10.7484
  73   2.0000      -0.390932       -10.6378
  74   2.0000      -0.381096       -10.3702
  75   2.0000      -0.366028        -9.9601
  76   2.0000      -0.365320        -9.9409
  77   2.0000      -0.356523        -9.7015
  78   2.0000      -0.354945        -9.6585
  79   2.0000      -0.350136        -9.5277
  80   2.0000      -0.343812        -9.3556
  81   2.0000      -0.342045        -9.3075
  82   2.0000      -0.341344        -9.2884
  83   2.0000      -0.335749        -9.1362
  84   2.0000      -0.331915        -9.0319
  85   2.0000      -0.321820        -8.7572
  86   2.0000      -0.311536        -8.4773
  87   2.0000      -0.301861        -8.2140
  88   2.0000      -0.296222        -8.0606
  89   2.0000      -0.291629        -7.9356
  90   2.0000      -0.278094        -7.5673
  91   2.0000      -0.276132        -7.5139
  92   2.0000      -0.264794        -7.2054
  93   2.0000      -0.262085        -7.1317
  94   2.0000      -0.256752        -6.9866
  95   2.0000      -0.227681        -6.1955
  96   2.0000      -0.211750        -5.7620
  97   2.0000      -0.209184        -5.6922
  98   2.0000      -0.203769        -5.5448
  99   2.0000      -0.199629        -5.4322
 100   2.0000      -0.195970        -5.3326
 101   0.0000      -0.043074        -1.1721
 102   0.0000      -0.028988        -0.7888
 103   0.0000      -0.017054        -0.4641
 104   0.0000      -0.000617        -0.0168
 105   0.0000       0.010806         0.2940

MULLIKEN ATOMIC CHARGES
-----------------------
   0 C :   -0.301690
   1 C :   -0.009247
   2 O :   -0.374650
   3 P :    0.632218
   4 S :   -0.327926
   5 O :   -0.374862
   6 C :   -0.009284
   7 C :   -0.319049
   8 S :   -0.089696
   9 C :   -0.331292
  10 S :   -0.076544
  11 P :    0.642776
  12 S :   -0.318263
  13 O :   -0.368473
  14 C :   -0.000634
  15 C :   -0.318049
  16 O :   -0.391609
  17 C :   -0.005236
  18 C :   -0.292939
  19 H :    0.117920
  20 H :    0.106631
  21 H :    0.113010
  22 H :    0.111180
  23 H :    0.107516
  24 H :    0.105935
  25 H :    0.111959
  26 H :    0.113520
  27 H :    0.113714
  28 H :    0.129056
  29 H :    0.177327
  30 H :    0.187884
  31 H :    0.106380
  32 H :    0.111752
  33 H :    0.129650
  34 H :    0.111327
  35 H :    0.126388
  36 H :    0.099675
  37 H :    0.103291
  38 H :    0.109253
  39 H :    0.110449
  40 H :    0.130630
Sum of atomic charges:    0.0000000

LOEWDIN ATOMIC CHARGES
----------------------
   0 C :   -0.363238
   1 C :   -0.126164
   2 O :   -0.242252
   3 P :    0.565929
   4 S :   -0.323565
   5 O :   -0.244724
   6 C :   -0.122498
   7 C :   -0.366257
   8 S :    0.084400
   9 C :   -0.470660
  10 S :    0.106886
  11 P :    0.580642
  12 S :   -0.306085
  13 O :   -0.233781
  14 C :   -0.110790
  15 C :   -0.364811
  16 O :   -0.258561
  17 C :   -0.117662
  18 C :   -0.363264
  19 H :    0.126612
  20 H :    0.128385
  21 H :    0.118005
  22 H :    0.110687
  23 H :    0.106460
  24 H :    0.118597
  25 H :    0.108857
  26 H :    0.119888
  27 H :    0.131943
  28 H :    0.122954
  29 H :    0.132382
  30 H :    0.133710
  31 H :    0.110570
  32 H :    0.121817
  33 H :    0.122684
  34 H :    0.130110
  35 H :    0.131088
  36 H :    0.107399
  37 H :    0.116541
  38 H :    0.129596
  39 H :    0.123342
  40 H :    0.124830

  Mayer bond orders larger than 0.100000
B(  0-C ,  1-C ) :   1.1677 B(  0-C , 19-H ) :   0.9440 B(  0-C , 20-H ) :   0.9395
B(  0-C , 21-H ) :   0.9386 B(  1-C ,  2-O ) :   0.9001 B(  1-C , 22-H ) :   0.9119
B(  1-C , 23-H ) :   0.9152 B(  2-O ,  3-P ) :   1.0997 B(  3-P ,  4-S ) :   1.6294
B(  3-P ,  5-O ) :   1.0689 B(  3-P ,  8-S ) :   0.9983 B(  5-O ,  6-C ) :   0.9144
B(  6-C ,  7-C ) :   1.1644 B(  6-C , 24-H ) :   0.9332 B(  6-C , 25-H ) :   0.9071
B(  7-C , 26-H ) :   0.9419 B(  7-C , 27-H ) :   0.9385 B(  7-C , 28-H ) :   0.9364
B(  8-S ,  9-C ) :   0.9554 B(  9-C , 10-S ) :   1.0171 B(  9-C , 29-H ) :   0.9065
B(  9-C , 30-H ) :   0.9017 B( 10-S , 11-P ) :   0.9593 B( 11-P , 12-S ) :   1.6388
B( 11-P , 13-O ) :   1.1168 B( 11-P , 16-O ) :   1.0445 B( 13-O , 14-C ) :   0.9018
B( 14-C , 15-C ) :   1.1704 B( 14-C , 31-H ) :   0.9251 B( 14-C , 32-H ) :   0.9295
B( 15-C , 33-H ) :   0.9347 B( 15-C , 34-H ) :   0.9368 B( 15-C , 35-H ) :   0.9455
B( 16-O , 17-C ) :   0.9062 B( 17-C , 18-C ) :   1.1690 B( 17-C , 36-H ) :   0.9127
B( 17-C , 37-H ) :   0.9358 B( 18-C , 38-H ) :   0.9397 B( 18-C , 39-H ) :   0.9466
B( 18-C , 40-H ) :   0.9313

Dispersion correction           -0.068862418
FINAL SINGLE POINT ENERGY     -2929.511022067596

DIPOLE MOMENT
-------------

Method             : SCF
Type of density    : Electron Density
Multiplicity       :   1
Irrep              :   0
Energy             : -2929.6291884927759384 Eh
Relativity type    :
Basis              : AO
                                X                 Y                 Z
Electronic contribution:      8.657452102       1.880696121       4.833398882
Nuclear contribution   :     -9.977272896      -2.820632823      -4.201697969
                        -----------------------------------------
Total Dipole Moment    :     -1.319820794      -0.939936702       0.631700913
                        -----------------------------------------
Magnitude (a.u.)       :      1.739095735
Magnitude (Debye)      :      4.420430060

Rotational constants in cm-1:             0.013096             0.005461             0.005170
Rotational constants in MHz :           392.598455           163.705384           155.006768

                             ****ORCA TERMINATED NORMALLY****
TOTAL RUN TIME: 0 days 0 hours 0 minutes 22 seconds 28 msec
