                         Program Version 6.0.0  -   RELEASE  -
|  1> ! pbe def2-sv(p) def2/J RI DEFGRID1 loosescf d4 GCP(DFT/SV(P)) printgap
|  2> %output
|  3>     printlevel normal
|  4> end
|  5> * xyz 0 1
|  6> C 2.6958727828 -1.0987603837 -2.605378066
|  7> C 2.882964788 0.2874584069 -2.0218545995
|  8> O 3.1933401535 0.2115379939 -0.6202335342
|  9> P 2.1678492275 0.3899999199 0.5734240507
| 10> S 1.1645945581 2.0736033645 0.6136815679
| 11> O 3.1186881583 0.3386392052 1.8299207173
| 12> C 3.7710094145 -0.8318503425 2.3822241291
| 13> C 4.5971392927 -1.5896813461 1.3662681915
| 14> S 1.0145636593 -1.39697516 0.6687806094
| 15> C -0.3860646539 -0.7331682232 1.6275076652
| 16> S -2.0013483177 -1.1581632463 0.9380087198
| 17> P -2.0779069099 0.228781736 -0.6805779136
| 18> S -0.6540163437 0.1512057478 -2.0174208356
| 19> O -2.1371231694 1.6848256196 -0.0847386726
| 20> C -3.1556698265 2.2021418889 0.8052708829
| 21> C -2.7002144751 2.1405180197 2.2504945461
| 22> O -3.5646480291 0.0286670633 -1.2053448396
| 23> C -4.1828268598 -1.2420005572 -1.4868439695
| 24> C -3.3562865296 -2.1051252782 -2.4161369222
| 25> H 3.5689208009 -1.7121874366 -2.401962272
| 26> H 1.8137433354 -1.5712772012 -2.1795354425
| 27> H 2.5538952812 -1.0116563791 -3.677414905
| 28> H 1.9873782524 0.8982904917 -2.1686408459
| 29> H 3.7431279596 0.7927860593 -2.4653007342
| 30> H 4.3909843443 -0.4140219721 3.1767142723
| 31> H 3.0011724929 -1.4780364973 2.8117134022
| 32> H 5.2976098719 -0.9201935847 0.8741359097
| 33> H 5.146583755 -2.3763324454 1.8743180345
| 34> H 3.9501585957 -2.0386332452 0.6151077223
| 35> H -0.2786501334 0.3547355659 1.6677304611
| 36> H -0.3686993001 -1.1760445129 2.6198786495
| 37> H -3.2842795031 3.2355898348 0.4793971547
| 38> H -4.0822319627 1.6467686803 0.6486450582
| 39> H -1.7056995207 2.5733809458 2.3392497384
| 40> H -3.3907409185 2.7121125456 2.8624047529
| 41> H -2.678109653 1.1142904303 2.6092247307
| 42> H -4.3553859686 -1.7529663465 -0.5355561308
| 43> H -5.1366828082 -0.9661928684 -1.9401673767
| 44> H -3.9060141909 -3.0109147354 -2.6505030464
| 45> H -3.1340204374 -1.5684627988 -3.3356164889
| 46> H -2.4140734758 -2.3743010406 -1.9402362526
| 47> *
| 48>
| 49>                          ****END OF INPUT****

CARTESIAN COORDINATES (ANGSTROEM)
---------------------------------
  C      2.695873   -1.098760   -2.605378
  C      2.882965    0.287458   -2.021855
  O      3.193340    0.211538   -0.620234
  P      2.167849    0.390000    0.573424
  S      1.164595    2.073603    0.613682
  O      3.118688    0.338639    1.829921
  C      3.771009   -0.831850    2.382224
  C      4.597139   -1.589681    1.366268
  S      1.014564   -1.396975    0.668781
  C     -0.386065   -0.733168    1.627508
  S     -2.001348   -1.158163    0.938009
  P     -2.077907    0.228782   -0.680578
  S     -0.654016    0.151206   -2.017421
  O     -2.137123    1.684826   -0.084739
  C     -3.155670    2.202142    0.805271
  C     -2.700214    2.140518    2.250495
  O     -3.564648    0.028667   -1.205345
  C     -4.182827   -1.242001   -1.486844
  C     -3.356287   -2.105125   -2.416137
  H      3.568921   -1.712187   -2.401962
  H      1.813743   -1.571277   -2.179535
  H      2.553895   -1.011656   -3.677415
  H      1.987378    0.898290   -2.168641
  H      3.743128    0.792786   -2.465301
  H      4.390984   -0.414022    3.176714
  H      3.001172   -1.478036    2.811713
  H      5.297610   -0.920194    0.874136
  H      5.146584   -2.376332    1.874318
  H      3.950159   -2.038633    0.615108
  H     -0.278650    0.354736    1.667730
  H     -0.368699   -1.176045    2.619879
  H     -3.284280    3.235590    0.479397
  H     -4.082232    1.646769    0.648645
  H     -1.705700    2.573381    2.339250
  H     -3.390741    2.712113    2.862405
  H     -2.678110    1.114290    2.609225
  H     -4.355386   -1.752966   -0.535556
  H     -5.136683   -0.966193   -1.940167
  H     -3.906014   -3.010915   -2.650503
  H     -3.134020   -1.568463   -3.335616
  H     -2.414073   -2.374301   -1.940236

 Total Charge           Charge          ....    0
 Multiplicity           Mult            ....    1
 Number of Electrons    NEL             ....  202
 Basis Dimension        Dim             ....  334

ORBITAL ENERGIES
----------------

  NO   OCC          E(Eh)            E(eV)
   0   2.0000     -88.046742     -2395.8737
   1   2.0000     -88.039882     -2395.6870
   2   2.0000     -87.975168     -2393.9260
   3   2.0000     -87.973256     -2393.8740
   4   2.0000     -76.423670     -2079.5938
   5   2.0000     -76.419277     -2079.4742
   6   2.0000     -18.792336      -511.3655
   7   2.0000     -18.787666      -511.2384
   8   2.0000     -18.785504      -511.1796
   9   2.0000     -18.781199      -511.0624
  10   2.0000      -9.960172      -271.0300
  11   2.0000      -9.956894      -270.9409
  12   2.0000      -9.952773      -270.8287
  13   2.0000      -9.952179      -270.8126
  14   2.0000      -9.944216      -270.5959
  15   2.0000      -9.885794      -269.0061
  16   2.0000      -9.883242      -268.9367
  17   2.0000      -9.882823      -268.9253
  18   2.0000      -9.876323      -268.7484
  19   2.0000      -7.691581      -209.2986
  20   2.0000      -7.684458      -209.1047
  21   2.0000      -7.620329      -207.3597
  22   2.0000      -7.618490      -207.3096
  23   2.0000      -6.420672      -174.7154
  24   2.0000      -6.416624      -174.6052
  25   2.0000      -5.719207      -155.6275
  26   2.0000      -5.716053      -155.5417
  27   2.0000      -5.712218      -155.4374
  28   2.0000      -5.709047      -155.3511
  29   2.0000      -5.708880      -155.3465
  30   2.0000      -5.701542      -155.1469
  31   2.0000      -5.649422      -153.7286
  32   2.0000      -5.647550      -153.6776
  33   2.0000      -5.640770      -153.4932
  34   2.0000      -5.640425      -153.4838
  35   2.0000      -5.639234      -153.4514
  36   2.0000      -5.638318      -153.4264
  37   2.0000      -4.643639      -126.3598
  38   2.0000      -4.642827      -126.3377
  39   2.0000      -4.640502      -126.2745
  40   2.0000      -4.639341      -126.2429
  41   2.0000      -4.638598      -126.2227
  42   2.0000      -4.636769      -126.1729
  43   2.0000      -0.985703       -26.8223
  44   2.0000      -0.980361       -26.6770
  45   2.0000      -0.941888       -25.6301
  46   2.0000      -0.938024       -25.5249
  47   2.0000      -0.761481       -20.7210
  48   2.0000      -0.718514       -19.5517
  49   2.0000      -0.710535       -19.3347
  50   2.0000      -0.689423       -18.7602
  51   2.0000      -0.685890       -18.6640
  52   2.0000      -0.676606       -18.4114
  53   2.0000      -0.647406       -17.6168
  54   2.0000      -0.629648       -17.1336
  55   2.0000      -0.592040       -16.1102
  56   2.0000      -0.585736       -15.9387
  57   2.0000      -0.575010       -15.6468
  58   2.0000      -0.570477       -15.5235
  59   2.0000      -0.562849       -15.3159
  60   2.0000      -0.501726       -13.6527
  61   2.0000      -0.492459       -13.4005
  62   2.0000      -0.470587       -12.8053
  63   2.0000      -0.469574       -12.7778
  64   2.0000      -0.454334       -12.3630
  65   2.0000      -0.448229       -12.1969
  66   2.0000      -0.438939       -11.9441
  67   2.0000      -0.434540       -11.8244
  68   2.0000      -0.433658       -11.8004
  69   2.0000      -0.416970       -11.3463
  70   2.0000      -0.411010       -11.1841
  71   2.0000      -0.397736       -10.8229
  72   2.0000      -0.395751       -10.7689
  73   2.0000      -0.384611       -10.4658
  74   2.0000      -0.380781       -10.3616
  75   2.0000      -0.365513        -9.9461
  76   2.0000      -0.354957        -9.6589
  77   2.0000      -0.353854        -9.6289
  78   2.0000      -0.351636        -9.5685
  79   2.0000      -0.349781        -9.5180
  80   2.0000      -0.344209        -9.3664
  81   2.0000      -0.342489        -9.3196
  82   2.0000      -0.340650        -9.2696
  83   2.0000      -0.339611        -9.2413
  84   2.0000      -0.326960        -8.8970
  85   2.0000      -0.317844        -8.6490
  86   2.0000      -0.311356        -8.4724
  87   2.0000      -0.296716        -8.0741
  88   2.0000      -0.290475        -7.9042
  89   2.0000      -0.284676        -7.7464
  90   2.0000      -0.282534        -7.6881
  91   2.0000      -0.273772        -7.4497
  92   2.0000      -0.269165        -7.3244
  93   2.0000      -0.262134        -7.1330
  94   2.0000      -0.255874        -6.9627
  95   2.0000      -0.241014        -6.5583
  96   2.0000      -0.221158        -6.0180
  97   2.0000      -0.200274        -5.4497
  98   2.0000      -0.193660        -5.2698
  99   2.0000      -0.184950        -5.0327
 100   2.0000      -0.177307        -4.8248
 101   0.0000      -0.040421        -1.0999
 102   0.0000      -0.030406        -0.8274
 103   0.0000      -0.016963        -0.4616
 104   0.0000       0.001644         0.0447
 105   0.0000       0.023413         0.6371

MULLIKEN ATOMIC CHARGES
-----------------------
   0 C :   -0.314231
   1 C :   -0.011906
   2 O :   -0.372682
   3 P :    0.599528
   4 S :   -0.298301
   5 O :   -0.361655
   6 C :    0.003379
   7 C :   -0.312112
   8 S :   -0.104259
   9 C :   -0.350813
  10 S :   -0.132710
  11 P :    0.610026
  12 S :   -0.307469
  13 O :   -0.344482
  14 C :   -0.004857
  15 C :   -0.312145
  16 O :   -0.380830
  17 C :   -0.014737
  18 C :   -0.310037
  19 H :    0.110844
  20 H :    0.138973
  21 H :    0.111222
  22 H :    0.131576
  23 H :    0.103624
  24 H :    0.108683
  25 H :    0.100287
  26 H :    0.124604
  27 H :    0.111465
  28 H :    0.121383
  29 H :    0.206759
  30 H :    0.179764
  31 H :    0.111984
  32 H :    0.100215
  33 H :    0.139908
  34 H :    0.109817
  35 H :    0.116783
  36 H :    0.114005
  37 H :    0.110822
  38 H :    0.110467
  39 H :    0.128904
  40 H :    0.128203
Sum of atomic charges:   -0.0000000

LOEWDIN ATOMIC CHARGES
----------------------
   0 C :   -0.366229
   1 C :   -0.115629
   2 O :   -0.234369
   3 P :    0.568291
   4 S :   -0.301382
   5 O :   -0.242107
   6 C :   -0.114636
   7 C :   -0.367117
   8 S :    0.070117
   9 C :   -0.481833
  10 S :    0.061012
  11 P :    0.567083
  12 S :   -0.298346
  13 O :   -0.225402
  14 C :   -0.110035
  15 C :   -0.367300
  16 O :   -0.246022
  17 C :   -0.114977
  18 C :   -0.370821
  19 H :    0.121537
  20 H :    0.121731
  21 H :    0.131589
  22 H :    0.111598
  23 H :    0.118103
  24 H :    0.121554
  25 H :    0.105312
  26 H :    0.129608
  27 H :    0.130209
  28 H :    0.117846
  29 H :    0.122751
  30 H :    0.134933
  31 H :    0.123589
  32 H :    0.108138
  33 H :    0.132833
  34 H :    0.129581
  35 H :    0.116433
  36 H :    0.107314
  37 H :    0.122111
  38 H :    0.129667
  39 H :    0.131240
  40 H :    0.122026

  Mayer bond orders larger than 0.100000
B(  0-C ,  1-C ) :   1.1707 B(  0-C , 19-H ) :   0.9450 B(  0-C , 20-H ) :   0.9316
B(  0-C , 21-H ) :   0.9404 B(  1-C ,  2-O ) :   0.8960 B(  1-C , 22-H ) :   0.9036
B(  1-C , 23-H ) :   0.9335 B(  2-O ,  3-P ) :   1.1156 B(  3-P ,  4-S ) :   1.6393
B(  3-P ,  5-O ) :   1.1267 B(  3-P ,  8-S ) :   0.9346 B(  4-S ,  8-S ) :   0.1149
B(  4-S , 29-H ) :   0.1156 B(  5-O ,  6-C ) :   0.9094 B(  6-C ,  7-C ) :   1.1708
B(  6-C , 24-H ) :   0.9343 B(  6-C , 25-H ) :   0.9202 B(  7-C , 26-H ) :   0.9432
B(  7-C , 27-H ) :   0.9353 B(  7-C , 28-H ) :   0.9378 B(  8-S ,  9-C ) :   0.9964
B(  9-C , 10-S ) :   0.9982 B(  9-C , 29-H ) :   0.8362 B(  9-C , 30-H ) :   0.9110
B( 10-S , 11-P ) :   0.9307 B( 10-S , 12-S ) :   0.1142 B( 11-P , 12-S ) :   1.6701
B( 11-P , 13-O ) :   1.1416 B( 11-P , 16-O ) :   1.0827 B( 13-O , 14-C ) :   0.9001
B( 14-C , 15-C ) :   1.1708 B( 14-C , 31-H ) :   0.9347 B( 14-C , 32-H ) :   0.9195
B( 15-C , 33-H ) :   0.9344 B( 15-C , 34-H ) :   0.9384 B( 15-C , 35-H ) :   0.9340
B( 16-O , 17-C ) :   0.9133 B( 17-C , 18-C ) :   1.1677 B( 17-C , 36-H ) :   0.9259
B( 17-C , 37-H ) :   0.9332 B( 18-C , 38-H ) :   0.9340 B( 18-C , 39-H ) :   0.9416
B( 18-C , 40-H ) :   0.9313

Dispersion correction           -0.067617264
FINAL SINGLE POINT ENERGY     -2929.507332722894

DIPOLE MOMENT
-------------

Method             : SCF
Type of density    : Electron Density
Multiplicity       :   1
Irrep              :   0
Energy             : -2929.6251077012657333 Eh
Relativity type    :
Basis              : AO
                                X                 Y                 Z
Electronic contribution:     -1.229514952       7.795851915       1.221759461
Nuclear contribution   :      0.616992031      -8.993934876      -0.583445001
                        -----------------------------------------
Total Dipole Moment    :     -0.612522921      -1.198082962       0.638314460
                        -----------------------------------------
Magnitude (a.u.)       :      1.489306033
Magnitude (Debye)      :      3.785515097

Rotational constants in cm-1:             0.012287             0.005410             0.004887
Rotational constants in MHz :           368.358324           162.192288           146.517426

                             ****ORCA TERMINATED NORMALLY****
TOTAL RUN TIME: 0 days 0 hours 0 minutes 21 seconds 380 msec
