                         Program Version 6.0.0  -   RELEASE  -
|  1> ! pbe def2-sv(p) def2/J RI DEFGRID1 loosescf d4 GCP(DFT/SV(P)) printgap
|  2> %output
|  3>     printlevel normal
|  4> end
|  5> * xyz 0 1
|  6> C 1.0809842663 -2.2087650771 1.8141203874
|  7> C 2.1571888713 -2.203554077 0.7455317079
|  8> O 2.853516712 -0.9456494566 0.7463790432
|  9> P 2.7234997912 0.1392952698 -0.412808938
| 10> S 2.9244561322 -0.5975781343 -2.2159288206
| 11> O 3.8793343088 1.1394466789 -0.0510958694
| 12> C 3.8563903357 2.1427233417 0.9952885341
| 13> C 3.5302987546 1.5644186859 2.354627761
| 14> S 0.9243218116 1.2476711155 -0.0751125223
| 15> C -0.0390018257 0.622343934 -1.4663747799
| 16> S -0.8418805943 -0.9687938571 -1.1231239915
| 17> P -2.4134805003 -0.1650304517 0.029797575
| 18> S -3.2790246371 1.465189088 -0.6478832417
| 19> O -1.6870436799 -0.0581022109 1.4322364037
| 20> C -2.2234255334 0.7285358675 2.5229123383
| 21> C -1.5452168076 2.0826188279 2.5814856904
| 22> O -3.4121419921 -1.3739416835 0.2913191472
| 23> C -4.5110739095 -1.6734331697 -0.5857910924
| 24> C -4.0386255446 -2.2010097064 -1.9251894254
| 25> H 1.5222637463 -2.0061383085 2.7857962341
| 26> H 0.326165247 -1.4542644389 1.6057591946
| 27> H 0.6036918471 -3.183240206 1.8311972276
| 28> H 1.7379036936 -2.3887129092 -0.2494179015
| 29> H 2.9212923178 -2.9553376582 0.9544331157
| 30> H 4.8654563582 2.5561124182 0.9625342217
| 31> H 3.1307408588 2.9096507549 0.7129052729
| 32> H 3.6168876684 2.3462764137 3.1028028523
| 33> H 2.5130158533 1.1780450264 2.3614393092
| 34> H 4.2159209966 0.7561083347 2.5945643073
| 35> H 0.6239784029 0.4614824479 -2.3178913372
| 36> H -0.8040695672 1.3670339549 -1.6879537568
| 37> H -3.3036818703 0.8356483193 2.3933081264
| 38> H -2.0177233357 0.136939802 3.416099298
| 39> H -1.7723124881 2.6558251487 1.6851836844
| 40> H -1.9034603598 2.6253166894 3.4501520271
| 41> H -0.4680011699 1.9602388272 2.6474677663
| 42> H -5.0881504195 -2.4199446775 -0.0385428948
| 43> H -5.1068430095 -0.7644221472 -0.718405547
| 44> H -3.3610348157 -3.0392674761 -1.7834247717
| 45> H -4.8951839573 -2.5234578855 -2.5084314666
| 46> H -3.5150995142 -1.4172510126 -2.4716506479
| 47> *
| 48>
| 49>                          ****END OF INPUT****

CARTESIAN COORDINATES (ANGSTROEM)
---------------------------------
  C      1.080984   -2.208765    1.814120
  C      2.157189   -2.203554    0.745532
  O      2.853517   -0.945649    0.746379
  P      2.723500    0.139295   -0.412809
  S      2.924456   -0.597578   -2.215929
  O      3.879334    1.139447   -0.051096
  C      3.856390    2.142723    0.995289
  C      3.530299    1.564419    2.354628
  S      0.924322    1.247671   -0.075113
  C     -0.039002    0.622344   -1.466375
  S     -0.841881   -0.968794   -1.123124
  P     -2.413481   -0.165030    0.029798
  S     -3.279025    1.465189   -0.647883
  O     -1.687044   -0.058102    1.432236
  C     -2.223426    0.728536    2.522912
  C     -1.545217    2.082619    2.581486
  O     -3.412142   -1.373942    0.291319
  C     -4.511074   -1.673433   -0.585791
  C     -4.038626   -2.201010   -1.925189
  H      1.522264   -2.006138    2.785796
  H      0.326165   -1.454264    1.605759
  H      0.603692   -3.183240    1.831197
  H      1.737904   -2.388713   -0.249418
  H      2.921292   -2.955338    0.954433
  H      4.865456    2.556112    0.962534
  H      3.130741    2.909651    0.712905
  H      3.616888    2.346276    3.102803
  H      2.513016    1.178045    2.361439
  H      4.215921    0.756108    2.594564
  H      0.623978    0.461482   -2.317891
  H     -0.804070    1.367034   -1.687954
  H     -3.303682    0.835648    2.393308
  H     -2.017723    0.136940    3.416099
  H     -1.772312    2.655825    1.685184
  H     -1.903460    2.625317    3.450152
  H     -0.468001    1.960239    2.647468
  H     -5.088150   -2.419945   -0.038543
  H     -5.106843   -0.764422   -0.718406
  H     -3.361035   -3.039267   -1.783425
  H     -4.895184   -2.523458   -2.508431
  H     -3.515100   -1.417251   -2.471651

 Total Charge           Charge          ....    0
 Multiplicity           Mult            ....    1
 Number of Electrons    NEL             ....  202
 Basis Dimension        Dim             ....  334

ORBITAL ENERGIES
----------------

  NO   OCC          E(Eh)            E(eV)
   0   2.0000     -88.048182     -2395.9128
   1   2.0000     -88.044001     -2395.7991
   2   2.0000     -87.994783     -2394.4598
   3   2.0000     -87.984495     -2394.1798
   4   2.0000     -76.432343     -2079.8298
   5   2.0000     -76.426603     -2079.6736
   6   2.0000     -18.798819      -511.5419
   7   2.0000     -18.796195      -511.4705
   8   2.0000     -18.794772      -511.4317
   9   2.0000     -18.787670      -511.2385
  10   2.0000      -9.961822      -271.0750
  11   2.0000      -9.958633      -270.9882
  12   2.0000      -9.956565      -270.9319
  13   2.0000      -9.953678      -270.8534
  14   2.0000      -9.946787      -270.6658
  15   2.0000      -9.892966      -269.2013
  16   2.0000      -9.887660      -269.0569
  17   2.0000      -9.884904      -268.9819
  18   2.0000      -9.876680      -268.7581
  19   2.0000      -7.693174      -209.3419
  20   2.0000      -7.688761      -209.2218
  21   2.0000      -7.639618      -207.8846
  22   2.0000      -7.629737      -207.6157
  23   2.0000      -6.430098      -174.9719
  24   2.0000      -6.424058      -174.8075
  25   2.0000      -5.720933      -155.6745
  26   2.0000      -5.717864      -155.5910
  27   2.0000      -5.716574      -155.5559
  28   2.0000      -5.713212      -155.4644
  29   2.0000      -5.710066      -155.3788
  30   2.0000      -5.705906      -155.2656
  31   2.0000      -5.668409      -154.2453
  32   2.0000      -5.660367      -154.0264
  33   2.0000      -5.659813      -154.0113
  34   2.0000      -5.658740      -153.9821
  35   2.0000      -5.650376      -153.7545
  36   2.0000      -5.649740      -153.7372
  37   2.0000      -4.652649      -126.6050
  38   2.0000      -4.651779      -126.5814
  39   2.0000      -4.650612      -126.5496
  40   2.0000      -4.646745      -126.4444
  41   2.0000      -4.645818      -126.4191
  42   2.0000      -4.644422      -126.3811
  43   2.0000      -0.992954       -27.0197
  44   2.0000      -0.986978       -26.8570
  45   2.0000      -0.951342       -25.8873
  46   2.0000      -0.944122       -25.6909
  47   2.0000      -0.767145       -20.8751
  48   2.0000      -0.725159       -19.7326
  49   2.0000      -0.714070       -19.4308
  50   2.0000      -0.691442       -18.8151
  51   2.0000      -0.689190       -18.7538
  52   2.0000      -0.678340       -18.4586
  53   2.0000      -0.652598       -17.7581
  54   2.0000      -0.639595       -17.4043
  55   2.0000      -0.603908       -16.4332
  56   2.0000      -0.596817       -16.2402
  57   2.0000      -0.579051       -15.7568
  58   2.0000      -0.571420       -15.5491
  59   2.0000      -0.559875       -15.2350
  60   2.0000      -0.506221       -13.7750
  61   2.0000      -0.497803       -13.5459
  62   2.0000      -0.477807       -13.0018
  63   2.0000      -0.475198       -12.9308
  64   2.0000      -0.464715       -12.6455
  65   2.0000      -0.448209       -12.1964
  66   2.0000      -0.445149       -12.1131
  67   2.0000      -0.438743       -11.9388
  68   2.0000      -0.430924       -11.7260
  69   2.0000      -0.421809       -11.4780
  70   2.0000      -0.407208       -11.0807
  71   2.0000      -0.402214       -10.9448
  72   2.0000      -0.398353       -10.8397
  73   2.0000      -0.384973       -10.4756
  74   2.0000      -0.384094       -10.4517
  75   2.0000      -0.379448       -10.3253
  76   2.0000      -0.366210        -9.9651
  77   2.0000      -0.360406        -9.8071
  78   2.0000      -0.357898        -9.7389
  79   2.0000      -0.354658        -9.6507
  80   2.0000      -0.353158        -9.6099
  81   2.0000      -0.348053        -9.4710
  82   2.0000      -0.344620        -9.3776
  83   2.0000      -0.341032        -9.2799
  84   2.0000      -0.330217        -8.9857
  85   2.0000      -0.321816        -8.7571
  86   2.0000      -0.313618        -8.5340
  87   2.0000      -0.301228        -8.1968
  88   2.0000      -0.293707        -7.9922
  89   2.0000      -0.292764        -7.9665
  90   2.0000      -0.288171        -7.8415
  91   2.0000      -0.283454        -7.7132
  92   2.0000      -0.276947        -7.5361
  93   2.0000      -0.269432        -7.3316
  94   2.0000      -0.256869        -6.9898
  95   2.0000      -0.237599        -6.4654
  96   2.0000      -0.221751        -6.0341
  97   2.0000      -0.215605        -5.8669
  98   2.0000      -0.207368        -5.6428
  99   2.0000      -0.204561        -5.5664
 100   2.0000      -0.199180        -5.4200
 101   0.0000      -0.047887        -1.3031
 102   0.0000      -0.031219        -0.8495
 103   0.0000      -0.011534        -0.3138
 104   0.0000      -0.001817        -0.0494
 105   0.0000       0.010195         0.2774

MULLIKEN ATOMIC CHARGES
-----------------------
   0 C :   -0.320534
   1 C :   -0.004835
   2 O :   -0.373146
   3 P :    0.599356
   4 S :   -0.308616
   5 O :   -0.359115
   6 C :   -0.008759
   7 C :   -0.325334
   8 S :   -0.117655
   9 C :   -0.359983
  10 S :   -0.069808
  11 P :    0.608508
  12 S :   -0.332427
  13 O :   -0.358289
  14 C :    0.002228
  15 C :   -0.301995
  16 O :   -0.370825
  17 C :   -0.005195
  18 C :   -0.319366
  19 H :    0.104571
  20 H :    0.149348
  21 H :    0.104594
  22 H :    0.104025
  23 H :    0.104289
  24 H :    0.115843
  25 H :    0.117371
  26 H :    0.115826
  27 H :    0.136354
  28 H :    0.127565
  29 H :    0.199112
  30 H :    0.191239
  31 H :    0.104697
  32 H :    0.108748
  33 H :    0.124617
  34 H :    0.108620
  35 H :    0.124691
  36 H :    0.106810
  37 H :    0.112601
  38 H :    0.119258
  39 H :    0.115930
  40 H :    0.129678
Sum of atomic charges:    0.0000000

LOEWDIN ATOMIC CHARGES
----------------------
   0 C :   -0.369376
   1 C :   -0.118203
   2 O :   -0.245532
   3 P :    0.569966
   4 S :   -0.304735
   5 O :   -0.233489
   6 C :   -0.112096
   7 C :   -0.368249
   8 S :    0.073670
   9 C :   -0.488661
  10 S :    0.107070
  11 P :    0.573048
  12 S :   -0.321801
  13 O :   -0.236324
  14 C :   -0.110626
  15 C :   -0.363906
  16 O :   -0.244079
  17 C :   -0.119604
  18 C :   -0.369167
  19 H :    0.120787
  20 H :    0.119853
  21 H :    0.128161
  22 H :    0.101382
  23 H :    0.117274
  24 H :    0.125329
  25 H :    0.111394
  26 H :    0.132344
  27 H :    0.119424
  28 H :    0.131672
  29 H :    0.129412
  30 H :    0.128507
  31 H :    0.110573
  32 H :    0.119775
  33 H :    0.124327
  34 H :    0.128843
  35 H :    0.122284
  36 H :    0.119453
  37 H :    0.110922
  38 H :    0.125304
  39 H :    0.132603
  40 H :    0.122469

  Mayer bond orders larger than 0.100000
B(  0-C ,  1-C ) :   1.1646 B(  0-C , 19-H ) :   0.9455 B(  0-C , 20-H ) :   0.9205
B(  0-C , 21-H ) :   0.9407 B(  1-C ,  2-O ) :   0.9038 B(  1-C , 22-H ) :   0.9023
B(  1-C , 23-H ) :   0.9350 B(  2-O ,  3-P ) :   1.0908 B(  3-P ,  4-S ) :   1.6399
B(  3-P ,  5-O ) :   1.1543 B(  3-P ,  8-S ) :   0.9292 B(  4-S ,  8-S ) :   0.1114
B(  4-S , 29-H ) :   0.1026 B(  5-O ,  6-C ) :   0.9012 B(  6-C ,  7-C ) :   1.1680
B(  6-C , 24-H ) :   0.9340 B(  6-C , 25-H ) :   0.9218 B(  7-C , 26-H ) :   0.9345
B(  7-C , 27-H ) :   0.9334 B(  7-C , 28-H ) :   0.9415 B(  8-S ,  9-C ) :   1.0205
B(  9-C , 10-S ) :   0.9999 B(  9-C , 29-H ) :   0.8579 B(  9-C , 30-H ) :   0.8672
B( 10-S , 11-P ) :   0.9666 B( 10-S , 12-S ) :   0.1074 B( 11-P , 12-S ) :   1.5849
B( 11-P , 13-O ) :   1.1235 B( 11-P , 16-O ) :   1.1177 B( 13-O , 14-C ) :   0.8836
B( 14-C , 15-C ) :   1.1719 B( 14-C , 31-H ) :   0.9150 B( 14-C , 32-H ) :   0.9335
B( 15-C , 33-H ) :   0.9363 B( 15-C , 34-H ) :   0.9387 B( 15-C , 35-H ) :   0.9423
B( 16-O , 17-C ) :   0.9067 B( 17-C , 18-C ) :   1.1644 B( 17-C , 36-H ) :   0.9334
B( 17-C , 37-H ) :   0.9153 B( 18-C , 38-H ) :   0.9452 B( 18-C , 39-H ) :   0.9381
B( 18-C , 40-H ) :   0.9353

Dispersion correction           -0.065675402
FINAL SINGLE POINT ENERGY     -2929.521519543695

DIPOLE MOMENT
-------------

Method             : SCF
Type of density    : Electron Density
Multiplicity       :   1
Irrep              :   0
Energy             : -2929.6414661241583417 Eh
Relativity type    :
Basis              : AO
                                X                 Y                 Z
Electronic contribution:      5.367423844       2.089528377     -16.387698109
Nuclear contribution   :     -6.022422100      -2.245768206      18.065641697
                        -----------------------------------------
Total Dipole Moment    :     -0.654998256      -0.156239828       1.677943587
                        -----------------------------------------
Magnitude (a.u.)       :      1.808017777
Magnitude (Debye)      :      4.595615970

Rotational constants in cm-1:             0.012331             0.005039             0.004527
Rotational constants in MHz :           369.673258           151.078889           135.725356

                             ****ORCA TERMINATED NORMALLY****
TOTAL RUN TIME: 0 days 0 hours 0 minutes 21 seconds 783 msec
