                         Program Version 6.0.0  -   RELEASE  -
|  1> ! pbe def2-sv(p) def2/J RI DEFGRID1 loosescf d4 GCP(DFT/SV(P)) printgap
|  2> %output
|  3>     printlevel normal
|  4> end
|  5> * xyz 0 1
|  6> C 4.6063767458 -1.051455395 -1.9024928546
|  7> C 3.8195720058 -2.0984711736 -1.1414284317
|  8> O 3.1832021537 -1.5741435681 0.03776823
|  9> P 2.2512758769 -0.2906482145 0.095958153
| 10> S 3.1188595988 1.4738157731 0.0987759159
| 11> O 1.4112401225 -0.601296481 1.4062371884
| 12> C 1.7323688709 -0.0143793056 2.6821105027
| 13> C 2.9922945006 -0.6239369786 3.2589532802
| 14> S 0.8212769016 -0.6398186009 -1.4246730445
| 15> C 0.1210739265 1.0312766033 -1.4144819009
| 16> S -0.7913018349 1.410628024 0.096869993
| 17> P -2.6387744325 0.429774595 -0.3716702069
| 18> S -2.8865198149 0.0369198392 -2.2736844344
| 19> O -3.7909750263 1.3792666265 0.1237376163
| 20> C -4.1781446854 1.6122732187 1.5001349881
| 21> C -3.0795566642 2.26800412 2.3092133844
| 22> O -2.7620937795 -0.764786893 0.6762934913
| 23> C -1.848472998 -1.8636483972 0.8241717616
| 24> C -1.9362445136 -2.8497285339 -0.3230457287
| 25> H 3.9346922939 -0.2918861027 -2.3010187876
| 26> H 5.3258471522 -0.5651351641 -1.2477917523
| 27> H 5.1322678999 -1.5232585814 -2.7263163499
| 28> H 4.4715754737 -2.8832662192 -0.7536291696
| 29> H 3.046303209 -2.5388960767 -1.7771725472
| 30> H 1.8454630585 1.0667530191 2.551348174
| 31> H 0.8582473779 -0.2226242132 3.3000878191
| 32> H 3.181032784 -0.2060140496 4.2426533159
| 33> H 2.8879989055 -1.7028904895 3.3340502328
| 34> H 3.8363546078 -0.3983305191 2.6078240666
| 35> H -0.5528099107 1.0911544925 -2.2699293609
| 36> H 0.9289825252 1.7597837194 -1.4822929232
| 37> H -5.0486866627 2.2629396023 1.4044239412
| 38> H -4.4732958543 0.6571809497 1.9379887595
| 39> H -3.4575375704 2.4986892263 3.3003947838
| 40> H -2.2253058623 1.5995034046 2.4031025714
| 41> H -2.749666324 3.1857759625 1.8290471914
| 42> H -0.8311684533 -1.4733271324 0.9259259972
| 43> H -2.1548222547 -2.3261790735 1.7647298703
| 44> H -1.2993785397 -3.7020518753 -0.1091283172
| 45> H -2.9615521586 -3.1871432553 -0.4510293824
| 46> H -1.6048559627 -2.3882978632 -1.2514103816
| 47> *
| 48>
| 49>                          ****END OF INPUT****

CARTESIAN COORDINATES (ANGSTROEM)
---------------------------------
  C      4.606377   -1.051455   -1.902493
  C      3.819572   -2.098471   -1.141428
  O      3.183202   -1.574144    0.037768
  P      2.251276   -0.290648    0.095958
  S      3.118860    1.473816    0.098776
  O      1.411240   -0.601296    1.406237
  C      1.732369   -0.014379    2.682111
  C      2.992295   -0.623937    3.258953
  S      0.821277   -0.639819   -1.424673
  C      0.121074    1.031277   -1.414482
  S     -0.791302    1.410628    0.096870
  P     -2.638774    0.429775   -0.371670
  S     -2.886520    0.036920   -2.273684
  O     -3.790975    1.379267    0.123738
  C     -4.178145    1.612273    1.500135
  C     -3.079557    2.268004    2.309213
  O     -2.762094   -0.764787    0.676293
  C     -1.848473   -1.863648    0.824172
  C     -1.936245   -2.849729   -0.323046
  H      3.934692   -0.291886   -2.301019
  H      5.325847   -0.565135   -1.247792
  H      5.132268   -1.523259   -2.726316
  H      4.471575   -2.883266   -0.753629
  H      3.046303   -2.538896   -1.777173
  H      1.845463    1.066753    2.551348
  H      0.858247   -0.222624    3.300088
  H      3.181033   -0.206014    4.242653
  H      2.887999   -1.702890    3.334050
  H      3.836355   -0.398331    2.607824
  H     -0.552810    1.091154   -2.269929
  H      0.928983    1.759784   -1.482293
  H     -5.048687    2.262940    1.404424
  H     -4.473296    0.657181    1.937989
  H     -3.457538    2.498689    3.300395
  H     -2.225306    1.599503    2.403103
  H     -2.749666    3.185776    1.829047
  H     -0.831168   -1.473327    0.925926
  H     -2.154822   -2.326179    1.764730
  H     -1.299379   -3.702052   -0.109128
  H     -2.961552   -3.187143   -0.451029
  H     -1.604856   -2.388298   -1.251410

 Total Charge           Charge          ....    0
 Multiplicity           Mult            ....    1
 Number of Electrons    NEL             ....  202
 Basis Dimension        Dim             ....  334

ORBITAL ENERGIES
----------------

  NO   OCC          E(Eh)            E(eV)
   0   2.0000     -88.048013     -2395.9082
   1   2.0000     -88.041709     -2395.7367
   2   2.0000     -87.992163     -2394.3885
   3   2.0000     -87.983333     -2394.1482
   4   2.0000     -76.432095     -2079.8230
   5   2.0000     -76.426261     -2079.6643
   6   2.0000     -18.798270      -511.5269
   7   2.0000     -18.794010      -511.4110
   8   2.0000     -18.792065      -511.3581
   9   2.0000     -18.791514      -511.3431
  10   2.0000      -9.962871      -271.1035
  11   2.0000      -9.958496      -270.9844
  12   2.0000      -9.953543      -270.8497
  13   2.0000      -9.952058      -270.8093
  14   2.0000      -9.948832      -270.7215
  15   2.0000      -9.893120      -269.2055
  16   2.0000      -9.887125      -269.0423
  17   2.0000      -9.886022      -269.0123
  18   2.0000      -9.875263      -268.7196
  19   2.0000      -7.692766      -209.3308
  20   2.0000      -7.686208      -209.1523
  21   2.0000      -7.637018      -207.8138
  22   2.0000      -7.628542      -207.5832
  23   2.0000      -6.429346      -174.9514
  24   2.0000      -6.423405      -174.7897
  25   2.0000      -5.720476      -155.6621
  26   2.0000      -5.717314      -155.5760
  27   2.0000      -5.714129      -155.4893
  28   2.0000      -5.710667      -155.3952
  29   2.0000      -5.709909      -155.3745
  30   2.0000      -5.703314      -155.1951
  31   2.0000      -5.665881      -154.1765
  32   2.0000      -5.657736      -153.9548
  33   2.0000      -5.657598      -153.9511
  34   2.0000      -5.657175      -153.9396
  35   2.0000      -5.648913      -153.7147
  36   2.0000      -5.648761      -153.7106
  37   2.0000      -4.651826      -126.5826
  38   2.0000      -4.651296      -126.5682
  39   2.0000      -4.649756      -126.5263
  40   2.0000      -4.646289      -126.4320
  41   2.0000      -4.645179      -126.4017
  42   2.0000      -4.643651      -126.3602
  43   2.0000      -0.991890       -26.9907
  44   2.0000      -0.987515       -26.8717
  45   2.0000      -0.950585       -25.8667
  46   2.0000      -0.942418       -25.6445
  47   2.0000      -0.765582       -20.8326
  48   2.0000      -0.723698       -19.6928
  49   2.0000      -0.713093       -19.4042
  50   2.0000      -0.691889       -18.8273
  51   2.0000      -0.688855       -18.7447
  52   2.0000      -0.677229       -18.4284
  53   2.0000      -0.654081       -17.7985
  54   2.0000      -0.639873       -17.4118
  55   2.0000      -0.602200       -16.3867
  56   2.0000      -0.592382       -16.1195
  57   2.0000      -0.578927       -15.7534
  58   2.0000      -0.577899       -15.7254
  59   2.0000      -0.563471       -15.3328
  60   2.0000      -0.502479       -13.6731
  61   2.0000      -0.493891       -13.4395
  62   2.0000      -0.474843       -12.9211
  63   2.0000      -0.472189       -12.8489
  64   2.0000      -0.462398       -12.5825
  65   2.0000      -0.448944       -12.2164
  66   2.0000      -0.442714       -12.0469
  67   2.0000      -0.438596       -11.9348
  68   2.0000      -0.425167       -11.5694
  69   2.0000      -0.424230       -11.5439
  70   2.0000      -0.416536       -11.3345
  71   2.0000      -0.400915       -10.9095
  72   2.0000      -0.395771       -10.7695
  73   2.0000      -0.391130       -10.6432
  74   2.0000      -0.384913       -10.4740
  75   2.0000      -0.380240       -10.3468
  76   2.0000      -0.366269        -9.9667
  77   2.0000      -0.357291        -9.7224
  78   2.0000      -0.352381        -9.5888
  79   2.0000      -0.351562        -9.5665
  80   2.0000      -0.350941        -9.5496
  81   2.0000      -0.346143        -9.4190
  82   2.0000      -0.345277        -9.3955
  83   2.0000      -0.339775        -9.2458
  84   2.0000      -0.332360        -9.0440
  85   2.0000      -0.324019        -8.8170
  86   2.0000      -0.312584        -8.5058
  87   2.0000      -0.300648        -8.1811
  88   2.0000      -0.296729        -8.0744
  89   2.0000      -0.293873        -7.9967
  90   2.0000      -0.287235        -7.8161
  91   2.0000      -0.279850        -7.6151
  92   2.0000      -0.275872        -7.5069
  93   2.0000      -0.265926        -7.2362
  94   2.0000      -0.258249        -7.0273
  95   2.0000      -0.237807        -6.4711
  96   2.0000      -0.218896        -5.9565
  97   2.0000      -0.212148        -5.7728
  98   2.0000      -0.206500        -5.6192
  99   2.0000      -0.200163        -5.4467
 100   2.0000      -0.198040        -5.3889
 101   0.0000      -0.047178        -1.2838
 102   0.0000      -0.028719        -0.7815
 103   0.0000      -0.007196        -0.1958
 104   0.0000      -0.002895        -0.0788
 105   0.0000       0.006623         0.1802

MULLIKEN ATOMIC CHARGES
-----------------------
   0 C :   -0.312229
   1 C :   -0.011968
   2 O :   -0.372849
   3 P :    0.612342
   4 S :   -0.327957
   5 O :   -0.355409
   6 C :   -0.005419
   7 C :   -0.302858
   8 S :   -0.093959
   9 C :   -0.345889
  10 S :   -0.114652
  11 P :    0.620002
  12 S :   -0.313155
  13 O :   -0.360743
  14 C :    0.006000
  15 C :   -0.333935
  16 O :   -0.383913
  17 C :   -0.040342
  18 C :   -0.304010
  19 H :    0.127085
  20 H :    0.126987
  21 H :    0.113993
  22 H :    0.110709
  23 H :    0.116125
  24 H :    0.115054
  25 H :    0.101532
  26 H :    0.112110
  27 H :    0.114383
  28 H :    0.124124
  29 H :    0.195997
  30 H :    0.193620
  31 H :    0.112555
  32 H :    0.111525
  33 H :    0.117702
  34 H :    0.128521
  35 H :    0.131729
  36 H :    0.138615
  37 H :    0.097134
  38 H :    0.103438
  39 H :    0.113193
  40 H :    0.134814
Sum of atomic charges:   -0.0000000

LOEWDIN ATOMIC CHARGES
----------------------
   0 C :   -0.369655
   1 C :   -0.113528
   2 O :   -0.243614
   3 P :    0.573108
   4 S :   -0.314275
   5 O :   -0.236532
   6 C :   -0.120390
   7 C :   -0.363516
   8 S :    0.093628
   9 C :   -0.487225
  10 S :    0.077312
  11 P :    0.569676
  12 S :   -0.300767
  13 O :   -0.235766
  14 C :   -0.108503
  15 C :   -0.371146
  16 O :   -0.246678
  17 C :   -0.124930
  18 C :   -0.367927
  19 H :    0.121806
  20 H :    0.129898
  21 H :    0.131317
  22 H :    0.122270
  23 H :    0.110894
  24 H :    0.109738
  25 H :    0.115902
  26 H :    0.130431
  27 H :    0.125463
  28 H :    0.123518
  29 H :    0.129100
  30 H :    0.130005
  31 H :    0.123782
  32 H :    0.115265
  33 H :    0.133649
  34 H :    0.116294
  35 H :    0.130552
  36 H :    0.106149
  37 H :    0.115403
  38 H :    0.127535
  39 H :    0.125319
  40 H :    0.116439

  Mayer bond orders larger than 0.100000
B(  0-C ,  1-C ) :   1.1645 B(  0-C , 19-H ) :   0.9331 B(  0-C , 20-H ) :   0.9426
B(  0-C , 21-H ) :   0.9348 B(  1-C ,  2-O ) :   0.9119 B(  1-C , 22-H ) :   0.9339
B(  1-C , 23-H ) :   0.9280 B(  2-O ,  3-P ) :   1.1151 B(  3-P ,  4-S ) :   1.5974
B(  3-P ,  5-O ) :   1.1101 B(  3-P ,  8-S ) :   0.9541 B(  4-S ,  8-S ) :   0.1081
B(  5-O ,  6-C ) :   0.9004 B(  6-C ,  7-C ) :   1.1639 B(  6-C , 24-H ) :   0.9119
B(  6-C , 25-H ) :   0.9328 B(  7-C , 26-H ) :   0.9398 B(  7-C , 27-H ) :   0.9465
B(  7-C , 28-H ) :   0.9357 B(  8-S ,  9-C ) :   0.9990 B(  9-C , 10-S ) :   1.0172
B(  9-C , 29-H ) :   0.8621 B(  9-C , 30-H ) :   0.8733 B( 10-S , 11-P ) :   0.9300
B( 10-S , 12-S ) :   0.1137 B( 11-P , 12-S ) :   1.6502 B( 11-P , 13-O ) :   1.1435
B( 11-P , 16-O ) :   1.0749 B( 13-O , 14-C ) :   0.9008 B( 14-C , 15-C ) :   1.1694
B( 14-C , 31-H ) :   0.9336 B( 14-C , 32-H ) :   0.9267 B( 15-C , 33-H ) :   0.9356
B( 15-C , 34-H ) :   0.9318 B( 15-C , 35-H ) :   0.9425 B( 16-O , 17-C ) :   0.9070
B( 17-C , 18-C ) :   1.1675 B( 17-C , 36-H ) :   0.8973 B( 17-C , 37-H ) :   0.9345
B( 18-C , 38-H ) :   0.9382 B( 18-C , 39-H ) :   0.9451 B( 18-C , 40-H ) :   0.9281

Dispersion correction           -0.066180137
FINAL SINGLE POINT ENERGY     -2929.520068847041

DIPOLE MOMENT
-------------

Method             : SCF
Type of density    : Electron Density
Multiplicity       :   1
Irrep              :   0
Energy             : -2929.6397997763324383 Eh
Relativity type    :
Basis              : AO
                                X                 Y                 Z
Electronic contribution:     -7.425416535       8.117783430     -13.186558503
Nuclear contribution   :      7.899146110      -8.926762329      14.671078043
                        -----------------------------------------
Total Dipole Moment    :      0.473729575      -0.808978899       1.484519540
                        -----------------------------------------
Magnitude (a.u.)       :      1.755751929
Magnitude (Debye)      :      4.462766741

Rotational constants in cm-1:             0.012406             0.005057             0.004598
Rotational constants in MHz :           371.913074           151.605425           137.851658

                             ****ORCA TERMINATED NORMALLY****
TOTAL RUN TIME: 0 days 0 hours 0 minutes 21 seconds 358 msec
