                         Program Version 6.0.0  -   RELEASE  -
|  1> ! pbe def2-sv(p) def2/J RI DEFGRID1 loosescf d4 GCP(DFT/SV(P)) printgap
|  2> %output
|  3>     printlevel normal
|  4> end
|  5> * xyz 0 1
|  6> C 1.7382593241 3.2914751792 0.4802513544
|  7> C 2.3293265116 1.994934031 -0.0312106193
|  8> O 2.3172852506 1.0539014255 1.0725742801
|  9> P 2.5620625319 -0.4930664155 0.9152763386
| 10> S 2.5094831697 -1.3946044788 2.6484542235
| 11> O 3.940288675 -0.5429948038 0.1250496327
| 12> C 4.7681764774 -1.7196453036 0.073510529
| 13> C 4.0851798791 -2.8750416066 -0.6283548404
| 14> S 1.1222567404 -1.1573025657 -0.5162876182
| 15> C -0.2759935778 -1.1273993222 0.6341272384
| 16> S -1.0516459833 0.504068937 0.7730369186
| 17> P -2.425416363 0.1915917836 -0.8399813596
| 18> S -1.6832640995 -0.4165171171 -2.5416522942
| 19> O -3.2721271342 1.5331926403 -0.8835159093
| 20> C -2.9047489827 2.6429519736 -1.7253272267
| 21> C -1.595105505 3.2689350654 -1.2957310982
| 22> O -3.4370075697 -0.8662818305 -0.2450488658
| 23> C -4.2505402017 -0.6302376618 0.9318193145
| 24> C -5.6260354803 -0.1274609581 0.5447637049
| 25> H 0.733902014 3.1146440539 0.8553461133
| 26> H 2.3479440414 3.6828867791 1.2890872685
| 27> H 1.70221579 4.0130946016 -0.3291337852
| 28> H 3.3627152867 2.1177933868 -0.3602893999
| 29> H 1.7405262322 1.5754263771 -0.8530679006
| 30> H 5.655765271 -1.387055475 -0.4666673858
| 31> H 5.0357412018 -1.9964386364 1.0977275701
| 32> H 4.7922053708 -3.6892298111 -0.7507972337
| 33> H 3.243156988 -3.2265325802 -0.0333978703
| 34> H 3.7188511454 -2.5644446062 -1.6040628991
| 35> H 0.0824127552 -1.407732965 1.6263056619
| 36> H -1.0083074272 -1.8430188567 0.2640800375
| 37> H -2.8408721744 2.2849695724 -2.7572625726
| 38> H -3.7394375154 3.3374640762 -1.6216133816
| 39> H -1.4080489834 4.1576967711 -1.8894264282
| 40> H -1.6326393259 3.5375233906 -0.243079624
| 41> H -0.7822718236 2.5614842516 -1.4533504315
| 42> H -4.3084238567 -1.6040297662 1.421981378
| 43> H -3.7359295101 0.0823892953 1.582175468
| 44> H -5.5525921235 0.8457986467 0.0677673714
| 45> H -6.0950761278 -0.8228918692 -0.1459360902
| 46> H -6.236218043 -0.0437138991 1.4387183972
| 47> *
| 48>
| 49>                          ****END OF INPUT****

CARTESIAN COORDINATES (ANGSTROEM)
---------------------------------
  C      1.738259    3.291475    0.480251
  C      2.329327    1.994934   -0.031211
  O      2.317285    1.053901    1.072574
  P      2.562063   -0.493066    0.915276
  S      2.509483   -1.394604    2.648454
  O      3.940289   -0.542995    0.125050
  C      4.768176   -1.719645    0.073511
  C      4.085180   -2.875042   -0.628355
  S      1.122257   -1.157303   -0.516288
  C     -0.275994   -1.127399    0.634127
  S     -1.051646    0.504069    0.773037
  P     -2.425416    0.191592   -0.839981
  S     -1.683264   -0.416517   -2.541652
  O     -3.272127    1.533193   -0.883516
  C     -2.904749    2.642952   -1.725327
  C     -1.595106    3.268935   -1.295731
  O     -3.437008   -0.866282   -0.245049
  C     -4.250540   -0.630238    0.931819
  C     -5.626035   -0.127461    0.544764
  H      0.733902    3.114644    0.855346
  H      2.347944    3.682887    1.289087
  H      1.702216    4.013095   -0.329134
  H      3.362715    2.117793   -0.360289
  H      1.740526    1.575426   -0.853068
  H      5.655765   -1.387055   -0.466667
  H      5.035741   -1.996439    1.097728
  H      4.792205   -3.689230   -0.750797
  H      3.243157   -3.226533   -0.033398
  H      3.718851   -2.564445   -1.604063
  H      0.082413   -1.407733    1.626306
  H     -1.008307   -1.843019    0.264080
  H     -2.840872    2.284970   -2.757263
  H     -3.739438    3.337464   -1.621613
  H     -1.408049    4.157697   -1.889426
  H     -1.632639    3.537523   -0.243080
  H     -0.782272    2.561484   -1.453350
  H     -4.308424   -1.604030    1.421981
  H     -3.735930    0.082389    1.582175
  H     -5.552592    0.845799    0.067767
  H     -6.095076   -0.822892   -0.145936
  H     -6.236218   -0.043714    1.438718

 Total Charge           Charge          ....    0
 Multiplicity           Mult            ....    1
 Number of Electrons    NEL             ....  202
 Basis Dimension        Dim             ....  334

ORBITAL ENERGIES
----------------

  NO   OCC          E(Eh)            E(eV)
   0   2.0000     -88.044335     -2395.8082
   1   2.0000     -88.038630     -2395.6529
   2   2.0000     -87.988949     -2394.3010
   3   2.0000     -87.982538     -2394.1266
   4   2.0000     -76.430679     -2079.7845
   5   2.0000     -76.422483     -2079.5615
   6   2.0000     -18.802306      -511.6368
   7   2.0000     -18.796953      -511.4911
   8   2.0000     -18.793735      -511.4035
   9   2.0000     -18.789212      -511.2804
  10   2.0000      -9.961260      -271.0597
  11   2.0000      -9.959013      -270.9985
  12   2.0000      -9.953776      -270.8560
  13   2.0000      -9.953727      -270.8547
  14   2.0000      -9.951779      -270.8017
  15   2.0000      -9.892989      -269.2019
  16   2.0000      -9.889097      -269.0960
  17   2.0000      -9.885624      -269.0015
  18   2.0000      -9.883368      -268.9401
  19   2.0000      -7.688963      -209.2273
  20   2.0000      -7.683157      -209.0693
  21   2.0000      -7.634132      -207.7353
  22   2.0000      -7.627878      -207.5651
  23   2.0000      -6.428165      -174.9193
  24   2.0000      -6.420308      -174.7055
  25   2.0000      -5.716577      -155.5560
  26   2.0000      -5.713585      -155.4746
  27   2.0000      -5.710838      -155.3998
  28   2.0000      -5.707839      -155.3182
  29   2.0000      -5.706145      -155.2721
  30   2.0000      -5.700232      -155.1112
  31   2.0000      -5.663126      -154.1015
  32   2.0000      -5.656803      -153.9294
  33   2.0000      -5.654762      -153.8739
  34   2.0000      -5.654222      -153.8592
  35   2.0000      -5.648558      -153.7051
  36   2.0000      -5.647925      -153.6878
  37   2.0000      -4.651255      -126.5671
  38   2.0000      -4.649872      -126.5294
  39   2.0000      -4.648196      -126.4838
  40   2.0000      -4.643288      -126.3503
  41   2.0000      -4.641881      -126.3120
  42   2.0000      -4.640516      -126.2749
  43   2.0000      -0.994912       -27.0729
  44   2.0000      -0.986963       -26.8566
  45   2.0000      -0.952596       -25.9215
  46   2.0000      -0.944223       -25.6936
  47   2.0000      -0.762953       -20.7610
  48   2.0000      -0.723519       -19.6880
  49   2.0000      -0.713351       -19.4113
  50   2.0000      -0.697425       -18.9779
  51   2.0000      -0.688697       -18.7404
  52   2.0000      -0.676472       -18.4077
  53   2.0000      -0.652304       -17.7501
  54   2.0000      -0.637821       -17.3560
  55   2.0000      -0.600999       -16.3540
  56   2.0000      -0.591519       -16.0960
  57   2.0000      -0.580304       -15.7909
  58   2.0000      -0.569985       -15.5101
  59   2.0000      -0.558453       -15.1963
  60   2.0000      -0.507534       -13.8107
  61   2.0000      -0.503155       -13.6916
  62   2.0000      -0.482069       -13.1178
  63   2.0000      -0.473696       -12.8899
  64   2.0000      -0.461762       -12.5652
  65   2.0000      -0.454148       -12.3580
  66   2.0000      -0.439966       -11.9721
  67   2.0000      -0.434384       -11.8202
  68   2.0000      -0.432940       -11.7809
  69   2.0000      -0.428989       -11.6734
  70   2.0000      -0.415200       -11.2982
  71   2.0000      -0.398709       -10.8494
  72   2.0000      -0.390630       -10.6296
  73   2.0000      -0.386950       -10.5294
  74   2.0000      -0.376368       -10.2415
  75   2.0000      -0.373440       -10.1618
  76   2.0000      -0.365610        -9.9488
  77   2.0000      -0.361527        -9.8376
  78   2.0000      -0.358888        -9.7658
  79   2.0000      -0.356907        -9.7119
  80   2.0000      -0.352618        -9.5952
  81   2.0000      -0.351434        -9.5630
  82   2.0000      -0.345325        -9.3968
  83   2.0000      -0.337219        -9.1762
  84   2.0000      -0.334743        -9.1088
  85   2.0000      -0.322509        -8.7759
  86   2.0000      -0.313578        -8.5329
  87   2.0000      -0.303893        -8.2693
  88   2.0000      -0.299946        -8.1620
  89   2.0000      -0.298320        -8.1177
  90   2.0000      -0.293809        -7.9949
  91   2.0000      -0.275802        -7.5050
  92   2.0000      -0.270374        -7.3573
  93   2.0000      -0.263187        -7.1617
  94   2.0000      -0.260217        -7.0809
  95   2.0000      -0.239996        -6.5306
  96   2.0000      -0.219513        -5.9733
  97   2.0000      -0.212221        -5.7748
  98   2.0000      -0.204601        -5.5675
  99   2.0000      -0.200673        -5.4606
 100   2.0000      -0.193363        -5.2617
 101   0.0000      -0.040543        -1.1032
 102   0.0000      -0.027740        -0.7548
 103   0.0000      -0.008415        -0.2290
 104   0.0000       0.005325         0.1449
 105   0.0000       0.014160         0.3853

MULLIKEN ATOMIC CHARGES
-----------------------
   0 C :   -0.287364
   1 C :   -0.025367
   2 O :   -0.359789
   3 P :    0.594874
   4 S :   -0.318643
   5 O :   -0.386171
   6 C :    0.001779
   7 C :   -0.325541
   8 S :   -0.065108
   9 C :   -0.363930
  10 S :   -0.082316
  11 P :    0.579393
  12 S :   -0.306059
  13 O :   -0.380349
  14 C :    0.007933
  15 C :   -0.353802
  16 O :   -0.359991
  17 C :   -0.011255
  18 C :   -0.291376
  19 H :    0.129793
  20 H :    0.118359
  21 H :    0.107964
  22 H :    0.106168
  23 H :    0.120335
  24 H :    0.105286
  25 H :    0.113260
  26 H :    0.114984
  27 H :    0.132259
  28 H :    0.121828
  29 H :    0.188804
  30 H :    0.192920
  31 H :    0.116011
  32 H :    0.107113
  33 H :    0.117095
  34 H :    0.125819
  35 H :    0.147549
  36 H :    0.110170
  37 H :    0.102974
  38 H :    0.122078
  39 H :    0.120959
  40 H :    0.111351
Sum of atomic charges:   -0.0000000

LOEWDIN ATOMIC CHARGES
----------------------
   0 C :   -0.352678
   1 C :   -0.117586
   2 O :   -0.237617
   3 P :    0.568987
   4 S :   -0.320392
   5 O :   -0.248726
   6 C :   -0.114755
   7 C :   -0.372402
   8 S :    0.091974
   9 C :   -0.486721
  10 S :    0.075606
  11 P :    0.569276
  12 S :   -0.310303
  13 O :   -0.245210
  14 C :   -0.114842
  15 C :   -0.372821
  16 O :   -0.240192
  17 C :   -0.116297
  18 C :   -0.359245
  19 H :    0.124999
  20 H :    0.128456
  21 H :    0.128103
  22 H :    0.114079
  23 H :    0.105137
  24 H :    0.118876
  25 H :    0.114097
  26 H :    0.132243
  27 H :    0.123290
  28 H :    0.124707
  29 H :    0.127389
  30 H :    0.134786
  31 H :    0.114812
  32 H :    0.119623
  33 H :    0.133452
  34 H :    0.124890
  35 H :    0.123636
  36 H :    0.121203
  37 H :    0.104477
  38 H :    0.126003
  39 H :    0.129229
  40 H :    0.130461

  Mayer bond orders larger than 0.100000
B(  0-C ,  1-C ) :   1.1674 B(  0-C , 19-H ) :   0.9401 B(  0-C , 20-H ) :   0.9476
B(  0-C , 21-H ) :   0.9400 B(  1-C ,  2-O ) :   0.8873 B(  1-C , 22-H ) :   0.9273
B(  1-C , 23-H ) :   0.9057 B(  2-O ,  3-P ) :   1.1415 B(  3-P ,  4-S ) :   1.6249
B(  3-P ,  5-O ) :   1.0922 B(  3-P ,  8-S ) :   0.9525 B(  4-S ,  8-S ) :   0.1067
B(  4-S , 29-H ) :   0.1053 B(  5-O ,  6-C ) :   0.9058 B(  6-C ,  7-C ) :   1.1656
B(  6-C , 24-H ) :   0.9342 B(  6-C , 25-H ) :   0.9206 B(  7-C , 26-H ) :   0.9367
B(  7-C , 27-H ) :   0.9333 B(  7-C , 28-H ) :   0.9429 B(  8-S ,  9-C ) :   1.0095
B(  9-C , 10-S ) :   0.9820 B(  9-C , 29-H ) :   0.8591 B(  9-C , 30-H ) :   0.8903
B( 10-S , 11-P ) :   0.9575 B( 10-S , 12-S ) :   0.1114 B( 11-P , 12-S ) :   1.6504
B( 11-P , 13-O ) :   1.0840 B( 11-P , 16-O ) :   1.1185 B( 13-O , 14-C ) :   0.9017
B( 14-C , 15-C ) :   1.1635 B( 14-C , 31-H ) :   0.9173 B( 14-C , 32-H ) :   0.9326
B( 15-C , 33-H ) :   0.9360 B( 15-C , 34-H ) :   0.9398 B( 15-C , 35-H ) :   0.9272
B( 16-O , 17-C ) :   0.8921 B( 17-C , 18-C ) :   1.1658 B( 17-C , 36-H ) :   0.9357
B( 17-C , 37-H ) :   0.9100 B( 18-C , 38-H ) :   0.9427 B( 18-C , 39-H ) :   0.9469
B( 18-C , 40-H ) :   0.9396

Dispersion correction           -0.063868893
FINAL SINGLE POINT ENERGY     -2929.520422062747

DIPOLE MOMENT
-------------

Method             : SCF
Type of density    : Electron Density
Multiplicity       :   1
Irrep              :   0
Energy             : -2929.6415057636663732 Eh
Relativity type    :
Basis              : AO
                                X                 Y                 Z
Electronic contribution:      4.275776149     -11.217627619       2.438412253
Nuclear contribution   :     -4.774657647      12.297401144      -2.764541947
                        -----------------------------------------
Total Dipole Moment    :     -0.498881498       1.079773525      -0.326129694
                        -----------------------------------------
Magnitude (a.u.)       :      1.233350798
Magnitude (Debye)      :      3.134928591

Rotational constants in cm-1:             0.012777             0.004428             0.004142
Rotational constants in MHz :           383.031603           132.751018           124.171303

                             ****ORCA TERMINATED NORMALLY****
TOTAL RUN TIME: 0 days 0 hours 0 minutes 21 seconds 192 msec
