                         Program Version 6.0.0  -   RELEASE  -
|  1> ! r2scan-3c def2/J RI DEFGRID2 scfconv6 printgap
|  2> %output
|  3>     printlevel normal
|  4> end
|  5> * xyz 0 1
|  6> C 5.212769763 -1.2278148967 -1.2859016366
|  7> C 3.8036627577 -1.6523916982 -1.6519453034
|  8> O 2.9292818178 -1.5992236747 -0.5064130467
|  9> P 2.0921154348 -0.307528847 -0.1184620962
| 10> S 3.0808677428 1.3550878055 0.2160604292
| 11> O 1.2540401702 -0.8806655689 1.0924561571
| 12> C 1.494609657 -0.4931201717 2.4585079176
| 13> C 2.7246616633 -1.1850175336 3.0064148272
| 14> S 0.6538583574 -0.2210768198 -1.6734936108
| 15> C 0.0980830005 1.4762759847 -1.3559761197
| 16> S -0.5993359444 1.6973175643 0.3002852169
| 17> P -2.2046084085 0.3236163295 0.0743720619
| 18> S -3.026529767 0.2388536119 -1.7067856865
| 19> O -3.1353432485 0.6629686828 1.3118054704
| 20> C -3.6080006618 1.9741020861 1.6731106203
| 21> C -4.3003655593 2.6866376847 0.5296353954
| 22> O -1.6025739642 -1.0436410723 0.5986214154
| 23> C -1.7814238474 -2.3040951256 -0.0691726545
| 24> C -3.0792152736 -2.9529160927 0.3650561184
| 25> H 5.2234160991 -0.1897572829 -0.9611150511
| 26> H 5.5933590329 -1.8505588662 -0.4811173258
| 27> H 5.8540953373 -1.3328677055 -2.1549980406
| 28> H 3.772786147 -2.6970260298 -1.9671965891
| 29> H 3.3952694974 -1.0213777355 -2.4467913096
| 30> H 1.6071057087 0.5956159716 2.5020042997
| 31> H 0.5848864062 -0.7897312646 2.9828918388
| 32> H 3.6031456258 -0.8588086677 2.4506481097
| 33> H 2.8503692109 -0.9263085807 4.0529208228
| 34> H 2.6261521692 -2.2624754413 2.906091411
| 35> H -0.6604857084 1.6943393346 -2.1072021084
| 36> H 0.9436435092 2.1595779909 -1.4278455699
| 37> H -4.2968800438 1.7785353736 2.4969104923
| 38> H -2.7554473535 2.5569093428 2.0334772626
| 39> H -5.0983230109 2.0684248333 0.1250071452
| 40> H -4.7170216084 3.622447531 0.8880699202
| 41> H -3.589454035 2.8977418711 -0.2681081406
| 42> H -1.7708636712 -2.1418266444 -1.1526258588
| 43> H -0.9088842485 -2.8925935153 0.2201717322
| 44> H -3.9176974852 -2.3265583329 0.0635100478
| 45> H -3.1732019501 -3.925383677 -0.1074459476
| 46> H -3.0984365869 -3.0684497196 1.4451210174
| 47> *
| 48>
| 49>                          ****END OF INPUT****

CARTESIAN COORDINATES (ANGSTROEM)
---------------------------------
  C      5.212770   -1.227815   -1.285902
  C      3.803663   -1.652392   -1.651945
  O      2.929282   -1.599224   -0.506413
  P      2.092115   -0.307529   -0.118462
  S      3.080868    1.355088    0.216060
  O      1.254040   -0.880666    1.092456
  C      1.494610   -0.493120    2.458508
  C      2.724662   -1.185018    3.006415
  S      0.653858   -0.221077   -1.673494
  C      0.098083    1.476276   -1.355976
  S     -0.599336    1.697318    0.300285
  P     -2.204608    0.323616    0.074372
  S     -3.026530    0.238854   -1.706786
  O     -3.135343    0.662969    1.311805
  C     -3.608001    1.974102    1.673111
  C     -4.300366    2.686638    0.529635
  O     -1.602574   -1.043641    0.598621
  C     -1.781424   -2.304095   -0.069173
  C     -3.079215   -2.952916    0.365056
  H      5.223416   -0.189757   -0.961115
  H      5.593359   -1.850559   -0.481117
  H      5.854095   -1.332868   -2.154998
  H      3.772786   -2.697026   -1.967197
  H      3.395269   -1.021378   -2.446791
  H      1.607106    0.595616    2.502004
  H      0.584886   -0.789731    2.982892
  H      3.603146   -0.858809    2.450648
  H      2.850369   -0.926309    4.052921
  H      2.626152   -2.262475    2.906091
  H     -0.660486    1.694339   -2.107202
  H      0.943644    2.159578   -1.427846
  H     -4.296880    1.778535    2.496910
  H     -2.755447    2.556909    2.033477
  H     -5.098323    2.068425    0.125007
  H     -4.717022    3.622448    0.888070
  H     -3.589454    2.897742   -0.268108
  H     -1.770864   -2.141827   -1.152626
  H     -0.908884   -2.892594    0.220172
  H     -3.917697   -2.326558    0.063510
  H     -3.173202   -3.925384   -0.107446
  H     -3.098437   -3.068450    1.445121

 Total Charge           Charge          ....    0
 Multiplicity           Mult            ....    1
 Number of Electrons    NEL             ....  202
 Basis Dimension        Dim             ....  539

ORBITAL ENERGIES
----------------

  NO   OCC          E(Eh)            E(eV)
   0   2.0000     -88.575368     -2410.2583
   1   2.0000     -88.575258     -2410.2553
   2   2.0000     -88.521788     -2408.8003
   3   2.0000     -88.518317     -2408.7059
   4   2.0000     -76.914382     -2092.9467
   5   2.0000     -76.912901     -2092.9064
   6   2.0000     -18.993725      -516.8455
   7   2.0000     -18.991724      -516.7911
   8   2.0000     -18.986885      -516.6594
   9   2.0000     -18.982755      -516.5470
  10   2.0000     -10.106149      -275.0023
  11   2.0000     -10.103793      -274.9382
  12   2.0000     -10.102282      -274.8971
  13   2.0000     -10.093912      -274.6693
  14   2.0000     -10.089147      -274.5396
  15   2.0000     -10.027534      -272.8631
  16   2.0000     -10.026887      -272.8455
  17   2.0000     -10.026348      -272.8308
  18   2.0000     -10.022641      -272.7299
  19   2.0000      -7.869680      -214.1449
  20   2.0000      -7.869520      -214.1405
  21   2.0000      -7.816670      -212.7024
  22   2.0000      -7.813196      -212.6079
  23   2.0000      -6.592793      -179.3990
  24   2.0000      -6.591108      -179.3532
  25   2.0000      -5.816503      -158.2751
  26   2.0000      -5.816374      -158.2716
  27   2.0000      -5.813498      -158.1933
  28   2.0000      -5.813363      -158.1897
  29   2.0000      -5.806898      -158.0137
  30   2.0000      -5.806692      -158.0081
  31   2.0000      -5.764264      -156.8536
  32   2.0000      -5.760881      -156.7616
  33   2.0000      -5.756906      -156.6534
  34   2.0000      -5.756758      -156.6494
  35   2.0000      -5.753485      -156.5603
  36   2.0000      -5.753149      -156.5511
  37   2.0000      -4.738155      -128.9317
  38   2.0000      -4.737772      -128.9213
  39   2.0000      -4.736629      -128.8902
  40   2.0000      -4.736552      -128.8881
  41   2.0000      -4.736178      -128.8780
  42   2.0000      -4.734800      -128.8405
  43   2.0000      -1.050340       -28.5812
  44   2.0000      -1.047640       -28.5077
  45   2.0000      -1.010415       -27.4948
  46   2.0000      -1.006610       -27.3913
  47   2.0000      -0.802599       -21.8398
  48   2.0000      -0.757195       -20.6043
  49   2.0000      -0.748455       -20.3665
  50   2.0000      -0.729475       -19.8500
  51   2.0000      -0.727270       -19.7900
  52   2.0000      -0.709249       -19.2997
  53   2.0000      -0.686829       -18.6896
  54   2.0000      -0.670601       -18.2480
  55   2.0000      -0.629243       -17.1226
  56   2.0000      -0.625820       -17.0294
  57   2.0000      -0.605107       -16.4658
  58   2.0000      -0.601100       -16.3568
  59   2.0000      -0.593922       -16.1614
  60   2.0000      -0.527441       -14.3524
  61   2.0000      -0.515730       -14.0337
  62   2.0000      -0.494958       -13.4685
  63   2.0000      -0.487219       -13.2579
  64   2.0000      -0.474051       -12.8996
  65   2.0000      -0.459157       -12.4943
  66   2.0000      -0.457796       -12.4573
  67   2.0000      -0.452014       -12.2999
  68   2.0000      -0.444372       -12.0920
  69   2.0000      -0.434362       -11.8196
  70   2.0000      -0.422561       -11.4985
  71   2.0000      -0.413855       -11.2616
  72   2.0000      -0.404943       -11.0191
  73   2.0000      -0.401858       -10.9351
  74   2.0000      -0.399793       -10.8789
  75   2.0000      -0.394016       -10.7217
  76   2.0000      -0.385871       -10.5001
  77   2.0000      -0.370144       -10.0721
  78   2.0000      -0.365791        -9.9537
  79   2.0000      -0.361802        -9.8451
  80   2.0000      -0.359731        -9.7888
  81   2.0000      -0.359276        -9.7764
  82   2.0000      -0.354651        -9.6505
  83   2.0000      -0.350981        -9.5507
  84   2.0000      -0.346177        -9.4200
  85   2.0000      -0.335275        -9.1233
  86   2.0000      -0.322569        -8.7775
  87   2.0000      -0.312501        -8.5036
  88   2.0000      -0.310611        -8.4522
  89   2.0000      -0.300745        -8.1837
  90   2.0000      -0.296858        -8.0779
  91   2.0000      -0.291936        -7.9440
  92   2.0000      -0.285168        -7.7598
  93   2.0000      -0.281125        -7.6498
  94   2.0000      -0.267318        -7.2741
  95   2.0000      -0.245495        -6.6803
  96   2.0000      -0.231296        -6.2939
  97   2.0000      -0.226357        -6.1595
  98   2.0000      -0.220679        -6.0050
  99   2.0000      -0.211835        -5.7643
 100   2.0000      -0.210479        -5.7274
 101   0.0000      -0.048274        -1.3136
 102   0.0000      -0.025150        -0.6844
 103   0.0000      -0.001537        -0.0418
 104   0.0000      -0.001031        -0.0281
 105   0.0000       0.012322         0.3353

MULLIKEN ATOMIC CHARGES
-----------------------
   0 C :   -0.452184
   1 C :   -0.136144
   2 O :   -0.304613
   3 P :    0.695396
   4 S :   -0.481478
   5 O :   -0.253132
   6 C :   -0.153199
   7 C :   -0.445161
   8 S :   -0.146272
   9 C :   -0.226676
  10 S :   -0.148082
  11 P :    0.670708
  12 S :   -0.464350
  13 O :   -0.295842
  14 C :   -0.153402
  15 C :   -0.426169
  16 O :   -0.261830
  17 C :   -0.149692
  18 C :   -0.451340
  19 H :    0.181095
  20 H :    0.152179
  21 H :    0.145400
  22 H :    0.150774
  23 H :    0.153852
  24 H :    0.173965
  25 H :    0.160093
  26 H :    0.166157
  27 H :    0.146407
  28 H :    0.153591
  29 H :    0.208646
  30 H :    0.209276
  31 H :    0.150182
  32 H :    0.152501
  33 H :    0.164650
  34 H :    0.147194
  35 H :    0.168643
  36 H :    0.176165
  37 H :    0.160556
  38 H :    0.165969
  39 H :    0.145058
  40 H :    0.151109
Sum of atomic charges:    0.0000000

LOEWDIN ATOMIC CHARGES
----------------------
   0 C :   -0.401775
   1 C :    0.022265
   2 O :   -0.656948
   3 P :    0.380711
   4 S :   -0.129159
   5 O :   -0.663336
   6 C :    0.015328
   7 C :   -0.398278
   8 S :    0.166242
   9 C :   -0.419531
  10 S :    0.158644
  11 P :    0.386898
  12 S :   -0.127406
  13 O :   -0.653327
  14 C :    0.023542
  15 C :   -0.406721
  16 O :   -0.662345
  17 C :    0.008428
  18 C :   -0.396930
  19 H :    0.169059
  20 H :    0.158547
  21 H :    0.158039
  22 H :    0.179252
  23 H :    0.175521
  24 H :    0.181709
  25 H :    0.182105
  26 H :    0.164487
  27 H :    0.159273
  28 H :    0.159087
  29 H :    0.190122
  30 H :    0.189707
  31 H :    0.181663
  32 H :    0.171876
  33 H :    0.165410
  34 H :    0.158023
  35 H :    0.165899
  36 H :    0.182379
  37 H :    0.180877
  38 H :    0.164201
  39 H :    0.158636
  40 H :    0.157829

  Mayer bond orders larger than 0.100000
B(  0-C ,  1-C ) :   0.9554 B(  0-C , 19-H ) :   0.9561 B(  0-C , 20-H ) :   0.9743
B(  0-C , 21-H ) :   0.9648 B(  1-C ,  2-O ) :   0.7834 B(  1-C , 22-H ) :   0.9629
B(  1-C , 23-H ) :   0.9626 B(  2-O ,  3-P ) :   1.0791 B(  3-P ,  4-S ) :   1.7422
B(  3-P ,  5-O ) :   1.1537 B(  3-P ,  8-S ) :   1.0727 B(  5-O ,  6-C ) :   0.7752
B(  6-C ,  7-C ) :   0.9285 B(  6-C , 24-H ) :   0.9599 B(  6-C , 25-H ) :   0.9626
B(  7-C , 26-H ) :   0.9608 B(  7-C , 27-H ) :   0.9648 B(  7-C , 28-H ) :   0.9741
B(  8-S ,  9-C ) :   0.8950 B(  9-C , 10-S ) :   0.9048 B(  9-C , 29-H ) :   0.9104
B(  9-C , 30-H ) :   0.9100 B( 10-S , 11-P ) :   1.0349 B( 11-P , 12-S ) :   1.7725
B( 11-P , 13-O ) :   1.1108 B( 11-P , 16-O ) :   1.1350 B( 13-O , 14-C ) :   0.8065
B( 14-C , 15-C ) :   0.9399 B( 14-C , 31-H ) :   0.9582 B( 14-C , 32-H ) :   0.9641
B( 15-C , 33-H ) :   0.9662 B( 15-C , 34-H ) :   0.9625 B( 15-C , 35-H ) :   0.9544
B( 16-O , 17-C ) :   0.7651 B( 17-C , 18-C ) :   0.9330 B( 17-C , 36-H ) :   0.9565
B( 17-C , 37-H ) :   0.9629 B( 18-C , 38-H ) :   0.9643 B( 18-C , 39-H ) :   0.9664
B( 18-C , 40-H ) :   0.9758

Dispersion correction           -0.021872863
FINAL SINGLE POINT ENERGY     -2932.461923154928

DIPOLE MOMENT
-------------

Method             : SCF
Type of density    : Electron Density
Multiplicity       :   1
Irrep              :   0
Energy             : -2932.4864761250646552 Eh
Relativity type    :
Basis              : AO
                                X                 Y                 Z
Electronic contribution:     -1.893767133       7.984767533      -8.024348199
Nuclear contribution   :      2.028849385      -8.504846818       8.689483626
                        -----------------------------------------
Total Dipole Moment    :      0.135082251      -0.520079285       0.665135427
                        -----------------------------------------
Magnitude (a.u.)       :      0.855064216
Magnitude (Debye)      :      2.173400514

Rotational constants in cm-1:             0.013091             0.004982             0.004875
Rotational constants in MHz :           392.452239           149.354620           146.160652

                             ****ORCA TERMINATED NORMALLY****
TOTAL RUN TIME: 0 days 0 hours 1 minutes 21 seconds 785 msec
