                         Program Version 6.0.0  -   RELEASE  -
|  1> ! r2scan-3c def2/J RI DEFGRID2 scfconv6 printgap
|  2> %output
|  3>     printlevel normal
|  4> end
|  5> %cpcm
|  6>     smd true
|  7>     smdsolvent "water"
|  8> end
|  9> * xyz 0 1
| 10> C 5.212769763 -1.2278148967 -1.2859016366
| 11> C 3.8036627577 -1.6523916982 -1.6519453034
| 12> O 2.9292818178 -1.5992236747 -0.5064130467
| 13> P 2.0921154348 -0.307528847 -0.1184620962
| 14> S 3.0808677428 1.3550878055 0.2160604292
| 15> O 1.2540401702 -0.8806655689 1.0924561571
| 16> C 1.494609657 -0.4931201717 2.4585079176
| 17> C 2.7246616633 -1.1850175336 3.0064148272
| 18> S 0.6538583574 -0.2210768198 -1.6734936108
| 19> C 0.0980830005 1.4762759847 -1.3559761197
| 20> S -0.5993359444 1.6973175643 0.3002852169
| 21> P -2.2046084085 0.3236163295 0.0743720619
| 22> S -3.026529767 0.2388536119 -1.7067856865
| 23> O -3.1353432485 0.6629686828 1.3118054704
| 24> C -3.6080006618 1.9741020861 1.6731106203
| 25> C -4.3003655593 2.6866376847 0.5296353954
| 26> O -1.6025739642 -1.0436410723 0.5986214154
| 27> C -1.7814238474 -2.3040951256 -0.0691726545
| 28> C -3.0792152736 -2.9529160927 0.3650561184
| 29> H 5.2234160991 -0.1897572829 -0.9611150511
| 30> H 5.5933590329 -1.8505588662 -0.4811173258
| 31> H 5.8540953373 -1.3328677055 -2.1549980406
| 32> H 3.772786147 -2.6970260298 -1.9671965891
| 33> H 3.3952694974 -1.0213777355 -2.4467913096
| 34> H 1.6071057087 0.5956159716 2.5020042997
| 35> H 0.5848864062 -0.7897312646 2.9828918388
| 36> H 3.6031456258 -0.8588086677 2.4506481097
| 37> H 2.8503692109 -0.9263085807 4.0529208228
| 38> H 2.6261521692 -2.2624754413 2.906091411
| 39> H -0.6604857084 1.6943393346 -2.1072021084
| 40> H 0.9436435092 2.1595779909 -1.4278455699
| 41> H -4.2968800438 1.7785353736 2.4969104923
| 42> H -2.7554473535 2.5569093428 2.0334772626
| 43> H -5.0983230109 2.0684248333 0.1250071452
| 44> H -4.7170216084 3.622447531 0.8880699202
| 45> H -3.589454035 2.8977418711 -0.2681081406
| 46> H -1.7708636712 -2.1418266444 -1.1526258588
| 47> H -0.9088842485 -2.8925935153 0.2201717322
| 48> H -3.9176974852 -2.3265583329 0.0635100478
| 49> H -3.1732019501 -3.925383677 -0.1074459476
| 50> H -3.0984365869 -3.0684497196 1.4451210174
| 51> *
| 52>
| 53>                          ****END OF INPUT****

CARTESIAN COORDINATES (ANGSTROEM)
---------------------------------
  C      5.212770   -1.227815   -1.285902
  C      3.803663   -1.652392   -1.651945
  O      2.929282   -1.599224   -0.506413
  P      2.092115   -0.307529   -0.118462
  S      3.080868    1.355088    0.216060
  O      1.254040   -0.880666    1.092456
  C      1.494610   -0.493120    2.458508
  C      2.724662   -1.185018    3.006415
  S      0.653858   -0.221077   -1.673494
  C      0.098083    1.476276   -1.355976
  S     -0.599336    1.697318    0.300285
  P     -2.204608    0.323616    0.074372
  S     -3.026530    0.238854   -1.706786
  O     -3.135343    0.662969    1.311805
  C     -3.608001    1.974102    1.673111
  C     -4.300366    2.686638    0.529635
  O     -1.602574   -1.043641    0.598621
  C     -1.781424   -2.304095   -0.069173
  C     -3.079215   -2.952916    0.365056
  H      5.223416   -0.189757   -0.961115
  H      5.593359   -1.850559   -0.481117
  H      5.854095   -1.332868   -2.154998
  H      3.772786   -2.697026   -1.967197
  H      3.395269   -1.021378   -2.446791
  H      1.607106    0.595616    2.502004
  H      0.584886   -0.789731    2.982892
  H      3.603146   -0.858809    2.450648
  H      2.850369   -0.926309    4.052921
  H      2.626152   -2.262475    2.906091
  H     -0.660486    1.694339   -2.107202
  H      0.943644    2.159578   -1.427846
  H     -4.296880    1.778535    2.496910
  H     -2.755447    2.556909    2.033477
  H     -5.098323    2.068425    0.125007
  H     -4.717022    3.622448    0.888070
  H     -3.589454    2.897742   -0.268108
  H     -1.770864   -2.141827   -1.152626
  H     -0.908884   -2.892594    0.220172
  H     -3.917697   -2.326558    0.063510
  H     -3.173202   -3.925384   -0.107446
  H     -3.098437   -3.068450    1.445121

 Total Charge           Charge          ....    0
 Multiplicity           Mult            ....    1
 Number of Electrons    NEL             ....  202
 Basis Dimension        Dim             ....  539

ORBITAL ENERGIES
----------------

  NO   OCC          E(Eh)            E(eV)
   0   2.0000     -88.578899     -2410.3544
   1   2.0000     -88.578636     -2410.3472
   2   2.0000     -88.528240     -2408.9759
   3   2.0000     -88.526359     -2408.9247
   4   2.0000     -76.919365     -2093.0823
   5   2.0000     -76.919216     -2093.0783
   6   2.0000     -18.995966      -516.9065
   7   2.0000     -18.995269      -516.8875
   8   2.0000     -18.991542      -516.7861
   9   2.0000     -18.989571      -516.7325
  10   2.0000     -10.105201      -274.9765
  11   2.0000     -10.093188      -274.6496
  12   2.0000     -10.091753      -274.6106
  13   2.0000     -10.088634      -274.5257
  14   2.0000     -10.086707      -274.4733
  15   2.0000     -10.018650      -272.6213
  16   2.0000     -10.017977      -272.6030
  17   2.0000     -10.016917      -272.5742
  18   2.0000     -10.016724      -272.5689
  19   2.0000      -7.873193      -214.2405
  20   2.0000      -7.872934      -214.2334
  21   2.0000      -7.823373      -212.8848
  22   2.0000      -7.821515      -212.8342
  23   2.0000      -6.597821      -179.5358
  24   2.0000      -6.597496      -179.5270
  25   2.0000      -5.820022      -158.3708
  26   2.0000      -5.819771      -158.3640
  27   2.0000      -5.817013      -158.2890
  28   2.0000      -5.816772      -158.2824
  29   2.0000      -5.810414      -158.1094
  30   2.0000      -5.810129      -158.1016
  31   2.0000      -5.770924      -157.0348
  32   2.0000      -5.769145      -156.9864
  33   2.0000      -5.763609      -156.8358
  34   2.0000      -5.763456      -156.8316
  35   2.0000      -5.761813      -156.7869
  36   2.0000      -5.761460      -156.7773
  37   2.0000      -4.743153      -129.0677
  38   2.0000      -4.742907      -129.0611
  39   2.0000      -4.742810      -129.0584
  40   2.0000      -4.742584      -129.0523
  41   2.0000      -4.741698      -129.0282
  42   2.0000      -4.741221      -129.0152
  43   2.0000      -1.053699       -28.6726
  44   2.0000      -1.052091       -28.6289
  45   2.0000      -1.013166       -27.5696
  46   2.0000      -1.010916       -27.5084
  47   2.0000      -0.804569       -21.8934
  48   2.0000      -0.755424       -20.5561
  49   2.0000      -0.744067       -20.2471
  50   2.0000      -0.722272       -19.6540
  51   2.0000      -0.721840       -19.6423
  52   2.0000      -0.709787       -19.3143
  53   2.0000      -0.690638       -18.7932
  54   2.0000      -0.675917       -18.3926
  55   2.0000      -0.629118       -17.1192
  56   2.0000      -0.623978       -16.9793
  57   2.0000      -0.601353       -16.3637
  58   2.0000      -0.596494       -16.2314
  59   2.0000      -0.592139       -16.1129
  60   2.0000      -0.525376       -14.2962
  61   2.0000      -0.513139       -13.9632
  62   2.0000      -0.493291       -13.4231
  63   2.0000      -0.486054       -13.2262
  64   2.0000      -0.473666       -12.8891
  65   2.0000      -0.458587       -12.4788
  66   2.0000      -0.453829       -12.3493
  67   2.0000      -0.449995       -12.2450
  68   2.0000      -0.442896       -12.0518
  69   2.0000      -0.432504       -11.7690
  70   2.0000      -0.419618       -11.4184
  71   2.0000      -0.412775       -11.2322
  72   2.0000      -0.402994       -10.9660
  73   2.0000      -0.400258       -10.8916
  74   2.0000      -0.398286       -10.8379
  75   2.0000      -0.393081       -10.6963
  76   2.0000      -0.384083       -10.4514
  77   2.0000      -0.369260       -10.0481
  78   2.0000      -0.360768        -9.8170
  79   2.0000      -0.356056        -9.6888
  80   2.0000      -0.352890        -9.6026
  81   2.0000      -0.351947        -9.5770
  82   2.0000      -0.351430        -9.5629
  83   2.0000      -0.345930        -9.4132
  84   2.0000      -0.344628        -9.3778
  85   2.0000      -0.334723        -9.1083
  86   2.0000      -0.321423        -8.7464
  87   2.0000      -0.308251        -8.3879
  88   2.0000      -0.306656        -8.3445
  89   2.0000      -0.300038        -8.1644
  90   2.0000      -0.298045        -8.1102
  91   2.0000      -0.293588        -7.9889
  92   2.0000      -0.285713        -7.7747
  93   2.0000      -0.282676        -7.6920
  94   2.0000      -0.270269        -7.3544
  95   2.0000      -0.249405        -6.7867
  96   2.0000      -0.236473        -6.4348
  97   2.0000      -0.233645        -6.3578
  98   2.0000      -0.227343        -6.1863
  99   2.0000      -0.219389        -5.9699
 100   2.0000      -0.217492        -5.9183
 101   0.0000      -0.052667        -1.4331
 102   0.0000      -0.031067        -0.8454
 103   0.0000      -0.006276        -0.1708
 104   0.0000      -0.004873        -0.1326
 105   0.0000       0.011416         0.3106

MULLIKEN ATOMIC CHARGES
-----------------------
   0 C :   -0.491277
   1 C :   -0.127617
   2 O :   -0.334711
   3 P :    0.722726
   4 S :   -0.519692
   5 O :   -0.284090
   6 C :   -0.142143
   7 C :   -0.486664
   8 S :   -0.157189
   9 C :   -0.237676
  10 S :   -0.152966
  11 P :    0.705526
  12 S :   -0.508294
  13 O :   -0.330114
  14 C :   -0.154012
  15 C :   -0.466125
  16 O :   -0.294799
  17 C :   -0.136354
  18 C :   -0.494294
  19 H :    0.170833
  20 H :    0.167661
  21 H :    0.169935
  22 H :    0.177118
  23 H :    0.164218
  24 H :    0.176154
  25 H :    0.179856
  26 H :    0.164973
  27 H :    0.171676
  28 H :    0.168810
  29 H :    0.229993
  30 H :    0.231616
  31 H :    0.177057
  32 H :    0.172494
  33 H :    0.170444
  34 H :    0.173656
  35 H :    0.166079
  36 H :    0.176246
  37 H :    0.179159
  38 H :    0.164943
  39 H :    0.170109
  40 H :    0.166737
Sum of atomic charges:    0.0000000

LOEWDIN ATOMIC CHARGES
----------------------
   0 C :   -0.405878
   1 C :    0.028316
   2 O :   -0.670670
   3 P :    0.384646
   4 S :   -0.153011
   5 O :   -0.680505
   6 C :    0.019109
   7 C :   -0.401479
   8 S :    0.161706
   9 C :   -0.412949
  10 S :    0.158950
  11 P :    0.390892
  12 S :   -0.155021
  13 O :   -0.668760
  14 C :    0.029882
  15 C :   -0.410172
  16 O :   -0.680246
  17 C :    0.011841
  18 C :   -0.400726
  19 H :    0.162915
  20 H :    0.162481
  21 H :    0.167371
  22 H :    0.190627
  23 H :    0.180070
  24 H :    0.182606
  25 H :    0.190200
  26 H :    0.161974
  27 H :    0.168612
  28 H :    0.163431
  29 H :    0.196868
  30 H :    0.196753
  31 H :    0.193129
  32 H :    0.179591
  33 H :    0.164406
  34 H :    0.168115
  35 H :    0.161855
  36 H :    0.182656
  37 H :    0.188351
  38 H :    0.161675
  39 H :    0.167871
  40 H :    0.162517

  Mayer bond orders larger than 0.100000
B(  0-C ,  1-C ) :   0.9441 B(  0-C , 19-H ) :   0.9605 B(  0-C , 20-H ) :   0.9720
B(  0-C , 21-H ) :   0.9595 B(  1-C ,  2-O ) :   0.7724 B(  1-C , 22-H ) :   0.9530
B(  1-C , 23-H ) :   0.9555 B(  2-O ,  3-P ) :   1.0835 B(  3-P ,  4-S ) :   1.7140
B(  3-P ,  5-O ) :   1.1549 B(  3-P ,  8-S ) :   1.0845 B(  5-O ,  6-C ) :   0.7637
B(  6-C ,  7-C ) :   0.9222 B(  6-C , 24-H ) :   0.9549 B(  6-C , 25-H ) :   0.9529
B(  7-C , 26-H ) :   0.9608 B(  7-C , 27-H ) :   0.9588 B(  7-C , 28-H ) :   0.9720
B(  8-S ,  9-C ) :   0.8863 B(  9-C , 10-S ) :   0.8944 B(  9-C , 29-H ) :   0.9046
B(  9-C , 30-H ) :   0.9039 B( 10-S , 11-P ) :   1.0520 B( 11-P , 12-S ) :   1.7360
B( 11-P , 13-O ) :   1.1161 B( 11-P , 16-O ) :   1.1336 B( 13-O , 14-C ) :   0.7971
B( 14-C , 15-C ) :   0.9212 B( 14-C , 31-H ) :   0.9482 B( 14-C , 32-H ) :   0.9586
B( 15-C , 33-H ) :   0.9670 B( 15-C , 34-H ) :   0.9563 B( 15-C , 35-H ) :   0.9566
B( 16-O , 17-C ) :   0.7541 B( 17-C , 18-C ) :   0.9273 B( 17-C , 36-H ) :   0.9526
B( 17-C , 37-H ) :   0.9536 B( 18-C , 38-H ) :   0.9651 B( 18-C , 39-H ) :   0.9604
B( 18-C , 40-H ) :   0.9729

Dispersion correction           -0.021872863
FINAL SINGLE POINT ENERGY     -2932.469165132823

DIPOLE MOMENT
-------------

Method             : SCF
Type of density    : Electron Density
Multiplicity       :   1
Irrep              :   0
Energy             : -2932.4937181029595195 Eh
Relativity type    :
Basis              : AO
                                X                 Y                 Z
Electronic contribution:     -1.827164966       7.938392344      -7.901248139
Nuclear contribution   :      2.028849385      -8.504846818       8.689483626
                        -----------------------------------------
Total Dipole Moment    :      0.201684419      -0.566454474       0.788235488
                        -----------------------------------------
Magnitude (a.u.)       :      0.991394200
Magnitude (Debye)      :      2.519923795

Rotational constants in cm-1:             0.013091             0.004982             0.004875
Rotational constants in MHz :           392.452239           149.354620           146.160652

                             ****ORCA TERMINATED NORMALLY****
TOTAL RUN TIME: 0 days 0 hours 1 minutes 49 seconds 825 msec
