                         Program Version 6.0.0  -   RELEASE  -
|  1> ! pbe def2-sv(p) def2/J RI DEFGRID1 loosescf d4 GCP(DFT/SV(P)) printgap
|  2> %output
|  3>     printlevel normal
|  4> end
|  5> * xyz 0 1
|  6> C 4.0510653092 -1.914117967 -2.0522339741
|  7> C 4.6101517351 -1.4781502689 -0.7132105732
|  8> O 3.5761001381 -1.2169844693 0.2518338803
|  9> P 2.5739954353 0.007793964 0.121214826
| 10> S 3.3787303795 1.6611261763 -0.5479193833
| 11> O 2.0428946822 0.1872664023 1.5926798276
| 12> C 1.1394707052 -0.6740057159 2.3275229973
| 13> C 1.5352986847 -2.1335991486 2.2774638059
| 14> S 0.944427156 -0.7577410714 -1.0333073623
| 15> C 0.2888858978 0.8440286189 -1.5449660689
| 16> S -0.4601081749 1.7658934592 -0.1696611949
| 17> P -2.2823921918 0.6891764707 -0.1389106207
| 18> S -3.1308109049 0.3238948801 -1.8686923826
| 19> O -3.0267423923 1.6734366485 0.8511599295
| 20> C -4.4664695622 1.7589644312 0.9104988918
| 21> C -5.0926291135 0.4677068428 1.3946252079
| 22> O -1.9951175947 -0.6007766076 0.747485721
| 23> C -2.0826810903 -1.9701492563 0.2988661083
| 24> C -2.757870038 -2.7912238705 1.3790745109
| 25> H 4.8673272053 -2.2262852317 -2.6956905139
| 26> H 3.3565217053 -2.7401341385 -1.9233855339
| 27> H 3.5284290022 -1.0850690127 -2.526551448
| 28> H 5.2151362034 -0.5730223054 -0.8255055849
| 29> H 5.2040448982 -2.2666752529 -0.2491026858
| 30> H 1.1914361103 -0.2758966497 3.3422733042
| 31> H 0.1315121917 -0.5218745669 1.9319999669
| 32> H 1.4734755599 -2.5086977601 1.2576100012
| 33> H 2.5541379008 -2.2586124658 2.6344347177
| 34> H 0.8607569633 -2.7048011307 2.908146151
| 35> H -0.4608957574 0.6584175163 -2.3146405083
| 36> H 1.1053700839 1.4599041493 -1.9231312928
| 37> H -4.6489584737 2.5839670721 1.6004340418
| 38> H -4.8381019672 2.0187731146 -0.085555133
| 39> H -6.1603553809 0.6128882011 1.5265080235
| 40> H -4.9321844051 -0.3165612203 0.6553727374
| 41> H -4.6481325674 0.1667453618 2.3398474638
| 42> H -2.642836767 -1.9965356216 -0.6414129446
| 43> H -1.0644027642 -2.3195130716 0.1136709071
| 44> H -2.7486205796 -3.8347062794 1.0819292977
| 45> H -2.2226991932 -2.6805234114 2.3177154018
| 46> H -3.7860662356 -2.4705147397 1.5202977453
| 47> *
| 48>
| 49>                          ****END OF INPUT****

CARTESIAN COORDINATES (ANGSTROEM)
---------------------------------
  C      4.051065   -1.914118   -2.052234
  C      4.610152   -1.478150   -0.713211
  O      3.576100   -1.216984    0.251834
  P      2.573995    0.007794    0.121215
  S      3.378730    1.661126   -0.547919
  O      2.042895    0.187266    1.592680
  C      1.139471   -0.674006    2.327523
  C      1.535299   -2.133599    2.277464
  S      0.944427   -0.757741   -1.033307
  C      0.288886    0.844029   -1.544966
  S     -0.460108    1.765893   -0.169661
  P     -2.282392    0.689176   -0.138911
  S     -3.130811    0.323895   -1.868692
  O     -3.026742    1.673437    0.851160
  C     -4.466470    1.758964    0.910499
  C     -5.092629    0.467707    1.394625
  O     -1.995118   -0.600777    0.747486
  C     -2.082681   -1.970149    0.298866
  C     -2.757870   -2.791224    1.379075
  H      4.867327   -2.226285   -2.695691
  H      3.356522   -2.740134   -1.923386
  H      3.528429   -1.085069   -2.526551
  H      5.215136   -0.573022   -0.825506
  H      5.204045   -2.266675   -0.249103
  H      1.191436   -0.275897    3.342273
  H      0.131512   -0.521875    1.932000
  H      1.473476   -2.508698    1.257610
  H      2.554138   -2.258612    2.634435
  H      0.860757   -2.704801    2.908146
  H     -0.460896    0.658418   -2.314641
  H      1.105370    1.459904   -1.923131
  H     -4.648958    2.583967    1.600434
  H     -4.838102    2.018773   -0.085555
  H     -6.160355    0.612888    1.526508
  H     -4.932184   -0.316561    0.655373
  H     -4.648133    0.166745    2.339847
  H     -2.642837   -1.996536   -0.641413
  H     -1.064403   -2.319513    0.113671
  H     -2.748621   -3.834706    1.081929
  H     -2.222699   -2.680523    2.317715
  H     -3.786066   -2.470515    1.520298

 Total Charge           Charge          ....    0
 Multiplicity           Mult            ....    1
 Number of Electrons    NEL             ....  202
 Basis Dimension        Dim             ....  334

ORBITAL ENERGIES
----------------

  NO   OCC          E(Eh)            E(eV)
   0   2.0000     -88.044960     -2395.8252
   1   2.0000     -88.039927     -2395.6882
   2   2.0000     -87.995191     -2394.4709
   3   2.0000     -87.984869     -2394.1900
   4   2.0000     -76.430406     -2079.7771
   5   2.0000     -76.427838     -2079.7072
   6   2.0000     -18.797992      -511.5194
   7   2.0000     -18.796883      -511.4892
   8   2.0000     -18.795562      -511.4533
   9   2.0000     -18.789616      -511.2914
  10   2.0000      -9.959615      -271.0149
  11   2.0000      -9.954971      -270.8885
  12   2.0000      -9.954142      -270.8660
  13   2.0000      -9.953012      -270.8352
  14   2.0000      -9.952294      -270.8157
  15   2.0000      -9.893922      -269.2273
  16   2.0000      -9.892647      -269.1926
  17   2.0000      -9.890162      -269.1250
  18   2.0000      -9.885246      -268.9912
  19   2.0000      -7.689501      -209.2420
  20   2.0000      -7.685082      -209.1217
  21   2.0000      -7.640112      -207.8980
  22   2.0000      -7.630156      -207.6271
  23   2.0000      -6.428163      -174.9192
  24   2.0000      -6.424987      -174.8328
  25   2.0000      -5.717188      -155.5726
  26   2.0000      -5.714071      -155.4878
  27   2.0000      -5.712963      -155.4576
  28   2.0000      -5.709870      -155.3735
  29   2.0000      -5.706687      -155.2868
  30   2.0000      -5.701763      -155.1529
  31   2.0000      -5.668838      -154.2569
  32   2.0000      -5.661112      -154.0467
  33   2.0000      -5.660092      -154.0189
  34   2.0000      -5.659110      -153.9922
  35   2.0000      -5.650701      -153.7634
  36   2.0000      -5.650305      -153.7526
  37   2.0000      -4.650626      -126.5500
  38   2.0000      -4.649850      -126.5288
  39   2.0000      -4.648724      -126.4982
  40   2.0000      -4.647762      -126.4720
  41   2.0000      -4.646820      -126.4464
  42   2.0000      -4.645269      -126.4042
  43   2.0000      -0.990606       -26.9558
  44   2.0000      -0.987410       -26.8688
  45   2.0000      -0.951021       -25.8786
  46   2.0000      -0.945506       -25.7285
  47   2.0000      -0.764936       -20.8150
  48   2.0000      -0.726381       -19.7658
  49   2.0000      -0.713040       -19.4028
  50   2.0000      -0.695210       -18.9176
  51   2.0000      -0.691757       -18.8237
  52   2.0000      -0.677441       -18.4341
  53   2.0000      -0.654491       -17.8096
  54   2.0000      -0.639362       -17.3979
  55   2.0000      -0.607627       -16.5344
  56   2.0000      -0.597980       -16.2719
  57   2.0000      -0.577544       -15.7158
  58   2.0000      -0.574664       -15.6374
  59   2.0000      -0.561131       -15.2692
  60   2.0000      -0.507397       -13.8070
  61   2.0000      -0.492070       -13.3899
  62   2.0000      -0.483222       -13.1491
  63   2.0000      -0.471651       -12.8343
  64   2.0000      -0.463360       -12.6087
  65   2.0000      -0.447536       -12.1781
  66   2.0000      -0.443735       -12.0746
  67   2.0000      -0.440687       -11.9917
  68   2.0000      -0.432489       -11.7686
  69   2.0000      -0.419221       -11.4076
  70   2.0000      -0.411145       -11.1878
  71   2.0000      -0.400131       -10.8881
  72   2.0000      -0.399116       -10.8605
  73   2.0000      -0.386280       -10.5112
  74   2.0000      -0.379018       -10.3136
  75   2.0000      -0.378144       -10.2898
  76   2.0000      -0.371475       -10.1083
  77   2.0000      -0.365700        -9.9512
  78   2.0000      -0.364585        -9.9209
  79   2.0000      -0.356617        -9.7040
  80   2.0000      -0.354034        -9.6337
  81   2.0000      -0.350383        -9.5344
  82   2.0000      -0.347284        -9.4501
  83   2.0000      -0.344253        -9.3676
  84   2.0000      -0.338397        -9.2082
  85   2.0000      -0.324613        -8.8332
  86   2.0000      -0.309768        -8.4292
  87   2.0000      -0.303757        -8.2657
  88   2.0000      -0.294899        -8.0246
  89   2.0000      -0.292667        -7.9639
  90   2.0000      -0.289190        -7.8693
  91   2.0000      -0.281458        -7.6589
  92   2.0000      -0.270647        -7.3647
  93   2.0000      -0.267580        -7.2812
  94   2.0000      -0.263008        -7.1568
  95   2.0000      -0.236205        -6.4275
  96   2.0000      -0.219766        -5.9801
  97   2.0000      -0.217021        -5.9054
  98   2.0000      -0.206125        -5.6089
  99   2.0000      -0.201951        -5.4954
 100   2.0000      -0.201302        -5.4777
 101   0.0000      -0.046949        -1.2775
 102   0.0000      -0.027241        -0.7413
 103   0.0000      -0.004662        -0.1269
 104   0.0000       0.004518         0.1230
 105   0.0000       0.012447         0.3387

MULLIKEN ATOMIC CHARGES
-----------------------
   0 C :   -0.314055
   1 C :   -0.002366
   2 O :   -0.375130
   3 P :    0.604794
   4 S :   -0.312231
   5 O :   -0.353288
   6 C :   -0.025418
   7 C :   -0.321183
   8 S :   -0.118717
   9 C :   -0.373524
  10 S :   -0.050558
  11 P :    0.628403
  12 S :   -0.331309
  13 O :   -0.377000
  14 C :    0.002075
  15 C :   -0.327727
  16 O :   -0.377927
  17 C :   -0.024872
  18 C :   -0.291648
  19 H :    0.113942
  20 H :    0.113958
  21 H :    0.128016
  22 H :    0.114995
  23 H :    0.104782
  24 H :    0.108636
  25 H :    0.137857
  26 H :    0.122223
  27 H :    0.123605
  28 H :    0.113977
  29 H :    0.189723
  30 H :    0.197588
  31 H :    0.111095
  32 H :    0.116385
  33 H :    0.117065
  34 H :    0.129017
  35 H :    0.122170
  36 H :    0.112405
  37 H :    0.117186
  38 H :    0.112896
  39 H :    0.114946
  40 H :    0.119213
Sum of atomic charges:   -0.0000000

LOEWDIN ATOMIC CHARGES
----------------------
   0 C :   -0.369978
   1 C :   -0.117422
   2 O :   -0.242152
   3 P :    0.574497
   4 S :   -0.308569
   5 O :   -0.231115
   6 C :   -0.117951
   7 C :   -0.367932
   8 S :    0.076016
   9 C :   -0.489341
  10 S :    0.103604
  11 P :    0.573291
  12 S :   -0.315750
  13 O :   -0.244934
  14 C :   -0.111551
  15 C :   -0.367974
  16 O :   -0.244661
  17 C :   -0.127123
  18 C :   -0.352426
  19 H :    0.131502
  20 H :    0.122338
  21 H :    0.121691
  22 H :    0.113316
  23 H :    0.118600
  24 H :    0.123393
  25 H :    0.109993
  26 H :    0.114797
  27 H :    0.128930
  28 H :    0.129735
  29 H :    0.127930
  30 H :    0.130466
  31 H :    0.122185
  32 H :    0.114741
  33 H :    0.133189
  34 H :    0.120488
  35 H :    0.127033
  36 H :    0.106653
  37 H :    0.103403
  38 H :    0.131665
  39 H :    0.124197
  40 H :    0.125227

  Mayer bond orders larger than 0.100000
B(  0-C ,  1-C ) :   1.1656 B(  0-C , 19-H ) :   0.9374 B(  0-C , 20-H ) :   0.9452
B(  0-C , 21-H ) :   0.9351 B(  1-C ,  2-O ) :   0.9054 B(  1-C , 22-H ) :   0.9158
B(  1-C , 23-H ) :   0.9340 B(  2-O ,  3-P ) :   1.0932 B(  3-P ,  4-S ) :   1.6266
B(  3-P ,  5-O ) :   1.1570 B(  3-P ,  8-S ) :   0.9265 B(  4-S ,  8-S ) :   0.1067
B(  5-O ,  6-C ) :   0.8932 B(  6-C ,  7-C ) :   1.1710 B(  6-C , 24-H ) :   0.9327
B(  6-C , 25-H ) :   0.9012 B(  7-C , 26-H ) :   0.9337 B(  7-C , 27-H ) :   0.9410
B(  7-C , 28-H ) :   0.9346 B(  8-S ,  9-C ) :   0.9971 B(  9-C , 10-S ) :   1.0105
B(  9-C , 29-H ) :   0.8717 B(  9-C , 30-H ) :   0.8720 B( 10-S , 11-P ) :   0.9668
B( 10-S , 12-S ) :   0.1018 B( 11-P , 12-S ) :   1.5943 B( 11-P , 13-O ) :   1.1327
B( 11-P , 16-O ) :   1.0845 B( 13-O , 14-C ) :   0.9070 B( 14-C , 15-C ) :   1.1613
B( 14-C , 31-H ) :   0.9348 B( 14-C , 32-H ) :   0.9211 B( 15-C , 33-H ) :   0.9362
B( 15-C , 34-H ) :   0.9284 B( 15-C , 35-H ) :   0.9439 B( 16-O , 17-C ) :   0.8855
B( 17-C , 18-C ) :   1.1634 B( 17-C , 36-H ) :   0.9013 B( 17-C , 37-H ) :   0.9150
B( 18-C , 38-H ) :   0.9409 B( 18-C , 39-H ) :   0.9496 B( 18-C , 40-H ) :   0.9461

Dispersion correction           -0.066293670
FINAL SINGLE POINT ENERGY     -2929.522074809300

DIPOLE MOMENT
-------------

Method             : SCF
Type of density    : Electron Density
Multiplicity       :   1
Irrep              :   0
Energy             : -2929.6421623061187347 Eh
Relativity type    :
Basis              : AO
                                X                 Y                 Z
Electronic contribution:      7.696600831      20.866489826      -8.729597796
Nuclear contribution   :     -8.402259991     -22.548200506       9.595765498
                        -----------------------------------------
Total Dipole Moment    :     -0.705659160      -1.681710679       0.866167701
                        -----------------------------------------
Magnitude (a.u.)       :      2.018997807
Magnitude (Debye)      :      5.131884589

Rotational constants in cm-1:             0.013796             0.004723             0.004394
Rotational constants in MHz :           413.599421           141.579164           131.720346

                             ****ORCA TERMINATED NORMALLY****
TOTAL RUN TIME: 0 days 0 hours 0 minutes 21 seconds 675 msec
