                         Program Version 6.0.0  -   RELEASE  -
|  1> ! pbe def2-sv(p) def2/J RI DEFGRID1 loosescf d4 GCP(DFT/SV(P)) printgap
|  2> %output
|  3>     printlevel normal
|  4> end
|  5> * xyz 0 1
|  6> C 3.1180034194 -2.4473322466 -2.4233755081
|  7> C 3.3426734482 -2.3174336605 -0.9304869968
|  8> O 3.569614551 -0.934362435 -0.5584105077
|  9> P 2.4407437022 0.0141506511 0.0180948076
| 10> S 3.1633696661 1.7390494717 0.5798362787
| 11> O 1.6819377827 -0.8238395929 1.157377309
| 12> C 1.9866192964 -0.6517420357 2.5533558856
| 13> C 3.3137983717 -1.2900256554 2.9088320066
| 14> S 0.9283920032 0.0488720395 -1.4559565381
| 15> C 0.0296987231 1.4746490245 -0.7907942113
| 16> S -0.8087673443 1.1351461607 0.7776071209
| 17> P -2.5691273222 0.1947900452 0.0080003742
| 18> S -2.9557773846 0.5483220506 -1.8868679717
| 19> O -3.7217655746 0.608083178 1.0072392847
| 20> C -4.5545423506 1.7558590693 0.7717000212
| 21> C -3.804284731 3.0557989091 0.9855463795
| 22> O -2.4947690829 -1.308254028 0.4987308404
| 23> C -1.4321304916 -2.2339863637 0.2146301991
| 24> C -1.4565308636 -2.7150438223 -1.2232516931
| 25> H 3.0471898297 -3.499456676 -2.6808137099
| 26> H 2.1991690863 -1.9452837172 -2.7191925751
| 27> H 3.948242516 -2.0015866294 -2.9640464827
| 28> H 4.2562572251 -2.8298191214 -0.6239009313
| 29> H 2.4913404075 -2.7033581631 -0.3647800577
| 30> H 1.9983458553 0.4195851058 2.7769345032
| 31> H 1.1516779047 -1.1255085152 3.0715403815
| 32> H 3.4978875093 -1.1696605789 3.9716961582
| 33> H 3.3059054954 -2.3484962833 2.6619859641
| 34> H 4.1147949757 -0.8014521606 2.3541245962
| 35> H -0.7092613802 1.7478589636 -1.5456003778
| 36> H 0.7351796024 2.2835884107 -0.6034489172
| 37> H -4.9472767062 1.7010339683 -0.2490755164
| 38> H -5.3693436845 1.6400106435 1.487633555
| 39> H -3.0427845943 3.1788833212 0.2165657708
| 40> H -4.5000519908 3.8865751707 0.9259381004
| 41> H -3.3224919354 3.0572701353 1.9600515368
| 42> H -0.4729191303 -1.7647499174 0.4552713605
| 43> H -1.6178176242 -3.0557893109 0.9091489762
| 44> H -0.7107117395 -3.4925532871 -1.3541243997
| 45> H -2.4381899945 -3.1134234463 -1.4661184094
| 46> H -1.2344964239 -1.8961902508 -1.9051512431
| 47> *
| 48>
| 49>                          ****END OF INPUT****

CARTESIAN COORDINATES (ANGSTROEM)
---------------------------------
  C      3.118003   -2.447332   -2.423376
  C      3.342673   -2.317434   -0.930487
  O      3.569615   -0.934362   -0.558411
  P      2.440744    0.014151    0.018095
  S      3.163370    1.739049    0.579836
  O      1.681938   -0.823840    1.157377
  C      1.986619   -0.651742    2.553356
  C      3.313798   -1.290026    2.908832
  S      0.928392    0.048872   -1.455957
  C      0.029699    1.474649   -0.790794
  S     -0.808767    1.135146    0.777607
  P     -2.569127    0.194790    0.008000
  S     -2.955777    0.548322   -1.886868
  O     -3.721766    0.608083    1.007239
  C     -4.554542    1.755859    0.771700
  C     -3.804285    3.055799    0.985546
  O     -2.494769   -1.308254    0.498731
  C     -1.432130   -2.233986    0.214630
  C     -1.456531   -2.715044   -1.223252
  H      3.047190   -3.499457   -2.680814
  H      2.199169   -1.945284   -2.719193
  H      3.948243   -2.001587   -2.964046
  H      4.256257   -2.829819   -0.623901
  H      2.491340   -2.703358   -0.364780
  H      1.998346    0.419585    2.776935
  H      1.151678   -1.125509    3.071540
  H      3.497888   -1.169661    3.971696
  H      3.305905   -2.348496    2.661986
  H      4.114795   -0.801452    2.354125
  H     -0.709261    1.747859   -1.545600
  H      0.735180    2.283588   -0.603449
  H     -4.947277    1.701034   -0.249076
  H     -5.369344    1.640011    1.487634
  H     -3.042785    3.178883    0.216566
  H     -4.500052    3.886575    0.925938
  H     -3.322492    3.057270    1.960052
  H     -0.472919   -1.764750    0.455271
  H     -1.617818   -3.055789    0.909149
  H     -0.710712   -3.492553   -1.354124
  H     -2.438190   -3.113423   -1.466118
  H     -1.234496   -1.896190   -1.905151

 Total Charge           Charge          ....    0
 Multiplicity           Mult            ....    1
 Number of Electrons    NEL             ....  202
 Basis Dimension        Dim             ....  334

ORBITAL ENERGIES
----------------

  NO   OCC          E(Eh)            E(eV)
   0   2.0000     -88.047385     -2395.8912
   1   2.0000     -88.044610     -2395.8156
   2   2.0000     -87.992286     -2394.3918
   3   2.0000     -87.991882     -2394.3808
   4   2.0000     -76.431212     -2079.7990
   5   2.0000     -76.428645     -2079.7292
   6   2.0000     -18.802085      -511.6307
   7   2.0000     -18.797485      -511.5056
   8   2.0000     -18.790821      -511.3242
   9   2.0000     -18.789048      -511.2760
  10   2.0000      -9.966596      -271.2049
  11   2.0000      -9.954779      -270.8833
  12   2.0000      -9.954364      -270.8720
  13   2.0000      -9.951304      -270.7888
  14   2.0000      -9.950210      -270.7590
  15   2.0000      -9.895806      -269.2786
  16   2.0000      -9.889765      -269.1142
  17   2.0000      -9.883087      -268.9325
  18   2.0000      -9.879258      -268.8283
  19   2.0000      -7.692273      -209.3174
  20   2.0000      -7.689253      -209.2352
  21   2.0000      -7.637125      -207.8167
  22   2.0000      -7.637107      -207.8162
  23   2.0000      -6.429146      -174.9460
  24   2.0000      -6.425849      -174.8562
  25   2.0000      -5.720055      -155.6506
  26   2.0000      -5.717109      -155.5705
  27   2.0000      -5.716903      -155.5648
  28   2.0000      -5.713751      -155.4791
  29   2.0000      -5.709221      -155.3558
  30   2.0000      -5.706320      -155.2769
  31   2.0000      -5.666176      -154.1845
  32   2.0000      -5.665902      -154.1770
  33   2.0000      -5.657715      -153.9543
  34   2.0000      -5.657691      -153.9536
  35   2.0000      -5.657482      -153.9479
  36   2.0000      -5.657101      -153.9375
  37   2.0000      -4.652094      -126.5899
  38   2.0000      -4.650524      -126.5472
  39   2.0000      -4.649608      -126.5223
  40   2.0000      -4.648092      -126.4810
  41   2.0000      -4.647928      -126.4765
  42   2.0000      -4.646320      -126.4328
  43   2.0000      -0.992313       -27.0022
  44   2.0000      -0.989165       -26.9165
  45   2.0000      -0.951262       -25.8852
  46   2.0000      -0.944122       -25.6909
  47   2.0000      -0.766758       -20.8645
  48   2.0000      -0.725542       -19.7430
  49   2.0000      -0.713921       -19.4268
  50   2.0000      -0.697508       -18.9801
  51   2.0000      -0.682044       -18.5594
  52   2.0000      -0.678966       -18.4756
  53   2.0000      -0.655414       -17.8347
  54   2.0000      -0.642484       -17.4829
  55   2.0000      -0.602245       -16.3879
  56   2.0000      -0.594911       -16.1883
  57   2.0000      -0.585955       -15.9446
  58   2.0000      -0.569541       -15.4980
  59   2.0000      -0.562582       -15.3086
  60   2.0000      -0.507523       -13.8104
  61   2.0000      -0.495702       -13.4887
  62   2.0000      -0.484512       -13.1842
  63   2.0000      -0.468152       -12.7391
  64   2.0000      -0.462424       -12.5832
  65   2.0000      -0.452040       -12.3006
  66   2.0000      -0.442538       -12.0421
  67   2.0000      -0.434945       -11.8354
  68   2.0000      -0.424408       -11.5487
  69   2.0000      -0.420620       -11.4456
  70   2.0000      -0.411312       -11.1924
  71   2.0000      -0.408276       -11.1098
  72   2.0000      -0.402646       -10.9566
  73   2.0000      -0.384090       -10.4516
  74   2.0000      -0.380546       -10.3552
  75   2.0000      -0.378798       -10.3076
  76   2.0000      -0.372132       -10.1262
  77   2.0000      -0.364486        -9.9182
  78   2.0000      -0.363733        -9.8977
  79   2.0000      -0.355530        -9.6745
  80   2.0000      -0.351693        -9.5701
  81   2.0000      -0.348017        -9.4700
  82   2.0000      -0.343666        -9.3516
  83   2.0000      -0.339005        -9.2248
  84   2.0000      -0.335463        -9.1284
  85   2.0000      -0.323160        -8.7936
  86   2.0000      -0.316934        -8.6242
  87   2.0000      -0.307844        -8.3769
  88   2.0000      -0.298270        -8.1164
  89   2.0000      -0.289048        -7.8654
  90   2.0000      -0.286331        -7.7915
  91   2.0000      -0.277735        -7.5576
  92   2.0000      -0.274489        -7.4692
  93   2.0000      -0.269240        -7.3264
  94   2.0000      -0.260321        -7.0837
  95   2.0000      -0.237102        -6.4519
  96   2.0000      -0.219748        -5.9797
  97   2.0000      -0.217031        -5.9057
  98   2.0000      -0.208178        -5.6648
  99   2.0000      -0.206110        -5.6085
 100   2.0000      -0.205468        -5.5911
 101   0.0000      -0.048852        -1.3293
 102   0.0000      -0.030125        -0.8197
 103   0.0000      -0.009623        -0.2618
 104   0.0000      -0.001728        -0.0470
 105   0.0000       0.005841         0.1589

MULLIKEN ATOMIC CHARGES
-----------------------
   0 C :   -0.300902
   1 C :   -0.033974
   2 O :   -0.365282
   3 P :    0.621941
   4 S :   -0.305789
   5 O :   -0.380162
   6 C :   -0.004274
   7 C :   -0.312595
   8 S :   -0.108725
   9 C :   -0.347154
  10 S :   -0.095588
  11 P :    0.604043
  12 S :   -0.330923
  13 O :   -0.356781
  14 C :   -0.005333
  15 C :   -0.309514
  16 O :   -0.352261
  17 C :   -0.045498
  18 C :   -0.308230
  19 H :    0.114278
  20 H :    0.138773
  21 H :    0.127286
  22 H :    0.114386
  23 H :    0.111616
  24 H :    0.115132
  25 H :    0.104677
  26 H :    0.116084
  27 H :    0.110057
  28 H :    0.129786
  29 H :    0.194615
  30 H :    0.193121
  31 H :    0.114257
  32 H :    0.107085
  33 H :    0.121164
  34 H :    0.112324
  35 H :    0.117807
  36 H :    0.142295
  37 H :    0.101525
  38 H :    0.099667
  39 H :    0.116764
  40 H :    0.134304
Sum of atomic charges:    0.0000000

LOEWDIN ATOMIC CHARGES
----------------------
   0 C :   -0.360850
   1 C :   -0.117234
   2 O :   -0.240894
   3 P :    0.570566
   4 S :   -0.301729
   5 O :   -0.250923
   6 C :   -0.122412
   7 C :   -0.364942
   8 S :    0.095952
   9 C :   -0.486061
  10 S :    0.083460
  11 P :    0.571872
  12 S :   -0.309252
  13 O :   -0.233309
  14 C :   -0.119459
  15 C :   -0.367376
  16 O :   -0.231456
  17 C :   -0.125550
  18 C :   -0.368515
  19 H :    0.132416
  20 H :    0.120394
  21 H :    0.132823
  22 H :    0.123026
  23 H :    0.109071
  24 H :    0.110212
  25 H :    0.117468
  26 H :    0.132651
  27 H :    0.121703
  28 H :    0.125787
  29 H :    0.127331
  30 H :    0.131144
  31 H :    0.110404
  32 H :    0.119750
  33 H :    0.119629
  34 H :    0.130439
  35 H :    0.125220
  36 H :    0.104316
  37 H :    0.117796
  38 H :    0.124170
  39 H :    0.127089
  40 H :    0.115271

  Mayer bond orders larger than 0.100000
B(  0-C ,  1-C ) :   1.1688 B(  0-C , 19-H ) :   0.9379 B(  0-C , 20-H ) :   0.9331
B(  0-C , 21-H ) :   0.9451 B(  1-C ,  2-O ) :   0.8975 B(  1-C , 22-H ) :   0.9332
B(  1-C , 23-H ) :   0.9147 B(  2-O ,  3-P ) :   1.1274 B(  3-P ,  4-S ) :   1.6409
B(  3-P ,  5-O ) :   1.0567 B(  3-P ,  8-S ) :   0.9631 B(  4-S ,  8-S ) :   0.1010
B(  5-O ,  6-C ) :   0.9000 B(  6-C ,  7-C ) :   1.1612 B(  6-C , 24-H ) :   0.9122
B(  6-C , 25-H ) :   0.9330 B(  7-C , 26-H ) :   0.9403 B(  7-C , 27-H ) :   0.9473
B(  7-C , 28-H ) :   0.9357 B(  8-S ,  9-C ) :   1.0008 B(  9-C , 10-S ) :   1.0130
B(  9-C , 29-H ) :   0.8645 B(  9-C , 30-H ) :   0.8737 B( 10-S , 11-P ) :   0.9335
B( 10-S , 12-S ) :   0.1209 B( 11-P , 12-S ) :   1.5970 B( 11-P , 13-O ) :   1.1333
B( 11-P , 16-O ) :   1.1375 B( 13-O , 14-C ) :   0.9119 B( 14-C , 15-C ) :   1.1634
B( 14-C , 31-H ) :   0.9143 B( 14-C , 32-H ) :   0.9338 B( 15-C , 33-H ) :   0.9387
B( 15-C , 34-H ) :   0.9386 B( 15-C , 35-H ) :   0.9451 B( 16-O , 17-C ) :   0.9143
B( 17-C , 18-C ) :   1.1623 B( 17-C , 36-H ) :   0.8949 B( 17-C , 37-H ) :   0.9346
B( 18-C , 38-H ) :   0.9384 B( 18-C , 39-H ) :   0.9440 B( 18-C , 40-H ) :   0.9297

Dispersion correction           -0.066244044
FINAL SINGLE POINT ENERGY     -2929.523519877261

DIPOLE MOMENT
-------------

Method             : SCF
Type of density    : Electron Density
Multiplicity       :   1
Irrep              :   0
Energy             : -2929.6429507716829903 Eh
Relativity type    :
Basis              : AO
                                X                 Y                 Z
Electronic contribution:     -2.198542106      12.050717122      -3.432662143
Nuclear contribution   :      2.324402057     -13.300868151       4.113201622
                        -----------------------------------------
Total Dipole Moment    :      0.125859951      -1.250151029       0.680539478
                        -----------------------------------------
Magnitude (a.u.)       :      1.428933975
Magnitude (Debye)      :      3.632061520

Rotational constants in cm-1:             0.012343             0.005033             0.004584
Rotational constants in MHz :           370.044628           150.870780           137.423278

                             ****ORCA TERMINATED NORMALLY****
TOTAL RUN TIME: 0 days 0 hours 0 minutes 21 seconds 512 msec
