                         Program Version 6.0.0  -   RELEASE  -
|  1> ! pbe def2-sv(p) def2/J RI DEFGRID1 loosescf d4 GCP(DFT/SV(P)) printgap
|  2> %output
|  3>     printlevel normal
|  4> end
|  5> * xyz 0 1
|  6> C 3.029906885 -2.955691459 -1.3892953528
|  7> C 4.0713148279 -2.1309384133 -0.663520453
|  8> O 3.8050641382 -0.709100023 -0.7415420629
|  9> P 2.5724818812 0.0416889066 -0.1146321693
| 10> S 2.9573114867 1.960311898 -0.0186129351
| 11> O 2.3845517583 -0.7668980576 1.2456144583
| 12> C 1.2723440357 -0.6442422336 2.1474043701
| 13> C 1.3115164978 0.6480157143 2.9383323219
| 14> S 0.8602555492 -0.4641150311 -1.3000363916
| 15> C 0.0953270712 1.1650155312 -1.3996274339
| 16> S -0.8276114348 1.6225477086 0.0915043546
| 17> P -2.4426806443 0.3001953249 -0.2103992082
| 18> S -3.0707029883 0.035894273 -2.0409106758
| 19> O -3.6222890086 0.8390765106 0.7027021017
| 20> C -3.5000922953 1.0410490525 2.1328642238
| 21> C -3.2130526541 2.4940853315 2.453455402
| 22> O -1.8702346543 -0.9987683851 0.536599107
| 23> C -2.410004139 -2.316013211 0.2852242585
| 24> C -1.4708440883 -3.1123683152 -0.5975497109
| 25> H 2.9362829558 -2.6276669405 -2.4212755188
| 26> H 3.3265423954 -3.999740985 -1.3710340103
| 27> H 2.0601863747 -2.8543644135 -0.9051803928
| 28> H 5.0532531919 -2.2243347275 -1.1298737654
| 29> H 4.131801224 -2.4100610314 0.3897771315
| 30> H 0.3416467676 -0.7264203063 1.5777207223
| 31> H 1.3766763879 -1.5111729529 2.8031822615
| 32> H 0.5156222453 0.641468273 3.6761445625
| 33> H 2.2688786977 0.749228496 3.4429191873
| 34> H 1.1753224873 1.5037367004 2.27989869
| 35> H -0.588629467 1.1421060616 -2.2480921367
| 36> H 0.8699477562 1.9226608716 -1.5234356283
| 37> H -4.4691006127 0.7340316613 2.5303560954
| 38> H -2.7145656731 0.3871289062 2.5192482763
| 39> H -3.9701394595 3.1303801609 2.0036795617
| 40> H -3.2264412181 2.6284482587 3.53046035
| 41> H -2.2376878026 2.7868334369 2.0705148576
| 42> H -2.516384502 -2.7728728272 1.2707120535
| 43> H -3.393602537 -2.2175266839 -0.1837238096
| 44> H -1.8719943224 -4.1108562939 -0.7368158591
| 45> H -1.3692414818 -2.6293920721 -1.5669882356
| 46> H -0.4890995455 -3.1782102255 -0.1376272343
| 47> *
| 48>
| 49>                          ****END OF INPUT****

CARTESIAN COORDINATES (ANGSTROEM)
---------------------------------
  C      3.029907   -2.955691   -1.389295
  C      4.071315   -2.130938   -0.663520
  O      3.805064   -0.709100   -0.741542
  P      2.572482    0.041689   -0.114632
  S      2.957311    1.960312   -0.018613
  O      2.384552   -0.766898    1.245614
  C      1.272344   -0.644242    2.147404
  C      1.311516    0.648016    2.938332
  S      0.860256   -0.464115   -1.300036
  C      0.095327    1.165016   -1.399627
  S     -0.827611    1.622548    0.091504
  P     -2.442681    0.300195   -0.210399
  S     -3.070703    0.035894   -2.040911
  O     -3.622289    0.839077    0.702702
  C     -3.500092    1.041049    2.132864
  C     -3.213053    2.494085    2.453455
  O     -1.870235   -0.998768    0.536599
  C     -2.410004   -2.316013    0.285224
  C     -1.470844   -3.112368   -0.597550
  H      2.936283   -2.627667   -2.421276
  H      3.326542   -3.999741   -1.371034
  H      2.060186   -2.854364   -0.905180
  H      5.053253   -2.224335   -1.129874
  H      4.131801   -2.410061    0.389777
  H      0.341647   -0.726420    1.577721
  H      1.376676   -1.511173    2.803182
  H      0.515622    0.641468    3.676145
  H      2.268879    0.749228    3.442919
  H      1.175322    1.503737    2.279899
  H     -0.588629    1.142106   -2.248092
  H      0.869948    1.922661   -1.523436
  H     -4.469101    0.734032    2.530356
  H     -2.714566    0.387129    2.519248
  H     -3.970139    3.130380    2.003680
  H     -3.226441    2.628448    3.530460
  H     -2.237688    2.786833    2.070515
  H     -2.516385   -2.772873    1.270712
  H     -3.393603   -2.217527   -0.183724
  H     -1.871994   -4.110856   -0.736816
  H     -1.369241   -2.629392   -1.566988
  H     -0.489100   -3.178210   -0.137627

 Total Charge           Charge          ....    0
 Multiplicity           Mult            ....    1
 Number of Electrons    NEL             ....  202
 Basis Dimension        Dim             ....  334

ORBITAL ENERGIES
----------------

  NO   OCC          E(Eh)            E(eV)
   0   2.0000     -88.047152     -2395.8848
   1   2.0000     -88.042890     -2395.7688
   2   2.0000     -87.989920     -2394.3274
   3   2.0000     -87.985108     -2394.1965
   4   2.0000     -76.429611     -2079.7554
   5   2.0000     -76.427927     -2079.7096
   6   2.0000     -18.797744      -511.5126
   7   2.0000     -18.796832      -511.4878
   8   2.0000     -18.794264      -511.4179
   9   2.0000     -18.792499      -511.3699
  10   2.0000      -9.964631      -271.1514
  11   2.0000      -9.959860      -271.0216
  12   2.0000      -9.958176      -270.9758
  13   2.0000      -9.952440      -270.8197
  14   2.0000      -9.952379      -270.8180
  15   2.0000      -9.894915      -269.2543
  16   2.0000      -9.893889      -269.2264
  17   2.0000      -9.886102      -269.0145
  18   2.0000      -9.879540      -268.8359
  19   2.0000      -7.692012      -209.3103
  20   2.0000      -7.687295      -209.1819
  21   2.0000      -7.635187      -207.7640
  22   2.0000      -7.630266      -207.6301
  23   2.0000      -6.427694      -174.9064
  24   2.0000      -6.425081      -174.8353
  25   2.0000      -5.719794      -155.6435
  26   2.0000      -5.716669      -155.5585
  27   2.0000      -5.715227      -155.5192
  28   2.0000      -5.711725      -155.4239
  29   2.0000      -5.708939      -155.3481
  30   2.0000      -5.704403      -155.2247
  31   2.0000      -5.664260      -154.1323
  32   2.0000      -5.659329      -153.9982
  33   2.0000      -5.655873      -153.9041
  34   2.0000      -5.655075      -153.8824
  35   2.0000      -5.650624      -153.7613
  36   2.0000      -5.650506      -153.7581
  37   2.0000      -4.650705      -126.5521
  38   2.0000      -4.649074      -126.5077
  39   2.0000      -4.648082      -126.4808
  40   2.0000      -4.647967      -126.4776
  41   2.0000      -4.646864      -126.4476
  42   2.0000      -4.645309      -126.4053
  43   2.0000      -0.989998       -26.9392
  44   2.0000      -0.989420       -26.9235
  45   2.0000      -0.948396       -25.8072
  46   2.0000      -0.944576       -25.7032
  47   2.0000      -0.766357       -20.8536
  48   2.0000      -0.725994       -19.7553
  49   2.0000      -0.715634       -19.4734
  50   2.0000      -0.697282       -18.9740
  51   2.0000      -0.691541       -18.8178
  52   2.0000      -0.678057       -18.4509
  53   2.0000      -0.653386       -17.7795
  54   2.0000      -0.640369       -17.4253
  55   2.0000      -0.598068       -16.2742
  56   2.0000      -0.589457       -16.0399
  57   2.0000      -0.583454       -15.8766
  58   2.0000      -0.581389       -15.8204
  59   2.0000      -0.560059       -15.2400
  60   2.0000      -0.514525       -14.0009
  61   2.0000      -0.498866       -13.5748
  62   2.0000      -0.482123       -13.1192
  63   2.0000      -0.474552       -12.9132
  64   2.0000      -0.461540       -12.5591
  65   2.0000      -0.451797       -12.2940
  66   2.0000      -0.447972       -12.1899
  67   2.0000      -0.438270       -11.9259
  68   2.0000      -0.428548       -11.6614
  69   2.0000      -0.427029       -11.6200
  70   2.0000      -0.411098       -11.1865
  71   2.0000      -0.403397       -10.9770
  72   2.0000      -0.393813       -10.7162
  73   2.0000      -0.389624       -10.6022
  74   2.0000      -0.381131       -10.3711
  75   2.0000      -0.376808       -10.2535
  76   2.0000      -0.368561       -10.0290
  77   2.0000      -0.363553        -9.8928
  78   2.0000      -0.358851        -9.7648
  79   2.0000      -0.357442        -9.7265
  80   2.0000      -0.355375        -9.6702
  81   2.0000      -0.349634        -9.5140
  82   2.0000      -0.345355        -9.3976
  83   2.0000      -0.341954        -9.3050
  84   2.0000      -0.335408        -9.1269
  85   2.0000      -0.321396        -8.7456
  86   2.0000      -0.315388        -8.5821
  87   2.0000      -0.306744        -8.3469
  88   2.0000      -0.298423        -8.1205
  89   2.0000      -0.293179        -7.9778
  90   2.0000      -0.287804        -7.8315
  91   2.0000      -0.279402        -7.6029
  92   2.0000      -0.276497        -7.5239
  93   2.0000      -0.274641        -7.4734
  94   2.0000      -0.260116        -7.0781
  95   2.0000      -0.236281        -6.4295
  96   2.0000      -0.218414        -5.9433
  97   2.0000      -0.212831        -5.7914
  98   2.0000      -0.204517        -5.5652
  99   2.0000      -0.201371        -5.4796
 100   2.0000      -0.199946        -5.4408
 101   0.0000      -0.046871        -1.2754
 102   0.0000      -0.029723        -0.8088
 103   0.0000      -0.007599        -0.2068
 104   0.0000      -0.001063        -0.0289
 105   0.0000       0.000940         0.0256

MULLIKEN ATOMIC CHARGES
-----------------------
   0 C :   -0.347085
   1 C :    0.005837
   2 O :   -0.359469
   3 P :    0.618453
   4 S :   -0.311809
   5 O :   -0.383561
   6 C :   -0.047138
   7 C :   -0.306235
   8 S :   -0.118723
   9 C :   -0.337004
  10 S :   -0.104195
  11 P :    0.617674
  12 S :   -0.308288
  13 O :   -0.364022
  14 C :   -0.031422
  15 C :   -0.300652
  16 O :   -0.382598
  17 C :   -0.012416
  18 C :   -0.298615
  19 H :    0.131585
  20 H :    0.117921
  21 H :    0.142805
  22 H :    0.113130
  23 H :    0.110928
  24 H :    0.142646
  25 H :    0.097062
  26 H :    0.100120
  27 H :    0.114895
  28 H :    0.138616
  29 H :    0.193338
  30 H :    0.197267
  31 H :    0.112950
  32 H :    0.106933
  33 H :    0.127135
  34 H :    0.113179
  35 H :    0.137304
  36 H :    0.100207
  37 H :    0.109855
  38 H :    0.108218
  39 H :    0.129124
  40 H :    0.126050
Sum of atomic charges:   -0.0000000

LOEWDIN ATOMIC CHARGES
----------------------
   0 C :   -0.370914
   1 C :   -0.108522
   2 O :   -0.235181
   3 P :    0.569221
   4 S :   -0.300495
   5 O :   -0.246635
   6 C :   -0.126691
   7 C :   -0.368474
   8 S :    0.084595
   9 C :   -0.486706
  10 S :    0.099433
  11 P :    0.568782
  12 S :   -0.306246
  13 O :   -0.243997
  14 C :   -0.118027
  15 C :   -0.360947
  16 O :   -0.255970
  17 C :   -0.117611
  18 C :   -0.361103
  19 H :    0.131355
  20 H :    0.133875
  21 H :    0.116807
  22 H :    0.124006
  23 H :    0.114901
  24 H :    0.104509
  25 H :    0.115133
  26 H :    0.124625
  27 H :    0.126516
  28 H :    0.117378
  29 H :    0.131237
  30 H :    0.130267
  31 H :    0.122463
  32 H :    0.108106
  33 H :    0.132670
  34 H :    0.131795
  35 H :    0.120474
  36 H :    0.114272
  37 H :    0.110761
  38 H :    0.128673
  39 H :    0.124912
  40 H :    0.120754

  Mayer bond orders larger than 0.100000
B(  0-C ,  1-C ) :   1.1679 B(  0-C , 19-H ) :   0.9419 B(  0-C , 20-H ) :   0.9353
B(  0-C , 21-H ) :   0.9260 B(  1-C ,  2-O ) :   0.9009 B(  1-C , 22-H ) :   0.9335
B(  1-C , 23-H ) :   0.9261 B(  2-O ,  3-P ) :   1.1434 B(  3-P ,  4-S ) :   1.6505
B(  3-P ,  5-O ) :   1.0729 B(  3-P ,  8-S ) :   0.9335 B(  4-S ,  8-S ) :   0.1136
B(  5-O ,  6-C ) :   0.9099 B(  6-C ,  7-C ) :   1.1659 B(  6-C , 24-H ) :   0.8934
B(  6-C , 25-H ) :   0.9347 B(  7-C , 26-H ) :   0.9379 B(  7-C , 27-H ) :   0.9443
B(  7-C , 28-H ) :   0.9276 B(  8-S ,  9-C ) :   1.0167 B(  9-C , 10-S ) :   1.0001
B(  9-C , 29-H ) :   0.8714 B(  9-C , 30-H ) :   0.8643 B( 10-S , 11-P ) :   0.9674
B( 10-S , 12-S ) :   0.1017 B( 11-P , 12-S ) :   1.6351 B( 11-P , 13-O ) :   1.1252
B( 11-P , 16-O ) :   1.0612 B( 13-O , 14-C ) :   0.9032 B( 14-C , 15-C ) :   1.1681
B( 14-C , 31-H ) :   0.9337 B( 14-C , 32-H ) :   0.9156 B( 15-C , 33-H ) :   0.9456
B( 15-C , 34-H ) :   0.9379 B( 15-C , 35-H ) :   0.9339 B( 16-O , 17-C ) :   0.8909
B( 17-C , 18-C ) :   1.1739 B( 17-C , 36-H ) :   0.9332 B( 17-C , 37-H ) :   0.9092
B( 18-C , 38-H ) :   0.9375 B( 18-C , 39-H ) :   0.9366 B( 18-C , 40-H ) :   0.9405

Dispersion correction           -0.066503312
FINAL SINGLE POINT ENERGY     -2929.518534778781

DIPOLE MOMENT
-------------

Method             : SCF
Type of density    : Electron Density
Multiplicity       :   1
Irrep              :   0
Energy             : -2929.6384035677524480 Eh
Relativity type    :
Basis              : AO
                                X                 Y                 Z
Electronic contribution:      2.381824980      13.392019975     -13.765078479
Nuclear contribution   :     -2.721497220     -15.090832384      15.300156754
                        -----------------------------------------
Total Dipole Moment    :     -0.339672239      -1.698812409       1.535078275
                        -----------------------------------------
Magnitude (a.u.)       :      2.314693531
Magnitude (Debye)      :      5.883483387

Rotational constants in cm-1:             0.011505             0.005516             0.004843
Rotational constants in MHz :           344.906154           165.367806           145.183819

                             ****ORCA TERMINATED NORMALLY****
TOTAL RUN TIME: 0 days 0 hours 0 minutes 22 seconds 45 msec
