                         Program Version 6.0.0  -   RELEASE  -
|  1> ! pbe def2-sv(p) def2/J RI DEFGRID1 loosescf d4 GCP(DFT/SV(P)) printgap
|  2> %output
|  3>     printlevel normal
|  4> end
|  5> * xyz 0 1
|  6> C 5.3976782994 0.8837927729 0.937047776
|  7> C 4.8004884245 0.4248551292 -0.3794676895
|  8> O 3.7393905568 -0.5283651295 -0.1652752457
|  9> P 2.215405044 -0.1030207716 -0.0324591591
| 10> S 1.7774613694 1.1798978337 1.3886301497
| 11> O 1.4957423643 -1.5087558453 0.0600577372
| 12> C 1.1955897643 -2.1334592523 1.3214531748
| 13> C 2.452353555 -2.6055401217 2.0199037753
| 14> S 1.7364387106 0.4965181251 -1.9968357363
| 15> C 0.0152286584 0.9584452154 -1.709851868
| 16> S -1.073465866 -0.5210498593 -1.7253595518
| 17> P -2.3523976431 -0.058586659 -0.1261487118
| 18> S -3.8194024439 -1.3259851676 0.1523628443
| 19> O -2.821296691 1.4568193016 -0.3248453896
| 20> C -4.0500029564 1.7790598286 -0.9978605705
| 21> C -3.942129894 1.5694645659 -2.494605214
| 22> O -1.278138438 0.1097747076 1.0320750203
| 23> C -1.6217410039 0.6754375898 2.3200808646
| 24> C -2.1460631169 -0.3797603076 3.2721849149
| 25> H 5.7594817818 0.0293709132 1.5024015493
| 26> H 6.2248663204 1.5573158446 0.7377284708
| 27> H 4.6508997266 1.4070487317 1.5302355855
| 28> H 5.5331972462 -0.1168959289 -0.9802541588
| 29> H 4.4138369688 1.2711153763 -0.9540718697
| 30> H 0.651928952 -1.4136621305 1.9417559224
| 31> H 0.5349927834 -2.9606499926 1.0556230675
| 32> H 2.1836519542 -3.1515283661 2.9188533233
| 33> H 3.0267728836 -3.2505149741 1.3602727128
| 34> H 3.0639133029 -1.7462899919 2.2931573064
| 35> H -0.2718659975 1.6064016098 -2.5331105644
| 36> H -0.0728480557 1.4610532697 -0.7464560225
| 37> H -4.8466352639 1.1550154259 -0.5800482327
| 38> H -4.2247752861 2.826045582 -0.7466508473
| 39> H -4.872032416 1.8709765297 -2.9658434384
| 40> H -3.1253347862 2.1573809086 -2.9046975355
| 41> H -3.7638712059 0.5160658858 -2.7089792158
| 42> H -0.6833539595 1.1085716045 2.6756467679
| 43> H -2.3543004121 1.4712717083 2.1698752178
| 44> H -3.0651156027 -0.8165731182 2.8869282856
| 45> H -1.4132206233 -1.1716816326 3.4033742486
| 46> H -2.3472337558 0.0827571836 4.2333012238
| 47> *
| 48>
| 49>                          ****END OF INPUT****

CARTESIAN COORDINATES (ANGSTROEM)
---------------------------------
  C      5.397678    0.883793    0.937048
  C      4.800488    0.424855   -0.379468
  O      3.739391   -0.528365   -0.165275
  P      2.215405   -0.103021   -0.032459
  S      1.777461    1.179898    1.388630
  O      1.495742   -1.508756    0.060058
  C      1.195590   -2.133459    1.321453
  C      2.452354   -2.605540    2.019904
  S      1.736439    0.496518   -1.996836
  C      0.015229    0.958445   -1.709852
  S     -1.073466   -0.521050   -1.725360
  P     -2.352398   -0.058587   -0.126149
  S     -3.819402   -1.325985    0.152363
  O     -2.821297    1.456819   -0.324845
  C     -4.050003    1.779060   -0.997861
  C     -3.942130    1.569465   -2.494605
  O     -1.278138    0.109775    1.032075
  C     -1.621741    0.675438    2.320081
  C     -2.146063   -0.379760    3.272185
  H      5.759482    0.029371    1.502402
  H      6.224866    1.557316    0.737728
  H      4.650900    1.407049    1.530236
  H      5.533197   -0.116896   -0.980254
  H      4.413837    1.271115   -0.954072
  H      0.651929   -1.413662    1.941756
  H      0.534993   -2.960650    1.055623
  H      2.183652   -3.151528    2.918853
  H      3.026773   -3.250515    1.360273
  H      3.063913   -1.746290    2.293157
  H     -0.271866    1.606402   -2.533111
  H     -0.072848    1.461053   -0.746456
  H     -4.846635    1.155015   -0.580048
  H     -4.224775    2.826046   -0.746651
  H     -4.872032    1.870977   -2.965843
  H     -3.125335    2.157381   -2.904698
  H     -3.763871    0.516066   -2.708979
  H     -0.683354    1.108572    2.675647
  H     -2.354300    1.471272    2.169875
  H     -3.065116   -0.816573    2.886928
  H     -1.413221   -1.171682    3.403374
  H     -2.347234    0.082757    4.233301

 Total Charge           Charge          ....    0
 Multiplicity           Mult            ....    1
 Number of Electrons    NEL             ....  202
 Basis Dimension        Dim             ....  334

ORBITAL ENERGIES
----------------

  NO   OCC          E(Eh)            E(eV)
   0   2.0000     -88.049308     -2395.9435
   1   2.0000     -88.040519     -2395.7043
   2   2.0000     -87.991086     -2394.3592
   3   2.0000     -87.984797     -2394.1881
   4   2.0000     -76.430476     -2079.7790
   5   2.0000     -76.424208     -2079.6084
   6   2.0000     -18.798955      -511.5456
   7   2.0000     -18.793582      -511.3994
   8   2.0000     -18.790020      -511.3024
   9   2.0000     -18.788229      -511.2537
  10   2.0000      -9.960872      -271.0491
  11   2.0000      -9.959954      -271.0241
  12   2.0000      -9.951624      -270.7975
  13   2.0000      -9.947562      -270.6869
  14   2.0000      -9.946472      -270.6573
  15   2.0000      -9.885489      -268.9978
  16   2.0000      -9.885243      -268.9911
  17   2.0000      -9.882632      -268.9201
  18   2.0000      -9.878068      -268.7959
  19   2.0000      -7.694980      -209.3911
  20   2.0000      -7.685856      -209.1428
  21   2.0000      -7.635914      -207.7838
  22   2.0000      -7.629978      -207.6222
  23   2.0000      -6.428212      -174.9205
  24   2.0000      -6.421981      -174.7510
  25   2.0000      -5.722879      -155.7275
  26   2.0000      -5.719447      -155.6341
  27   2.0000      -5.714245      -155.4925
  28   2.0000      -5.711866      -155.4278
  29   2.0000      -5.710163      -155.3814
  30   2.0000      -5.702484      -155.1725
  31   2.0000      -5.664621      -154.1422
  32   2.0000      -5.658903      -153.9866
  33   2.0000      -5.656669      -153.9258
  34   2.0000      -5.656131      -153.9112
  35   2.0000      -5.650638      -153.7617
  36   2.0000      -5.650073      -153.7463
  37   2.0000      -4.650660      -126.5509
  38   2.0000      -4.650009      -126.5332
  39   2.0000      -4.648738      -126.4986
  40   2.0000      -4.644663      -126.3877
  41   2.0000      -4.643845      -126.3655
  42   2.0000      -4.642237      -126.3217
  43   2.0000      -0.990496       -26.9528
  44   2.0000      -0.985486       -26.8164
  45   2.0000      -0.948925       -25.8216
  46   2.0000      -0.941931       -25.6312
  47   2.0000      -0.765797       -20.8384
  48   2.0000      -0.723100       -19.6766
  49   2.0000      -0.708227       -19.2718
  50   2.0000      -0.688561       -18.7367
  51   2.0000      -0.685987       -18.6667
  52   2.0000      -0.674370       -18.3505
  53   2.0000      -0.655660       -17.8414
  54   2.0000      -0.639694       -17.4070
  55   2.0000      -0.599529       -16.3140
  56   2.0000      -0.589597       -16.0437
  57   2.0000      -0.575306       -15.6549
  58   2.0000      -0.571872       -15.5614
  59   2.0000      -0.562889       -15.3170
  60   2.0000      -0.503539       -13.7020
  61   2.0000      -0.498714       -13.5707
  62   2.0000      -0.477161       -12.9842
  63   2.0000      -0.468228       -12.7411
  64   2.0000      -0.455004       -12.3813
  65   2.0000      -0.449806       -12.2398
  66   2.0000      -0.441855       -12.0235
  67   2.0000      -0.435298       -11.8451
  68   2.0000      -0.426953       -11.6180
  69   2.0000      -0.420200       -11.4342
  70   2.0000      -0.407364       -11.0849
  71   2.0000      -0.399710       -10.8767
  72   2.0000      -0.397673       -10.8212
  73   2.0000      -0.391322       -10.6484
  74   2.0000      -0.387436       -10.5427
  75   2.0000      -0.372132       -10.1262
  76   2.0000      -0.368513       -10.0277
  77   2.0000      -0.355373        -9.6702
  78   2.0000      -0.353345        -9.6150
  79   2.0000      -0.349497        -9.5103
  80   2.0000      -0.346667        -9.4333
  81   2.0000      -0.342412        -9.3175
  82   2.0000      -0.341016        -9.2795
  83   2.0000      -0.335320        -9.1245
  84   2.0000      -0.329971        -8.9790
  85   2.0000      -0.322970        -8.7885
  86   2.0000      -0.311312        -8.4712
  87   2.0000      -0.302396        -8.2286
  88   2.0000      -0.294115        -8.0033
  89   2.0000      -0.291683        -7.9371
  90   2.0000      -0.284866        -7.7516
  91   2.0000      -0.276078        -7.5125
  92   2.0000      -0.270815        -7.3692
  93   2.0000      -0.267516        -7.2795
  94   2.0000      -0.263097        -7.1592
  95   2.0000      -0.240403        -6.5417
  96   2.0000      -0.220639        -6.0039
  97   2.0000      -0.208669        -5.6782
  98   2.0000      -0.207922        -5.6579
  99   2.0000      -0.202485        -5.5099
 100   2.0000      -0.197235        -5.3670
 101   0.0000      -0.042403        -1.1538
 102   0.0000      -0.027481        -0.7478
 103   0.0000      -0.020142        -0.5481
 104   0.0000       0.005343         0.1454
 105   0.0000       0.016345         0.4448

MULLIKEN ATOMIC CHARGES
-----------------------
   0 C :   -0.296022
   1 C :   -0.016321
   2 O :   -0.370094
   3 P :    0.624433
   4 S :   -0.335742
   5 O :   -0.353087
   6 C :   -0.031597
   7 C :   -0.306521
   8 S :   -0.080274
   9 C :   -0.365309
  10 S :   -0.058000
  11 P :    0.608901
  12 S :   -0.322904
  13 O :   -0.388681
  14 C :   -0.007536
  15 C :   -0.314221
  16 O :   -0.371149
  17 C :   -0.010802
  18 C :   -0.302976
  19 H :    0.116762
  20 H :    0.109176
  21 H :    0.130637
  22 H :    0.111598
  23 H :    0.105564
  24 H :    0.136419
  25 H :    0.112639
  26 H :    0.111513
  27 H :    0.117758
  28 H :    0.120235
  29 H :    0.187733
  30 H :    0.199160
  31 H :    0.112529
  32 H :    0.103393
  33 H :    0.113439
  34 H :    0.111890
  35 H :    0.129877
  36 H :    0.117266
  37 H :    0.101794
  38 H :    0.127834
  39 H :    0.114218
  40 H :    0.106464
Sum of atomic charges:    0.0000000

LOEWDIN ATOMIC CHARGES
----------------------
   0 C :   -0.364268
   1 C :   -0.115110
   2 O :   -0.242445
   3 P :    0.576615
   4 S :   -0.310545
   5 O :   -0.229173
   6 C :   -0.119589
   7 C :   -0.364522
   8 S :    0.090288
   9 C :   -0.473411
  10 S :    0.092662
  11 P :    0.561826
  12 S :   -0.319268
  13 O :   -0.251568
  14 C :   -0.123137
  15 C :   -0.366597
  16 O :   -0.239988
  17 C :   -0.119541
  18 C :   -0.364000
  19 H :    0.126454
  20 H :    0.129709
  21 H :    0.124497
  22 H :    0.120969
  23 H :    0.108156
  24 H :    0.111028
  25 H :    0.122686
  26 H :    0.130194
  27 H :    0.126803
  28 H :    0.121005
  29 H :    0.134305
  30 H :    0.128204
  31 H :    0.109446
  32 H :    0.117191
  33 H :    0.131462
  34 H :    0.121510
  35 H :    0.123200
  36 H :    0.111557
  37 H :    0.109425
  38 H :    0.122628
  39 H :    0.122693
  40 H :    0.128647

  Mayer bond orders larger than 0.100000
B(  0-C ,  1-C ) :   1.1680 B(  0-C , 19-H ) :   0.9463 B(  0-C , 20-H ) :   0.9389
B(  0-C , 21-H ) :   0.9306 B(  1-C ,  2-O ) :   0.9034 B(  1-C , 22-H ) :   0.9353
B(  1-C , 23-H ) :   0.9177 B(  2-O ,  3-P ) :   1.1105 B(  3-P ,  4-S ) :   1.5972
B(  3-P ,  5-O ) :   1.1492 B(  3-P ,  8-S ) :   0.9618 B(  4-S ,  8-S ) :   0.1092
B(  5-O ,  6-C ) :   0.8985 B(  6-C ,  7-C ) :   1.1578 B(  6-C , 24-H ) :   0.9037
B(  6-C , 25-H ) :   0.9338 B(  7-C , 26-H ) :   0.9392 B(  7-C , 27-H ) :   0.9453
B(  7-C , 28-H ) :   0.9363 B(  8-S ,  9-C ) :   1.0189 B(  9-C , 10-S ) :   0.9572
B(  9-C , 29-H ) :   0.9078 B(  9-C , 30-H ) :   0.8648 B( 10-S , 11-P ) :   1.0023
B( 11-P , 12-S ) :   1.6486 B( 11-P , 13-O ) :   1.0477 B( 11-P , 16-O ) :   1.1103
B( 13-O , 14-C ) :   0.9133 B( 14-C , 15-C ) :   1.1638 B( 14-C , 31-H ) :   0.9096
B( 14-C , 32-H ) :   0.9329 B( 15-C , 33-H ) :   0.9390 B( 15-C , 34-H ) :   0.9459
B( 15-C , 35-H ) :   0.9351 B( 16-O , 17-C ) :   0.8885 B( 17-C , 18-C ) :   1.1725
B( 17-C , 36-H ) :   0.9152 B( 17-C , 37-H ) :   0.9203 B( 18-C , 38-H ) :   0.9291
B( 18-C , 39-H ) :   0.9480 B( 18-C , 40-H ) :   0.9390

Dispersion correction           -0.065524866
FINAL SINGLE POINT ENERGY     -2929.520816729766

DIPOLE MOMENT
-------------

Method             : SCF
Type of density    : Electron Density
Multiplicity       :   1
Irrep              :   0
Energy             : -2929.6420654182629733 Eh
Relativity type    :
Basis              : AO
                                X                 Y                 Z
Electronic contribution:     -4.102999308      -2.931847687     -12.897321660
Nuclear contribution   :      4.872771667       3.794289744      12.962628427
                        -----------------------------------------
Total Dipole Moment    :      0.769772359       0.862442057       0.065306767
                        -----------------------------------------
Magnitude (a.u.)       :      1.157851787
Magnitude (Debye)      :      2.943025356

Rotational constants in cm-1:             0.013108             0.005038             0.004435
Rotational constants in MHz :           392.976222           151.030417           132.962866

                             ****ORCA TERMINATED NORMALLY****
TOTAL RUN TIME: 0 days 0 hours 0 minutes 20 seconds 878 msec
