                         Program Version 6.0.0  -   RELEASE  -
|  1> ! pbe def2-sv(p) def2/J RI DEFGRID1 loosescf d4 GCP(DFT/SV(P)) printgap
|  2> %output
|  3>     printlevel normal
|  4> end
|  5> * xyz 0 1
|  6> C 4.4507867496 -2.0656143985 0.3689175614
|  7> C 4.8331560483 -0.915766768 -0.5392171799
|  8> O 3.7032928136 -0.3737412849 -1.2658588813
|  9> P 2.4464646909 0.3485247369 -0.6425190795
| 10> S 1.6019596319 1.4197395481 -2.0518957019
| 11> O 3.1010722186 1.0696674223 0.6102692584
| 12> C 2.406022444 1.831594197 1.6125202083
| 13> C 2.1468309488 3.2514234148 1.1521505819
| 14> S 1.2036866151 -1.1524278641 0.2152846411
| 15> C -0.0366534359 -1.288554615 -1.115284854
| 16> S -1.658485617 -1.7618802658 -0.4960108205
| 17> P -2.3726829748 0.1274508813 0.2092475883
| 18> S -1.0199983273 1.4911574203 0.5831238126
| 19> O -3.3261201441 -0.2383856762 1.4262449928
| 20> C -2.834499159 -0.359366763 2.7742806665
| 21> C -1.8862492332 -1.5289525526 2.94174048
| 22> O -3.3936136659 0.6396498349 -0.8814919494
| 23> C -4.759825642 0.1852269188 -1.0398529579
| 24> C -4.8547697257 -1.2914335123 -1.3595825155
| 25> H 3.8003942719 -1.7194714343 1.1698505168
| 26> H 3.9314091932 -2.8376279632 -0.1928011677
| 27> H 5.3531334493 -2.4854828028 0.8024834
| 28> H 5.5038073385 -1.2401194165 -1.3366509372
| 29> H 5.29422258 -0.1048665798 0.0270650877
| 30> H 1.4661606014 1.3330488629 1.8617595557
| 31> H 3.0790640013 1.8088381834 2.471731656
| 32> H 1.4417950289 3.2526740075 0.3227473364
| 33> H 1.7172941882 3.8193574417 1.9707451739
| 34> H 3.0724477279 3.7198859863 0.8283569752
| 35> H 0.2665352091 -2.0791772148 -1.7970596225
| 36> H -0.0901600565 -0.3238389543 -1.6277704502
| 37> H -2.340089166 0.5790180421 3.0439100498
| 38> H -3.7406983212 -0.4872664173 3.3681419669
| 39> H -1.6429492775 -1.6419337428 3.9932467138
| 40> H -2.3431638815 -2.4449587317 2.5764595006
| 41> H -0.965453909 -1.3515231818 2.3866605739
| 42> H -5.3030463839 0.4216866513 -0.1230101323
| 43> H -5.1306175365 0.8003276171 -1.861429334
| 44> H -4.4856867465 -1.8839590387 -0.5245610269
| 45> H -5.8943719975 -1.5448866106 -1.5426936382
| 46> H -4.2678019784 -1.529256721 -2.2429607924
| 47> *
| 48>
| 49>                          ****END OF INPUT****

CARTESIAN COORDINATES (ANGSTROEM)
---------------------------------
  C      4.450787   -2.065614    0.368918
  C      4.833156   -0.915767   -0.539217
  O      3.703293   -0.373741   -1.265859
  P      2.446465    0.348525   -0.642519
  S      1.601960    1.419740   -2.051896
  O      3.101072    1.069667    0.610269
  C      2.406022    1.831594    1.612520
  C      2.146831    3.251423    1.152151
  S      1.203687   -1.152428    0.215285
  C     -0.036653   -1.288555   -1.115285
  S     -1.658486   -1.761880   -0.496011
  P     -2.372683    0.127451    0.209248
  S     -1.019998    1.491157    0.583124
  O     -3.326120   -0.238386    1.426245
  C     -2.834499   -0.359367    2.774281
  C     -1.886249   -1.528953    2.941740
  O     -3.393614    0.639650   -0.881492
  C     -4.759826    0.185227   -1.039853
  C     -4.854770   -1.291434   -1.359583
  H      3.800394   -1.719471    1.169851
  H      3.931409   -2.837628   -0.192801
  H      5.353133   -2.485483    0.802483
  H      5.503807   -1.240119   -1.336651
  H      5.294223   -0.104867    0.027065
  H      1.466161    1.333049    1.861760
  H      3.079064    1.808838    2.471732
  H      1.441795    3.252674    0.322747
  H      1.717294    3.819357    1.970745
  H      3.072448    3.719886    0.828357
  H      0.266535   -2.079177   -1.797060
  H     -0.090160   -0.323839   -1.627770
  H     -2.340089    0.579018    3.043910
  H     -3.740698   -0.487266    3.368142
  H     -1.642949   -1.641934    3.993247
  H     -2.343164   -2.444959    2.576460
  H     -0.965454   -1.351523    2.386661
  H     -5.303046    0.421687   -0.123010
  H     -5.130618    0.800328   -1.861429
  H     -4.485687   -1.883959   -0.524561
  H     -5.894372   -1.544887   -1.542694
  H     -4.267802   -1.529257   -2.242961

 Total Charge           Charge          ....    0
 Multiplicity           Mult            ....    1
 Number of Electrons    NEL             ....  202
 Basis Dimension        Dim             ....  334

ORBITAL ENERGIES
----------------

  NO   OCC          E(Eh)            E(eV)
   0   2.0000     -88.043825     -2395.7943
   1   2.0000     -88.034915     -2395.5518
   2   2.0000     -87.982485     -2394.1251
   3   2.0000     -87.974136     -2393.8979
   4   2.0000     -76.426083     -2079.6594
   5   2.0000     -76.419589     -2079.4827
   6   2.0000     -18.796303      -511.4734
   7   2.0000     -18.791182      -511.3341
   8   2.0000     -18.788560      -511.2627
   9   2.0000     -18.780541      -511.0445
  10   2.0000      -9.957179      -270.9486
  11   2.0000      -9.955810      -270.9114
  12   2.0000      -9.951531      -270.7949
  13   2.0000      -9.948847      -270.7219
  14   2.0000      -9.948229      -270.7051
  15   2.0000      -9.890141      -269.1244
  16   2.0000      -9.886047      -269.0130
  17   2.0000      -9.884511      -268.9712
  18   2.0000      -9.873029      -268.6588
  19   2.0000      -7.688488      -209.2144
  20   2.0000      -7.679363      -208.9661
  21   2.0000      -7.627417      -207.5526
  22   2.0000      -7.619264      -207.3307
  23   2.0000      -6.423415      -174.7900
  24   2.0000      -6.416708      -174.6075
  25   2.0000      -5.716371      -155.5504
  26   2.0000      -5.712925      -155.4566
  27   2.0000      -5.707228      -155.3016
  28   2.0000      -5.705580      -155.2567
  29   2.0000      -5.703989      -155.2134
  30   2.0000      -5.696346      -155.0055
  31   2.0000      -5.656373      -153.9177
  32   2.0000      -5.648314      -153.6984
  33   2.0000      -5.648095      -153.6925
  34   2.0000      -5.647442      -153.6747
  35   2.0000      -5.639937      -153.4705
  36   2.0000      -5.639190      -153.4502
  37   2.0000      -4.646511      -126.4380
  38   2.0000      -4.644915      -126.3946
  39   2.0000      -4.643678      -126.3609
  40   2.0000      -4.639729      -126.2535
  41   2.0000      -4.638403      -126.2174
  42   2.0000      -4.636892      -126.1762
  43   2.0000      -0.988926       -26.9100
  44   2.0000      -0.982650       -26.7393
  45   2.0000      -0.944666       -25.7057
  46   2.0000      -0.937063       -25.4988
  47   2.0000      -0.757770       -20.6200
  48   2.0000      -0.718794       -19.5594
  49   2.0000      -0.709449       -19.3051
  50   2.0000      -0.692513       -18.8442
  51   2.0000      -0.686007       -18.6672
  52   2.0000      -0.674659       -18.3584
  53   2.0000      -0.649598       -17.6765
  54   2.0000      -0.629261       -17.1231
  55   2.0000      -0.596766       -16.2388
  56   2.0000      -0.584414       -15.9027
  57   2.0000      -0.580991       -15.8096
  58   2.0000      -0.574134       -15.6230
  59   2.0000      -0.555864       -15.1258
  60   2.0000      -0.497783       -13.5454
  61   2.0000      -0.493589       -13.4312
  62   2.0000      -0.471062       -12.8182
  63   2.0000      -0.469250       -12.7690
  64   2.0000      -0.452838       -12.3224
  65   2.0000      -0.447323       -12.1723
  66   2.0000      -0.443894       -12.0790
  67   2.0000      -0.430351       -11.7104
  68   2.0000      -0.427231       -11.6255
  69   2.0000      -0.421534       -11.4705
  70   2.0000      -0.412946       -11.2368
  71   2.0000      -0.401777       -10.9329
  72   2.0000      -0.394478       -10.7343
  73   2.0000      -0.388772       -10.5790
  74   2.0000      -0.376862       -10.2549
  75   2.0000      -0.370257       -10.0752
  76   2.0000      -0.357954        -9.7404
  77   2.0000      -0.353513        -9.6196
  78   2.0000      -0.353175        -9.6104
  79   2.0000      -0.349964        -9.5230
  80   2.0000      -0.346946        -9.4409
  81   2.0000      -0.344332        -9.3697
  82   2.0000      -0.341697        -9.2980
  83   2.0000      -0.335102        -9.1186
  84   2.0000      -0.326569        -8.8864
  85   2.0000      -0.317016        -8.6264
  86   2.0000      -0.310387        -8.4461
  87   2.0000      -0.297635        -8.0991
  88   2.0000      -0.296465        -8.0672
  89   2.0000      -0.290659        -7.9092
  90   2.0000      -0.285561        -7.7705
  91   2.0000      -0.274381        -7.4663
  92   2.0000      -0.270200        -7.3525
  93   2.0000      -0.260177        -7.0798
  94   2.0000      -0.253828        -6.9070
  95   2.0000      -0.235776        -6.4158
  96   2.0000      -0.216024        -5.8783
  97   2.0000      -0.208314        -5.6685
  98   2.0000      -0.193264        -5.2590
  99   2.0000      -0.187677        -5.1069
 100   2.0000      -0.181989        -4.9522
 101   0.0000      -0.041479        -1.1287
 102   0.0000      -0.029225        -0.7953
 103   0.0000      -0.015217        -0.4141
 104   0.0000       0.001543         0.0420
 105   0.0000       0.021139         0.5752

MULLIKEN ATOMIC CHARGES
-----------------------
   0 C :   -0.315006
   1 C :    0.005937
   2 O :   -0.363728
   3 P :    0.624128
   4 S :   -0.300450
   5 O :   -0.385876
   6 C :   -0.019120
   7 C :   -0.305815
   8 S :   -0.124585
   9 C :   -0.330813
  10 S :   -0.120354
  11 P :    0.612670
  12 S :   -0.302886
  13 O :   -0.386089
  14 C :    0.002300
  15 C :   -0.328652
  16 O :   -0.362092
  17 C :    0.007677
  18 C :   -0.325295
  19 H :    0.121925
  20 H :    0.121455
  21 H :    0.111495
  22 H :    0.108011
  23 H :    0.108242
  24 H :    0.124406
  25 H :    0.098157
  26 H :    0.146272
  27 H :    0.106757
  28 H :    0.112018
  29 H :    0.180577
  30 H :    0.205415
  31 H :    0.109664
  32 H :    0.103597
  33 H :    0.111465
  34 H :    0.116242
  35 H :    0.142250
  36 H :    0.109093
  37 H :    0.112782
  38 H :    0.124827
  39 H :    0.115341
  40 H :    0.128057
Sum of atomic charges:    0.0000000

LOEWDIN ATOMIC CHARGES
----------------------
   0 C :   -0.368011
   1 C :   -0.109584
   2 O :   -0.243141
   3 P :    0.566177
   4 S :   -0.292710
   5 O :   -0.242230
   6 C :   -0.118246
   7 C :   -0.364613
   8 S :    0.062284
   9 C :   -0.481906
  10 S :    0.081259
  11 P :    0.571789
  12 S :   -0.290072
  13 O :   -0.248661
  14 C :   -0.115901
  15 C :   -0.373313
  16 O :   -0.240314
  17 C :   -0.107752
  18 C :   -0.369732
  19 H :    0.116224
  20 H :    0.126475
  21 H :    0.129897
  22 H :    0.121320
  23 H :    0.113650
  24 H :    0.105915
  25 H :    0.114648
  26 H :    0.127012
  27 H :    0.129121
  28 H :    0.125205
  29 H :    0.134717
  30 H :    0.123628
  31 H :    0.111409
  32 H :    0.117870
  33 H :    0.130701
  34 H :    0.123348
  35 H :    0.118242
  36 H :    0.114480
  37 H :    0.123835
  38 H :    0.116615
  39 H :    0.132175
  40 H :    0.128190

  Mayer bond orders larger than 0.100000
B(  0-C ,  1-C ) :   1.1689 B(  0-C , 19-H ) :   0.9395 B(  0-C , 20-H ) :   0.9437
B(  0-C , 21-H ) :   0.9362 B(  1-C ,  2-O ) :   0.9082 B(  1-C , 22-H ) :   0.9351
B(  1-C , 23-H ) :   0.9273 B(  2-O ,  3-P ) :   1.1253 B(  3-P ,  4-S ) :   1.6548
B(  3-P ,  5-O ) :   1.0849 B(  3-P ,  8-S ) :   0.9445 B(  4-S ,  8-S ) :   0.1202
B(  4-S , 30-H ) :   0.1148 B(  5-O ,  6-C ) :   0.9026 B(  6-C ,  7-C ) :   1.1730
B(  6-C , 24-H ) :   0.9091 B(  6-C , 25-H ) :   0.9349 B(  7-C , 26-H ) :   0.9298
B(  7-C , 27-H ) :   0.9386 B(  7-C , 28-H ) :   0.9466 B(  8-S ,  9-C ) :   0.9852
B(  9-C , 10-S ) :   1.0069 B(  9-C , 29-H ) :   0.9098 B(  9-C , 30-H ) :   0.8449
B( 10-S , 11-P ) :   0.9350 B( 10-S , 12-S ) :   0.1159 B( 11-P , 12-S ) :   1.6597
B( 11-P , 13-O ) :   1.0740 B( 11-P , 16-O ) :   1.1340 B( 13-O , 14-C ) :   0.9045
B( 14-C , 15-C ) :   1.1662 B( 14-C , 31-H ) :   0.9164 B( 14-C , 32-H ) :   0.9342
B( 15-C , 33-H ) :   0.9362 B( 15-C , 34-H ) :   0.9436 B( 15-C , 35-H ) :   0.9268
B( 16-O , 17-C ) :   0.9036 B( 17-C , 18-C ) :   1.1692 B( 17-C , 36-H ) :   0.9281
B( 17-C , 37-H ) :   0.9339 B( 18-C , 38-H ) :   0.9372 B( 18-C , 39-H ) :   0.9358
B( 18-C , 40-H ) :   0.9418

Dispersion correction           -0.065590982
FINAL SINGLE POINT ENERGY     -2929.508977423499

DIPOLE MOMENT
-------------

Method             : SCF
Type of density    : Electron Density
Multiplicity       :   1
Irrep              :   0
Energy             : -2929.6284120895202250 Eh
Relativity type    :
Basis              : AO
                                X                 Y                 Z
Electronic contribution:      0.798866724       4.811308646     -11.845722874
Nuclear contribution   :     -1.267125087      -5.981239819      13.171083846
                        -----------------------------------------
Total Dipole Moment    :     -0.468258362      -1.169931172       1.325360972
                        -----------------------------------------
Magnitude (a.u.)       :      1.828821081
Magnitude (Debye)      :      4.648493767

Rotational constants in cm-1:             0.013002             0.004653             0.004554
Rotational constants in MHz :           389.803836           139.497991           136.535373

                             ****ORCA TERMINATED NORMALLY****
TOTAL RUN TIME: 0 days 0 hours 0 minutes 21 seconds 976 msec
