                         Program Version 6.0.1  -  RELEASE   -
|  1> ! pbe def2-sv(p) def2/J RI DEFGRID1 loosescf d4 GCP(DFT/SV(P)) printgap
|  2> %output
|  3>     printlevel normal
|  4> end
|  5> * xyz 0 1
|  6> C 5.4415693858 -1.6233256509 -0.553526509
|  7> C 4.3559748135 -2.0580761768 0.4180919147
|  8> O 3.066870059 -2.0835624071 -0.2284327859
|  9> C 2.3636684846 -0.9750402573 -0.2751834745
| 10> O 2.7157296974 0.0894945098 0.1936272398
| 11> C 1.0309948066 -1.1830107682 -0.9546452102
| 12> C 0.4084619483 0.1617528854 -1.3059701735
| 13> H 0.8282307669 0.5840500384 -2.2201607794
| 14> C 0.544861061 1.1698535595 -0.1804612111
| 15> O 0.0648514603 0.9739884774 0.9208538461
| 16> O 1.0766194122 2.2911067823 -0.5911583517
| 17> C 1.2770302886 3.362276882 0.3550515161
| 18> C 2.7498569765 3.4617037588 0.7134045139
| 19> S -1.3833697047 0.0262376866 -1.5989586979
| 20> P -2.1941875324 -0.2977333175 0.3538406562
| 21> S -1.4326844156 -1.6471087474 1.5549089586
| 22> O -2.5379863183 1.1030509574 1.0084817879
| 23> C -3.3811157607 2.0691697063 0.350390577
| 24> O -3.6720438142 -0.7145816614 -0.1188327402
| 25> C -3.9443691589 -1.9979224271 -0.6894303723
| 26> H 5.4439093087 -2.27204586 -1.4248675345
| 27> H 5.2696178706 -0.5980240454 -0.8728949826
| 28> H 6.4061963529 -1.6816851132 -0.0604283551
| 29> H 4.3035578545 -1.3800088334 1.274609668
| 30> H 4.5084824528 -3.0832375529 0.7553361097
| 31> H 0.4037953283 -1.7168131948 -0.2297612106
| 32> H 1.1423824827 -1.8148105546 -1.8343386728
| 33> H 0.927764927 4.261215993 -0.1556978858
| 34> H 0.6657065471 3.1618592799 1.2396062522
| 35> H 2.8909248791 4.2508626267 1.444306559
| 36> H 3.0886677115 2.5166738528 1.131648011
| 37> H 3.3359335949 3.6789771587 -0.1745203326
| 38> H -3.2957589898 2.9725810457 0.9489925527
| 39> H -4.4077687465 1.7084869622 0.3335671617
| 40> H -3.0319859228 2.2440828456 -0.6680039953
| 41> H -3.601735811 -2.0217846834 -1.7232185134
| 42> H -5.0234116566 -2.1185335267 -0.6388385117
| 43> H -3.4459334992 -2.7773148813 -0.1105205016
| 44> *
| 45>
| 46>                          ****END OF INPUT****

CARTESIAN COORDINATES (ANGSTROEM)
---------------------------------
  C      5.441569   -1.623326   -0.553527
  C      4.355975   -2.058076    0.418092
  O      3.066870   -2.083562   -0.228433
  C      2.363668   -0.975040   -0.275183
  O      2.715730    0.089495    0.193627
  C      1.030995   -1.183011   -0.954645
  C      0.408462    0.161753   -1.305970
  H      0.828231    0.584050   -2.220161
  C      0.544861    1.169854   -0.180461
  O      0.064851    0.973988    0.920854
  O      1.076619    2.291107   -0.591158
  C      1.277030    3.362277    0.355052
  C      2.749857    3.461704    0.713405
  S     -1.383370    0.026238   -1.598959
  P     -2.194188   -0.297733    0.353841
  S     -1.432684   -1.647109    1.554909
  O     -2.537986    1.103051    1.008482
  C     -3.381116    2.069170    0.350391
  O     -3.672044   -0.714582   -0.118833
  C     -3.944369   -1.997922   -0.689430
  H      5.443909   -2.272046   -1.424868
  H      5.269618   -0.598024   -0.872895
  H      6.406196   -1.681685   -0.060428
  H      4.303558   -1.380009    1.274610
  H      4.508482   -3.083238    0.755336
  H      0.403795   -1.716813   -0.229761
  H      1.142382   -1.814811   -1.834339
  H      0.927765    4.261216   -0.155698
  H      0.665707    3.161859    1.239606
  H      2.890925    4.250863    1.444307
  H      3.088668    2.516674    1.131648
  H      3.335934    3.678977   -0.174520
  H     -3.295759    2.972581    0.948993
  H     -4.407769    1.708487    0.333567
  H     -3.031986    2.244083   -0.668004
  H     -3.601736   -2.021785   -1.723219
  H     -5.023412   -2.118534   -0.638839
  H     -3.445933   -2.777315   -0.110521

 Total Charge           Charge          ....    0
 Multiplicity           Mult            ....    1
 Number of Electrons    NEL             ....  174
 Basis Dimension        Dim             ....  316

ORBITAL ENERGIES
----------------

  NO   OCC          E(Eh)            E(eV)
   0   2.0000     -88.039267     -2395.6703
   1   2.0000     -87.970726     -2393.8052
   2   2.0000     -76.419641     -2079.4841
   3   2.0000     -18.807887      -511.7886
   4   2.0000     -18.800971      -511.6004
   5   2.0000     -18.782429      -511.0959
   6   2.0000     -18.781785      -511.0784
   7   2.0000     -18.750362      -510.2233
   8   2.0000     -18.729005      -509.6421
   9   2.0000     -10.016957      -272.5753
  10   2.0000     -10.011900      -272.4376
  11   2.0000      -9.952603      -270.8241
  12   2.0000      -9.944857      -270.6133
  13   2.0000      -9.942685      -270.5542
  14   2.0000      -9.941793      -270.5299
  15   2.0000      -9.936484      -270.3855
  16   2.0000      -9.905423      -269.5403
  17   2.0000      -9.892002      -269.1751
  18   2.0000      -9.879318      -268.8299
  19   2.0000      -7.683783      -209.0864
  20   2.0000      -7.615934      -207.2401
  21   2.0000      -6.415550      -174.5760
  22   2.0000      -5.711627      -155.4213
  23   2.0000      -5.708095      -155.3251
  24   2.0000      -5.701067      -155.1339
  25   2.0000      -5.645246      -153.6150
  26   2.0000      -5.636651      -153.3811
  27   2.0000      -5.635536      -153.3507
  28   2.0000      -4.638622      -126.2233
  29   2.0000      -4.637556      -126.1943
  30   2.0000      -4.635683      -126.1434
  31   2.0000      -1.018444       -27.7133
  32   2.0000      -1.008808       -27.4511
  33   2.0000      -0.977329       -26.5945
  34   2.0000      -0.931698       -25.3528
  35   2.0000      -0.925969       -25.1969
  36   2.0000      -0.911659       -24.8075
  37   2.0000      -0.761805       -20.7298
  38   2.0000      -0.715470       -19.4689
  39   2.0000      -0.700999       -19.0752
  40   2.0000      -0.686689       -18.6858
  41   2.0000      -0.658823       -17.9275
  42   2.0000      -0.629294       -17.1239
  43   2.0000      -0.619103       -16.8467
  44   2.0000      -0.609042       -16.5729
  45   2.0000      -0.597399       -16.2560
  46   2.0000      -0.557574       -15.1724
  47   2.0000      -0.508717       -13.8429
  48   2.0000      -0.504891       -13.7388
  49   2.0000      -0.493652       -13.4329
  50   2.0000      -0.479844       -13.0572
  51   2.0000      -0.467288       -12.7155
  52   2.0000      -0.456438       -12.4203
  53   2.0000      -0.444309       -12.0903
  54   2.0000      -0.437639       -11.9087
  55   2.0000      -0.430227       -11.7071
  56   2.0000      -0.424291       -11.5456
  57   2.0000      -0.421357       -11.4657
  58   2.0000      -0.412471       -11.2239
  59   2.0000      -0.405949       -11.0464
  60   2.0000      -0.395790       -10.7700
  61   2.0000      -0.394614       -10.7380
  62   2.0000      -0.389266       -10.5925
  63   2.0000      -0.386041       -10.5047
  64   2.0000      -0.376715       -10.2509
  65   2.0000      -0.368504       -10.0275
  66   2.0000      -0.357847        -9.7375
  67   2.0000      -0.351496        -9.5647
  68   2.0000      -0.346652        -9.4329
  69   2.0000      -0.332519        -9.0483
  70   2.0000      -0.329546        -8.9674
  71   2.0000      -0.325479        -8.8567
  72   2.0000      -0.323963        -8.8155
  73   2.0000      -0.308530        -8.3955
  74   2.0000      -0.299619        -8.1530
  75   2.0000      -0.294206        -8.0057
  76   2.0000      -0.290269        -7.8986
  77   2.0000      -0.284233        -7.7344
  78   2.0000      -0.269768        -7.3408
  79   2.0000      -0.263851        -7.1798
  80   2.0000      -0.254042        -6.9128
  81   2.0000      -0.245785        -6.6882
  82   2.0000      -0.236104        -6.4247
  83   2.0000      -0.232540        -6.3277
  84   2.0000      -0.222178        -6.0458
  85   2.0000      -0.189238        -5.1494
  86   2.0000      -0.179103        -4.8736
  87   0.0000      -0.046259        -1.2588
  88   0.0000      -0.027969        -0.7611
  89   0.0000      -0.013142        -0.3576
  90   0.0000       0.018355         0.4995
  91   0.0000       0.029502         0.8028

MULLIKEN ATOMIC CHARGES
-----------------------
   0 C :   -0.306118
   1 C :   -0.013617
   2 O :   -0.223944
   3 C :    0.137452
   4 O :   -0.207808
   5 C :   -0.065843
   6 C :   -0.284175
   7 H :    0.125570
   8 C :    0.187895
   9 O :   -0.195390
  10 O :   -0.219365
  11 C :   -0.023400
  12 C :   -0.294712
  13 S :   -0.102132
  14 P :    0.618668
  15 S :   -0.296275
  16 O :   -0.356881
  17 C :   -0.101324
  18 O :   -0.399144
  19 C :   -0.099166
  20 H :    0.115716
  21 H :    0.125392
  22 H :    0.115896
  23 H :    0.114361
  24 H :    0.108595
  25 H :    0.144407
  26 H :    0.115802
  27 H :    0.099615
  28 H :    0.117846
  29 H :    0.107497
  30 H :    0.137283
  31 H :    0.107476
  32 H :    0.126991
  33 H :    0.123805
  34 H :    0.111487
  35 H :    0.111331
  36 H :    0.120614
  37 H :    0.115596
Sum of atomic charges:    0.0000000

LOEWDIN ATOMIC CHARGES
----------------------
   0 C :   -0.356074
   1 C :   -0.108386
   2 O :   -0.051307
   3 C :    0.049909
   4 O :   -0.155665
   5 C :   -0.265005
   6 C :   -0.258118
   7 H :    0.138664
   8 C :    0.005206
   9 O :   -0.166538
  10 O :   -0.044863
  11 C :   -0.108908
  12 C :   -0.354332
  13 S :    0.097865
  14 P :    0.585456
  15 S :   -0.297712
  16 O :   -0.233323
  17 C :   -0.210321
  18 O :   -0.266547
  19 C :   -0.219650
  20 H :    0.125641
  21 H :    0.129551
  22 H :    0.132149
  23 H :    0.122337
  24 H :    0.120884
  25 H :    0.143362
  26 H :    0.141809
  27 H :    0.115184
  28 H :    0.123128
  29 H :    0.127401
  30 H :    0.134883
  31 H :    0.122742
  32 H :    0.123405
  33 H :    0.116052
  34 H :    0.105699
  35 H :    0.106688
  36 H :    0.120129
  37 H :    0.108603

  Mayer bond orders larger than 0.100000
B(  0-C ,  1-C ) :   1.1734 B(  0-C , 20-H ) :   0.9485 B(  0-C , 21-H ) :   0.9467
B(  0-C , 22-H ) :   0.9440 B(  1-C ,  2-O ) :   0.9098 B(  1-C , 23-H ) :   0.9160
B(  1-C , 24-H ) :   0.9369 B(  2-O ,  3-C ) :   1.2557 B(  3-C ,  4-O ) :   1.9436
B(  3-C ,  5-C ) :   1.0198 B(  4-O ,  8-C ) :   0.1123 B(  5-C ,  6-C ) :   1.0077
B(  5-C , 25-H ) :   0.8254 B(  5-C , 26-H ) :   0.9018 B(  6-C ,  7-H ) :   0.8837
B(  6-C ,  8-C ) :   0.8948 B(  6-C , 13-S ) :   1.0106 B(  8-C ,  9-O ) :   1.9614
B(  8-C , 10-O ) :   1.2594 B(  9-O , 14-P ) :   0.1017 B( 10-O , 11-C ) :   0.9093
B( 11-C , 12-C ) :   1.1784 B( 11-C , 27-H ) :   0.9370 B( 11-C , 28-H ) :   0.9052
B( 12-C , 29-H ) :   0.9438 B( 12-C , 30-H ) :   0.9382 B( 12-C , 31-H ) :   0.9505
B( 13-S , 14-P ) :   0.9400 B( 13-S , 15-S ) :   0.1149 B( 14-P , 15-S ) :   1.6213
B( 14-P , 16-O ) :   1.1108 B( 14-P , 18-O ) :   1.0378 B( 15-S , 25-H ) :   0.1161
B( 16-O , 17-C ) :   0.9249 B( 17-C , 32-H ) :   0.9584 B( 17-C , 33-H ) :   0.9486
B( 17-C , 34-H ) :   0.9367 B( 18-O , 19-C ) :   0.9369 B( 19-C , 35-H ) :   0.9491
B( 19-C , 36-H ) :   0.9589 B( 19-C , 37-H ) :   0.9289

Dispersion correction           -0.051512318
FINAL SINGLE POINT ENERGY     -1979.010707067095

DIPOLE MOMENT
-------------

Method             : SCF
Type of density    : Electron Density
Multiplicity       :   1
Irrep              :   0
Energy             : -1979.1428392177822388 Eh
Relativity type    :
Basis              : AO
                                X                 Y                 Z
Electronic contribution:    -16.803672706      -5.426921935       1.855854178
Nuclear contribution   :     17.446671898       5.886370109      -3.097955577
                        -----------------------------------------
Total Dipole Moment    :      0.642999192       0.459448174      -1.242101399
                        -----------------------------------------
Magnitude (a.u.)       :      1.472194440
Magnitude (Debye)      :      3.742020884

Rotational constants in cm-1:             0.014129             0.006679             0.005318
Rotational constants in MHz :           423.567618           200.233061           159.432001

                             ****ORCA TERMINATED NORMALLY****
TOTAL RUN TIME: 0 days 0 hours 0 minutes 51 seconds 152 msec
