                         Program Version 6.0.0  -   RELEASE  -
|  1> ! pbe def2-sv(p) def2/J RI DEFGRID1 loosescf d4 GCP(DFT/SV(P)) printgap
|  2> %output
|  3>     printlevel normal
|  4> end
|  5> * xyz 0 1
|  6> C 5.1591675929 -0.2253560579 -2.1101477516
|  7> C 4.9474383694 -0.1133157172 -0.6141436028
|  8> O 3.8992948118 0.855235416 -0.3350311449
|  9> P 2.4985222282 0.4617720483 0.2562376242
| 10> S 1.3087391179 2.0021497185 0.4189648899
| 11> O 2.925500364 -0.2171454228 1.6319458514
| 12> C 2.0006747175 -0.5990959144 2.667104644
| 13> C 1.649304949 -2.0710122776 2.5728841081
| 14> S 1.8075973353 -1.1361241277 -1.0018063159
| 15> C 0.1165440832 -0.5786492106 -1.2150974011
| 16> S -0.886416279 -0.9185116978 0.2729995188
| 17> P -2.6310100183 0.0462167584 -0.4569099435
| 18> S -2.9269288325 -0.1190455318 -2.3833531997
| 19> O -2.5143361881 1.5719178527 -0.0794168566
| 20> C -2.3897768804 2.0435273348 1.2856164474
| 21> C -1.9876093841 3.5016099374 1.2359061083
| 22> O -3.7647535942 -0.4429163647 0.5434016854
| 23> C -4.0214262775 -1.8155175922 0.9031567855
| 24> C -4.2251313824 -2.7091278176 -0.3016337824
| 25> H 4.2737856849 -0.6351697854 -2.5900066553
| 26> H 5.3663007687 0.7546762824 -2.5309364847
| 27> H 6.0018695491 -0.8822943668 -2.3002107767
| 28> H 5.8336130329 0.2798875916 -0.1139274323
| 29> H 4.6728694344 -1.0751068834 -0.1774030805
| 30> H 2.52815186 -0.3774684057 3.5968106172
| 31> H 1.1079102863 0.0301634281 2.597488284
| 32> H 1.0403732643 -2.3429513473 3.4285936035
| 33> H 1.0861161382 -2.2750876951 1.6648423914
| 34> H 2.5552681637 -2.6701874104 2.5714782551
| 35> H -0.3059343945 -1.1214315143 -2.0589900904
| 36> H 0.1060923812 0.4979753553 -1.3964178726
| 37> H -3.354714956 1.9052748029 1.7765378972
| 38> H -1.6297841952 1.4425624035 1.7935541174
| 39> H -1.9532507988 3.8960837548 2.2460028255
| 40> H -1.0040921289 3.5998758681 0.7816972479
| 41> H -2.7056069424 4.0661853961 0.6483531343
| 42> H -3.1836161233 -2.1684434467 1.5107659872
| 43> H -4.9243763303 -1.7539210928 1.5129651317
| 44> H -5.0122475339 -2.3136890773 -0.939370168
| 45> H -3.3083641154 -2.7668228102 -0.8868071829
| 46> H -4.496828739 -3.705884824 0.0304417037
| 47> *
| 48>
| 49>                          ****END OF INPUT****

CARTESIAN COORDINATES (ANGSTROEM)
---------------------------------
  C      5.159168   -0.225356   -2.110148
  C      4.947438   -0.113316   -0.614144
  O      3.899295    0.855235   -0.335031
  P      2.498522    0.461772    0.256238
  S      1.308739    2.002150    0.418965
  O      2.925500   -0.217145    1.631946
  C      2.000675   -0.599096    2.667105
  C      1.649305   -2.071012    2.572884
  S      1.807597   -1.136124   -1.001806
  C      0.116544   -0.578649   -1.215097
  S     -0.886416   -0.918512    0.273000
  P     -2.631010    0.046217   -0.456910
  S     -2.926929   -0.119046   -2.383353
  O     -2.514336    1.571918   -0.079417
  C     -2.389777    2.043527    1.285616
  C     -1.987609    3.501610    1.235906
  O     -3.764754   -0.442916    0.543402
  C     -4.021426   -1.815518    0.903157
  C     -4.225131   -2.709128   -0.301634
  H      4.273786   -0.635170   -2.590007
  H      5.366301    0.754676   -2.530936
  H      6.001870   -0.882294   -2.300211
  H      5.833613    0.279888   -0.113927
  H      4.672869   -1.075107   -0.177403
  H      2.528152   -0.377468    3.596811
  H      1.107910    0.030163    2.597488
  H      1.040373   -2.342951    3.428594
  H      1.086116   -2.275088    1.664842
  H      2.555268   -2.670187    2.571478
  H     -0.305934   -1.121432   -2.058990
  H      0.106092    0.497975   -1.396418
  H     -3.354715    1.905275    1.776538
  H     -1.629784    1.442562    1.793554
  H     -1.953251    3.896084    2.246003
  H     -1.004092    3.599876    0.781697
  H     -2.705607    4.066185    0.648353
  H     -3.183616   -2.168443    1.510766
  H     -4.924376   -1.753921    1.512965
  H     -5.012248   -2.313689   -0.939370
  H     -3.308364   -2.766823   -0.886807
  H     -4.496829   -3.705885    0.030442

 Total Charge           Charge          ....    0
 Multiplicity           Mult            ....    1
 Number of Electrons    NEL             ....  202
 Basis Dimension        Dim             ....  334

ORBITAL ENERGIES
----------------

  NO   OCC          E(Eh)            E(eV)
   0   2.0000     -88.051493     -2396.0029
   1   2.0000     -88.043230     -2395.7781
   2   2.0000     -87.991497     -2394.3704
   3   2.0000     -87.979927     -2394.0555
   4   2.0000     -76.430715     -2079.7855
   5   2.0000     -76.423928     -2079.6008
   6   2.0000     -18.796031      -511.4660
   7   2.0000     -18.794357      -511.4205
   8   2.0000     -18.793784      -511.4049
   9   2.0000     -18.785488      -511.1791
  10   2.0000      -9.964205      -271.1398
  11   2.0000      -9.960595      -271.0416
  12   2.0000      -9.955996      -270.9164
  13   2.0000      -9.954141      -270.8659
  14   2.0000      -9.947202      -270.6771
  15   2.0000      -9.891075      -269.1498
  16   2.0000      -9.887147      -269.0430
  17   2.0000      -9.884361      -268.9671
  18   2.0000      -9.878798      -268.8158
  19   2.0000      -7.696190      -209.4240
  20   2.0000      -7.687751      -209.1943
  21   2.0000      -7.636438      -207.7980
  22   2.0000      -7.625305      -207.4951
  23   2.0000      -6.428436      -174.9266
  24   2.0000      -6.421107      -174.7272
  25   2.0000      -5.723971      -155.7572
  26   2.0000      -5.720742      -155.6693
  27   2.0000      -5.715422      -155.5245
  28   2.0000      -5.713273      -155.4661
  29   2.0000      -5.712391      -155.4421
  30   2.0000      -5.704939      -155.2393
  31   2.0000      -5.665459      -154.1650
  32   2.0000      -5.656829      -153.9301
  33   2.0000      -5.656679      -153.9261
  34   2.0000      -5.654443      -153.8652
  35   2.0000      -5.645785      -153.6296
  36   2.0000      -5.645349      -153.6178
  37   2.0000      -4.651089      -126.5626
  38   2.0000      -4.650178      -126.5378
  39   2.0000      -4.648821      -126.5009
  40   2.0000      -4.643949      -126.3683
  41   2.0000      -4.643200      -126.3479
  42   2.0000      -4.641084      -126.2903
  43   2.0000      -0.992260       -27.0008
  44   2.0000      -0.986397       -26.8412
  45   2.0000      -0.947764       -25.7900
  46   2.0000      -0.941680       -25.6244
  47   2.0000      -0.765820       -20.8390
  48   2.0000      -0.724830       -19.7236
  49   2.0000      -0.714290       -19.4368
  50   2.0000      -0.693872       -18.8812
  51   2.0000      -0.689483       -18.7618
  52   2.0000      -0.678692       -18.4682
  53   2.0000      -0.651890       -17.7388
  54   2.0000      -0.636559       -17.3217
  55   2.0000      -0.596497       -16.2315
  56   2.0000      -0.588886       -16.0244
  57   2.0000      -0.580073       -15.7846
  58   2.0000      -0.565626       -15.3915
  59   2.0000      -0.562621       -15.3097
  60   2.0000      -0.510150       -13.8819
  61   2.0000      -0.504370       -13.7246
  62   2.0000      -0.482557       -13.1310
  63   2.0000      -0.473379       -12.8813
  64   2.0000      -0.457496       -12.4491
  65   2.0000      -0.455254       -12.3881
  66   2.0000      -0.443866       -12.0782
  67   2.0000      -0.434666       -11.8279
  68   2.0000      -0.430255       -11.7078
  69   2.0000      -0.419713       -11.4210
  70   2.0000      -0.413906       -11.2629
  71   2.0000      -0.404148       -10.9974
  72   2.0000      -0.402034       -10.9399
  73   2.0000      -0.383255       -10.4289
  74   2.0000      -0.378763       -10.3067
  75   2.0000      -0.372612       -10.1393
  76   2.0000      -0.361636        -9.8406
  77   2.0000      -0.355195        -9.6654
  78   2.0000      -0.354130        -9.6364
  79   2.0000      -0.352705        -9.5976
  80   2.0000      -0.349329        -9.5057
  81   2.0000      -0.345420        -9.3993
  82   2.0000      -0.342096        -9.3089
  83   2.0000      -0.340933        -9.2773
  84   2.0000      -0.334837        -9.1114
  85   2.0000      -0.318086        -8.6556
  86   2.0000      -0.315131        -8.5752
  87   2.0000      -0.306727        -8.3465
  88   2.0000      -0.298608        -8.1256
  89   2.0000      -0.296210        -8.0603
  90   2.0000      -0.291309        -7.9269
  91   2.0000      -0.280110        -7.6222
  92   2.0000      -0.271349        -7.3838
  93   2.0000      -0.265916        -7.2360
  94   2.0000      -0.259689        -7.0665
  95   2.0000      -0.234790        -6.3890
  96   2.0000      -0.224657        -6.1132
  97   2.0000      -0.209898        -5.7116
  98   2.0000      -0.206944        -5.6312
  99   2.0000      -0.198739        -5.4080
 100   2.0000      -0.194295        -5.2870
 101   0.0000      -0.051030        -1.3886
 102   0.0000      -0.035425        -0.9640
 103   0.0000      -0.013292        -0.3617
 104   0.0000       0.003684         0.1002
 105   0.0000       0.006281         0.1709

MULLIKEN ATOMIC CHARGES
-----------------------
   0 C :   -0.286086
   1 C :   -0.021986
   2 O :   -0.354578
   3 P :    0.606073
   4 S :   -0.305291
   5 O :   -0.376834
   6 C :   -0.011666
   7 C :   -0.304777
   8 S :   -0.122436
   9 C :   -0.326690
  10 S :   -0.142684
  11 P :    0.608793
  12 S :   -0.312811
  13 O :   -0.354240
  14 C :   -0.014730
  15 C :   -0.287757
  16 O :   -0.384125
  17 C :   -0.009342
  18 C :   -0.309813
  19 H :    0.124173
  20 H :    0.124917
  21 H :    0.111818
  22 H :    0.116973
  23 H :    0.110112
  24 H :    0.106995
  25 H :    0.113077
  26 H :    0.107676
  27 H :    0.134220
  28 H :    0.111369
  29 H :    0.191053
  30 H :    0.203083
  31 H :    0.102343
  32 H :    0.106856
  33 H :    0.105721
  34 H :    0.136983
  35 H :    0.118692
  36 H :    0.110034
  37 H :    0.109472
  38 H :    0.128769
  39 H :    0.125708
  40 H :    0.110934
Sum of atomic charges:    0.0000000

LOEWDIN ATOMIC CHARGES
----------------------
   0 C :   -0.358220
   1 C :   -0.111591
   2 O :   -0.234948
   3 P :    0.568556
   4 S :   -0.285839
   5 O :   -0.249782
   6 C :   -0.117616
   7 C :   -0.365278
   8 S :    0.074998
   9 C :   -0.479353
  10 S :    0.053391
  11 P :    0.568756
  12 S :   -0.307207
  13 O :   -0.233597
  14 C :   -0.117667
  15 C :   -0.351525
  16 O :   -0.246382
  17 C :   -0.113729
  18 C :   -0.369468
  19 H :    0.123226
  20 H :    0.131857
  21 H :    0.130768
  22 H :    0.124488
  23 H :    0.108449
  24 H :    0.119568
  25 H :    0.105809
  26 H :    0.129562
  27 H :    0.111025
  28 H :    0.124632
  29 H :    0.132841
  30 H :    0.125690
  31 H :    0.111107
  32 H :    0.103020
  33 H :    0.128818
  34 H :    0.125441
  35 H :    0.128709
  36 H :    0.107228
  37 H :    0.121368
  38 H :    0.131550
  39 H :    0.121393
  40 H :    0.129951

  Mayer bond orders larger than 0.100000
B(  0-C ,  1-C ) :   1.1639 B(  0-C , 19-H ) :   0.9407 B(  0-C , 20-H ) :   0.9458
B(  0-C , 21-H ) :   0.9394 B(  1-C ,  2-O ) :   0.8846 B(  1-C , 22-H ) :   0.9338
B(  1-C , 23-H ) :   0.9187 B(  2-O ,  3-P ) :   1.1554 B(  3-P ,  4-S ) :   1.6529
B(  3-P ,  5-O ) :   1.0911 B(  3-P ,  8-S ) :   0.9133 B(  4-S ,  8-S ) :   0.1136
B(  5-O ,  6-C ) :   0.9067 B(  6-C ,  7-C ) :   1.1690 B(  6-C , 24-H ) :   0.9347
B(  6-C , 25-H ) :   0.9066 B(  7-C , 26-H ) :   0.9398 B(  7-C , 27-H ) :   0.9271
B(  7-C , 28-H ) :   0.9458 B(  8-S ,  9-C ) :   1.0255 B(  9-C , 10-S ) :   0.9699
B(  9-C , 29-H ) :   0.8850 B(  9-C , 30-H ) :   0.8669 B( 10-S , 11-P ) :   0.9490
B( 10-S , 12-S ) :   0.1109 B( 11-P , 12-S ) :   1.6420 B( 11-P , 13-O ) :   1.1419
B( 11-P , 16-O ) :   1.0847 B( 13-O , 14-C ) :   0.8888 B( 14-C , 15-C ) :   1.1688
B( 14-C , 31-H ) :   0.9294 B( 14-C , 32-H ) :   0.9105 B( 15-C , 33-H ) :   0.9405
B( 15-C , 34-H ) :   0.9406 B( 15-C , 35-H ) :   0.9487 B( 16-O , 17-C ) :   0.9133
B( 17-C , 18-C ) :   1.1672 B( 17-C , 36-H ) :   0.9269 B( 17-C , 37-H ) :   0.9334
B( 18-C , 38-H ) :   0.9428 B( 18-C , 39-H ) :   0.9318 B( 18-C , 40-H ) :   0.9347

Dispersion correction           -0.063537192
FINAL SINGLE POINT ENERGY     -2929.515388539125

DIPOLE MOMENT
-------------

Method             : SCF
Type of density    : Electron Density
Multiplicity       :   1
Irrep              :   0
Energy             : -2929.6360644687811146 Eh
Relativity type    :
Basis              : AO
                                X                 Y                 Z
Electronic contribution:     -1.920812885       6.296066808      -9.217062387
Nuclear contribution   :      2.673634934      -7.567658640      10.758462783
                        -----------------------------------------
Total Dipole Moment    :      0.752822049      -1.271591832       1.541400396
                        -----------------------------------------
Magnitude (a.u.)       :      2.135322460
Magnitude (Debye)      :      5.427558357

Rotational constants in cm-1:             0.012033             0.004553             0.004378
Rotational constants in MHz :           360.749649           136.491089           131.261818

                             ****ORCA TERMINATED NORMALLY****
TOTAL RUN TIME: 0 days 0 hours 0 minutes 20 seconds 777 msec
