                         Program Version 6.0.1  -  RELEASE   -
|  1> ! pbe def2-sv(p) def2/J RI DEFGRID1 loosescf d4 GCP(DFT/SV(P)) printgap
|  2> %output
|  3>     printlevel normal
|  4> end
|  5> * xyz 0 1
|  6> C 4.2369570281 -1.8898813966 1.1638505476
|  7> C 2.7874811869 -1.9924897971 0.7343946764
|  8> O 2.5812172816 -1.0781434386 -0.3603203253
|  9> C 1.4117598409 -1.0628177066 -0.9459894633
| 10> O 0.47929061 -1.7862756999 -0.6372287434
| 11> C 1.3257569275 -0.0422788148 -2.0574147393
| 12> C 0.1725798574 0.9244708513 -1.7988590849
| 13> H 0.058238671 1.6002869815 -2.6526067809
| 14> C 0.3349751662 1.781394056 -0.551705241
| 15> O -0.6056418256 2.3328621091 -0.0178876824
| 16> O 1.5810517655 1.8755615455 -0.1737534399
| 17> C 1.8771407525 2.6420307247 1.0118633431
| 18> C 3.3797741621 2.8216526357 1.082219184
| 19> S -1.4596071819 0.1055525483 -1.7074475309
| 20> P -1.6433500789 -0.5113871743 0.3261022988
| 21> S -0.357090156 -0.1779162182 1.7656977769
| 22> O -3.0935733872 0.1010657032 0.6763314881
| 23> C -3.3426989718 1.4805581567 0.9384935628
| 24> O -2.0518686332 -2.0358285273 0.2960254355
| 25> C -2.9709771418 -2.5915858322 -0.6609301163
| 26> H 4.4517674101 -0.8846724302 1.5129943157
| 27> H 4.4194649855 -2.5921070588 1.9701850633
| 28> H 4.8902646909 -2.1221911522 0.3282806475
| 29> H 2.0994548785 -1.7193013174 1.5413530622
| 30> H 2.5310227739 -3.0001982741 0.3923617852
| 31> H 1.132055997 -0.5693882972 -2.9928867773
| 32> H 2.2655635137 0.5046780533 -2.1144640515
| 33> H 1.3457314887 3.5962110375 0.9483220883
| 34> H 1.4884250487 2.0831314308 1.8698393325
| 35> H 3.7319524469 3.386346174 0.2243361868
| 36> H 3.6320247832 3.3550026447 1.9922622284
| 37> H 3.865018843 1.8503813304 1.089225982
| 38> H -2.6304407411 1.8614604512 1.6715436153
| 39> H -4.3564447476 1.5236029655 1.3285775458
| 40> H -3.2525824349 2.0601188792 0.0200109225
| 41> H -3.1190011523 -3.6199054358 -0.3415409942
| 42> H -2.5283215997 -2.5584222947 -1.6561606961
| 43> H -3.9100536062 -2.0405528598 -0.645139009
| 44> *
| 45>
| 46>                          ****END OF INPUT****

CARTESIAN COORDINATES (ANGSTROEM)
---------------------------------
  C      4.236957   -1.889881    1.163851
  C      2.787481   -1.992490    0.734395
  O      2.581217   -1.078143   -0.360320
  C      1.411760   -1.062818   -0.945989
  O      0.479291   -1.786276   -0.637229
  C      1.325757   -0.042279   -2.057415
  C      0.172580    0.924471   -1.798859
  H      0.058239    1.600287   -2.652607
  C      0.334975    1.781394   -0.551705
  O     -0.605642    2.332862   -0.017888
  O      1.581052    1.875562   -0.173753
  C      1.877141    2.642031    1.011863
  C      3.379774    2.821653    1.082219
  S     -1.459607    0.105553   -1.707448
  P     -1.643350   -0.511387    0.326102
  S     -0.357090   -0.177916    1.765698
  O     -3.093573    0.101066    0.676331
  C     -3.342699    1.480558    0.938494
  O     -2.051869   -2.035829    0.296025
  C     -2.970977   -2.591586   -0.660930
  H      4.451767   -0.884672    1.512994
  H      4.419465   -2.592107    1.970185
  H      4.890265   -2.122191    0.328281
  H      2.099455   -1.719301    1.541353
  H      2.531023   -3.000198    0.392362
  H      1.132056   -0.569388   -2.992887
  H      2.265564    0.504678   -2.114464
  H      1.345731    3.596211    0.948322
  H      1.488425    2.083131    1.869839
  H      3.731952    3.386346    0.224336
  H      3.632025    3.355003    1.992262
  H      3.865019    1.850381    1.089226
  H     -2.630441    1.861460    1.671544
  H     -4.356445    1.523603    1.328578
  H     -3.252582    2.060119    0.020011
  H     -3.119001   -3.619905   -0.341541
  H     -2.528322   -2.558422   -1.656161
  H     -3.910054   -2.040553   -0.645139

 Total Charge           Charge          ....    0
 Multiplicity           Mult            ....    1
 Number of Electrons    NEL             ....  174
 Basis Dimension        Dim             ....  316

ORBITAL ENERGIES
----------------

  NO   OCC          E(Eh)            E(eV)
   0   2.0000     -88.031835     -2395.4680
   1   2.0000     -87.970462     -2393.7980
   2   2.0000     -76.416504     -2079.3988
   3   2.0000     -18.811818      -511.8956
   4   2.0000     -18.804079      -511.6850
   5   2.0000     -18.775413      -510.9050
   6   2.0000     -18.770166      -510.7622
   7   2.0000     -18.737762      -509.8804
   8   2.0000     -18.734870      -509.8017
   9   2.0000     -10.017494      -272.5899
  10   2.0000     -10.008999      -272.3587
  11   2.0000      -9.953531      -270.8493
  12   2.0000      -9.947985      -270.6984
  13   2.0000      -9.941373      -270.5185
  14   2.0000      -9.937037      -270.4005
  15   2.0000      -9.921291      -269.9720
  16   2.0000      -9.911522      -269.7062
  17   2.0000      -9.890838      -269.1434
  18   2.0000      -9.887517      -269.0530
  19   2.0000      -7.676684      -208.8932
  20   2.0000      -7.615621      -207.2316
  21   2.0000      -6.411999      -174.4794
  22   2.0000      -5.705007      -155.2411
  23   2.0000      -5.701397      -155.1429
  24   2.0000      -5.692999      -154.9144
  25   2.0000      -5.644902      -153.6056
  26   2.0000      -5.636228      -153.3696
  27   2.0000      -5.635263      -153.3433
  28   2.0000      -4.634698      -126.1165
  29   2.0000      -4.634159      -126.1019
  30   2.0000      -4.632431      -126.0549
  31   2.0000      -1.019954       -27.7544
  32   2.0000      -1.011083       -27.5130
  33   2.0000      -0.968362       -26.3505
  34   2.0000      -0.921942       -25.0873
  35   2.0000      -0.919096       -25.0099
  36   2.0000      -0.912455       -24.8292
  37   2.0000      -0.763949       -20.7881
  38   2.0000      -0.711326       -19.3562
  39   2.0000      -0.708939       -19.2912
  40   2.0000      -0.686394       -18.6777
  41   2.0000      -0.655265       -17.8307
  42   2.0000      -0.620873       -16.8948
  43   2.0000      -0.614212       -16.7136
  44   2.0000      -0.608213       -16.5503
  45   2.0000      -0.587852       -15.9963
  46   2.0000      -0.561919       -15.2906
  47   2.0000      -0.514390       -13.9973
  48   2.0000      -0.507794       -13.8178
  49   2.0000      -0.497906       -13.5487
  50   2.0000      -0.480921       -13.0865
  51   2.0000      -0.459294       -12.4980
  52   2.0000      -0.451616       -12.2891
  53   2.0000      -0.449497       -12.2314
  54   2.0000      -0.443442       -12.0667
  55   2.0000      -0.421100       -11.4587
  56   2.0000      -0.417581       -11.3630
  57   2.0000      -0.413054       -11.2398
  58   2.0000      -0.409255       -11.1364
  59   2.0000      -0.405285       -11.0284
  60   2.0000      -0.394513       -10.7352
  61   2.0000      -0.387932       -10.5562
  62   2.0000      -0.384258       -10.4562
  63   2.0000      -0.376264       -10.2387
  64   2.0000      -0.369840       -10.0639
  65   2.0000      -0.364151        -9.9090
  66   2.0000      -0.358559        -9.7569
  67   2.0000      -0.355982        -9.6868
  68   2.0000      -0.352871        -9.6021
  69   2.0000      -0.340982        -9.2786
  70   2.0000      -0.336998        -9.1702
  71   2.0000      -0.320113        -8.7107
  72   2.0000      -0.314344        -8.5537
  73   2.0000      -0.308502        -8.3948
  74   2.0000      -0.303789        -8.2665
  75   2.0000      -0.297885        -8.1059
  76   2.0000      -0.283326        -7.7097
  77   2.0000      -0.281264        -7.6536
  78   2.0000      -0.267226        -7.2716
  79   2.0000      -0.259933        -7.0731
  80   2.0000      -0.252697        -6.8762
  81   2.0000      -0.246918        -6.7190
  82   2.0000      -0.231583        -6.3017
  83   2.0000      -0.225505        -6.1363
  84   2.0000      -0.196902        -5.3580
  85   2.0000      -0.190820        -5.1925
  86   2.0000      -0.179588        -4.8868
  87   0.0000      -0.044841        -1.2202
  88   0.0000      -0.034290        -0.9331
  89   0.0000      -0.027824        -0.7571
  90   0.0000       0.005833         0.1587
  91   0.0000       0.026028         0.7083

MULLIKEN ATOMIC CHARGES
-----------------------
   0 C :   -0.285125
   1 C :   -0.039614
   2 O :   -0.214804
   3 C :    0.091665
   4 O :   -0.212282
   5 C :    0.023117
   6 C :   -0.331804
   7 H :    0.154863
   8 C :    0.177836
   9 O :   -0.185158
  10 O :   -0.217655
  11 C :   -0.029369
  12 C :   -0.288331
  13 S :   -0.093804
  14 P :    0.631550
  15 S :   -0.329375
  16 O :   -0.392266
  17 C :   -0.091184
  18 O :   -0.354296
  19 C :   -0.106891
  20 H :    0.122569
  21 H :    0.112677
  22 H :    0.111494
  23 H :    0.128514
  24 H :    0.104127
  25 H :    0.113129
  26 H :    0.106346
  27 H :    0.107506
  28 H :    0.123873
  29 H :    0.111675
  30 H :    0.113252
  31 H :    0.127420
  32 H :    0.116596
  33 H :    0.110653
  34 H :    0.113023
  35 H :    0.127885
  36 H :    0.124162
  37 H :    0.118028
Sum of atomic charges:    0.0000000

LOEWDIN ATOMIC CHARGES
----------------------
   0 C :   -0.351523
   1 C :   -0.111076
   2 O :   -0.043480
   3 C :    0.024220
   4 O :   -0.175896
   5 C :   -0.251943
   6 C :   -0.258148
   7 H :    0.153360
   8 C :   -0.006216
   9 O :   -0.162013
  10 O :   -0.039529
  11 C :   -0.106577
  12 C :   -0.351978
  13 S :    0.105480
  14 P :    0.595274
  15 S :   -0.297908
  16 O :   -0.265322
  17 C :   -0.215429
  18 O :   -0.231200
  19 C :   -0.211485
  20 H :    0.124452
  21 H :    0.131813
  22 H :    0.124754
  23 H :    0.118604
  24 H :    0.117092
  25 H :    0.144630
  26 H :    0.138206
  27 H :    0.118130
  28 H :    0.119432
  29 H :    0.125005
  30 H :    0.131988
  31 H :    0.127140
  32 H :    0.110377
  33 H :    0.113929
  34 H :    0.107974
  35 H :    0.125033
  36 H :    0.111086
  37 H :    0.111745

  Mayer bond orders larger than 0.100000
B(  0-C ,  1-C ) :   1.1504 B(  0-C , 20-H ) :   0.9462 B(  0-C , 21-H ) :   0.9432
B(  0-C , 22-H ) :   0.9496 B(  1-C ,  2-O ) :   0.8934 B(  1-C , 23-H ) :   0.9181
B(  1-C , 24-H ) :   0.9288 B(  2-O ,  3-C ) :   1.2683 B(  3-C ,  4-O ) :   1.9534
B(  3-C ,  5-C ) :   1.0113 B(  5-C ,  6-C ) :   1.0291 B(  5-C , 25-H ) :   0.8786
B(  5-C , 26-H ) :   0.8806 B(  6-C ,  7-H ) :   0.8703 B(  6-C ,  8-C ) :   0.8926
B(  6-C , 13-S ) :   1.0450 B(  8-C ,  9-O ) :   2.0350 B(  8-C , 10-O ) :   1.2734
B( 10-O , 11-C ) :   0.8896 B( 11-C , 12-C ) :   1.1533 B( 11-C , 27-H ) :   0.9265
B( 11-C , 28-H ) :   0.9204 B( 12-C , 29-H ) :   0.9501 B( 12-C , 30-H ) :   0.9427
B( 12-C , 31-H ) :   0.9422 B( 13-S , 14-P ) :   0.9235 B( 13-S , 15-S ) :   0.1201
B( 14-P , 15-S ) :   1.5688 B( 14-P , 16-O ) :   1.0699 B( 14-P , 18-O ) :   1.1363
B( 16-O , 17-C ) :   0.9377 B( 17-C , 32-H ) :   0.9394 B( 17-C , 33-H ) :   0.9563
B( 17-C , 34-H ) :   0.9461 B( 18-O , 19-C ) :   0.9265 B( 19-C , 35-H ) :   0.9602
B( 19-C , 36-H ) :   0.9402 B( 19-C , 37-H ) :   0.9444

Dispersion correction           -0.055906571
FINAL SINGLE POINT ENERGY     -1979.005110459561

DIPOLE MOMENT
-------------

Method             : SCF
Type of density    : Electron Density
Multiplicity       :   1
Irrep              :   0
Energy             : -1979.1330256594742423 Eh
Relativity type    :
Basis              : AO
                                X                 Y                 Z
Electronic contribution:    -15.652268944      -2.685289766      -4.727366693
Nuclear contribution   :     16.622328178       2.996921399       3.912828277
                        -----------------------------------------
Total Dipole Moment    :      0.970059234       0.311631633      -0.814538416
                        -----------------------------------------
Magnitude (a.u.)       :      1.304454684
Magnitude (Debye)      :      3.315660308

Rotational constants in cm-1:             0.013568             0.008664             0.007181
Rotational constants in MHz :           406.749695           259.745678           215.269640

                             ****ORCA TERMINATED NORMALLY****
TOTAL RUN TIME: 0 days 0 hours 0 minutes 40 seconds 788 msec
