                         Program Version 6.0.0  -   RELEASE  -
|  1> ! r2scan-3c def2/J RI DEFGRID2 scfconv6 printgap
|  2> %output
|  3>     printlevel normal
|  4> end
|  5> * xyz 0 1
|  6> C 0.8481158657 1.3993300729 -0.6073649407
|  7> C 1.5990740784 0.1860141633 -0.0413511592
|  8> H 2.5803203693 0.1196559416 -0.523169987
|  9> C 0.7901329654 -1.1000268172 -0.3338029221
| 10> H 1.2481336026 -1.926682279 0.2314844819
| 11> C -0.6639718374 -0.9261397083 0.1459813683
| 12> H -1.262015821 -1.7635313351 -0.2354706303
| 13> C -1.2537327816 0.3690111097 -0.4507458281
| 14> H -1.2826759273 0.2695794564 -1.5475717802
| 15> O -0.4644958574 1.4816336602 -0.0876520217
| 16> O -2.5459343963 0.5901843852 -0.0288760441
| 17> O -0.7570211573 -0.8177363598 1.5462442299
| 18> O 0.7371142932 -1.3966175396 -1.7072449071
| 19> O 1.8588870911 0.3171319085 1.3327264226
| 20> H 0.8129840305 1.3278042689 -1.7021576183
| 21> H 1.3395257062 2.3241848975 -0.3047783919
| 22> H -2.5454580507 0.6574522295 0.9411262349
| 23> H -0.6411253868 -1.6862867082 1.955650517
| 24> H 1.6093865658 -1.6823046541 -2.0157619524
| 25> H 1.0108150498 0.4443547557 1.7908189289
| 26> *
| 27>
| 28>                          ****END OF INPUT****

CARTESIAN COORDINATES (ANGSTROEM)
---------------------------------
  C      0.848116    1.399330   -0.607365
  C      1.599074    0.186014   -0.041351
  H      2.580320    0.119656   -0.523170
  C      0.790133   -1.100027   -0.333803
  H      1.248134   -1.926682    0.231484
  C     -0.663972   -0.926140    0.145981
  H     -1.262016   -1.763531   -0.235471
  C     -1.253733    0.369011   -0.450746
  H     -1.282676    0.269579   -1.547572
  O     -0.464496    1.481634   -0.087652
  O     -2.545934    0.590184   -0.028876
  O     -0.757021   -0.817736    1.546244
  O      0.737114   -1.396618   -1.707245
  O      1.858887    0.317132    1.332726
  H      0.812984    1.327804   -1.702158
  H      1.339526    2.324185   -0.304778
  H     -2.545458    0.657452    0.941126
  H     -0.641125   -1.686287    1.955651
  H      1.609387   -1.682305   -2.015762
  H      1.010815    0.444355    1.790819

 Total Charge           Charge          ....    0
 Multiplicity           Mult            ....    1
 Number of Electrons    NEL             ....   80
 Basis Dimension        Dim             ....  265

ORBITAL ENERGIES
----------------

  NO   OCC          E(Eh)            E(eV)
   0   2.0000     -18.981163      -516.5037
   1   2.0000     -18.973053      -516.2830
   2   2.0000     -18.960441      -515.9398
   3   2.0000     -18.958287      -515.8812
   4   2.0000     -18.946799      -515.5686
   5   2.0000     -10.132562      -275.7210
   6   2.0000     -10.096879      -274.7500
   7   2.0000     -10.096627      -274.7432
   8   2.0000     -10.088270      -274.5158
   9   2.0000     -10.079306      -274.2719
  10   2.0000      -1.047986       -28.5171
  11   2.0000      -1.015649       -27.6372
  12   2.0000      -1.009326       -27.4652
  13   2.0000      -0.990506       -26.9530
  14   2.0000      -0.972003       -26.4495
  15   2.0000      -0.745596       -20.2887
  16   2.0000      -0.716661       -19.5013
  17   2.0000      -0.626411       -17.0455
  18   2.0000      -0.616046       -16.7635
  19   2.0000      -0.570031       -15.5113
  20   2.0000      -0.520132       -14.1535
  21   2.0000      -0.509639       -13.8680
  22   2.0000      -0.485214       -13.2033
  23   2.0000      -0.468930       -12.7602
  24   2.0000      -0.453125       -12.3302
  25   2.0000      -0.444275       -12.0893
  26   2.0000      -0.434709       -11.8290
  27   2.0000      -0.395347       -10.7580
  28   2.0000      -0.390425       -10.6240
  29   2.0000      -0.370434       -10.0800
  30   2.0000      -0.358732        -9.7616
  31   2.0000      -0.340743        -9.2721
  32   2.0000      -0.320025        -8.7083
  33   2.0000      -0.314620        -8.5612
  34   2.0000      -0.297215        -8.0876
  35   2.0000      -0.276173        -7.5150
  36   2.0000      -0.274841        -7.4788
  37   2.0000      -0.260618        -7.0918
  38   2.0000      -0.236157        -6.4261
  39   2.0000      -0.214726        -5.8430
  40   0.0000       0.021784         0.5928
  41   0.0000       0.042646         1.1604
  42   0.0000       0.080003         2.1770
  43   0.0000       0.090665         2.4671
  44   0.0000       0.096361         2.6221

MULLIKEN ATOMIC CHARGES
-----------------------
   0 C :   -0.213570
   1 C :   -0.002519
   2 H :    0.150465
   3 C :   -0.070768
   4 H :    0.145740
   5 C :    0.057666
   6 H :    0.149502
   7 C :   -0.118627
   8 H :    0.158199
   9 O :   -0.217131
  10 O :   -0.373517
  11 O :   -0.431066
  12 O :   -0.406067
  13 O :   -0.403592
  14 H :    0.154408
  15 H :    0.161980
  16 H :    0.324537
  17 H :    0.304145
  18 H :    0.300192
  19 H :    0.330026
Sum of atomic charges:   -0.0000000

LOEWDIN ATOMIC CHARGES
----------------------
   0 C :    0.044649
   1 C :    0.083356
   2 H :    0.188073
   3 C :    0.104010
   4 H :    0.176626
   5 C :    0.121308
   6 H :    0.188980
   7 C :    0.288945
   8 H :    0.204833
   9 O :   -0.674637
  10 O :   -0.476172
  11 O :   -0.580651
  12 O :   -0.591505
  13 O :   -0.573252
  14 H :    0.177402
  15 H :    0.191979
  16 H :    0.287279
  17 H :    0.278481
  18 H :    0.275484
  19 H :    0.284811

  Mayer bond orders larger than 0.100000
B(  0-C ,  1-C ) :   0.8854 B(  0-C ,  9-O ) :   0.9163 B(  0-C , 14-H ) :   0.9805
B(  0-C , 15-H ) :   0.9551 B(  1-C ,  2-H ) :   0.9732 B(  1-C ,  3-C ) :   0.8343
B(  1-C , 13-O ) :   0.9764 B(  3-C ,  4-H ) :   0.9817 B(  3-C ,  5-C ) :   0.8972
B(  3-C , 12-O ) :   0.9223 B(  5-C ,  6-H ) :   0.9422 B(  5-C ,  7-C ) :   0.9257
B(  5-C , 11-O ) :   0.9474 B(  7-C ,  8-H ) :   0.9845 B(  7-C ,  9-O ) :   0.9500
B(  7-C , 10-O ) :   1.1267 B( 10-O , 16-H ) :   0.8627 B( 11-O , 17-H ) :   0.8977
B( 12-O , 18-H ) :   0.8966 B( 13-O , 19-H ) :   0.8432

Dispersion correction           -0.006469191
FINAL SINGLE POINT ENERGY      -572.559917177691

DIPOLE MOMENT
-------------

Method             : SCF
Type of density    : Electron Density
Multiplicity       :   1
Irrep              :   0
Energy             :  -572.5702143610275243 Eh
Relativity type    :
Basis              : AO
                                X                 Y                 Z
Electronic contribution:     -2.070574779       0.731334748       1.261908635
Nuclear contribution   :      2.675090734      -1.794734830      -1.307028346
                        -----------------------------------------
Total Dipole Moment    :      0.604515954      -1.063400082      -0.045119711
                        -----------------------------------------
Magnitude (a.u.)       :      1.224048635
Magnitude (Debye)      :      3.111284372

Rotational constants in cm-1:             0.058027             0.040669             0.038596
Rotational constants in MHz :          1739.604209          1219.218821          1157.071171

                             ****ORCA TERMINATED NORMALLY****
TOTAL RUN TIME: 0 days 0 hours 0 minutes 36 seconds 660 msec
