                         Program Version 6.0.0  -   RELEASE  -
|  1> ! r2scan-3c def2/J RI DEFGRID2 scfconv6 printgap
|  2> %output
|  3>     printlevel normal
|  4> end
|  5> %cpcm
|  6>     smd true
|  7>     smdsolvent "water"
|  8> end
|  9> * xyz 0 1
| 10> C 0.8481158657 1.3993300729 -0.6073649407
| 11> C 1.5990740784 0.1860141633 -0.0413511592
| 12> H 2.5803203693 0.1196559416 -0.523169987
| 13> C 0.7901329654 -1.1000268172 -0.3338029221
| 14> H 1.2481336026 -1.926682279 0.2314844819
| 15> C -0.6639718374 -0.9261397083 0.1459813683
| 16> H -1.262015821 -1.7635313351 -0.2354706303
| 17> C -1.2537327816 0.3690111097 -0.4507458281
| 18> H -1.2826759273 0.2695794564 -1.5475717802
| 19> O -0.4644958574 1.4816336602 -0.0876520217
| 20> O -2.5459343963 0.5901843852 -0.0288760441
| 21> O -0.7570211573 -0.8177363598 1.5462442299
| 22> O 0.7371142932 -1.3966175396 -1.7072449071
| 23> O 1.8588870911 0.3171319085 1.3327264226
| 24> H 0.8129840305 1.3278042689 -1.7021576183
| 25> H 1.3395257062 2.3241848975 -0.3047783919
| 26> H -2.5454580507 0.6574522295 0.9411262349
| 27> H -0.6411253868 -1.6862867082 1.955650517
| 28> H 1.6093865658 -1.6823046541 -2.0157619524
| 29> H 1.0108150498 0.4443547557 1.7908189289
| 30> *
| 31>
| 32>                          ****END OF INPUT****

CARTESIAN COORDINATES (ANGSTROEM)
---------------------------------
  C      0.848116    1.399330   -0.607365
  C      1.599074    0.186014   -0.041351
  H      2.580320    0.119656   -0.523170
  C      0.790133   -1.100027   -0.333803
  H      1.248134   -1.926682    0.231484
  C     -0.663972   -0.926140    0.145981
  H     -1.262016   -1.763531   -0.235471
  C     -1.253733    0.369011   -0.450746
  H     -1.282676    0.269579   -1.547572
  O     -0.464496    1.481634   -0.087652
  O     -2.545934    0.590184   -0.028876
  O     -0.757021   -0.817736    1.546244
  O      0.737114   -1.396618   -1.707245
  O      1.858887    0.317132    1.332726
  H      0.812984    1.327804   -1.702158
  H      1.339526    2.324185   -0.304778
  H     -2.545458    0.657452    0.941126
  H     -0.641125   -1.686287    1.955651
  H      1.609387   -1.682305   -2.015762
  H      1.010815    0.444355    1.790819

 Total Charge           Charge          ....    0
 Multiplicity           Mult            ....    1
 Number of Electrons    NEL             ....   80
 Basis Dimension        Dim             ....  265

ORBITAL ENERGIES
----------------

  NO   OCC          E(Eh)            E(eV)
   0   2.0000     -18.967860      -516.1417
   1   2.0000     -18.967380      -516.1286
   2   2.0000     -18.965865      -516.0874
   3   2.0000     -18.961443      -515.9671
   4   2.0000     -18.954093      -515.7671
   5   2.0000     -10.132696      -275.7247
   6   2.0000     -10.086273      -274.4614
   7   2.0000     -10.084801      -274.4214
   8   2.0000     -10.081429      -274.3296
   9   2.0000     -10.075271      -274.1621
  10   2.0000      -1.051521       -28.6133
  11   2.0000      -1.007298       -27.4100
  12   2.0000      -0.997193       -27.1350
  13   2.0000      -0.992973       -27.0202
  14   2.0000      -0.978918       -26.6377
  15   2.0000      -0.736813       -20.0497
  16   2.0000      -0.713829       -19.4243
  17   2.0000      -0.620155       -16.8753
  18   2.0000      -0.613107       -16.6835
  19   2.0000      -0.563087       -15.3224
  20   2.0000      -0.517029       -14.0691
  21   2.0000      -0.501973       -13.6594
  22   2.0000      -0.477050       -12.9812
  23   2.0000      -0.466652       -12.6983
  24   2.0000      -0.450935       -12.2706
  25   2.0000      -0.439202       -11.9513
  26   2.0000      -0.428906       -11.6711
  27   2.0000      -0.393022       -10.6947
  28   2.0000      -0.387380       -10.5412
  29   2.0000      -0.371946       -10.1212
  30   2.0000      -0.351698        -9.5702
  31   2.0000      -0.339261        -9.2318
  32   2.0000      -0.323217        -8.7952
  33   2.0000      -0.314759        -8.5650
  34   2.0000      -0.301852        -8.2138
  35   2.0000      -0.278910        -7.5895
  36   2.0000      -0.268396        -7.3034
  37   2.0000      -0.266290        -7.2461
  38   2.0000      -0.233503        -6.3539
  39   2.0000      -0.216052        -5.8791
  40   0.0000       0.041023         1.1163
  41   0.0000       0.066848         1.8190
  42   0.0000       0.093336         2.5398
  43   0.0000       0.101455         2.7607
  44   0.0000       0.105817         2.8794

MULLIKEN ATOMIC CHARGES
-----------------------
   0 C :   -0.248344
   1 C :    0.003464
   2 H :    0.178586
   3 C :   -0.081651
   4 H :    0.172858
   5 C :    0.068788
   6 H :    0.171243
   7 C :   -0.094863
   8 H :    0.174889
   9 O :   -0.265860
  10 O :   -0.441871
  11 O :   -0.475048
  12 O :   -0.472026
  13 O :   -0.476856
  14 H :    0.178385
  15 H :    0.177196
  16 H :    0.367412
  17 H :    0.352718
  18 H :    0.351810
  19 H :    0.359168
Sum of atomic charges:   -0.0000000

LOEWDIN ATOMIC CHARGES
----------------------
   0 C :    0.046268
   1 C :    0.086553
   2 H :    0.201930
   3 C :    0.111218
   4 H :    0.188643
   5 C :    0.125149
   6 H :    0.196121
   7 C :    0.283085
   8 H :    0.210952
   9 O :   -0.706364
  10 O :   -0.508272
  11 O :   -0.585182
  12 O :   -0.609184
  13 O :   -0.609005
  14 H :    0.187135
  15 H :    0.197164
  16 H :    0.300332
  17 H :    0.297115
  18 H :    0.294820
  19 H :    0.291523

  Mayer bond orders larger than 0.100000
B(  0-C ,  1-C ) :   0.8822 B(  0-C ,  9-O ) :   0.9014 B(  0-C , 14-H ) :   0.9769
B(  0-C , 15-H ) :   0.9480 B(  1-C ,  2-H ) :   0.9613 B(  1-C ,  3-C ) :   0.8502
B(  1-C , 13-O ) :   0.9465 B(  3-C ,  4-H ) :   0.9838 B(  3-C ,  5-C ) :   0.8907
B(  3-C , 12-O ) :   0.9289 B(  5-C ,  6-H ) :   0.9411 B(  5-C ,  7-C ) :   0.9132
B(  5-C , 11-O ) :   0.9469 B(  7-C ,  8-H ) :   0.9812 B(  7-C ,  9-O ) :   0.9340
B(  7-C , 10-O ) :   1.1031 B( 10-O , 16-H ) :   0.8387 B( 11-O , 17-H ) :   0.8714
B( 12-O , 18-H ) :   0.8702 B( 13-O , 19-H ) :   0.8284

Dispersion correction           -0.006469191
FINAL SINGLE POINT ENERGY      -572.588424427545

DIPOLE MOMENT
-------------

Method             : SCF
Type of density    : Electron Density
Multiplicity       :   1
Irrep              :   0
Energy             :  -572.5987216108813982 Eh
Relativity type    :
Basis              : AO
                                X                 Y                 Z
Electronic contribution:     -1.741220118       0.285296651       1.200911022
Nuclear contribution   :      2.675090734      -1.794734830      -1.307028346
                        -----------------------------------------
Total Dipole Moment    :      0.933870616      -1.509438179      -0.106117324
                        -----------------------------------------
Magnitude (a.u.)       :      1.778139148
Magnitude (Debye)      :      4.519670530

Rotational constants in cm-1:             0.058027             0.040669             0.038596
Rotational constants in MHz :          1739.604209          1219.218821          1157.071171

                             ****ORCA TERMINATED NORMALLY****
TOTAL RUN TIME: 0 days 0 hours 0 minutes 46 seconds 632 msec
