                         Program Version 6.0.0  -   RELEASE  -
|  1> ! pbe def2-sv(p) def2/J RI DEFGRID1 loosescf d4 GCP(DFT/SV(P)) printgap
|  2> %output
|  3>     printlevel normal
|  4> end
|  5> * xyz 0 1
|  6> C 1.2732217498 -1.935640692 -2.0683495884
|  7> C 2.4422381438 -0.9752352291 -2.1284749662
|  8> O 2.4079676986 0.0082599912 -1.0680352998
|  9> P 2.5384607222 -0.2782515045 0.4807532118
| 10> S 3.2127444737 1.2926853038 1.4364443445
| 11> O 3.4665069791 -1.5673500221 0.5081545505
| 12> C 4.2064061355 -1.9629520894 1.6790228913
| 13> C 3.302382051 -2.379201021 2.8206111412
| 14> S 0.6425147353 -0.9694853667 1.1618633222
| 15> C -0.0802538548 0.6610652111 1.4265319195
| 16> S -0.2740068322 1.6239272622 -0.1120856565
| 17> P -2.1357491093 0.8437046701 -0.7206116576
| 18> S -2.82738694 1.512180804 -2.4269483091
| 19> O -3.1081280576 1.0499932104 0.5330483297
| 20> C -3.9869288726 2.1855525195 0.6465791924
| 21> C -5.399996326 1.7889679766 0.2657987057
| 22> O -1.8307122769 -0.7042715585 -0.6303920267
| 23> C -2.8836181853 -1.6776311168 -0.8463577263
| 24> C -2.2596721058 -3.0533608629 -0.7464798831
| 25> H 1.3395445452 -2.5588867068 -1.1787735375
| 26> H 0.3351601171 -1.3841592338 -2.0440931206
| 27> H 1.2910216406 -2.5684663582 -2.9504962397
| 28> H 2.4133595557 -0.3643421672 -3.0326067206
| 29> H 3.392260628 -1.5098616766 -2.0693059402
| 30> H 4.8202581058 -2.79309754 1.3264542634
| 31> H 4.8455621662 -1.1274184436 1.979925726
| 32> H 3.9075726694 -2.7922192887 3.6212289501
| 33> H 2.7598419281 -1.5147860623 3.1994926411
| 34> H 2.5863412712 -3.1253914099 2.4862565228
| 35> H 0.5855927844 1.249242807 2.0583518912
| 36> H -1.0516668978 0.5149015007 1.8913075641
| 37> H -3.9245300952 2.4965312121 1.6908146738
| 38> H -3.6246157848 2.9900673817 0.0004454099
| 39> H -6.061260809 2.6363340654 0.4145485733
| 40> H -5.431966686 1.4942130626 -0.7810803996
| 41> H -5.7356018574 0.9582467472 0.8800430769
| 42> H -3.6473132508 -1.5281229206 -0.0798544493
| 43> H -3.3231410956 -1.4947199529 -1.8318262997
| 44> H -1.5391276714 -3.2011179795 -1.545075954
| 45> H -1.7509798874 -3.1561870352 0.2080758022
| 46> H -3.0406652334 -3.8025664783 -0.824761146
| 47> *
| 48>
| 49>                          ****END OF INPUT****

CARTESIAN COORDINATES (ANGSTROEM)
---------------------------------
  C      1.273222   -1.935641   -2.068350
  C      2.442238   -0.975235   -2.128475
  O      2.407968    0.008260   -1.068035
  P      2.538461   -0.278252    0.480753
  S      3.212744    1.292685    1.436444
  O      3.466507   -1.567350    0.508155
  C      4.206406   -1.962952    1.679023
  C      3.302382   -2.379201    2.820611
  S      0.642515   -0.969485    1.161863
  C     -0.080254    0.661065    1.426532
  S     -0.274007    1.623927   -0.112086
  P     -2.135749    0.843705   -0.720612
  S     -2.827387    1.512181   -2.426948
  O     -3.108128    1.049993    0.533048
  C     -3.986929    2.185553    0.646579
  C     -5.399996    1.788968    0.265799
  O     -1.830712   -0.704272   -0.630392
  C     -2.883618   -1.677631   -0.846358
  C     -2.259672   -3.053361   -0.746480
  H      1.339545   -2.558887   -1.178774
  H      0.335160   -1.384159   -2.044093
  H      1.291022   -2.568466   -2.950496
  H      2.413360   -0.364342   -3.032607
  H      3.392261   -1.509862   -2.069306
  H      4.820258   -2.793098    1.326454
  H      4.845562   -1.127418    1.979926
  H      3.907573   -2.792219    3.621229
  H      2.759842   -1.514786    3.199493
  H      2.586341   -3.125391    2.486257
  H      0.585593    1.249243    2.058352
  H     -1.051667    0.514902    1.891308
  H     -3.924530    2.496531    1.690815
  H     -3.624616    2.990067    0.000445
  H     -6.061261    2.636334    0.414549
  H     -5.431967    1.494213   -0.781080
  H     -5.735602    0.958247    0.880043
  H     -3.647313   -1.528123   -0.079854
  H     -3.323141   -1.494720   -1.831826
  H     -1.539128   -3.201118   -1.545076
  H     -1.750980   -3.156187    0.208076
  H     -3.040665   -3.802566   -0.824761

 Total Charge           Charge          ....    0
 Multiplicity           Mult            ....    1
 Number of Electrons    NEL             ....  202
 Basis Dimension        Dim             ....  334

ORBITAL ENERGIES
----------------

  NO   OCC          E(Eh)            E(eV)
   0   2.0000     -88.040057     -2395.6918
   1   2.0000     -88.039765     -2395.6838
   2   2.0000     -87.985958     -2394.2196
   3   2.0000     -87.984160     -2394.1707
   4   2.0000     -76.427204     -2079.6900
   5   2.0000     -76.425757     -2079.6506
   6   2.0000     -18.799588      -511.5628
   7   2.0000     -18.795048      -511.4393
   8   2.0000     -18.794848      -511.4338
   9   2.0000     -18.786950      -511.2189
  10   2.0000      -9.957991      -270.9707
  11   2.0000      -9.957476      -270.9567
  12   2.0000      -9.955093      -270.8918
  13   2.0000      -9.954297      -270.8702
  14   2.0000      -9.952715      -270.8271
  15   2.0000      -9.891700      -269.1668
  16   2.0000      -9.887275      -269.0464
  17   2.0000      -9.884909      -268.9820
  18   2.0000      -9.882854      -268.9261
  19   2.0000      -7.685001      -209.1195
  20   2.0000      -7.684960      -209.1184
  21   2.0000      -7.631173      -207.6548
  22   2.0000      -7.629447      -207.6078
  23   2.0000      -6.424367      -174.8159
  24   2.0000      -6.423724      -174.7984
  25   2.0000      -5.713187      -155.4637
  26   2.0000      -5.712731      -155.4513
  27   2.0000      -5.709653      -155.3676
  28   2.0000      -5.709376      -155.3600
  29   2.0000      -5.701854      -155.1553
  30   2.0000      -5.701768      -155.1530
  31   2.0000      -5.660127      -154.0199
  32   2.0000      -5.658387      -153.9725
  33   2.0000      -5.651803      -153.7934
  34   2.0000      -5.651302      -153.7797
  35   2.0000      -5.650204      -153.7499
  36   2.0000      -5.649417      -153.7285
  37   2.0000      -4.647549      -126.4662
  38   2.0000      -4.646373      -126.4342
  39   2.0000      -4.645827      -126.4194
  40   2.0000      -4.645593      -126.4130
  41   2.0000      -4.644616      -126.3864
  42   2.0000      -4.643965      -126.3687
  43   2.0000      -0.990259       -26.9463
  44   2.0000      -0.989214       -26.9179
  45   2.0000      -0.947220       -25.7752
  46   2.0000      -0.944050       -25.6889
  47   2.0000      -0.763266       -20.7695
  48   2.0000      -0.724326       -19.7099
  49   2.0000      -0.710490       -19.3334
  50   2.0000      -0.691744       -18.8233
  51   2.0000      -0.691131       -18.8066
  52   2.0000      -0.675270       -18.3750
  53   2.0000      -0.652722       -17.7615
  54   2.0000      -0.635162       -17.2836
  55   2.0000      -0.598823       -16.2948
  56   2.0000      -0.589059       -16.0291
  57   2.0000      -0.579542       -15.7701
  58   2.0000      -0.575495       -15.6600
  59   2.0000      -0.558182       -15.1889
  60   2.0000      -0.510428       -13.8895
  61   2.0000      -0.496738       -13.5169
  62   2.0000      -0.484823       -13.1927
  63   2.0000      -0.470642       -12.8068
  64   2.0000      -0.459160       -12.4944
  65   2.0000      -0.448558       -12.2059
  66   2.0000      -0.445947       -12.1348
  67   2.0000      -0.436446       -11.8763
  68   2.0000      -0.426171       -11.5967
  69   2.0000      -0.424633       -11.5549
  70   2.0000      -0.408013       -11.1026
  71   2.0000      -0.403186       -10.9713
  72   2.0000      -0.397681       -10.8214
  73   2.0000      -0.385622       -10.4933
  74   2.0000      -0.378633       -10.3031
  75   2.0000      -0.370913       -10.0931
  76   2.0000      -0.364510        -9.9188
  77   2.0000      -0.361510        -9.8372
  78   2.0000      -0.358124        -9.7450
  79   2.0000      -0.354681        -9.6514
  80   2.0000      -0.348869        -9.4932
  81   2.0000      -0.345958        -9.4140
  82   2.0000      -0.340581        -9.2677
  83   2.0000      -0.338120        -9.2007
  84   2.0000      -0.332505        -9.0479
  85   2.0000      -0.326828        -8.8934
  86   2.0000      -0.314519        -8.5585
  87   2.0000      -0.303150        -8.2491
  88   2.0000      -0.297744        -8.1020
  89   2.0000      -0.297032        -8.0826
  90   2.0000      -0.293025        -7.9736
  91   2.0000      -0.277517        -7.5516
  92   2.0000      -0.271933        -7.3997
  93   2.0000      -0.265251        -7.2178
  94   2.0000      -0.256793        -6.9877
  95   2.0000      -0.231103        -6.2886
  96   2.0000      -0.217322        -5.9136
  97   2.0000      -0.207199        -5.6382
  98   2.0000      -0.205274        -5.5858
  99   2.0000      -0.200452        -5.4546
 100   2.0000      -0.195820        -5.3285
 101   0.0000      -0.042370        -1.1529
 102   0.0000      -0.021547        -0.5863
 103   0.0000      -0.010624        -0.2891
 104   0.0000       0.001740         0.0473
 105   0.0000       0.009750         0.2653

MULLIKEN ATOMIC CHARGES
-----------------------
   0 C :   -0.351873
   1 C :    0.018653
   2 O :   -0.354307
   3 P :    0.614905
   4 S :   -0.319835
   5 O :   -0.386664
   6 C :   -0.000484
   7 C :   -0.317219
   8 S :   -0.084869
   9 C :   -0.372898
  10 S :   -0.042494
  11 P :    0.608564
  12 S :   -0.325579
  13 O :   -0.395637
  14 C :   -0.004412
  15 C :   -0.291602
  16 O :   -0.372000
  17 C :   -0.016712
  18 C :   -0.285294
  19 H :    0.118159
  20 H :    0.147229
  21 H :    0.109969
  22 H :    0.112673
  23 H :    0.105476
  24 H :    0.105171
  25 H :    0.115483
  26 H :    0.114744
  27 H :    0.129800
  28 H :    0.115273
  29 H :    0.196003
  30 H :    0.182977
  31 H :    0.103878
  32 H :    0.107929
  33 H :    0.110722
  34 H :    0.121785
  35 H :    0.109566
  36 H :    0.104206
  37 H :    0.107388
  38 H :    0.130332
  39 H :    0.120047
  40 H :    0.110946
Sum of atomic charges:    0.0000000

LOEWDIN ATOMIC CHARGES
----------------------
   0 C :   -0.374608
   1 C :   -0.106048
   2 O :   -0.234956
   3 P :    0.572901
   4 S :   -0.315323
   5 O :   -0.247491
   6 C :   -0.115359
   7 C :   -0.371320
   8 S :    0.087798
   9 C :   -0.484629
  10 S :    0.102582
  11 P :    0.559180
  12 S :   -0.326768
  13 O :   -0.257622
  14 C :   -0.117450
  15 C :   -0.360302
  16 O :   -0.241992
  17 C :   -0.114762
  18 C :   -0.350381
  19 H :    0.115049
  20 H :    0.128513
  21 H :    0.128824
  22 H :    0.124443
  23 H :    0.112377
  24 H :    0.118675
  25 H :    0.114576
  26 H :    0.132071
  27 H :    0.122220
  28 H :    0.122479
  29 H :    0.130600
  30 H :    0.131924
  31 H :    0.116446
  32 H :    0.110904
  33 H :    0.130256
  34 H :    0.124806
  35 H :    0.122384
  36 H :    0.110825
  37 H :    0.112489
  38 H :    0.129695
  39 H :    0.126577
  40 H :    0.130419

  Mayer bond orders larger than 0.100000
B(  0-C ,  1-C ) :   1.1693 B(  0-C , 19-H ) :   0.9401 B(  0-C , 20-H ) :   0.9273
B(  0-C , 21-H ) :   0.9353 B(  1-C ,  2-O ) :   0.9010 B(  1-C , 22-H ) :   0.9327
B(  1-C , 23-H ) :   0.9275 B(  2-O ,  3-P ) :   1.1377 B(  3-P ,  4-S ) :   1.6277
B(  3-P ,  5-O ) :   1.0793 B(  3-P ,  8-S ) :   0.9478 B(  4-S ,  8-S ) :   0.1113
B(  5-O ,  6-C ) :   0.9028 B(  6-C ,  7-C ) :   1.1674 B(  6-C , 24-H ) :   0.9343
B(  6-C , 25-H ) :   0.9183 B(  7-C , 26-H ) :   0.9365 B(  7-C , 27-H ) :   0.9331
B(  7-C , 28-H ) :   0.9442 B(  8-S ,  9-C ) :   1.0073 B(  9-C , 10-S ) :   0.9814
B(  9-C , 29-H ) :   0.8740 B(  9-C , 30-H ) :   0.8918 B( 10-S , 11-P ) :   1.0032
B( 11-P , 12-S ) :   1.6544 B( 11-P , 13-O ) :   1.0492 B( 11-P , 16-O ) :   1.0994
B( 13-O , 14-C ) :   0.9022 B( 14-C , 15-C ) :   1.1667 B( 14-C , 31-H ) :   0.9341
B( 14-C , 32-H ) :   0.9113 B( 15-C , 33-H ) :   0.9405 B( 15-C , 34-H ) :   0.9388
B( 15-C , 35-H ) :   0.9476 B( 16-O , 17-C ) :   0.8947 B( 17-C , 18-C ) :   1.1615
B( 17-C , 36-H ) :   0.9264 B( 17-C , 37-H ) :   0.9197 B( 18-C , 38-H ) :   0.9470
B( 18-C , 39-H ) :   0.9472 B( 18-C , 40-H ) :   0.9404

Dispersion correction           -0.064573579
FINAL SINGLE POINT ENERGY     -2929.518313685511

DIPOLE MOMENT
-------------

Method             : SCF
Type of density    : Electron Density
Multiplicity       :   1
Irrep              :   0
Energy             : -2929.6393305448300453 Eh
Relativity type    :
Basis              : AO
                                X                 Y                 Z
Electronic contribution:      9.937171011      18.093027306      -2.691355483
Nuclear contribution   :    -10.551038991     -19.932613397       3.410541523
                        -----------------------------------------
Total Dipole Moment    :     -0.613867980      -1.839586091       0.719186041
                        -----------------------------------------
Magnitude (a.u.)       :      2.068366371
Magnitude (Debye)      :      5.257369505

Rotational constants in cm-1:             0.013461             0.004559             0.004330
Rotational constants in MHz :           403.549556           136.667708           129.799196

                             ****ORCA TERMINATED NORMALLY****
TOTAL RUN TIME: 0 days 0 hours 0 minutes 21 seconds 282 msec
