                         Program Version 6.0.0  -   RELEASE  -
|  1> ! pbe def2-sv(p) def2/J RI DEFGRID1 loosescf d4 GCP(DFT/SV(P)) printgap
|  2> %output
|  3>     printlevel normal
|  4> end
|  5> * xyz 0 1
|  6> C 5.1152078347 -2.4626339609 -1.4287506243
|  7> C 4.0648756658 -1.3863880257 -1.6133403735
|  8> O 3.2554682086 -1.3535180129 -0.4194811313
|  9> P 2.2654995686 -0.1519611346 -0.1372810735
| 10> S 3.0576953843 1.645525948 -0.1552314311
| 11> O 1.6865707562 -0.6566902219 1.2411218445
| 12> C 1.5439167246 0.1608465607 2.4256327723
| 13> C 0.3079761924 -0.2968936277 3.1721775622
| 14> S 0.7323409988 -0.4791315638 -1.5790982694
| 15> C 0.0255361654 1.1856482374 -1.4951190308
| 16> S -0.7540155679 1.523969484 0.0964041676
| 17> P -2.5336152777 0.374810641 -0.2006690721
| 18> S -3.117920766 0.2473076998 -2.0619525631
| 19> O -3.6023725803 1.0746127009 0.7178126676
| 20> C -3.6124949298 1.0646415534 2.1698803083
| 21> C -2.8299320989 2.2313694969 2.7365062118
| 22> O -2.2977220644 -1.0179250423 0.5423830167
| 23> C -1.9994195785 -2.2646226282 -0.1202029331
| 24> C -0.9083517547 -2.9886636514 0.6419542345
| 25> H 4.6347669931 -3.4204231016 -1.2524789301
| 26> H 5.7244531216 -2.5236339425 -2.3244914178
| 27> H 5.7479598748 -2.2243575824 -0.5786900926
| 28> H 3.414607953 -1.6046011003 -2.4654053442
| 29> H 4.5201186312 -0.4001700283 -1.7539110858
| 30> H 2.4456048853 0.0200654276 3.0256149457
| 31> H 1.4724558205 1.2124256122 2.1300228194
| 32> H -0.5707238661 -0.19222151 2.5412579964
| 33> H 0.4127878587 -1.3388687556 3.4594952969
| 34> H 0.1851224605 0.3132053479 4.0608823419
| 35> H -0.7196099294 1.2560688904 -2.2881456004
| 36> H 0.8189865708 1.9224901072 -1.6198001941
| 37> H -4.672310556 1.1426315105 2.4179393452
| 38> H -3.2206198192 0.108223719 2.5191247901
| 39> H -2.9340715236 2.233653435 3.8169555552
| 40> H -1.7756191726 2.1521630838 2.480095002
| 41> H -3.2128586253 3.1667660748 2.3377584545
| 42> H -2.9268277448 -2.8423432084 -0.1223390348
| 43> H -1.7064425245 -2.0663740303 -1.1554593499
| 44> H -1.2140529764 -3.142297634 1.6728318098
| 45> H -0.7338225191 -3.9509149782 0.1718199304
| 46> H 0.0170392123 -2.4183762054 0.6283927046
| 47> *
| 48>
| 49>                          ****END OF INPUT****

CARTESIAN COORDINATES (ANGSTROEM)
---------------------------------
  C      5.115208   -2.462634   -1.428751
  C      4.064876   -1.386388   -1.613340
  O      3.255468   -1.353518   -0.419481
  P      2.265500   -0.151961   -0.137281
  S      3.057695    1.645526   -0.155231
  O      1.686571   -0.656690    1.241122
  C      1.543917    0.160847    2.425633
  C      0.307976   -0.296894    3.172178
  S      0.732341   -0.479132   -1.579098
  C      0.025536    1.185648   -1.495119
  S     -0.754016    1.523969    0.096404
  P     -2.533615    0.374811   -0.200669
  S     -3.117921    0.247308   -2.061953
  O     -3.602373    1.074613    0.717813
  C     -3.612495    1.064642    2.169880
  C     -2.829932    2.231369    2.736506
  O     -2.297722   -1.017925    0.542383
  C     -1.999420   -2.264623   -0.120203
  C     -0.908352   -2.988664    0.641954
  H      4.634767   -3.420423   -1.252479
  H      5.724453   -2.523634   -2.324491
  H      5.747960   -2.224358   -0.578690
  H      3.414608   -1.604601   -2.465405
  H      4.520119   -0.400170   -1.753911
  H      2.445605    0.020065    3.025615
  H      1.472456    1.212426    2.130023
  H     -0.570724   -0.192222    2.541258
  H      0.412788   -1.338869    3.459495
  H      0.185122    0.313205    4.060882
  H     -0.719610    1.256069   -2.288146
  H      0.818987    1.922490   -1.619800
  H     -4.672311    1.142632    2.417939
  H     -3.220620    0.108224    2.519125
  H     -2.934072    2.233653    3.816956
  H     -1.775619    2.152163    2.480095
  H     -3.212859    3.166766    2.337758
  H     -2.926828   -2.842343   -0.122339
  H     -1.706443   -2.066374   -1.155459
  H     -1.214053   -3.142298    1.672832
  H     -0.733823   -3.950915    0.171820
  H      0.017039   -2.418376    0.628393

 Total Charge           Charge          ....    0
 Multiplicity           Mult            ....    1
 Number of Electrons    NEL             ....  202
 Basis Dimension        Dim             ....  334

ORBITAL ENERGIES
----------------

  NO   OCC          E(Eh)            E(eV)
   0   2.0000     -88.044573     -2395.8146
   1   2.0000     -88.043507     -2395.7856
   2   2.0000     -87.992425     -2394.3956
   3   2.0000     -87.987524     -2394.2623
   4   2.0000     -76.430918     -2079.7910
   5   2.0000     -76.429550     -2079.7538
   6   2.0000     -18.797523      -511.5066
   7   2.0000     -18.796415      -511.4765
   8   2.0000     -18.795271      -511.4453
   9   2.0000     -18.792571      -511.3718
  10   2.0000      -9.963103      -271.1098
  11   2.0000      -9.956304      -270.9248
  12   2.0000      -9.955364      -270.8992
  13   2.0000      -9.951874      -270.8043
  14   2.0000      -9.949462      -270.7386
  15   2.0000      -9.894884      -269.2535
  16   2.0000      -9.890649      -269.1382
  17   2.0000      -9.888448      -269.0783
  18   2.0000      -9.880095      -268.8511
  19   2.0000      -7.689379      -209.2386
  20   2.0000      -7.687966      -209.2002
  21   2.0000      -7.637357      -207.8230
  22   2.0000      -7.632801      -207.6991
  23   2.0000      -6.428229      -174.9210
  24   2.0000      -6.426859      -174.8837
  25   2.0000      -5.717085      -155.5698
  26   2.0000      -5.715784      -155.5344
  27   2.0000      -5.713944      -155.4843
  28   2.0000      -5.712535      -155.4460
  29   2.0000      -5.706525      -155.2824
  30   2.0000      -5.705038      -155.2420
  31   2.0000      -5.666196      -154.1850
  32   2.0000      -5.661849      -154.0667
  33   2.0000      -5.657992      -153.9618
  34   2.0000      -5.657606      -153.9513
  35   2.0000      -5.653309      -153.8344
  36   2.0000      -5.652879      -153.8226
  37   2.0000      -4.650532      -126.5474
  38   2.0000      -4.650174      -126.5377
  39   2.0000      -4.649794      -126.5273
  40   2.0000      -4.648728      -126.4983
  41   2.0000      -4.648307      -126.4869
  42   2.0000      -4.647327      -126.4602
  43   2.0000      -0.992394       -27.0044
  44   2.0000      -0.989376       -26.9223
  45   2.0000      -0.949485       -25.8368
  46   2.0000      -0.944797       -25.7092
  47   2.0000      -0.765869       -20.8404
  48   2.0000      -0.727150       -19.7868
  49   2.0000      -0.717420       -19.5220
  50   2.0000      -0.693097       -18.8601
  51   2.0000      -0.690884       -18.7999
  52   2.0000      -0.675366       -18.3776
  53   2.0000      -0.650669       -17.7056
  54   2.0000      -0.639617       -17.4049
  55   2.0000      -0.602220       -16.3872
  56   2.0000      -0.592685       -16.1278
  57   2.0000      -0.577682       -15.7195
  58   2.0000      -0.566421       -15.4131
  59   2.0000      -0.560121       -15.2417
  60   2.0000      -0.512108       -13.9352
  61   2.0000      -0.505318       -13.7504
  62   2.0000      -0.484576       -13.1860
  63   2.0000      -0.481878       -13.1126
  64   2.0000      -0.461621       -12.5614
  65   2.0000      -0.450191       -12.2503
  66   2.0000      -0.443846       -12.0777
  67   2.0000      -0.437541       -11.9061
  68   2.0000      -0.429169       -11.6783
  69   2.0000      -0.421589       -11.4720
  70   2.0000      -0.406721       -11.0674
  71   2.0000      -0.403043       -10.9674
  72   2.0000      -0.392888       -10.6910
  73   2.0000      -0.382811       -10.4168
  74   2.0000      -0.382353       -10.4044
  75   2.0000      -0.376225       -10.2376
  76   2.0000      -0.366216        -9.9652
  77   2.0000      -0.364299        -9.9131
  78   2.0000      -0.360042        -9.7972
  79   2.0000      -0.357001        -9.7145
  80   2.0000      -0.355568        -9.6755
  81   2.0000      -0.347920        -9.4674
  82   2.0000      -0.340742        -9.2721
  83   2.0000      -0.340053        -9.2533
  84   2.0000      -0.333344        -9.0708
  85   2.0000      -0.328519        -8.9395
  86   2.0000      -0.314152        -8.5485
  87   2.0000      -0.306490        -8.3400
  88   2.0000      -0.303574        -8.2607
  89   2.0000      -0.294441        -8.0121
  90   2.0000      -0.289231        -7.8704
  91   2.0000      -0.277499        -7.5511
  92   2.0000      -0.274687        -7.4746
  93   2.0000      -0.266228        -7.2444
  94   2.0000      -0.257945        -7.0191
  95   2.0000      -0.237531        -6.4635
  96   2.0000      -0.219045        -5.9605
  97   2.0000      -0.216544        -5.8925
  98   2.0000      -0.207389        -5.6433
  99   2.0000      -0.204334        -5.5602
 100   2.0000      -0.201160        -5.4738
 101   0.0000      -0.051024        -1.3884
 102   0.0000      -0.027862        -0.7582
 103   0.0000      -0.006435        -0.1751
 104   0.0000      -0.003463        -0.0942
 105   0.0000       0.003000         0.0816

MULLIKEN ATOMIC CHARGES
-----------------------
   0 C :   -0.278595
   1 C :   -0.014780
   2 O :   -0.366779
   3 P :    0.607809
   4 S :   -0.328239
   5 O :   -0.362924
   6 C :   -0.002098
   7 C :   -0.316175
   8 S :   -0.098550
   9 C :   -0.356467
  10 S :   -0.125357
  11 P :    0.631347
  12 S :   -0.308841
  13 O :   -0.362287
  14 C :   -0.023399
  15 C :   -0.317351
  16 O :   -0.393820
  17 C :    0.000348
  18 C :   -0.313448
  19 H :    0.117552
  20 H :    0.113515
  21 H :    0.120606
  22 H :    0.106098
  23 H :    0.106904
  24 H :    0.107162
  25 H :    0.114917
  26 H :    0.135392
  27 H :    0.117877
  28 H :    0.108674
  29 H :    0.194927
  30 H :    0.196180
  31 H :    0.114106
  32 H :    0.122733
  33 H :    0.114673
  34 H :    0.139817
  35 H :    0.127566
  36 H :    0.102880
  37 H :    0.110993
  38 H :    0.107969
  39 H :    0.106431
  40 H :    0.142633
Sum of atomic charges:   -0.0000000

LOEWDIN ATOMIC CHARGES
----------------------
   0 C :   -0.349653
   1 C :   -0.120302
   2 O :   -0.241944
   3 P :    0.569216
   4 S :   -0.316691
   5 O :   -0.233650
   6 C :   -0.112563
   7 C :   -0.359616
   8 S :    0.079311
   9 C :   -0.488447
  10 S :    0.076590
  11 P :    0.574110
  12 S :   -0.301581
  13 O :   -0.237068
  14 C :   -0.110801
  15 C :   -0.363024
  16 O :   -0.254928
  17 C :   -0.115398
  18 C :   -0.362301
  19 H :    0.127644
  20 H :    0.131627
  21 H :    0.129120
  22 H :    0.108854
  23 H :    0.110300
  24 H :    0.115598
  25 H :    0.104751
  26 H :    0.117743
  27 H :    0.126499
  28 H :    0.128612
  29 H :    0.128941
  30 H :    0.130026
  31 H :    0.124338
  32 H :    0.113874
  33 H :    0.132488
  34 H :    0.117252
  35 H :    0.132902
  36 H :    0.114034
  37 H :    0.102109
  38 H :    0.121786
  39 H :    0.129206
  40 H :    0.121038

  Mayer bond orders larger than 0.100000
B(  0-C ,  1-C ) :   1.1607 B(  0-C , 19-H ) :   0.9506 B(  0-C , 20-H ) :   0.9418
B(  0-C , 21-H ) :   0.9511 B(  1-C ,  2-O ) :   0.9042 B(  1-C , 22-H ) :   0.9261
B(  1-C , 23-H ) :   0.9135 B(  2-O ,  3-P ) :   1.1287 B(  3-P ,  4-S ) :   1.6129
B(  3-P ,  5-O ) :   1.1188 B(  3-P ,  8-S ) :   0.9435 B(  4-S ,  8-S ) :   0.1104
B(  5-O ,  6-C ) :   0.8938 B(  6-C ,  7-C ) :   1.1669 B(  6-C , 24-H ) :   0.9342
B(  6-C , 25-H ) :   0.9062 B(  7-C , 26-H ) :   0.9255 B(  7-C , 27-H ) :   0.9441
B(  7-C , 28-H ) :   0.9391 B(  8-S ,  9-C ) :   1.0016 B(  9-C , 10-S ) :   1.0110
B(  9-C , 29-H ) :   0.8659 B(  9-C , 30-H ) :   0.8730 B( 10-S , 11-P ) :   0.9257
B( 10-S , 12-S ) :   0.1073 B( 11-P , 12-S ) :   1.6501 B( 11-P , 13-O ) :   1.1504
B( 11-P , 16-O ) :   1.0717 B( 13-O , 14-C ) :   0.8971 B( 14-C , 15-C ) :   1.1684
B( 14-C , 31-H ) :   0.9331 B( 14-C , 32-H ) :   0.9165 B( 15-C , 33-H ) :   0.9374
B( 15-C , 34-H ) :   0.9283 B( 15-C , 35-H ) :   0.9447 B( 16-O , 17-C ) :   0.8944
B( 17-C , 18-C ) :   1.1650 B( 17-C , 36-H ) :   0.9360 B( 17-C , 37-H ) :   0.9021
B( 18-C , 38-H ) :   0.9463 B( 18-C , 39-H ) :   0.9390 B( 18-C , 40-H ) :   0.9263

Dispersion correction           -0.065915582
FINAL SINGLE POINT ENERGY     -2929.522768560147

DIPOLE MOMENT
-------------

Method             : SCF
Type of density    : Electron Density
Multiplicity       :   1
Irrep              :   0
Energy             : -2929.6428105771497030 Eh
Relativity type    :
Basis              : AO
                                X                 Y                 Z
Electronic contribution:     -5.242131083      11.238420767     -15.766725716
Nuclear contribution   :      5.581838608     -12.131132579      17.046913794
                        -----------------------------------------
Total Dipole Moment    :      0.339707524      -0.892711813       1.280188079
                        -----------------------------------------
Magnitude (a.u.)       :      1.597252985
Magnitude (Debye)      :      4.059894444

Rotational constants in cm-1:             0.012134             0.005177             0.004827
Rotational constants in MHz :           363.764993           155.193061           144.699813

                             ****ORCA TERMINATED NORMALLY****
TOTAL RUN TIME: 0 days 0 hours 0 minutes 21 seconds 442 msec
