                         Program Version 6.0.0  -   RELEASE  -
|  1> ! pbe def2-sv(p) def2/J RI DEFGRID1 loosescf d4 GCP(DFT/SV(P)) printgap
|  2> %output
|  3>     printlevel normal
|  4> end
|  5> * xyz 0 1
|  6> C 5.4297697494 -0.3615502097 -2.4016463346
|  7> C 4.0635264558 -0.8944565615 -2.0221564198
|  8> O 3.5133706609 -0.0227680664 -1.0111338659
|  9> P 1.9657986076 -0.0490851437 -0.6561603993
| 10> S 0.7559234574 0.1891960624 -2.1740152786
| 11> O 1.8570668449 1.0964270004 0.4132281941
| 12> C 2.685157939 1.1798873054 1.6046902544
| 13> C 1.872681376 0.8253257013 2.8336689666
| 14> S 1.7541692292 -1.9146400995 0.3338680583
| 15> C -0.0429041311 -2.0615225058 0.1962354946
| 16> S -0.9519155822 -1.1198989013 1.4669507541
| 17> P -1.9009738919 0.4634290955 0.4412166354
| 18> S -1.0836727683 2.2199557968 0.1810325015
| 19> O -3.1987160692 0.6787994749 1.3303583631
| 20> C -4.1219498509 -0.3803825555 1.6811809986
| 21> C -3.9982031822 -0.7189141984 3.1533820793
| 22> O -2.3461912816 -0.3377541489 -0.8717467211
| 23> C -2.7380761398 0.3464898972 -2.0740987831
| 24> C -4.0866720765 1.0170440839 -1.9170533068
| 25> H 5.3401785888 0.6451907347 -2.8003293364
| 26> H 6.0758564287 -0.3381058273 -1.529028984
| 27> H 5.865894276 -1.0083180818 -3.1556919996
| 28> H 4.1277248742 -1.9015194979 -1.6019864137
| 29> H 3.3827865821 -0.904623914 -2.8795510455
| 30> H 3.548134641 0.5216945843 1.4867314219
| 31> H 3.0123154498 2.2201921703 1.6326148737
| 32> H 0.9624938912 1.4212485876 2.8569378661
| 33> H 1.6006951521 -0.2279205929 2.8322496062
| 34> H 2.4609591316 1.0387936361 3.7202258907
| 35> H -0.2782298942 -3.1093807798 0.3607517701
| 36> H -0.3545850492 -1.7272823077 -0.7939707879
| 37> H -5.1101903319 0.0228090566 1.4522355229
| 38> H -3.9254283904 -1.2526247469 1.0525112714
| 39> H -4.150286716 0.175028882 3.7515555708
| 40> H -4.7504008462 -1.4572453156 3.4122058989
| 41> H -3.0110495466 -1.1210976406 3.3693443149
| 42> H -1.9640254778 1.0780101842 -2.3278644289
| 43> H -2.7529397719 -0.4377352424 -2.8325450205
| 44> H -4.8422862239 0.2870807351 -1.6381315425
| 45> H -4.0266587383 1.7843900402 -1.1453296601
| 46> H -4.3647626488 1.4837753806 -2.8566459292
| 47> *
| 48>
| 49>                          ****END OF INPUT****

CARTESIAN COORDINATES (ANGSTROEM)
---------------------------------
  C      5.429770   -0.361550   -2.401646
  C      4.063526   -0.894457   -2.022156
  O      3.513371   -0.022768   -1.011134
  P      1.965799   -0.049085   -0.656160
  S      0.755923    0.189196   -2.174015
  O      1.857067    1.096427    0.413228
  C      2.685158    1.179887    1.604690
  C      1.872681    0.825326    2.833669
  S      1.754169   -1.914640    0.333868
  C     -0.042904   -2.061523    0.196235
  S     -0.951916   -1.119899    1.466951
  P     -1.900974    0.463429    0.441217
  S     -1.083673    2.219956    0.181033
  O     -3.198716    0.678799    1.330358
  C     -4.121950   -0.380383    1.681181
  C     -3.998203   -0.718914    3.153382
  O     -2.346191   -0.337754   -0.871747
  C     -2.738076    0.346490   -2.074099
  C     -4.086672    1.017044   -1.917053
  H      5.340179    0.645191   -2.800329
  H      6.075856   -0.338106   -1.529029
  H      5.865894   -1.008318   -3.155692
  H      4.127725   -1.901519   -1.601986
  H      3.382787   -0.904624   -2.879551
  H      3.548135    0.521695    1.486731
  H      3.012315    2.220192    1.632615
  H      0.962494    1.421249    2.856938
  H      1.600695   -0.227921    2.832250
  H      2.460959    1.038794    3.720226
  H     -0.278230   -3.109381    0.360752
  H     -0.354585   -1.727282   -0.793971
  H     -5.110190    0.022809    1.452236
  H     -3.925428   -1.252625    1.052511
  H     -4.150287    0.175029    3.751556
  H     -4.750401   -1.457245    3.412206
  H     -3.011050   -1.121098    3.369344
  H     -1.964025    1.078010   -2.327864
  H     -2.752940   -0.437735   -2.832545
  H     -4.842286    0.287081   -1.638132
  H     -4.026659    1.784390   -1.145330
  H     -4.364763    1.483775   -2.856646

 Total Charge           Charge          ....    0
 Multiplicity           Mult            ....    1
 Number of Electrons    NEL             ....  202
 Basis Dimension        Dim             ....  334

ORBITAL ENERGIES
----------------

  NO   OCC          E(Eh)            E(eV)
   0   2.0000     -88.043655     -2395.7896
   1   2.0000     -88.040603     -2395.7066
   2   2.0000     -87.982539     -2394.1266
   3   2.0000     -87.968945     -2393.7567
   4   2.0000     -76.423384     -2079.5860
   5   2.0000     -76.416288     -2079.3929
   6   2.0000     -18.793495      -511.3970
   7   2.0000     -18.785690      -511.1846
   8   2.0000     -18.785189      -511.1710
   9   2.0000     -18.784645      -511.1562
  10   2.0000      -9.957778      -270.9649
  11   2.0000      -9.954061      -270.8638
  12   2.0000      -9.951615      -270.7972
  13   2.0000      -9.950617      -270.7700
  14   2.0000      -9.941693      -270.5272
  15   2.0000      -9.889428      -269.1050
  16   2.0000      -9.884585      -268.9732
  17   2.0000      -9.878857      -268.8174
  18   2.0000      -9.874373      -268.6954
  19   2.0000      -7.688985      -209.2279
  20   2.0000      -7.685690      -209.1382
  21   2.0000      -7.627590      -207.5573
  22   2.0000      -7.614221      -207.1935
  23   2.0000      -6.421131      -174.7279
  24   2.0000      -6.413918      -174.5316
  25   2.0000      -5.716635      -155.5575
  26   2.0000      -5.713824      -155.4811
  27   2.0000      -5.713411      -155.4698
  28   2.0000      -5.709791      -155.3713
  29   2.0000      -5.706228      -155.2744
  30   2.0000      -5.702727      -155.1791
  31   2.0000      -5.656486      -153.9208
  32   2.0000      -5.648214      -153.6957
  33   2.0000      -5.647689      -153.6814
  34   2.0000      -5.643476      -153.5668
  35   2.0000      -5.634802      -153.3308
  36   2.0000      -5.634029      -153.3097
  37   2.0000      -4.643901      -126.3670
  38   2.0000      -4.642954      -126.3412
  39   2.0000      -4.641310      -126.2965
  40   2.0000      -4.636916      -126.1769
  41   2.0000      -4.635679      -126.1432
  42   2.0000      -4.634007      -126.0977
  43   2.0000      -0.986541       -26.8451
  44   2.0000      -0.977384       -26.5960
  45   2.0000      -0.941962       -25.6321
  46   2.0000      -0.937742       -25.5173
  47   2.0000      -0.761394       -20.7186
  48   2.0000      -0.718744       -19.5580
  49   2.0000      -0.708409       -19.2768
  50   2.0000      -0.688461       -18.7340
  51   2.0000      -0.686803       -18.6889
  52   2.0000      -0.670723       -18.2513
  53   2.0000      -0.645897       -17.5758
  54   2.0000      -0.629725       -17.1357
  55   2.0000      -0.588938       -16.0258
  56   2.0000      -0.579826       -15.7779
  57   2.0000      -0.570811       -15.5325
  58   2.0000      -0.568812       -15.4782
  59   2.0000      -0.562477       -15.3058
  60   2.0000      -0.508736       -13.8434
  61   2.0000      -0.494289       -13.4503
  62   2.0000      -0.475144       -12.9293
  63   2.0000      -0.472641       -12.8612
  64   2.0000      -0.452592       -12.3156
  65   2.0000      -0.447952       -12.1894
  66   2.0000      -0.439066       -11.9476
  67   2.0000      -0.431224       -11.7342
  68   2.0000      -0.427778       -11.6404
  69   2.0000      -0.417874       -11.3709
  70   2.0000      -0.406538       -11.0624
  71   2.0000      -0.395551       -10.7635
  72   2.0000      -0.383749       -10.4424
  73   2.0000      -0.381289       -10.3754
  74   2.0000      -0.377414       -10.2700
  75   2.0000      -0.366622        -9.9763
  76   2.0000      -0.363404        -9.8887
  77   2.0000      -0.353960        -9.6317
  78   2.0000      -0.352073        -9.5804
  79   2.0000      -0.347017        -9.4428
  80   2.0000      -0.345331        -9.3969
  81   2.0000      -0.340742        -9.2721
  82   2.0000      -0.338075        -9.1995
  83   2.0000      -0.334849        -9.1117
  84   2.0000      -0.328817        -8.9476
  85   2.0000      -0.313400        -8.5281
  86   2.0000      -0.308664        -8.3992
  87   2.0000      -0.302401        -8.2288
  88   2.0000      -0.298727        -8.1288
  89   2.0000      -0.292554        -7.9608
  90   2.0000      -0.271487        -7.3875
  91   2.0000      -0.270519        -7.3612
  92   2.0000      -0.267273        -7.2729
  93   2.0000      -0.261957        -7.1282
  94   2.0000      -0.256467        -6.9788
  95   2.0000      -0.235841        -6.4176
  96   2.0000      -0.221586        -6.0297
  97   2.0000      -0.210475        -5.7273
  98   2.0000      -0.200054        -5.4437
  99   2.0000      -0.185973        -5.0606
 100   2.0000      -0.173552        -4.7226
 101   0.0000      -0.039271        -1.0686
 102   0.0000      -0.025306        -0.6886
 103   0.0000      -0.016652        -0.4531
 104   0.0000       0.006617         0.1801
 105   0.0000       0.016857         0.4587

MULLIKEN ATOMIC CHARGES
-----------------------
   0 C :   -0.280381
   1 C :   -0.010840
   2 O :   -0.382143
   3 P :    0.605631
   4 S :   -0.306952
   5 O :   -0.333118
   6 C :   -0.009856
   7 C :   -0.293340
   8 S :   -0.116236
   9 C :   -0.349422
  10 S :   -0.111189
  11 P :    0.607091
  12 S :   -0.284536
  13 O :   -0.368334
  14 C :   -0.023578
  15 C :   -0.286569
  16 O :   -0.389824
  17 C :   -0.013955
  18 C :   -0.309599
  19 H :    0.123663
  20 H :    0.114708
  21 H :    0.112598
  22 H :    0.102772
  23 H :    0.104901
  24 H :    0.099260
  25 H :    0.112608
  26 H :    0.127538
  27 H :    0.123017
  28 H :    0.102256
  29 H :    0.181446
  30 H :    0.209793
  31 H :    0.108052
  32 H :    0.102530
  33 H :    0.120217
  34 H :    0.107403
  35 H :    0.123575
  36 H :    0.130707
  37 H :    0.099723
  38 H :    0.106677
  39 H :    0.131535
  40 H :    0.112173
Sum of atomic charges:   -0.0000000

LOEWDIN ATOMIC CHARGES
----------------------
   0 C :   -0.350385
   1 C :   -0.120521
   2 O :   -0.249443
   3 P :    0.567010
   4 S :   -0.292725
   5 O :   -0.220402
   6 C :   -0.108017
   7 C :   -0.364726
   8 S :    0.060035
   9 C :   -0.477346
  10 S :    0.084772
  11 P :    0.555449
  12 S :   -0.292304
  13 O :   -0.244332
  14 C :   -0.123220
  15 C :   -0.359693
  16 O :   -0.252727
  17 C :   -0.124141
  18 C :   -0.366089
  19 H :    0.130576
  20 H :    0.126025
  21 H :    0.131269
  22 H :    0.107831
  23 H :    0.109288
  24 H :    0.106061
  25 H :    0.123739
  26 H :    0.129790
  27 H :    0.114539
  28 H :    0.126125
  29 H :    0.137778
  30 H :    0.129607
  31 H :    0.118691
  32 H :    0.105606
  33 H :    0.129150
  34 H :    0.128779
  35 H :    0.119334
  36 H :    0.111504
  37 H :    0.115755
  38 H :    0.119808
  39 H :    0.126508
  40 H :    0.131044

  Mayer bond orders larger than 0.100000
B(  0-C ,  1-C ) :   1.1606 B(  0-C , 19-H ) :   0.9504 B(  0-C , 20-H ) :   0.9511
B(  0-C , 21-H ) :   0.9417 B(  1-C ,  2-O ) :   0.9024 B(  1-C , 22-H ) :   0.9286
B(  1-C , 23-H ) :   0.9093 B(  2-O ,  3-P ) :   1.0899 B(  3-P ,  4-S ) :   1.6377
B(  3-P ,  5-O ) :   1.1714 B(  3-P ,  8-S ) :   0.9339 B(  4-S ,  8-S ) :   0.1071
B(  5-O ,  6-C ) :   0.8849 B(  6-C ,  7-C ) :   1.1678 B(  6-C , 24-H ) :   0.9195
B(  6-C , 25-H ) :   0.9335 B(  7-C , 26-H ) :   0.9396 B(  7-C , 27-H ) :   0.9332
B(  7-C , 28-H ) :   0.9372 B(  8-S ,  9-C ) :   1.0137 B(  9-C , 10-S ) :   0.9906
B(  9-C , 29-H ) :   0.9108 B(  9-C , 30-H ) :   0.8542 B( 10-S , 11-P ) :   0.9505
B( 10-S , 12-S ) :   0.1042 B( 11-P , 12-S ) :   1.6803 B( 11-P , 13-O ) :   1.0987
B( 11-P , 16-O ) :   1.0657 B( 13-O , 14-C ) :   0.9001 B( 14-C , 15-C ) :   1.1660
B( 14-C , 31-H ) :   0.9311 B( 14-C , 32-H ) :   0.9135 B( 15-C , 33-H ) :   0.9459
B( 15-C , 34-H ) :   0.9403 B( 15-C , 35-H ) :   0.9395 B( 16-O , 17-C ) :   0.8997
B( 17-C , 18-C ) :   1.1609 B( 17-C , 36-H ) :   0.9072 B( 17-C , 37-H ) :   0.9357
B( 18-C , 38-H ) :   0.9454 B( 18-C , 39-H ) :   0.9340 B( 18-C , 40-H ) :   0.9402

Dispersion correction           -0.066863768
FINAL SINGLE POINT ENERGY     -2929.513765908387

DIPOLE MOMENT
-------------

Method             : SCF
Type of density    : Electron Density
Multiplicity       :   1
Irrep              :   0
Energy             : -2929.6322557467788101 Eh
Relativity type    :
Basis              : AO
                                X                 Y                 Z
Electronic contribution:      3.192847090       1.566437192      -2.211365674
Nuclear contribution   :     -3.033051192      -2.965211856       2.415538508
                        -----------------------------------------
Total Dipole Moment    :      0.159795898      -1.398774664       0.204172835
                        -----------------------------------------
Magnitude (a.u.)       :      1.422600378
Magnitude (Debye)      :      3.615962795

Rotational constants in cm-1:             0.013108             0.005223             0.004717
Rotational constants in MHz :           392.971947           156.588735           141.412431

                             ****ORCA TERMINATED NORMALLY****
TOTAL RUN TIME: 0 days 0 hours 0 minutes 21 seconds 780 msec
