                         Program Version 6.0.0  -   RELEASE  -
|  1> ! r2scan-3c def2/J RI DEFGRID2 scfconv6 printgap
|  2> %output
|  3>     printlevel normal
|  4> end
|  5> * xyz 0 1
|  6> C -2.5935547587 1.4078792021 -5.3376e-06
|  7> C -1.6080802511 0.2897329049 -3.00013e-05
|  8> C -1.8690545735 -1.0487060832 -2.60489e-05
|  9> N -0.7010197991 -1.7654625209 0.0001867485
| 10> C 0.3469799955 -0.8949464187 -7.3038e-05
| 11> C -0.1847770178 0.4195560554 -3.47305e-05
| 12> C 0.6850900871 1.5097321786 3.18141e-05
| 13> C 2.0411350493 1.2723470992 1.91677e-05
| 14> C 2.5515892225 -0.0294654687 -1.6627e-06
| 15> C 1.7173424363 -1.1264303988 -3.46722e-05
| 16> H -3.6079823354 1.0179989051 0.0005316544
| 17> H -2.4578465475 2.0351976747 0.8804215258
| 18> H -2.4585363739 2.0346168186 -0.8809613751
| 19> H -2.8177053583 -1.5500862353 7.49579e-05
| 20> H -0.6324338292 -2.768353163 -0.0009211898
| 21> H 0.2988831379 2.5184255194 -1.44169e-05
| 22> H 2.7313036903 2.1037817003 6.86864e-05
| 23> H 3.6221902378 -0.1732852618 5.98129e-05
| 24> H 2.1144464307 -2.1305706373 -1.36162e-05
| 25> *
| 26>
| 27>                          ****END OF INPUT****

CARTESIAN COORDINATES (ANGSTROEM)
---------------------------------
  C     -2.593555    1.407879   -0.000005
  C     -1.608080    0.289733   -0.000030
  C     -1.869055   -1.048706   -0.000026
  N     -0.701020   -1.765463    0.000187
  C      0.346980   -0.894946   -0.000073
  C     -0.184777    0.419556   -0.000035
  C      0.685090    1.509732    0.000032
  C      2.041135    1.272347    0.000019
  C      2.551589   -0.029465   -0.000002
  C      1.717342   -1.126430   -0.000035
  H     -3.607982    1.017999    0.000532
  H     -2.457847    2.035198    0.880422
  H     -2.458536    2.034617   -0.880961
  H     -2.817705   -1.550086    0.000075
  H     -0.632434   -2.768353   -0.000921
  H      0.298883    2.518426   -0.000014
  H      2.731304    2.103782    0.000069
  H      3.622190   -0.173285    0.000060
  H      2.114446   -2.130571   -0.000014

 Total Charge           Charge          ....    0
 Multiplicity           Mult            ....    1
 Number of Electrons    NEL             ....   70
 Basis Dimension        Dim             ....  240

ORBITAL ENERGIES
----------------

  NO   OCC          E(Eh)            E(eV)
   0   2.0000     -14.202969      -386.4824
   1   2.0000     -10.060376      -273.7568
   2   2.0000     -10.056605      -273.6541
   3   2.0000     -10.029729      -272.9228
   4   2.0000     -10.024894      -272.7912
   5   2.0000     -10.024746      -272.7872
   6   2.0000     -10.024696      -272.7858
   7   2.0000     -10.023707      -272.7589
   8   2.0000     -10.023333      -272.7488
   9   2.0000     -10.019217      -272.6368
  10   2.0000      -0.950348       -25.8603
  11   2.0000      -0.806830       -21.9550
  12   2.0000      -0.764378       -20.7998
  13   2.0000      -0.703386       -19.1401
  14   2.0000      -0.694442       -18.8967
  15   2.0000      -0.658921       -17.9302
  16   2.0000      -0.590293       -16.0627
  17   2.0000      -0.558697       -15.2029
  18   2.0000      -0.526161       -14.3176
  19   2.0000      -0.505538       -13.7564
  20   2.0000      -0.452199       -12.3050
  21   2.0000      -0.437478       -11.9044
  22   2.0000      -0.406749       -11.0682
  23   2.0000      -0.403761       -10.9869
  24   2.0000      -0.396549       -10.7906
  25   2.0000      -0.378146       -10.2899
  26   2.0000      -0.369583       -10.0569
  27   2.0000      -0.358406        -9.7527
  28   2.0000      -0.343590        -9.3495
  29   2.0000      -0.315961        -8.5977
  30   2.0000      -0.309822        -8.4307
  31   2.0000      -0.297511        -8.0957
  32   2.0000      -0.249847        -6.7987
  33   2.0000      -0.203529        -5.5383
  34   2.0000      -0.182098        -4.9551
  35   0.0000      -0.033595        -0.9142
  36   0.0000       0.002420         0.0658
  37   0.0000       0.043459         1.1826
  38   0.0000       0.072164         1.9637
  39   0.0000       0.088673         2.4129

MULLIKEN ATOMIC CHARGES
-----------------------
   0 C :   -0.593800
   1 C :    0.086671
   2 C :   -0.207307
   3 N :   -0.048857
   4 C :    0.107072
   5 C :    0.230427
   6 C :   -0.306751
   7 C :   -0.164109
   8 C :   -0.146216
   9 C :   -0.378447
  10 H :    0.148043
  11 H :    0.158684
  12 H :    0.158712
  13 H :    0.137500
  14 H :    0.245153
  15 H :    0.144154
  16 H :    0.143224
  17 H :    0.145471
  18 H :    0.140376
Sum of atomic charges:    0.0000000

LOEWDIN ATOMIC CHARGES
----------------------
   0 C :   -0.382276
   1 C :   -0.088611
   2 C :    0.061463
   3 N :   -0.651547
   4 C :    0.145099
   5 C :   -0.031736
   6 C :   -0.151829
   7 C :   -0.186401
   8 C :   -0.176331
   9 C :   -0.150281
  10 H :    0.160192
  11 H :    0.161040
  12 H :    0.161043
  13 H :    0.184252
  14 H :    0.277154
  15 H :    0.169164
  16 H :    0.165035
  17 H :    0.165887
  18 H :    0.168682

  Mayer bond orders larger than 0.100000
B(  0-C ,  1-C ) :   0.7754 B(  0-C , 10-H ) :   0.9954 B(  0-C , 11-H ) :   0.9808
B(  0-C , 12-H ) :   0.9808 B(  1-C ,  2-C ) :   1.5213 B(  1-C ,  5-C ) :   1.1861
B(  2-C ,  3-N ) :   1.1545 B(  2-C , 13-H ) :   0.9296 B(  3-N ,  4-C ) :   1.1983
B(  3-N , 14-H ) :   0.9110 B(  4-C ,  5-C ) :   1.4113 B(  4-C ,  9-C ) :   1.2684
B(  5-C ,  6-C ) :   1.2371 B(  6-C ,  7-C ) :   1.4538 B(  6-C , 15-H ) :   0.9471
B(  7-C ,  8-C ) :   1.3673 B(  7-C , 16-H ) :   0.9460 B(  8-C ,  9-C ) :   1.4595
B(  8-C , 17-H ) :   0.9532 B(  9-C , 18-H ) :   0.9281

Dispersion correction           -0.006997329
FINAL SINGLE POINT ENERGY      -403.026171725780

DIPOLE MOMENT
-------------

Method             : SCF
Type of density    : Electron Density
Multiplicity       :   1
Irrep              :   0
Energy             :  -403.0265623497164142 Eh
Relativity type    :
Basis              : AO
                                X                 Y                 Z
Electronic contribution:      2.593421397      -3.589003149       0.000175185
Nuclear contribution   :     -3.013196683       2.887123512      -0.000706319
                        -----------------------------------------
Total Dipole Moment    :     -0.419775286      -0.701879637      -0.000531134
                        -----------------------------------------
Magnitude (a.u.)       :      0.817830421
Magnitude (Debye)      :      2.078759729

Rotational constants in cm-1:             0.087776             0.042953             0.028995
Rotational constants in MHz :          2631.470170          1287.702910           869.259587

                             ****ORCA TERMINATED NORMALLY****
TOTAL RUN TIME: 0 days 0 hours 1 minutes 6 seconds 628 msec
