                         Program Version 6.0.0  -   RELEASE  -
|  1> ! r2scan-3c def2/J RI DEFGRID2 scfconv6 printgap
|  2> %output
|  3>     printlevel normal
|  4> end
|  5> %cpcm
|  6>     smd true
|  7>     smdsolvent "water"
|  8> end
|  9> * xyz 0 1
| 10> C -2.5935547587 1.4078792021 -5.3376e-06
| 11> C -1.6080802511 0.2897329049 -3.00013e-05
| 12> C -1.8690545735 -1.0487060832 -2.60489e-05
| 13> N -0.7010197991 -1.7654625209 0.0001867485
| 14> C 0.3469799955 -0.8949464187 -7.3038e-05
| 15> C -0.1847770178 0.4195560554 -3.47305e-05
| 16> C 0.6850900871 1.5097321786 3.18141e-05
| 17> C 2.0411350493 1.2723470992 1.91677e-05
| 18> C 2.5515892225 -0.0294654687 -1.6627e-06
| 19> C 1.7173424363 -1.1264303988 -3.46722e-05
| 20> H -3.6079823354 1.0179989051 0.0005316544
| 21> H -2.4578465475 2.0351976747 0.8804215258
| 22> H -2.4585363739 2.0346168186 -0.8809613751
| 23> H -2.8177053583 -1.5500862353 7.49579e-05
| 24> H -0.6324338292 -2.768353163 -0.0009211898
| 25> H 0.2988831379 2.5184255194 -1.44169e-05
| 26> H 2.7313036903 2.1037817003 6.86864e-05
| 27> H 3.6221902378 -0.1732852618 5.98129e-05
| 28> H 2.1144464307 -2.1305706373 -1.36162e-05
| 29> *
| 30>
| 31>                          ****END OF INPUT****

CARTESIAN COORDINATES (ANGSTROEM)
---------------------------------
  C     -2.593555    1.407879   -0.000005
  C     -1.608080    0.289733   -0.000030
  C     -1.869055   -1.048706   -0.000026
  N     -0.701020   -1.765463    0.000187
  C      0.346980   -0.894946   -0.000073
  C     -0.184777    0.419556   -0.000035
  C      0.685090    1.509732    0.000032
  C      2.041135    1.272347    0.000019
  C      2.551589   -0.029465   -0.000002
  C      1.717342   -1.126430   -0.000035
  H     -3.607982    1.017999    0.000532
  H     -2.457847    2.035198    0.880422
  H     -2.458536    2.034617   -0.880961
  H     -2.817705   -1.550086    0.000075
  H     -0.632434   -2.768353   -0.000921
  H      0.298883    2.518426   -0.000014
  H      2.731304    2.103782    0.000069
  H      3.622190   -0.173285    0.000060
  H      2.114446   -2.130571   -0.000014

 Total Charge           Charge          ....    0
 Multiplicity           Mult            ....    1
 Number of Electrons    NEL             ....   70
 Basis Dimension        Dim             ....  240

ORBITAL ENERGIES
----------------

  NO   OCC          E(Eh)            E(eV)
   0   2.0000     -14.196683      -386.3114
   1   2.0000     -10.061846      -273.7968
   2   2.0000     -10.053148      -273.5601
   3   2.0000     -10.031122      -272.9607
   4   2.0000     -10.028692      -272.8946
   5   2.0000     -10.026834      -272.8440
   6   2.0000     -10.026404      -272.8323
   7   2.0000     -10.024444      -272.7790
   8   2.0000     -10.023164      -272.7442
   9   2.0000     -10.018831      -272.6263
  10   2.0000      -0.947400       -25.7801
  11   2.0000      -0.811013       -22.0688
  12   2.0000      -0.763853       -20.7855
  13   2.0000      -0.705657       -19.2019
  14   2.0000      -0.695536       -18.9265
  15   2.0000      -0.654616       -17.8130
  16   2.0000      -0.589501       -16.0411
  17   2.0000      -0.558270       -15.1913
  18   2.0000      -0.524504       -14.2725
  19   2.0000      -0.501301       -13.6411
  20   2.0000      -0.450066       -12.2469
  21   2.0000      -0.436998       -11.8913
  22   2.0000      -0.405211       -11.0264
  23   2.0000      -0.405110       -11.0236
  24   2.0000      -0.396430       -10.7874
  25   2.0000      -0.374562       -10.1923
  26   2.0000      -0.366675        -9.9777
  27   2.0000      -0.355696        -9.6790
  28   2.0000      -0.341681        -9.2976
  29   2.0000      -0.316295        -8.6068
  30   2.0000      -0.316157        -8.6031
  31   2.0000      -0.297243        -8.0884
  32   2.0000      -0.255567        -6.9543
  33   2.0000      -0.209166        -5.6917
  34   2.0000      -0.185039        -5.0352
  35   0.0000      -0.038572        -1.0496
  36   0.0000      -0.003422        -0.0931
  37   0.0000       0.042513         1.1568
  38   0.0000       0.086232         2.3465
  39   0.0000       0.095872         2.6088

MULLIKEN ATOMIC CHARGES
-----------------------
   0 C :   -0.614620
   1 C :    0.047704
   2 C :   -0.215252
   3 N :   -0.077274
   4 C :    0.101816
   5 C :    0.197447
   6 C :   -0.347850
   7 C :   -0.210962
   8 C :   -0.186002
   9 C :   -0.395937
  10 H :    0.171312
  11 H :    0.169562
  12 H :    0.169585
  13 H :    0.176959
  14 H :    0.310545
  15 H :    0.174322
  16 H :    0.173029
  17 H :    0.177052
  18 H :    0.178563
Sum of atomic charges:    0.0000000

LOEWDIN ATOMIC CHARGES
----------------------
   0 C :   -0.388659
   1 C :   -0.106968
   2 C :    0.067124
   3 N :   -0.633545
   4 C :    0.133328
   5 C :   -0.050799
   6 C :   -0.168333
   7 C :   -0.207557
   8 C :   -0.196830
   9 C :   -0.152934
  10 H :    0.167321
  11 H :    0.164934
  12 H :    0.164936
  13 H :    0.199887
  14 H :    0.295682
  15 H :    0.179439
  16 H :    0.173908
  17 H :    0.175451
  18 H :    0.183613

  Mayer bond orders larger than 0.100000
B(  0-C ,  1-C ) :   0.8090 B(  0-C , 10-H ) :   0.9886 B(  0-C , 11-H ) :   0.9741
B(  0-C , 12-H ) :   0.9741 B(  1-C ,  2-C ) :   1.4945 B(  1-C ,  5-C ) :   1.1343
B(  2-C ,  3-N ) :   1.1430 B(  2-C , 13-H ) :   0.9565 B(  3-N ,  4-C ) :   1.1941
B(  3-N , 14-H ) :   0.8871 B(  4-C ,  5-C ) :   1.3521 B(  4-C ,  9-C ) :   1.2468
B(  5-C ,  6-C ) :   1.2062 B(  6-C ,  7-C ) :   1.4168 B(  6-C , 15-H ) :   0.9657
B(  7-C ,  8-C ) :   1.3112 B(  7-C , 16-H ) :   0.9605 B(  8-C ,  9-C ) :   1.4105
B(  8-C , 17-H ) :   0.9646 B(  9-C , 18-H ) :   0.9533

Dispersion correction           -0.006997329
FINAL SINGLE POINT ENERGY      -403.034388479878

DIPOLE MOMENT
-------------

Method             : SCF
Type of density    : Electron Density
Multiplicity       :   1
Irrep              :   0
Energy             :  -403.0347791038141736 Eh
Relativity type    :
Basis              : AO
                                X                 Y                 Z
Electronic contribution:      2.376934556      -3.958600830      -0.000022021
Nuclear contribution   :     -3.013196683       2.887123512      -0.000706319
                        -----------------------------------------
Total Dipole Moment    :     -0.636262127      -1.071477319      -0.000728340
                        -----------------------------------------
Magnitude (a.u.)       :      1.246151543
Magnitude (Debye)      :      3.167465501

Rotational constants in cm-1:             0.087776             0.042953             0.028995
Rotational constants in MHz :          2631.470170          1287.702910           869.259587

                             ****ORCA TERMINATED NORMALLY****
TOTAL RUN TIME: 0 days 0 hours 1 minutes 23 seconds 643 msec
