                         Program Version 6.0.0  -   RELEASE  -
|  1> ! r2scan-3c def2/J RI DEFGRID2 scfconv6 printgap
|  2> %output
|  3>     printlevel normal
|  4> end
|  5> * xyz 0 1
|  6> C 3.9446598975 -0.1007738495 -2.7815187254
|  7> C 4.3054426283 -0.604676201 -1.3982320107
|  8> O 3.742464819 0.2696983334 -0.3834958702
|  9> P 2.5702563662 -0.1560687216 0.5827601796
| 10> S 2.2320952847 1.2251116508 1.9223546284
| 11> O 3.0730670411 -1.5587177856 1.1411297212
| 12> C 2.556397166 -2.1274292908 2.3576740495
| 13> C 1.0888442689 -2.4851750303 2.2410641115
| 14> S 0.980527235 -0.7149292393 -0.7316591602
| 15> C 0.4698457587 0.9697052072 -1.1587909863
| 16> S -0.6812041689 1.7007301057 0.0433234421
| 17> P -2.2607814595 0.347176021 -0.3162516268
| 18> S -2.517525581 -0.2512716159 -2.1688406616
| 19> O -3.5289822867 1.0293428367 0.3555400648
| 20> C -4.4067644068 1.9095671907 -0.3669766491
| 21> C -3.737742278 3.2231412953 -0.7171560216
| 22> O -1.9049490372 -0.7769652743 0.7416578334
| 23> C -2.3956915405 -2.1286657232 0.6131272894
| 24> C -3.8991395257 -2.2020977872 0.7768769578
| 25> H 4.4736514889 -0.693086481 -3.5213770923
| 26> H 2.8753419598 -0.1914683764 -2.9572506178
| 27> H 4.2340910754 0.9413272417 -2.8858162967
| 28> H 5.3827799219 -0.5669793895 -1.2310890003
| 29> H 3.9432163489 -1.6214254737 -1.2358821183
| 30> H 3.1766330495 -3.0107983103 2.5157523392
| 31> H 2.7136277772 -1.4088852258 3.1679246586
| 32> H 0.9226832106 -3.1185497322 1.3725511562
| 33> H 0.7751581134 -3.0086962303 3.1386705893
| 34> H 0.4935541463 -1.5777752469 2.1359697262
| 35> H -0.0226722698 0.9095338242 -2.1291167227
| 36> H 1.3399873919 1.6228748997 -1.1915502711
| 37> H -4.7413026155 1.3957060784 -1.2741502746
| 38> H -5.248825708 2.0544672008 0.311162468
| 39> H -4.4713456066 3.8976441631 -1.1469046071
| 40> H -3.3064036445 3.6762086243 0.1722574062
| 41> H -2.9432533159 3.0552695636 -1.4431347196
| 42> H -2.0911025101 -2.5121602287 -0.3659254994
| 43> H -1.8754828783 -2.6714199938 1.4031580763
| 44> H -4.2110027386 -3.2417803044 0.7744781806
| 45> H -4.1983446918 -1.7343962488 1.7112724495
| 46> H -4.3875638577 -1.6845377835 -0.0480805117
| 47> *
| 48>
| 49>                          ****END OF INPUT****

CARTESIAN COORDINATES (ANGSTROEM)
---------------------------------
  C      3.944660   -0.100774   -2.781519
  C      4.305443   -0.604676   -1.398232
  O      3.742465    0.269698   -0.383496
  P      2.570256   -0.156069    0.582760
  S      2.232095    1.225112    1.922355
  O      3.073067   -1.558718    1.141130
  C      2.556397   -2.127429    2.357674
  C      1.088844   -2.485175    2.241064
  S      0.980527   -0.714929   -0.731659
  C      0.469846    0.969705   -1.158791
  S     -0.681204    1.700730    0.043323
  P     -2.260781    0.347176   -0.316252
  S     -2.517526   -0.251272   -2.168841
  O     -3.528982    1.029343    0.355540
  C     -4.406764    1.909567   -0.366977
  C     -3.737742    3.223141   -0.717156
  O     -1.904949   -0.776965    0.741658
  C     -2.395692   -2.128666    0.613127
  C     -3.899140   -2.202098    0.776877
  H      4.473651   -0.693086   -3.521377
  H      2.875342   -0.191468   -2.957251
  H      4.234091    0.941327   -2.885816
  H      5.382780   -0.566979   -1.231089
  H      3.943216   -1.621425   -1.235882
  H      3.176633   -3.010798    2.515752
  H      2.713628   -1.408885    3.167925
  H      0.922683   -3.118550    1.372551
  H      0.775158   -3.008696    3.138671
  H      0.493554   -1.577775    2.135970
  H     -0.022672    0.909534   -2.129117
  H      1.339987    1.622875   -1.191550
  H     -4.741303    1.395706   -1.274150
  H     -5.248826    2.054467    0.311162
  H     -4.471346    3.897644   -1.146905
  H     -3.306404    3.676209    0.172257
  H     -2.943253    3.055270   -1.443135
  H     -2.091103   -2.512160   -0.365925
  H     -1.875483   -2.671420    1.403158
  H     -4.211003   -3.241780    0.774478
  H     -4.198345   -1.734396    1.711272
  H     -4.387564   -1.684538   -0.048081

 Total Charge           Charge          ....    0
 Multiplicity           Mult            ....    1
 Number of Electrons    NEL             ....  202
 Basis Dimension        Dim             ....  539

ORBITAL ENERGIES
----------------

  NO   OCC          E(Eh)            E(eV)
   0   2.0000     -88.572643     -2410.1842
   1   2.0000     -88.571325     -2410.1483
   2   2.0000     -88.521361     -2408.7887
   3   2.0000     -88.516983     -2408.6696
   4   2.0000     -76.912379     -2092.8922
   5   2.0000     -76.911967     -2092.8810
   6   2.0000     -18.994269      -516.8603
   7   2.0000     -18.992297      -516.8067
   8   2.0000     -18.989873      -516.7407
   9   2.0000     -18.987177      -516.6674
  10   2.0000     -10.106447      -275.0104
  11   2.0000     -10.103145      -274.9205
  12   2.0000     -10.100702      -274.8541
  13   2.0000     -10.098376      -274.7908
  14   2.0000     -10.096565      -274.7415
  15   2.0000     -10.032979      -273.0112
  16   2.0000     -10.030233      -272.9365
  17   2.0000     -10.028099      -272.8784
  18   2.0000     -10.027589      -272.8646
  19   2.0000      -7.866899      -214.0692
  20   2.0000      -7.865372      -214.0276
  21   2.0000      -7.816225      -212.6903
  22   2.0000      -7.811639      -212.5655
  23   2.0000      -6.590744      -179.3433
  24   2.0000      -6.590684      -179.3416
  25   2.0000      -5.813662      -158.1978
  26   2.0000      -5.812297      -158.1606
  27   2.0000      -5.810887      -158.1223
  28   2.0000      -5.809346      -158.0803
  29   2.0000      -5.803997      -157.9348
  30   2.0000      -5.802355      -157.8901
  31   2.0000      -5.763724      -156.8389
  32   2.0000      -5.759427      -156.7220
  33   2.0000      -5.756497      -156.6422
  34   2.0000      -5.756366      -156.6387
  35   2.0000      -5.751992      -156.5196
  36   2.0000      -5.751457      -156.5051
  37   2.0000      -4.736683      -128.8917
  38   2.0000      -4.736073      -128.8751
  39   2.0000      -4.735665      -128.8640
  40   2.0000      -4.735502      -128.8596
  41   2.0000      -4.734596      -128.8349
  42   2.0000      -4.734089      -128.8211
  43   2.0000      -1.051043       -28.6003
  44   2.0000      -1.048713       -28.5369
  45   2.0000      -1.010595       -27.4997
  46   2.0000      -1.009886       -27.4804
  47   2.0000      -0.799741       -21.7621
  48   2.0000      -0.757849       -20.6221
  49   2.0000      -0.749369       -20.3914
  50   2.0000      -0.735110       -20.0034
  51   2.0000      -0.730706       -19.8835
  52   2.0000      -0.710947       -19.3458
  53   2.0000      -0.685736       -18.6598
  54   2.0000      -0.668445       -18.1893
  55   2.0000      -0.632551       -17.2126
  56   2.0000      -0.623101       -16.9554
  57   2.0000      -0.610146       -16.6029
  58   2.0000      -0.604768       -16.4566
  59   2.0000      -0.588624       -16.0173
  60   2.0000      -0.529168       -14.3994
  61   2.0000      -0.516604       -14.0575
  62   2.0000      -0.493008       -13.4154
  63   2.0000      -0.492217       -13.3939
  64   2.0000      -0.476954       -12.9786
  65   2.0000      -0.462559       -12.5869
  66   2.0000      -0.459202       -12.4955
  67   2.0000      -0.457506       -12.4494
  68   2.0000      -0.449027       -12.2186
  69   2.0000      -0.436627       -11.8812
  70   2.0000      -0.426984       -11.6188
  71   2.0000      -0.411892       -11.2081
  72   2.0000      -0.410304       -11.1649
  73   2.0000      -0.402575       -10.9546
  74   2.0000      -0.391712       -10.6590
  75   2.0000      -0.387405       -10.5418
  76   2.0000      -0.383836       -10.4447
  77   2.0000      -0.376223       -10.2375
  78   2.0000      -0.372643       -10.1401
  79   2.0000      -0.369074       -10.0430
  80   2.0000      -0.364596        -9.9211
  81   2.0000      -0.361200        -9.8287
  82   2.0000      -0.359309        -9.7773
  83   2.0000      -0.353652        -9.6233
  84   2.0000      -0.346350        -9.4247
  85   2.0000      -0.329880        -8.9765
  86   2.0000      -0.326591        -8.8870
  87   2.0000      -0.317380        -8.6363
  88   2.0000      -0.309856        -8.4316
  89   2.0000      -0.308652        -8.3989
  90   2.0000      -0.298774        -8.1300
  91   2.0000      -0.287787        -7.8311
  92   2.0000      -0.285217        -7.7612
  93   2.0000      -0.278236        -7.5712
  94   2.0000      -0.274637        -7.4732
  95   2.0000      -0.246397        -6.7048
  96   2.0000      -0.228364        -6.2141
  97   2.0000      -0.224183        -6.1003
  98   2.0000      -0.219559        -5.9745
  99   2.0000      -0.214828        -5.8458
 100   2.0000      -0.203257        -5.5309
 101   0.0000      -0.042883        -1.1669
 102   0.0000      -0.027204        -0.7403
 103   0.0000      -0.002310        -0.0629
 104   0.0000       0.009095         0.2475
 105   0.0000       0.012450         0.3388

MULLIKEN ATOMIC CHARGES
-----------------------
   0 C :   -0.460030
   1 C :   -0.111231
   2 O :   -0.276087
   3 P :    0.633144
   4 S :   -0.401566
   5 O :   -0.298338
   6 C :   -0.159322
   7 C :   -0.482094
   8 S :   -0.158282
   9 C :   -0.258309
  10 S :   -0.061747
  11 P :    0.691724
  12 S :   -0.497367
  13 O :   -0.302864
  14 C :   -0.149787
  15 C :   -0.456397
  16 O :   -0.294972
  17 C :   -0.136289
  18 C :   -0.453496
  19 H :    0.147109
  20 H :    0.166697
  21 H :    0.158965
  22 H :    0.154358
  23 H :    0.158117
  24 H :    0.148224
  25 H :    0.175472
  26 H :    0.157519
  27 H :    0.147967
  28 H :    0.202836
  29 H :    0.219102
  30 H :    0.195933
  31 H :    0.170402
  32 H :    0.148576
  33 H :    0.147490
  34 H :    0.158266
  35 H :    0.176456
  36 H :    0.174798
  37 H :    0.151036
  38 H :    0.146372
  39 H :    0.158033
  40 H :    0.169582
Sum of atomic charges:   -0.0000000

LOEWDIN ATOMIC CHARGES
----------------------
   0 C :   -0.397878
   1 C :    0.024786
   2 O :   -0.658528
   3 P :    0.372455
   4 S :   -0.079024
   5 O :   -0.673634
   6 C :    0.023111
   7 C :   -0.415161
   8 S :    0.149405
   9 C :   -0.421064
  10 S :    0.178603
  11 P :    0.374116
  12 S :   -0.139790
  13 O :   -0.660233
  14 C :    0.019845
  15 C :   -0.406835
  16 O :   -0.674367
  17 C :    0.016430
  18 C :   -0.400038
  19 H :    0.159965
  20 H :    0.162015
  21 H :    0.161208
  22 H :    0.180639
  23 H :    0.178560
  24 H :    0.179488
  25 H :    0.181426
  26 H :    0.159424
  27 H :    0.159707
  28 H :    0.174318
  29 H :    0.191265
  30 H :    0.187866
  31 H :    0.178966
  32 H :    0.179677
  33 H :    0.159110
  34 H :    0.161424
  35 H :    0.165268
  36 H :    0.180330
  37 H :    0.180964
  38 H :    0.159092
  39 H :    0.161708
  40 H :    0.165381

  Mayer bond orders larger than 0.100000
B(  0-C ,  1-C ) :   0.9421 B(  0-C , 19-H ) :   0.9645 B(  0-C , 20-H ) :   0.9637
B(  0-C , 21-H ) :   0.9718 B(  1-C ,  2-O ) :   0.7473 B(  1-C , 22-H ) :   0.9588
B(  1-C , 23-H ) :   0.9700 B(  2-O ,  3-P ) :   1.1485 B(  3-P ,  4-S ) :   1.8852
B(  3-P ,  5-O ) :   1.0418 B(  3-P ,  8-S ) :   0.9861 B(  5-O ,  6-C ) :   0.8204
B(  6-C ,  7-C ) :   0.9177 B(  6-C , 24-H ) :   0.9620 B(  6-C , 25-H ) :   0.9695
B(  7-C , 26-H ) :   0.9631 B(  7-C , 27-H ) :   0.9536 B(  7-C , 28-H ) :   0.9538
B(  8-S ,  9-C ) :   0.8745 B(  9-C , 10-S ) :   0.9334 B(  9-C , 29-H ) :   0.9119
B(  9-C , 30-H ) :   0.9126 B( 10-S , 11-P ) :   1.1005 B( 11-P , 12-S ) :   1.7175
B( 11-P , 13-O ) :   1.0573 B( 11-P , 16-O ) :   1.1675 B( 13-O , 14-C ) :   0.8141
B( 14-C , 15-C ) :   0.9225 B( 14-C , 31-H ) :   0.9672 B( 14-C , 32-H ) :   0.9579
B( 15-C , 33-H ) :   0.9589 B( 15-C , 34-H ) :   0.9681 B( 15-C , 35-H ) :   0.9629
B( 16-O , 17-C ) :   0.7926 B( 17-C , 18-C ) :   0.9261 B( 17-C , 36-H ) :   0.9655
B( 17-C , 37-H ) :   0.9571 B( 18-C , 38-H ) :   0.9612 B( 18-C , 39-H ) :   0.9720
B( 18-C , 40-H ) :   0.9595

Dispersion correction           -0.021500466
FINAL SINGLE POINT ENERGY     -2932.460750479301

DIPOLE MOMENT
-------------

Method             : SCF
Type of density    : Electron Density
Multiplicity       :   1
Irrep              :   0
Energy             : -2932.4854853775336778 Eh
Relativity type    :
Basis              : AO
                                X                 Y                 Z
Electronic contribution:      6.802546360       8.121841175       2.526235344
Nuclear contribution   :     -6.979936769      -9.145078620      -2.742065996
                        -----------------------------------------
Total Dipole Moment    :     -0.177390409      -1.023237444      -0.215830652
                        -----------------------------------------
Magnitude (a.u.)       :      1.060690858
Magnitude (Debye)      :      2.696061900

Rotational constants in cm-1:             0.012144             0.004873             0.004506
Rotational constants in MHz :           364.062167           146.094015           135.079716

                             ****ORCA TERMINATED NORMALLY****
TOTAL RUN TIME: 0 days 0 hours 1 minutes 22 seconds 434 msec
