                         Program Version 6.0.0  -   RELEASE  -
|  1> ! r2scan-3c def2/J RI DEFGRID2 scfconv6 printgap
|  2> %output
|  3>     printlevel normal
|  4> end
|  5> %cpcm
|  6>     smd true
|  7>     smdsolvent "water"
|  8> end
|  9> * xyz 0 1
| 10> C 3.9446598975 -0.1007738495 -2.7815187254
| 11> C 4.3054426283 -0.604676201 -1.3982320107
| 12> O 3.742464819 0.2696983334 -0.3834958702
| 13> P 2.5702563662 -0.1560687216 0.5827601796
| 14> S 2.2320952847 1.2251116508 1.9223546284
| 15> O 3.0730670411 -1.5587177856 1.1411297212
| 16> C 2.556397166 -2.1274292908 2.3576740495
| 17> C 1.0888442689 -2.4851750303 2.2410641115
| 18> S 0.980527235 -0.7149292393 -0.7316591602
| 19> C 0.4698457587 0.9697052072 -1.1587909863
| 20> S -0.6812041689 1.7007301057 0.0433234421
| 21> P -2.2607814595 0.347176021 -0.3162516268
| 22> S -2.517525581 -0.2512716159 -2.1688406616
| 23> O -3.5289822867 1.0293428367 0.3555400648
| 24> C -4.4067644068 1.9095671907 -0.3669766491
| 25> C -3.737742278 3.2231412953 -0.7171560216
| 26> O -1.9049490372 -0.7769652743 0.7416578334
| 27> C -2.3956915405 -2.1286657232 0.6131272894
| 28> C -3.8991395257 -2.2020977872 0.7768769578
| 29> H 4.4736514889 -0.693086481 -3.5213770923
| 30> H 2.8753419598 -0.1914683764 -2.9572506178
| 31> H 4.2340910754 0.9413272417 -2.8858162967
| 32> H 5.3827799219 -0.5669793895 -1.2310890003
| 33> H 3.9432163489 -1.6214254737 -1.2358821183
| 34> H 3.1766330495 -3.0107983103 2.5157523392
| 35> H 2.7136277772 -1.4088852258 3.1679246586
| 36> H 0.9226832106 -3.1185497322 1.3725511562
| 37> H 0.7751581134 -3.0086962303 3.1386705893
| 38> H 0.4935541463 -1.5777752469 2.1359697262
| 39> H -0.0226722698 0.9095338242 -2.1291167227
| 40> H 1.3399873919 1.6228748997 -1.1915502711
| 41> H -4.7413026155 1.3957060784 -1.2741502746
| 42> H -5.248825708 2.0544672008 0.311162468
| 43> H -4.4713456066 3.8976441631 -1.1469046071
| 44> H -3.3064036445 3.6762086243 0.1722574062
| 45> H -2.9432533159 3.0552695636 -1.4431347196
| 46> H -2.0911025101 -2.5121602287 -0.3659254994
| 47> H -1.8754828783 -2.6714199938 1.4031580763
| 48> H -4.2110027386 -3.2417803044 0.7744781806
| 49> H -4.1983446918 -1.7343962488 1.7112724495
| 50> H -4.3875638577 -1.6845377835 -0.0480805117
| 51> *
| 52>
| 53>                          ****END OF INPUT****

CARTESIAN COORDINATES (ANGSTROEM)
---------------------------------
  C      3.944660   -0.100774   -2.781519
  C      4.305443   -0.604676   -1.398232
  O      3.742465    0.269698   -0.383496
  P      2.570256   -0.156069    0.582760
  S      2.232095    1.225112    1.922355
  O      3.073067   -1.558718    1.141130
  C      2.556397   -2.127429    2.357674
  C      1.088844   -2.485175    2.241064
  S      0.980527   -0.714929   -0.731659
  C      0.469846    0.969705   -1.158791
  S     -0.681204    1.700730    0.043323
  P     -2.260781    0.347176   -0.316252
  S     -2.517526   -0.251272   -2.168841
  O     -3.528982    1.029343    0.355540
  C     -4.406764    1.909567   -0.366977
  C     -3.737742    3.223141   -0.717156
  O     -1.904949   -0.776965    0.741658
  C     -2.395692   -2.128666    0.613127
  C     -3.899140   -2.202098    0.776877
  H      4.473651   -0.693086   -3.521377
  H      2.875342   -0.191468   -2.957251
  H      4.234091    0.941327   -2.885816
  H      5.382780   -0.566979   -1.231089
  H      3.943216   -1.621425   -1.235882
  H      3.176633   -3.010798    2.515752
  H      2.713628   -1.408885    3.167925
  H      0.922683   -3.118550    1.372551
  H      0.775158   -3.008696    3.138671
  H      0.493554   -1.577775    2.135970
  H     -0.022672    0.909534   -2.129117
  H      1.339987    1.622875   -1.191550
  H     -4.741303    1.395706   -1.274150
  H     -5.248826    2.054467    0.311162
  H     -4.471346    3.897644   -1.146905
  H     -3.306404    3.676209    0.172257
  H     -2.943253    3.055270   -1.443135
  H     -2.091103   -2.512160   -0.365925
  H     -1.875483   -2.671420    1.403158
  H     -4.211003   -3.241780    0.774478
  H     -4.198345   -1.734396    1.711272
  H     -4.387564   -1.684538   -0.048081

 Total Charge           Charge          ....    0
 Multiplicity           Mult            ....    1
 Number of Electrons    NEL             ....  202
 Basis Dimension        Dim             ....  539

ORBITAL ENERGIES
----------------

  NO   OCC          E(Eh)            E(eV)
   0   2.0000     -88.576569     -2410.2910
   1   2.0000     -88.575555     -2410.2634
   2   2.0000     -88.528523     -2408.9836
   3   2.0000     -88.528094     -2408.9719
   4   2.0000     -76.919092     -2093.0749
   5   2.0000     -76.917391     -2093.0286
   6   2.0000     -18.995917      -516.9052
   7   2.0000     -18.995334      -516.8893
   8   2.0000     -18.993147      -516.8298
   9   2.0000     -18.991240      -516.7779
  10   2.0000     -10.105019      -274.9715
  11   2.0000     -10.091969      -274.6164
  12   2.0000     -10.090640      -274.5803
  13   2.0000     -10.089665      -274.5537
  14   2.0000     -10.088631      -274.5256
  15   2.0000     -10.018995      -272.6307
  16   2.0000     -10.018504      -272.6173
  17   2.0000     -10.018403      -272.6146
  18   2.0000     -10.018365      -272.6136
  19   2.0000      -7.870722      -214.1732
  20   2.0000      -7.869778      -214.1476
  21   2.0000      -7.823587      -212.8906
  22   2.0000      -7.823199      -212.8801
  23   2.0000      -6.597483      -179.5266
  24   2.0000      -6.596168      -179.4909
  25   2.0000      -5.817599      -158.3049
  26   2.0000      -5.816582      -158.2773
  27   2.0000      -5.814652      -158.2247
  28   2.0000      -5.813789      -158.2013
  29   2.0000      -5.807805      -158.0384
  30   2.0000      -5.806826      -158.0118
  31   2.0000      -5.771241      -157.0435
  32   2.0000      -5.770670      -157.0279
  33   2.0000      -5.763867      -156.8428
  34   2.0000      -5.763533      -156.8337
  35   2.0000      -5.763447      -156.8314
  36   2.0000      -5.763348      -156.8287
  37   2.0000      -4.743356      -129.0733
  38   2.0000      -4.742383      -129.0468
  39   2.0000      -4.741515      -129.0232
  40   2.0000      -4.740994      -129.0090
  41   2.0000      -4.740963      -129.0082
  42   2.0000      -4.740131      -128.9855
  43   2.0000      -1.053172       -28.6583
  44   2.0000      -1.051906       -28.6238
  45   2.0000      -1.012446       -27.5500
  46   2.0000      -1.012084       -27.5402
  47   2.0000      -0.801678       -21.8148
  48   2.0000      -0.754498       -20.5309
  49   2.0000      -0.743844       -20.2410
  50   2.0000      -0.725346       -19.7377
  51   2.0000      -0.723252       -19.6807
  52   2.0000      -0.710312       -19.3286
  53   2.0000      -0.689387       -18.7592
  54   2.0000      -0.674943       -18.3661
  55   2.0000      -0.631679       -17.1889
  56   2.0000      -0.619362       -16.8537
  57   2.0000      -0.602866       -16.4048
  58   2.0000      -0.598951       -16.2983
  59   2.0000      -0.586954       -15.9718
  60   2.0000      -0.524547       -14.2736
  61   2.0000      -0.513486       -13.9727
  62   2.0000      -0.490121       -13.3369
  63   2.0000      -0.488669       -13.2974
  64   2.0000      -0.476938       -12.9781
  65   2.0000      -0.457507       -12.4494
  66   2.0000      -0.456244       -12.4150
  67   2.0000      -0.454117       -12.3571
  68   2.0000      -0.442392       -12.0381
  69   2.0000      -0.432779       -11.7765
  70   2.0000      -0.423055       -11.5119
  71   2.0000      -0.408306       -11.1106
  72   2.0000      -0.405616       -11.0374
  73   2.0000      -0.401058       -10.9134
  74   2.0000      -0.388955       -10.5840
  75   2.0000      -0.386263       -10.5108
  76   2.0000      -0.381465       -10.3802
  77   2.0000      -0.373041       -10.1510
  78   2.0000      -0.364996        -9.9320
  79   2.0000      -0.362869        -9.8742
  80   2.0000      -0.354909        -9.6576
  81   2.0000      -0.353352        -9.6152
  82   2.0000      -0.352988        -9.6053
  83   2.0000      -0.347173        -9.4471
  84   2.0000      -0.342938        -9.3318
  85   2.0000      -0.327888        -8.9223
  86   2.0000      -0.322904        -8.7867
  87   2.0000      -0.311721        -8.4824
  88   2.0000      -0.305545        -8.3143
  89   2.0000      -0.304195        -8.2776
  90   2.0000      -0.298887        -8.1331
  91   2.0000      -0.287636        -7.8270
  92   2.0000      -0.283780        -7.7220
  93   2.0000      -0.279244        -7.5986
  94   2.0000      -0.275972        -7.5096
  95   2.0000      -0.251846        -6.8531
  96   2.0000      -0.235816        -6.4169
  97   2.0000      -0.233063        -6.3420
  98   2.0000      -0.228536        -6.2188
  99   2.0000      -0.221775        -6.0348
 100   2.0000      -0.213840        -5.8189
 101   0.0000      -0.048390        -1.3168
 102   0.0000      -0.033983        -0.9247
 103   0.0000      -0.005296        -0.1441
 104   0.0000       0.004135         0.1125
 105   0.0000       0.008443         0.2297

MULLIKEN ATOMIC CHARGES
-----------------------
   0 C :   -0.488356
   1 C :   -0.114394
   2 O :   -0.306332
   3 P :    0.654720
   4 S :   -0.469924
   5 O :   -0.315983
   6 C :   -0.152493
   7 C :   -0.504843
   8 S :   -0.158399
   9 C :   -0.264993
  10 S :   -0.091207
  11 P :    0.723211
  12 S :   -0.536386
  13 O :   -0.328407
  14 C :   -0.151664
  15 C :   -0.490841
  16 O :   -0.323749
  17 C :   -0.133610
  18 C :   -0.493706
  19 H :    0.170583
  20 H :    0.167875
  21 H :    0.167951
  22 H :    0.177893
  23 H :    0.173685
  24 H :    0.176098
  25 H :    0.178633
  26 H :    0.175659
  27 H :    0.174301
  28 H :    0.181156
  29 H :    0.238339
  30 H :    0.227016
  31 H :    0.177597
  32 H :    0.175336
  33 H :    0.172695
  34 H :    0.169192
  35 H :    0.173132
  36 H :    0.179411
  37 H :    0.178940
  38 H :    0.172476
  39 H :    0.169790
  40 H :    0.169598
Sum of atomic charges:   -0.0000000

LOEWDIN ATOMIC CHARGES
----------------------
   0 C :   -0.399467
   1 C :    0.030932
   2 O :   -0.677027
   3 P :    0.378061
   4 S :   -0.129744
   5 O :   -0.679514
   6 C :    0.027637
   7 C :   -0.413094
   8 S :    0.154537
   9 C :   -0.412365
  10 S :    0.160505
  11 P :    0.378104
  12 S :   -0.162354
  13 O :   -0.673318
  14 C :    0.025419
  15 C :   -0.410052
  16 O :   -0.691465
  17 C :    0.021118
  18 C :   -0.403195
  19 H :    0.168835
  20 H :    0.161565
  21 H :    0.164129
  22 H :    0.190553
  23 H :    0.184630
  24 H :    0.191600
  25 H :    0.181842
  26 H :    0.164967
  27 H :    0.169610
  28 H :    0.164962
  29 H :    0.197728
  30 H :    0.198665
  31 H :    0.181450
  32 H :    0.190936
  33 H :    0.168325
  34 H :    0.163607
  35 H :    0.161533
  36 H :    0.182044
  37 H :    0.192163
  38 H :    0.168834
  39 H :    0.164334
  40 H :    0.162969

  Mayer bond orders larger than 0.100000
B(  0-C ,  1-C ) :   0.9387 B(  0-C , 19-H ) :   0.9597 B(  0-C , 20-H ) :   0.9628
B(  0-C , 21-H ) :   0.9683 B(  1-C ,  2-O ) :   0.7350 B(  1-C , 22-H ) :   0.9484
B(  1-C , 23-H ) :   0.9617 B(  2-O ,  3-P ) :   1.1568 B(  3-P ,  4-S ) :   1.8473
B(  3-P ,  5-O ) :   1.0540 B(  3-P ,  8-S ) :   1.0057 B(  5-O ,  6-C ) :   0.8058
B(  6-C ,  7-C ) :   0.9040 B(  6-C , 24-H ) :   0.9505 B(  6-C , 25-H ) :   0.9669
B(  7-C , 26-H ) :   0.9603 B(  7-C , 27-H ) :   0.9496 B(  7-C , 28-H ) :   0.9600
B(  8-S ,  9-C ) :   0.8680 B(  9-C , 10-S ) :   0.9214 B(  9-C , 29-H ) :   0.9082
B(  9-C , 30-H ) :   0.9019 B( 10-S , 11-P ) :   1.1121 B( 11-P , 12-S ) :   1.6841
B( 11-P , 13-O ) :   1.0648 B( 11-P , 16-O ) :   1.1720 B( 13-O , 14-C ) :   0.8024
B( 14-C , 15-C ) :   0.9088 B( 14-C , 31-H ) :   0.9656 B( 14-C , 32-H ) :   0.9485
B( 15-C , 33-H ) :   0.9535 B( 15-C , 34-H ) :   0.9657 B( 15-C , 35-H ) :   0.9639
B( 16-O , 17-C ) :   0.7802 B( 17-C , 18-C ) :   0.9140 B( 17-C , 36-H ) :   0.9610
B( 17-C , 37-H ) :   0.9473 B( 18-C , 38-H ) :   0.9553 B( 18-C , 39-H ) :   0.9710
B( 18-C , 40-H ) :   0.9591

Dispersion correction           -0.021500466
FINAL SINGLE POINT ENERGY     -2932.471458298364

DIPOLE MOMENT
-------------

Method             : SCF
Type of density    : Electron Density
Multiplicity       :   1
Irrep              :   0
Energy             : -2932.4961931965963231 Eh
Relativity type    :
Basis              : AO
                                X                 Y                 Z
Electronic contribution:      6.741168928       7.600710653       2.242681637
Nuclear contribution   :     -6.979936769      -9.145078620      -2.742065996
                        -----------------------------------------
Total Dipole Moment    :     -0.238767841      -1.544367966      -0.499384359
                        -----------------------------------------
Magnitude (a.u.)       :      1.640569180
Magnitude (Debye)      :      4.169995461

Rotational constants in cm-1:             0.012144             0.004873             0.004506
Rotational constants in MHz :           364.062167           146.094015           135.079716

                             ****ORCA TERMINATED NORMALLY****
TOTAL RUN TIME: 0 days 0 hours 1 minutes 53 seconds 887 msec
