                         Program Version 6.0.1  -  RELEASE   -
|  1> ! r2scan-3c def2/J RI DEFGRID2 scfconv6 printgap
|  2> %output
|  3>     printlevel normal
|  4> end
|  5> * xyz 0 1
|  6> C 5.4598662579 -2.0090760606 -1.7279395921
|  7> C 4.9228144871 -1.0050795928 -0.7203237035
|  8> O 3.6512468023 -1.4321116709 -0.1947033009
|  9> C 2.5590690858 -1.1059033013 -0.8537802362
| 10> O 2.5332252129 -0.4419293572 -1.8661456553
| 11> C 1.3210175615 -1.6773750296 -0.1841313091
| 12> C 0.2187867781 -0.6285657866 -0.1919393143
| 13> H 0.0968414301 -0.2277458286 -1.208073591
| 14> C 0.5073076384 0.5535840767 0.709777589
| 15> O -0.3755625696 1.1619816872 1.2828804743
| 16> O 1.777844677 0.839127288 0.7857533584
| 17> C 2.16965998 1.9801708402 1.5834882249
| 18> C 3.6820138777 1.9886800192 1.6719635433
| 19> S -1.3826234551 -1.3286743763 0.3221612155
| 20> P -2.5911004541 0.3953969881 0.0181692815
| 21> S -1.9729742825 1.7022291243 -1.3031234741
| 22> O -3.969445564 -0.308403752 -0.422575378
| 23> C -4.1017898324 -0.9637325807 -1.6863663303
| 24> O -3.0628044794 0.9997152049 1.3975514676
| 25> C -3.6516340494 0.1865017648 2.431846188
| 26> H 6.4476677488 -1.6988906919 -2.0523201888
| 27> H 5.5236386303 -2.9951493121 -1.2764447496
| 28> H 4.8037368321 -2.0567297624 -2.5940299509
| 29> H 4.7954062535 -0.0228052972 -1.1836991888
| 30> H 5.5708116418 -0.9344647352 0.1532576429
| 31> H 1.5669272658 -1.9955846086 0.8275330006
| 32> H 0.9884363676 -2.5434271219 -0.7595297144
| 33> H 1.781062237 2.8803611587 1.0980026127
| 34> H 1.6983330367 1.8853851284 2.5663259724
| 35> H 4.0341039195 1.0694645924 2.1304686822
| 36> H 4.1113554541 2.0749203655 0.6781760266
| 37> H 3.9984178061 2.8349273201 2.2722933434
| 38> H -3.7175285325 -0.3233198429 -2.4822680767
| 39> H -5.1669913974 -1.1349461327 -1.8181306172
| 40> H -3.5583151212 -1.9084473587 -1.6723865616
| 41> H -2.9959021559 -0.6524368685 2.6659486374
| 42> H -4.6243637283 -0.1772936392 2.1058207051
| 43> H -3.7487613539 0.8486556491 3.2882106774
| 44> *
| 45>
| 46>                          ****END OF INPUT****

CARTESIAN COORDINATES (ANGSTROEM)
---------------------------------
  C      5.459866   -2.009076   -1.727940
  C      4.922814   -1.005080   -0.720324
  O      3.651247   -1.432112   -0.194703
  C      2.559069   -1.105903   -0.853780
  O      2.533225   -0.441929   -1.866146
  C      1.321018   -1.677375   -0.184131
  C      0.218787   -0.628566   -0.191939
  H      0.096841   -0.227746   -1.208074
  C      0.507308    0.553584    0.709778
  O     -0.375563    1.161982    1.282880
  O      1.777845    0.839127    0.785753
  C      2.169660    1.980171    1.583488
  C      3.682014    1.988680    1.671964
  S     -1.382623   -1.328674    0.322161
  P     -2.591100    0.395397    0.018169
  S     -1.972974    1.702229   -1.303123
  O     -3.969446   -0.308404   -0.422575
  C     -4.101790   -0.963733   -1.686366
  O     -3.062804    0.999715    1.397551
  C     -3.651634    0.186502    2.431846
  H      6.447668   -1.698891   -2.052320
  H      5.523639   -2.995149   -1.276445
  H      4.803737   -2.056730   -2.594030
  H      4.795406   -0.022805   -1.183699
  H      5.570812   -0.934465    0.153258
  H      1.566927   -1.995585    0.827533
  H      0.988436   -2.543427   -0.759530
  H      1.781062    2.880361    1.098003
  H      1.698333    1.885385    2.566326
  H      4.034104    1.069465    2.130469
  H      4.111355    2.074920    0.678176
  H      3.998418    2.834927    2.272293
  H     -3.717529   -0.323320   -2.482268
  H     -5.166991   -1.134946   -1.818131
  H     -3.558315   -1.908447   -1.672387
  H     -2.995902   -0.652437    2.665949
  H     -4.624364   -0.177294    2.105821
  H     -3.748761    0.848656    3.288211

 Total Charge           Charge          ....    0
 Multiplicity           Mult            ....    1
 Number of Electrons    NEL             ....  174
 Basis Dimension        Dim             ....  510

ORBITAL ENERGIES
----------------

  NO   OCC          E(Eh)            E(eV)
   0   2.0000     -88.571472     -2410.1523
   1   2.0000     -88.504409     -2408.3274
   2   2.0000     -76.904522     -2092.6784
   3   2.0000     -19.015397      -517.4353
   4   2.0000     -19.007789      -517.2282
   5   2.0000     -18.980651      -516.4898
   6   2.0000     -18.977577      -516.4061
   7   2.0000     -18.939842      -515.3793
   8   2.0000     -18.937092      -515.3045
   9   2.0000     -10.165862      -276.6272
  10   2.0000     -10.165712      -276.6231
  11   2.0000     -10.102820      -274.9117
  12   2.0000     -10.100236      -274.8414
  13   2.0000     -10.094259      -274.6788
  14   2.0000     -10.088562      -274.5237
  15   2.0000     -10.080451      -274.3030
  16   2.0000     -10.065953      -273.9085
  17   2.0000     -10.040538      -273.2169
  18   2.0000     -10.035938      -273.0918
  19   2.0000      -7.865783      -214.0388
  20   2.0000      -7.799214      -212.2274
  21   2.0000      -6.582217      -179.1112
  22   2.0000      -5.812589      -158.1686
  23   2.0000      -5.809687      -158.0896
  24   2.0000      -5.802931      -157.9058
  25   2.0000      -5.747195      -156.3891
  26   2.0000      -5.739607      -156.1826
  27   2.0000      -5.738760      -156.1596
  28   2.0000      -4.727984      -128.6550
  29   2.0000      -4.727411      -128.6394
  30   2.0000      -4.725600      -128.5901
  31   2.0000      -1.093490       -29.7554
  32   2.0000      -1.083570       -29.4854
  33   2.0000      -1.038507       -28.2592
  34   2.0000      -0.995710       -27.0946
  35   2.0000      -0.990863       -26.9628
  36   2.0000      -0.987541       -26.8723
  37   2.0000      -0.812312       -22.1041
  38   2.0000      -0.759048       -20.6548
  39   2.0000      -0.755686       -20.5633
  40   2.0000      -0.726481       -19.7686
  41   2.0000      -0.696675       -18.9575
  42   2.0000      -0.665570       -18.1111
  43   2.0000      -0.657953       -17.9038
  44   2.0000      -0.644207       -17.5298
  45   2.0000      -0.632367       -17.2076
  46   2.0000      -0.597388       -16.2557
  47   2.0000      -0.546994       -14.8845
  48   2.0000      -0.535593       -14.5742
  49   2.0000      -0.527097       -14.3430
  50   2.0000      -0.497043       -13.5252
  51   2.0000      -0.490378       -13.3439
  52   2.0000      -0.482723       -13.1356
  53   2.0000      -0.470848       -12.8124
  54   2.0000      -0.463867       -12.6225
  55   2.0000      -0.460759       -12.5379
  56   2.0000      -0.446426       -12.1479
  57   2.0000      -0.441024       -12.0009
  58   2.0000      -0.432933       -11.7807
  59   2.0000      -0.425261       -11.5720
  60   2.0000      -0.420600       -11.4451
  61   2.0000      -0.411550       -11.1988
  62   2.0000      -0.407930       -11.1003
  63   2.0000      -0.402010       -10.9392
  64   2.0000      -0.395364       -10.7584
  65   2.0000      -0.385854       -10.4996
  66   2.0000      -0.383485       -10.4352
  67   2.0000      -0.376261       -10.2386
  68   2.0000      -0.365704        -9.9513
  69   2.0000      -0.358029        -9.7425
  70   2.0000      -0.351068        -9.5531
  71   2.0000      -0.343281        -9.3411
  72   2.0000      -0.337990        -9.1972
  73   2.0000      -0.330783        -9.0011
  74   2.0000      -0.323979        -8.8159
  75   2.0000      -0.316594        -8.6150
  76   2.0000      -0.309080        -8.4105
  77   2.0000      -0.304206        -8.2779
  78   2.0000      -0.289604        -7.8805
  79   2.0000      -0.279397        -7.6028
  80   2.0000      -0.277891        -7.5618
  81   2.0000      -0.266661        -7.2562
  82   2.0000      -0.251252        -6.8369
  83   2.0000      -0.246150        -6.6981
  84   2.0000      -0.233285        -6.3480
  85   2.0000      -0.206178        -5.6104
  86   2.0000      -0.197834        -5.3833
  87   0.0000      -0.044371        -1.2074
  88   0.0000      -0.027191        -0.7399
  89   0.0000      -0.016783        -0.4567
  90   0.0000       0.011417         0.3107
  91   0.0000       0.028990         0.7889

MULLIKEN ATOMIC CHARGES
-----------------------
   0 C :   -0.480569
   1 C :   -0.132138
   2 O :   -0.159781
   3 C :    0.315546
   4 O :   -0.399751
   5 C :   -0.395171
   6 C :    0.004238
   7 H :    0.267788
   8 C :    0.244675
   9 O :   -0.399230
  10 O :   -0.082119
  11 C :   -0.139089
  12 C :   -0.456430
  13 S :   -0.219259
  14 P :    0.806897
  15 S :   -0.458113
  16 O :   -0.361517
  17 C :   -0.300882
  18 O :   -0.302326
  19 C :   -0.290088
  20 H :    0.149678
  21 H :    0.154654
  22 H :    0.173937
  23 H :    0.173069
  24 H :    0.150692
  25 H :    0.193539
  26 H :    0.184521
  27 H :    0.166020
  28 H :    0.163908
  29 H :    0.155527
  30 H :    0.157434
  31 H :    0.151410
  32 H :    0.176558
  33 H :    0.148360
  34 H :    0.153367
  35 H :    0.161964
  36 H :    0.167102
  37 H :    0.155580
Sum of atomic charges:   -0.0000000

LOEWDIN ATOMIC CHARGES
----------------------
   0 C :   -0.387957
   1 C :    0.026848
   2 O :   -0.580535
   3 C :    0.355175
   4 O :   -0.426280
   5 C :   -0.202853
   6 C :   -0.204257
   7 H :    0.224101
   8 C :    0.358050
   9 O :   -0.439236
  10 O :   -0.571755
  11 C :    0.045966
  12 C :   -0.384444
  13 S :    0.186773
  14 P :    0.406895
  15 S :   -0.086583
  16 O :   -0.695257
  17 C :   -0.065777
  18 O :   -0.637656
  19 C :   -0.049643
  20 H :    0.160372
  21 H :    0.158156
  22 H :    0.165926
  23 H :    0.189308
  24 H :    0.178734
  25 H :    0.190501
  26 H :    0.190243
  27 H :    0.184877
  28 H :    0.184482
  29 H :    0.160506
  30 H :    0.161563
  31 H :    0.161930
  32 H :    0.176934
  33 H :    0.174995
  34 H :    0.166394
  35 H :    0.171109
  36 H :    0.172501
  37 H :    0.179897

  Mayer bond orders larger than 0.100000
B(  0-C ,  1-C ) :   0.9383 B(  0-C , 20-H ) :   0.9645 B(  0-C , 21-H ) :   0.9753
B(  0-C , 22-H ) :   0.9708 B(  1-C ,  2-O ) :   0.7948 B(  1-C , 23-H ) :   0.9658
B(  1-C , 24-H ) :   0.9596 B(  2-O ,  3-C ) :   1.0703 B(  3-C ,  4-O ) :   1.8817
B(  3-C ,  5-C ) :   0.8828 B(  5-C ,  6-C ) :   0.8622 B(  5-C , 25-H ) :   1.0040
B(  5-C , 26-H ) :   0.9370 B(  6-C ,  7-H ) :   0.8850 B(  6-C ,  8-C ) :   0.9731
B(  6-C , 13-S ) :   0.8725 B(  8-C ,  9-O ) :   1.7911 B(  8-C , 10-O ) :   1.2037
B(  9-O , 14-P ) :   0.1040 B( 10-O , 11-C ) :   0.7948 B( 11-C , 12-C ) :   0.9451
B( 11-C , 27-H ) :   0.9446 B( 11-C , 28-H ) :   0.9583 B( 12-C , 29-H ) :   0.9712
B( 12-C , 30-H ) :   0.9663 B( 12-C , 31-H ) :   0.9644 B( 13-S , 14-P ) :   0.9627
B( 14-P , 15-S ) :   1.7997 B( 14-P , 16-O ) :   1.0032 B( 14-P , 18-O ) :   1.1848
B( 16-O , 17-C ) :   0.8374 B( 17-C , 32-H ) :   0.9579 B( 17-C , 33-H ) :   0.9694
B( 17-C , 34-H ) :   0.9571 B( 18-O , 19-C ) :   0.7963 B( 19-C , 35-H ) :   0.9595
B( 19-C , 36-H ) :   0.9627 B( 19-C , 37-H ) :   0.9659

Dispersion correction           -0.016873094
FINAL SINGLE POINT ENERGY     -1981.447741175981

DIPOLE MOMENT
-------------

Method             : SCF
Type of density    : Electron Density
Multiplicity       :   1
Irrep              :   0
Energy             : -1981.4683918135951899 Eh
Relativity type    :
Basis              : AO
                                X                 Y                 Z
Electronic contribution:    -21.274309491       3.855785957      -1.457040392
Nuclear contribution   :     22.689592987      -5.115573721       2.596514539
                        -----------------------------------------
Total Dipole Moment    :      1.415283496      -1.259787765       1.139474147
                        -----------------------------------------
Magnitude (a.u.)       :      2.210993876
Magnitude (Debye)      :      5.619899811

Rotational constants in cm-1:             0.017550             0.005358             0.004794
Rotational constants in MHz :           526.121351           160.636675           143.712655

                             ****ORCA TERMINATED NORMALLY****
TOTAL RUN TIME: 0 days 0 hours 1 minutes 13 seconds 564 msec
