                         Program Version 6.0.1  -  RELEASE   -
|  1> ! r2scan-3c def2/J RI DEFGRID2 scfconv6 printgap
|  2> %output
|  3>     printlevel normal
|  4> end
|  5> %cpcm
|  6>     smd true
|  7>     smdsolvent "water"
|  8> end
|  9> * xyz 0 1
| 10> C 5.4598662579 -2.0090760606 -1.7279395921
| 11> C 4.9228144871 -1.0050795928 -0.7203237035
| 12> O 3.6512468023 -1.4321116709 -0.1947033009
| 13> C 2.5590690858 -1.1059033013 -0.8537802362
| 14> O 2.5332252129 -0.4419293572 -1.8661456553
| 15> C 1.3210175615 -1.6773750296 -0.1841313091
| 16> C 0.2187867781 -0.6285657866 -0.1919393143
| 17> H 0.0968414301 -0.2277458286 -1.208073591
| 18> C 0.5073076384 0.5535840767 0.709777589
| 19> O -0.3755625696 1.1619816872 1.2828804743
| 20> O 1.777844677 0.839127288 0.7857533584
| 21> C 2.16965998 1.9801708402 1.5834882249
| 22> C 3.6820138777 1.9886800192 1.6719635433
| 23> S -1.3826234551 -1.3286743763 0.3221612155
| 24> P -2.5911004541 0.3953969881 0.0181692815
| 25> S -1.9729742825 1.7022291243 -1.3031234741
| 26> O -3.969445564 -0.308403752 -0.422575378
| 27> C -4.1017898324 -0.9637325807 -1.6863663303
| 28> O -3.0628044794 0.9997152049 1.3975514676
| 29> C -3.6516340494 0.1865017648 2.431846188
| 30> H 6.4476677488 -1.6988906919 -2.0523201888
| 31> H 5.5236386303 -2.9951493121 -1.2764447496
| 32> H 4.8037368321 -2.0567297624 -2.5940299509
| 33> H 4.7954062535 -0.0228052972 -1.1836991888
| 34> H 5.5708116418 -0.9344647352 0.1532576429
| 35> H 1.5669272658 -1.9955846086 0.8275330006
| 36> H 0.9884363676 -2.5434271219 -0.7595297144
| 37> H 1.781062237 2.8803611587 1.0980026127
| 38> H 1.6983330367 1.8853851284 2.5663259724
| 39> H 4.0341039195 1.0694645924 2.1304686822
| 40> H 4.1113554541 2.0749203655 0.6781760266
| 41> H 3.9984178061 2.8349273201 2.2722933434
| 42> H -3.7175285325 -0.3233198429 -2.4822680767
| 43> H -5.1669913974 -1.1349461327 -1.8181306172
| 44> H -3.5583151212 -1.9084473587 -1.6723865616
| 45> H -2.9959021559 -0.6524368685 2.6659486374
| 46> H -4.6243637283 -0.1772936392 2.1058207051
| 47> H -3.7487613539 0.8486556491 3.2882106774
| 48> *
| 49>
| 50>                          ****END OF INPUT****

CARTESIAN COORDINATES (ANGSTROEM)
---------------------------------
  C      5.459866   -2.009076   -1.727940
  C      4.922814   -1.005080   -0.720324
  O      3.651247   -1.432112   -0.194703
  C      2.559069   -1.105903   -0.853780
  O      2.533225   -0.441929   -1.866146
  C      1.321018   -1.677375   -0.184131
  C      0.218787   -0.628566   -0.191939
  H      0.096841   -0.227746   -1.208074
  C      0.507308    0.553584    0.709778
  O     -0.375563    1.161982    1.282880
  O      1.777845    0.839127    0.785753
  C      2.169660    1.980171    1.583488
  C      3.682014    1.988680    1.671964
  S     -1.382623   -1.328674    0.322161
  P     -2.591100    0.395397    0.018169
  S     -1.972974    1.702229   -1.303123
  O     -3.969446   -0.308404   -0.422575
  C     -4.101790   -0.963733   -1.686366
  O     -3.062804    0.999715    1.397551
  C     -3.651634    0.186502    2.431846
  H      6.447668   -1.698891   -2.052320
  H      5.523639   -2.995149   -1.276445
  H      4.803737   -2.056730   -2.594030
  H      4.795406   -0.022805   -1.183699
  H      5.570812   -0.934465    0.153258
  H      1.566927   -1.995585    0.827533
  H      0.988436   -2.543427   -0.759530
  H      1.781062    2.880361    1.098003
  H      1.698333    1.885385    2.566326
  H      4.034104    1.069465    2.130469
  H      4.111355    2.074920    0.678176
  H      3.998418    2.834927    2.272293
  H     -3.717529   -0.323320   -2.482268
  H     -5.166991   -1.134946   -1.818131
  H     -3.558315   -1.908447   -1.672387
  H     -2.995902   -0.652437    2.665949
  H     -4.624364   -0.177294    2.105821
  H     -3.748761    0.848656    3.288211

 Total Charge           Charge          ....    0
 Multiplicity           Mult            ....    1
 Number of Electrons    NEL             ....  174
 Basis Dimension        Dim             ....  510

ORBITAL ENERGIES
----------------

  NO   OCC          E(Eh)            E(eV)
   0   2.0000     -88.579916     -2410.3821
   1   2.0000     -88.524687     -2408.8792
   2   2.0000     -76.919771     -2093.0934
   3   2.0000     -19.017844      -517.5018
   4   2.0000     -19.008699      -517.2530
   5   2.0000     -18.994980      -516.8797
   6   2.0000     -18.988757      -516.7104
   7   2.0000     -18.952800      -515.7319
   8   2.0000     -18.948212      -515.6071
   9   2.0000     -10.175654      -276.8936
  10   2.0000     -10.172911      -276.8190
  11   2.0000     -10.098614      -274.7973
  12   2.0000     -10.090762      -274.5836
  13   2.0000     -10.085991      -274.4538
  14   2.0000     -10.084667      -274.4177
  15   2.0000     -10.078660      -274.2543
  16   2.0000     -10.059499      -273.7329
  17   2.0000     -10.021234      -272.6916
  18   2.0000     -10.019448      -272.6430
  19   2.0000      -7.874102      -214.2652
  20   2.0000      -7.819893      -212.7901
  21   2.0000      -6.597592      -179.5296
  22   2.0000      -5.820944      -158.3959
  23   2.0000      -5.818072      -158.3178
  24   2.0000      -5.811163      -158.1298
  25   2.0000      -5.767711      -156.9474
  26   2.0000      -5.760328      -156.7465
  27   2.0000      -5.759479      -156.7234
  28   2.0000      -4.743341      -129.0729
  29   2.0000      -4.742682      -129.0549
  30   2.0000      -4.741123      -129.0125
  31   2.0000      -1.097637       -29.8682
  32   2.0000      -1.086309       -29.5600
  33   2.0000      -1.051323       -28.6080
  34   2.0000      -1.007218       -27.4078
  35   2.0000      -1.001927       -27.2638
  36   2.0000      -0.996521       -27.1167
  37   2.0000      -0.814322       -22.1588
  38   2.0000      -0.751463       -20.4484
  39   2.0000      -0.748261       -20.3612
  40   2.0000      -0.729098       -19.8398
  41   2.0000      -0.697204       -18.9719
  42   2.0000      -0.667333       -18.1591
  43   2.0000      -0.659167       -17.9368
  44   2.0000      -0.652003       -17.7419
  45   2.0000      -0.623670       -16.9709
  46   2.0000      -0.592861       -16.1326
  47   2.0000      -0.543604       -14.7922
  48   2.0000      -0.534035       -14.5318
  49   2.0000      -0.526944       -14.3389
  50   2.0000      -0.498549       -13.5662
  51   2.0000      -0.492353       -13.3976
  52   2.0000      -0.488884       -13.3032
  53   2.0000      -0.472267       -12.8510
  54   2.0000      -0.467327       -12.7166
  55   2.0000      -0.461658       -12.5624
  56   2.0000      -0.452829       -12.3221
  57   2.0000      -0.447309       -12.1719
  58   2.0000      -0.438514       -11.9326
  59   2.0000      -0.426568       -11.6075
  60   2.0000      -0.419451       -11.4138
  61   2.0000      -0.409264       -11.1366
  62   2.0000      -0.407081       -11.0772
  63   2.0000      -0.398158       -10.8344
  64   2.0000      -0.393451       -10.7063
  65   2.0000      -0.383300       -10.4301
  66   2.0000      -0.369951       -10.0669
  67   2.0000      -0.367660       -10.0045
  68   2.0000      -0.361040        -9.8244
  69   2.0000      -0.359184        -9.7739
  70   2.0000      -0.345635        -9.4052
  71   2.0000      -0.341006        -9.2793
  72   2.0000      -0.332292        -9.0421
  73   2.0000      -0.331248        -9.0137
  74   2.0000      -0.324021        -8.8171
  75   2.0000      -0.317875        -8.6498
  76   2.0000      -0.312825        -8.5124
  77   2.0000      -0.307624        -8.3709
  78   2.0000      -0.291085        -7.9208
  79   2.0000      -0.288061        -7.8385
  80   2.0000      -0.281618        -7.6632
  81   2.0000      -0.276692        -7.5292
  82   2.0000      -0.263443        -7.1686
  83   2.0000      -0.258216        -7.0264
  84   2.0000      -0.243110        -6.6154
  85   2.0000      -0.226967        -6.1761
  86   2.0000      -0.219041        -5.9604
  87   0.0000      -0.052776        -1.4361
  88   0.0000      -0.037102        -1.0096
  89   0.0000      -0.022711        -0.6180
  90   0.0000       0.003159         0.0860
  91   0.0000       0.017459         0.4751

MULLIKEN ATOMIC CHARGES
-----------------------
   0 C :   -0.507802
   1 C :   -0.131884
   2 O :   -0.180144
   3 C :    0.348634
   4 O :   -0.476223
   5 C :   -0.401150
   6 C :    0.001478
   7 H :    0.269668
   8 C :    0.269919
   9 O :   -0.455261
  10 O :   -0.086471
  11 C :   -0.138974
  12 C :   -0.505994
  13 S :   -0.204045
  14 P :    0.812778
  15 S :   -0.519338
  16 O :   -0.390992
  17 C :   -0.308716
  18 O :   -0.351673
  19 C :   -0.296063
  20 H :    0.172374
  21 H :    0.168439
  22 H :    0.170609
  23 H :    0.177648
  24 H :    0.179352
  25 H :    0.220113
  26 H :    0.221693
  27 H :    0.180232
  28 H :    0.178517
  29 H :    0.171553
  30 H :    0.169303
  31 H :    0.172637
  32 H :    0.175698
  33 H :    0.177206
  34 H :    0.173030
  35 H :    0.177786
  36 H :    0.183963
  37 H :    0.182100
Sum of atomic charges:   -0.0000000

LOEWDIN ATOMIC CHARGES
----------------------
   0 C :   -0.390837
   1 C :    0.033255
   2 O :   -0.580516
   3 C :    0.364659
   4 O :   -0.480802
   5 C :   -0.194349
   6 C :   -0.200105
   7 H :    0.223130
   8 C :    0.364486
   9 O :   -0.484934
  10 O :   -0.567980
  11 C :    0.049651
  12 C :   -0.385353
  13 S :    0.206150
  14 P :    0.404684
  15 S :   -0.135958
  16 O :   -0.707042
  17 C :   -0.060432
  18 O :   -0.670062
  19 C :   -0.041668
  20 H :    0.168642
  21 H :    0.162940
  22 H :    0.163117
  23 H :    0.191468
  24 H :    0.191220
  25 H :    0.202793
  26 H :    0.204975
  27 H :    0.188855
  28 H :    0.190342
  29 H :    0.164959
  30 H :    0.164659
  31 H :    0.170334
  32 H :    0.176616
  33 H :    0.187255
  34 H :    0.174805
  35 H :    0.178782
  36 H :    0.181072
  37 H :    0.191190

  Mayer bond orders larger than 0.100000
B(  0-C ,  1-C ) :   0.9341 B(  0-C , 20-H ) :   0.9597 B(  0-C , 21-H ) :   0.9711
B(  0-C , 22-H ) :   0.9688 B(  1-C ,  2-O ) :   0.7778 B(  1-C , 23-H ) :   0.9607
B(  1-C , 24-H ) :   0.9492 B(  2-O ,  3-C ) :   1.0914 B(  3-C ,  4-O ) :   1.8192
B(  3-C ,  5-C ) :   0.8968 B(  5-C ,  6-C ) :   0.8559 B(  5-C , 25-H ) :   0.9883
B(  5-C , 26-H ) :   0.9280 B(  6-C ,  7-H ) :   0.8898 B(  6-C ,  8-C ) :   0.9643
B(  6-C , 13-S ) :   0.8611 B(  8-C ,  9-O ) :   1.7533 B(  8-C , 10-O ) :   1.2285
B(  9-O , 14-P ) :   0.1052 B( 10-O , 11-C ) :   0.7791 B( 11-C , 12-C ) :   0.9430
B( 11-C , 27-H ) :   0.9357 B( 11-C , 28-H ) :   0.9502 B( 12-C , 29-H ) :   0.9698
B( 12-C , 30-H ) :   0.9635 B( 12-C , 31-H ) :   0.9582 B( 13-S , 14-P ) :   0.9927
B( 14-P , 15-S ) :   1.7811 B( 14-P , 16-O ) :   1.0080 B( 14-P , 18-O ) :   1.1777
B( 16-O , 17-C ) :   0.8290 B( 17-C , 32-H ) :   0.9551 B( 17-C , 33-H ) :   0.9589
B( 17-C , 34-H ) :   0.9501 B( 18-O , 19-C ) :   0.7883 B( 19-C , 35-H ) :   0.9489
B( 19-C , 36-H ) :   0.9534 B( 19-C , 37-H ) :   0.9548

Dispersion correction           -0.016873094
FINAL SINGLE POINT ENERGY     -1981.465152256698

DIPOLE MOMENT
-------------

Method             : SCF
Type of density    : Electron Density
Multiplicity       :   1
Irrep              :   0
Energy             : -1981.4858028943112913 Eh
Relativity type    :
Basis              : AO
                                X                 Y                 Z
Electronic contribution:    -20.814462594       2.978939135      -1.028205804
Nuclear contribution   :     22.689592987      -5.115573721       2.596514539
                        -----------------------------------------
Total Dipole Moment    :      1.875130394      -2.136634587       1.568308735
                        -----------------------------------------
Magnitude (a.u.)       :      3.246677323
Magnitude (Debye)      :      8.252397926

Rotational constants in cm-1:             0.017550             0.005358             0.004794
Rotational constants in MHz :           526.121351           160.636675           143.712655

                             ****ORCA TERMINATED NORMALLY****
TOTAL RUN TIME: 0 days 0 hours 1 minutes 41 seconds 352 msec
