                         Program Version 6.0.0  -   RELEASE  -
|  1> ! r2scan-3c def2/J RI DEFGRID2 scfconv6 printgap
|  2> %output
|  3>     printlevel normal
|  4> end
|  5> * xyz 0 1
|  6> C 2.061278469 -2.3361061536 2.6032794295
|  7> C 1.1274962163 -1.5041639597 1.7470065852
|  8> O 1.8746874551 -0.5256536594 1.0037103884
|  9> P 2.2439533772 -0.7131404913 -0.5348867006
| 10> S 2.7241713886 -2.5289375193 -1.0820014495
| 11> O 3.3277113013 0.4223739797 -0.7391203814
| 12> C 4.7406126751 0.1609155847 -0.5931822358
| 13> C 5.1131025059 -0.117574278 0.847219444
| 14> S 0.647943571 0.1426909303 -1.6266246816
| 15> C 0.5006038837 1.7361097874 -0.7582950807
| 16> S -0.3218449826 1.6210305415 0.8532698991
| 17> P -2.1102557438 0.7330377898 0.1662429155
| 18> S -2.7833942957 1.3823605757 -1.5616894705
| 19> O -3.0673435448 0.8666291774 1.4257491337
| 20> C -3.6046396945 2.1285488032 1.8728294868
| 21> C -4.9393875661 2.4207122132 1.2149202307
| 22> O -1.753866753 -0.8102296384 0.2403877033
| 23> C -2.3938895538 -1.7769489151 -0.6140853197
| 24> C -3.8349962312 -1.9965317158 -0.2067610081
| 25> H 1.4754815815 -3.0127973368 3.2168384345
| 26> H 2.725663846 -2.9194851017 1.968919415
| 27> H 2.6538697318 -1.6896799576 3.2442647355
| 28> H 0.4257808337 -0.9288741643 2.3553473921
| 29> H 0.5680130532 -2.1393938446 1.0538413412
| 30> H 5.0021102724 -0.6876933 -1.2328632524
| 31> H 5.2126520765 1.0695961462 -0.9691292208
| 32> H 4.6607760678 -1.0538299277 1.1698330884
| 33> H 6.1923279986 -0.1996845839 0.930006968
| 34> H 4.7596216123 0.6848594881 1.4894152517
| 35> H -0.0929802798 2.3675125935 -1.4185610846
| 36> H 1.4885208242 2.1536940451 -0.5862900954
| 37> H -3.7121385061 2.0080271936 2.9523777533
| 38> H -2.8809855991 2.9218613999 1.6650103126
| 39> H -5.6402721446 1.6152588063 1.4158411153
| 40> H -5.3373337403 3.3492908889 1.6112054834
| 41> H -4.8170392993 2.5186003639 0.138508429
| 42> H -2.3272527057 -1.4262959553 -1.6497012684
| 43> H -1.7926986371 -2.6802803057 -0.4975528463
| 44> H -4.3981825972 -1.0753090149 -0.3526318344
| 45> H -4.2697562712 -2.7793217402 -0.8201449426
| 46> H -3.8892129578 -2.2802947762 0.8407923867
| 47> *
| 48>
| 49>                          ****END OF INPUT****

CARTESIAN COORDINATES (ANGSTROEM)
---------------------------------
  C      2.061278   -2.336106    2.603279
  C      1.127496   -1.504164    1.747007
  O      1.874687   -0.525654    1.003710
  P      2.243953   -0.713140   -0.534887
  S      2.724171   -2.528938   -1.082001
  O      3.327711    0.422374   -0.739120
  C      4.740613    0.160916   -0.593182
  C      5.113103   -0.117574    0.847219
  S      0.647944    0.142691   -1.626625
  C      0.500604    1.736110   -0.758295
  S     -0.321845    1.621031    0.853270
  P     -2.110256    0.733038    0.166243
  S     -2.783394    1.382361   -1.561689
  O     -3.067344    0.866629    1.425749
  C     -3.604640    2.128549    1.872829
  C     -4.939388    2.420712    1.214920
  O     -1.753867   -0.810230    0.240388
  C     -2.393890   -1.776949   -0.614085
  C     -3.834996   -1.996532   -0.206761
  H      1.475482   -3.012797    3.216838
  H      2.725664   -2.919485    1.968919
  H      2.653870   -1.689680    3.244265
  H      0.425781   -0.928874    2.355347
  H      0.568013   -2.139394    1.053841
  H      5.002110   -0.687693   -1.232863
  H      5.212652    1.069596   -0.969129
  H      4.660776   -1.053830    1.169833
  H      6.192328   -0.199685    0.930007
  H      4.759622    0.684859    1.489415
  H     -0.092980    2.367513   -1.418561
  H      1.488521    2.153694   -0.586290
  H     -3.712139    2.008027    2.952378
  H     -2.880986    2.921861    1.665010
  H     -5.640272    1.615259    1.415841
  H     -5.337334    3.349291    1.611205
  H     -4.817039    2.518600    0.138508
  H     -2.327253   -1.426296   -1.649701
  H     -1.792699   -2.680280   -0.497553
  H     -4.398183   -1.075309   -0.352632
  H     -4.269756   -2.779322   -0.820145
  H     -3.889213   -2.280295    0.840792

 Total Charge           Charge          ....    0
 Multiplicity           Mult            ....    1
 Number of Electrons    NEL             ....  202
 Basis Dimension        Dim             ....  539

ORBITAL ENERGIES
----------------

  NO   OCC          E(Eh)            E(eV)
   0   2.0000     -88.576867     -2410.2991
   1   2.0000     -88.571977     -2410.1660
   2   2.0000     -88.524167     -2408.8651
   3   2.0000     -88.520749     -2408.7720
   4   2.0000     -76.917468     -2093.0307
   5   2.0000     -76.913094     -2092.9117
   6   2.0000     -18.996751      -516.9279
   7   2.0000     -18.991389      -516.7820
   8   2.0000     -18.990485      -516.7574
   9   2.0000     -18.988066      -516.6915
  10   2.0000     -10.108693      -275.0715
  11   2.0000     -10.105009      -274.9713
  12   2.0000     -10.100124      -274.8384
  13   2.0000     -10.095446      -274.7110
  14   2.0000     -10.093543      -274.6593
  15   2.0000     -10.030917      -272.9551
  16   2.0000     -10.029036      -272.9039
  17   2.0000     -10.027680      -272.8670
  18   2.0000     -10.025531      -272.8086
  19   2.0000      -7.871433      -214.1926
  20   2.0000      -7.865969      -214.0439
  21   2.0000      -7.818893      -212.7629
  22   2.0000      -7.815443      -212.6690
  23   2.0000      -6.595823      -179.4815
  24   2.0000      -6.591388      -179.3608
  25   2.0000      -5.818290      -158.3237
  26   2.0000      -5.815238      -158.2407
  27   2.0000      -5.813332      -158.1888
  28   2.0000      -5.809520      -158.0851
  29   2.0000      -5.808569      -158.0592
  30   2.0000      -5.802946      -157.9062
  31   2.0000      -5.766511      -156.9147
  32   2.0000      -5.763072      -156.8212
  33   2.0000      -5.759142      -156.7142
  34   2.0000      -5.758980      -156.7098
  35   2.0000      -5.755818      -156.6238
  36   2.0000      -5.755389      -156.6121
  37   2.0000      -4.741235      -129.0156
  38   2.0000      -4.740809      -129.0040
  39   2.0000      -4.739610      -128.9713
  40   2.0000      -4.736734      -128.8931
  41   2.0000      -4.736438      -128.8850
  42   2.0000      -4.735188      -128.8510
  43   2.0000      -1.052863       -28.6499
  44   2.0000      -1.049030       -28.5455
  45   2.0000      -1.013234       -27.5715
  46   2.0000      -1.009660       -27.4742
  47   2.0000      -0.801690       -21.8151
  48   2.0000      -0.759777       -20.6746
  49   2.0000      -0.748697       -20.3731
  50   2.0000      -0.731609       -19.9081
  51   2.0000      -0.730296       -19.8724
  52   2.0000      -0.710179       -19.3249
  53   2.0000      -0.690859       -18.7992
  54   2.0000      -0.670084       -18.2339
  55   2.0000      -0.631018       -17.1709
  56   2.0000      -0.627024       -17.0622
  57   2.0000      -0.606211       -16.4958
  58   2.0000      -0.600551       -16.3418
  59   2.0000      -0.595234       -16.1971
  60   2.0000      -0.529748       -14.4152
  61   2.0000      -0.520531       -14.1644
  62   2.0000      -0.496410       -13.5080
  63   2.0000      -0.495322       -13.4784
  64   2.0000      -0.477345       -12.9892
  65   2.0000      -0.460995       -12.5443
  66   2.0000      -0.460290       -12.5251
  67   2.0000      -0.452830       -12.3221
  68   2.0000      -0.445785       -12.1304
  69   2.0000      -0.424695       -11.5565
  70   2.0000      -0.423099       -11.5131
  71   2.0000      -0.420382       -11.4392
  72   2.0000      -0.415022       -11.2933
  73   2.0000      -0.408228       -11.1084
  74   2.0000      -0.399442       -10.8694
  75   2.0000      -0.391271       -10.6470
  76   2.0000      -0.380691       -10.3591
  77   2.0000      -0.376493       -10.2449
  78   2.0000      -0.369435       -10.0528
  79   2.0000      -0.367345        -9.9960
  80   2.0000      -0.363211        -9.8835
  81   2.0000      -0.359259        -9.7759
  82   2.0000      -0.354672        -9.6511
  83   2.0000      -0.351491        -9.5646
  84   2.0000      -0.345149        -9.3920
  85   2.0000      -0.341084        -9.2814
  86   2.0000      -0.325400        -8.8546
  87   2.0000      -0.315147        -8.5756
  88   2.0000      -0.307057        -8.3554
  89   2.0000      -0.303855        -8.2683
  90   2.0000      -0.302102        -8.2206
  91   2.0000      -0.292462        -7.9583
  92   2.0000      -0.289701        -7.8832
  93   2.0000      -0.283735        -7.7208
  94   2.0000      -0.270826        -7.3696
  95   2.0000      -0.245434        -6.6786
  96   2.0000      -0.230958        -6.2847
  97   2.0000      -0.221677        -6.0321
  98   2.0000      -0.220427        -5.9981
  99   2.0000      -0.217750        -5.9253
 100   2.0000      -0.213943        -5.8217
 101   0.0000      -0.045405        -1.2355
 102   0.0000      -0.016301        -0.4436
 103   0.0000      -0.009846        -0.2679
 104   0.0000       0.003889         0.1058
 105   0.0000       0.006588         0.1793

MULLIKEN ATOMIC CHARGES
-----------------------
   0 C :   -0.503620
   1 C :   -0.099170
   2 O :   -0.259636
   3 P :    0.642920
   4 S :   -0.458857
   5 O :   -0.298397
   6 C :   -0.150871
   7 C :   -0.434102
   8 S :   -0.117412
   9 C :   -0.242751
  10 S :   -0.127226
  11 P :    0.650690
  12 S :   -0.467799
  13 O :   -0.296736
  14 C :   -0.134240
  15 C :   -0.453355
  16 O :   -0.247496
  17 C :   -0.152972
  18 C :   -0.442116
  19 H :    0.145631
  20 H :    0.179374
  21 H :    0.154467
  22 H :    0.161967
  23 H :    0.160511
  24 H :    0.173093
  25 H :    0.149008
  26 H :    0.167130
  27 H :    0.147571
  28 H :    0.155730
  29 H :    0.211129
  30 H :    0.199616
  31 H :    0.151109
  32 H :    0.153187
  33 H :    0.152500
  34 H :    0.145866
  35 H :    0.182177
  36 H :    0.177518
  37 H :    0.155611
  38 H :    0.166721
  39 H :    0.148815
  40 H :    0.154415
Sum of atomic charges:   -0.0000000

LOEWDIN ATOMIC CHARGES
----------------------
   0 C :   -0.401266
   1 C :    0.012702
   2 O :   -0.683466
   3 P :    0.367451
   4 S :   -0.112293
   5 O :   -0.680791
   6 C :    0.024974
   7 C :   -0.399132
   8 S :    0.193483
   9 C :   -0.408494
  10 S :    0.174493
  11 P :    0.373100
  12 S :   -0.123188
  13 O :   -0.658626
  14 C :    0.022791
  15 C :   -0.401905
  16 O :   -0.679529
  17 C :    0.014965
  18 C :   -0.398674
  19 H :    0.158878
  20 H :    0.165616
  21 H :    0.158014
  22 H :    0.181938
  23 H :    0.180662
  24 H :    0.180773
  25 H :    0.179567
  26 H :    0.165252
  27 H :    0.159729
  28 H :    0.161106
  29 H :    0.191886
  30 H :    0.189962
  31 H :    0.179465
  32 H :    0.175437
  33 H :    0.158547
  34 H :    0.158354
  35 H :    0.169447
  36 H :    0.183139
  37 H :    0.180906
  38 H :    0.164883
  39 H :    0.160224
  40 H :    0.159623

  Mayer bond orders larger than 0.100000
B(  0-C ,  1-C ) :   0.9302 B(  0-C , 19-H ) :   0.9638 B(  0-C , 20-H ) :   0.9666
B(  0-C , 21-H ) :   0.9785 B(  1-C ,  2-O ) :   0.7503 B(  1-C , 22-H ) :   0.9570
B(  1-C , 23-H ) :   0.9619 B(  2-O ,  3-P ) :   1.0505 B(  3-P ,  4-S ) :   1.8094
B(  3-P ,  5-O ) :   1.1454 B(  3-P ,  8-S ) :   1.0783 B(  5-O ,  6-C ) :   0.8032
B(  6-C ,  7-C ) :   0.9285 B(  6-C , 24-H ) :   0.9655 B(  6-C , 25-H ) :   0.9620
B(  7-C , 26-H ) :   0.9584 B(  7-C , 27-H ) :   0.9613 B(  7-C , 28-H ) :   0.9706
B(  8-S ,  9-C ) :   0.9028 B(  9-C , 10-S ) :   0.9119 B(  9-C , 29-H ) :   0.9152
B(  9-C , 30-H ) :   0.9155 B( 10-S , 11-P ) :   1.1037 B( 11-P , 12-S ) :   1.7540
B( 11-P , 13-O ) :   1.0722 B( 11-P , 16-O ) :   1.1397 B( 13-O , 14-C ) :   0.7811
B( 14-C , 15-C ) :   0.9547 B( 14-C , 31-H ) :   0.9632 B( 14-C , 32-H ) :   0.9627
B( 15-C , 33-H ) :   0.9741 B( 15-C , 34-H ) :   0.9643 B( 15-C , 35-H ) :   0.9560
B( 16-O , 17-C ) :   0.7842 B( 17-C , 18-C ) :   0.9220 B( 17-C , 36-H ) :   0.9597
B( 17-C , 37-H ) :   0.9608 B( 18-C , 38-H ) :   0.9591 B( 18-C , 39-H ) :   0.9633
B( 18-C , 40-H ) :   0.9730

Dispersion correction           -0.021691427
FINAL SINGLE POINT ENERGY     -2932.463845236208

DIPOLE MOMENT
-------------

Method             : SCF
Type of density    : Electron Density
Multiplicity       :   1
Irrep              :   0
Energy             : -2932.4884903165302603 Eh
Relativity type    :
Basis              : AO
                                X                 Y                 Z
Electronic contribution:      3.807972656       4.504291777     -14.440883483
Nuclear contribution   :     -3.867692068      -3.961872440      15.960489891
                        -----------------------------------------
Total Dipole Moment    :     -0.059719412       0.542419337       1.519606407
                        -----------------------------------------
Magnitude (a.u.)       :      1.614617223
Magnitude (Debye)      :      4.104030829

Rotational constants in cm-1:             0.014060             0.004613             0.004481
Rotational constants in MHz :           421.512692           138.279372           134.351710

                             ****ORCA TERMINATED NORMALLY****
TOTAL RUN TIME: 0 days 0 hours 1 minutes 21 seconds 532 msec
