                         Program Version 6.0.0  -   RELEASE  -
|  1> ! r2scan-3c def2/J RI DEFGRID2 scfconv6 printgap
|  2> %output
|  3>     printlevel normal
|  4> end
|  5> %cpcm
|  6>     smd true
|  7>     smdsolvent "water"
|  8> end
|  9> * xyz 0 1
| 10> C 2.061278469 -2.3361061536 2.6032794295
| 11> C 1.1274962163 -1.5041639597 1.7470065852
| 12> O 1.8746874551 -0.5256536594 1.0037103884
| 13> P 2.2439533772 -0.7131404913 -0.5348867006
| 14> S 2.7241713886 -2.5289375193 -1.0820014495
| 15> O 3.3277113013 0.4223739797 -0.7391203814
| 16> C 4.7406126751 0.1609155847 -0.5931822358
| 17> C 5.1131025059 -0.117574278 0.847219444
| 18> S 0.647943571 0.1426909303 -1.6266246816
| 19> C 0.5006038837 1.7361097874 -0.7582950807
| 20> S -0.3218449826 1.6210305415 0.8532698991
| 21> P -2.1102557438 0.7330377898 0.1662429155
| 22> S -2.7833942957 1.3823605757 -1.5616894705
| 23> O -3.0673435448 0.8666291774 1.4257491337
| 24> C -3.6046396945 2.1285488032 1.8728294868
| 25> C -4.9393875661 2.4207122132 1.2149202307
| 26> O -1.753866753 -0.8102296384 0.2403877033
| 27> C -2.3938895538 -1.7769489151 -0.6140853197
| 28> C -3.8349962312 -1.9965317158 -0.2067610081
| 29> H 1.4754815815 -3.0127973368 3.2168384345
| 30> H 2.725663846 -2.9194851017 1.968919415
| 31> H 2.6538697318 -1.6896799576 3.2442647355
| 32> H 0.4257808337 -0.9288741643 2.3553473921
| 33> H 0.5680130532 -2.1393938446 1.0538413412
| 34> H 5.0021102724 -0.6876933 -1.2328632524
| 35> H 5.2126520765 1.0695961462 -0.9691292208
| 36> H 4.6607760678 -1.0538299277 1.1698330884
| 37> H 6.1923279986 -0.1996845839 0.930006968
| 38> H 4.7596216123 0.6848594881 1.4894152517
| 39> H -0.0929802798 2.3675125935 -1.4185610846
| 40> H 1.4885208242 2.1536940451 -0.5862900954
| 41> H -3.7121385061 2.0080271936 2.9523777533
| 42> H -2.8809855991 2.9218613999 1.6650103126
| 43> H -5.6402721446 1.6152588063 1.4158411153
| 44> H -5.3373337403 3.3492908889 1.6112054834
| 45> H -4.8170392993 2.5186003639 0.138508429
| 46> H -2.3272527057 -1.4262959553 -1.6497012684
| 47> H -1.7926986371 -2.6802803057 -0.4975528463
| 48> H -4.3981825972 -1.0753090149 -0.3526318344
| 49> H -4.2697562712 -2.7793217402 -0.8201449426
| 50> H -3.8892129578 -2.2802947762 0.8407923867
| 51> *
| 52>
| 53>                          ****END OF INPUT****

CARTESIAN COORDINATES (ANGSTROEM)
---------------------------------
  C      2.061278   -2.336106    2.603279
  C      1.127496   -1.504164    1.747007
  O      1.874687   -0.525654    1.003710
  P      2.243953   -0.713140   -0.534887
  S      2.724171   -2.528938   -1.082001
  O      3.327711    0.422374   -0.739120
  C      4.740613    0.160916   -0.593182
  C      5.113103   -0.117574    0.847219
  S      0.647944    0.142691   -1.626625
  C      0.500604    1.736110   -0.758295
  S     -0.321845    1.621031    0.853270
  P     -2.110256    0.733038    0.166243
  S     -2.783394    1.382361   -1.561689
  O     -3.067344    0.866629    1.425749
  C     -3.604640    2.128549    1.872829
  C     -4.939388    2.420712    1.214920
  O     -1.753867   -0.810230    0.240388
  C     -2.393890   -1.776949   -0.614085
  C     -3.834996   -1.996532   -0.206761
  H      1.475482   -3.012797    3.216838
  H      2.725664   -2.919485    1.968919
  H      2.653870   -1.689680    3.244265
  H      0.425781   -0.928874    2.355347
  H      0.568013   -2.139394    1.053841
  H      5.002110   -0.687693   -1.232863
  H      5.212652    1.069596   -0.969129
  H      4.660776   -1.053830    1.169833
  H      6.192328   -0.199685    0.930007
  H      4.759622    0.684859    1.489415
  H     -0.092980    2.367513   -1.418561
  H      1.488521    2.153694   -0.586290
  H     -3.712139    2.008027    2.952378
  H     -2.880986    2.921861    1.665010
  H     -5.640272    1.615259    1.415841
  H     -5.337334    3.349291    1.611205
  H     -4.817039    2.518600    0.138508
  H     -2.327253   -1.426296   -1.649701
  H     -1.792699   -2.680280   -0.497553
  H     -4.398183   -1.075309   -0.352632
  H     -4.269756   -2.779322   -0.820145
  H     -3.889213   -2.280295    0.840792

 Total Charge           Charge          ....    0
 Multiplicity           Mult            ....    1
 Number of Electrons    NEL             ....  202
 Basis Dimension        Dim             ....  539

ORBITAL ENERGIES
----------------

  NO   OCC          E(Eh)            E(eV)
   0   2.0000     -88.578164     -2410.3344
   1   2.0000     -88.577223     -2410.3088
   2   2.0000     -88.529892     -2409.0208
   3   2.0000     -88.528920     -2408.9944
   4   2.0000     -76.919960     -2093.0985
   5   2.0000     -76.919253     -2093.0793
   6   2.0000     -18.996356      -516.9171
   7   2.0000     -18.993111      -516.8288
   8   2.0000     -18.991981      -516.7981
   9   2.0000     -18.991572      -516.7870
  10   2.0000     -10.106196      -275.0036
  11   2.0000     -10.092072      -274.6192
  12   2.0000     -10.090114      -274.5660
  13   2.0000     -10.088416      -274.5198
  14   2.0000     -10.088184      -274.5134
  15   2.0000     -10.018729      -272.6235
  16   2.0000     -10.018281      -272.6113
  17   2.0000     -10.016850      -272.5723
  18   2.0000     -10.016557      -272.5644
  19   2.0000      -7.872670      -214.2262
  20   2.0000      -7.871354      -214.1904
  21   2.0000      -7.824935      -212.9273
  22   2.0000      -7.823933      -212.9000
  23   2.0000      -6.598379      -179.5510
  24   2.0000      -6.597573      -179.5291
  25   2.0000      -5.819532      -158.3575
  26   2.0000      -5.818634      -158.3331
  27   2.0000      -5.816488      -158.2747
  28   2.0000      -5.814842      -158.2299
  29   2.0000      -5.809805      -158.0928
  30   2.0000      -5.808471      -158.0565
  31   2.0000      -5.772473      -157.0770
  32   2.0000      -5.771488      -157.0502
  33   2.0000      -5.765265      -156.8808
  34   2.0000      -5.764951      -156.8723
  35   2.0000      -5.764169      -156.8510
  36   2.0000      -5.764042      -156.8476
  37   2.0000      -4.743754      -129.0841
  38   2.0000      -4.743360      -129.0734
  39   2.0000      -4.742863      -129.0599
  40   2.0000      -4.742601      -129.0527
  41   2.0000      -4.742229      -129.0426
  42   2.0000      -4.741486      -129.0224
  43   2.0000      -1.053111       -28.6566
  44   2.0000      -1.051224       -28.6053
  45   2.0000      -1.012951       -27.5638
  46   2.0000      -1.011436       -27.5226
  47   2.0000      -0.802323       -21.8323
  48   2.0000      -0.756662       -20.5898
  49   2.0000      -0.742396       -20.2016
  50   2.0000      -0.722678       -19.6651
  51   2.0000      -0.722612       -19.6633
  52   2.0000      -0.709241       -19.2994
  53   2.0000      -0.693765       -18.8783
  54   2.0000      -0.675206       -18.3733
  55   2.0000      -0.628316       -17.0973
  56   2.0000      -0.622956       -16.9515
  57   2.0000      -0.600603       -16.3432
  58   2.0000      -0.594625       -16.1806
  59   2.0000      -0.591320       -16.0906
  60   2.0000      -0.526309       -14.3216
  61   2.0000      -0.516219       -14.0470
  62   2.0000      -0.493030       -13.4160
  63   2.0000      -0.491947       -13.3866
  64   2.0000      -0.475209       -12.9311
  65   2.0000      -0.457239       -12.4421
  66   2.0000      -0.453911       -12.3515
  67   2.0000      -0.450762       -12.2658
  68   2.0000      -0.440392       -11.9837
  69   2.0000      -0.423049       -11.5117
  70   2.0000      -0.419447       -11.4137
  71   2.0000      -0.415547       -11.3076
  72   2.0000      -0.411067       -11.1857
  73   2.0000      -0.403538       -10.9808
  74   2.0000      -0.394773       -10.7423
  75   2.0000      -0.387511       -10.5447
  76   2.0000      -0.379404       -10.3241
  77   2.0000      -0.370478       -10.0812
  78   2.0000      -0.363593        -9.8939
  79   2.0000      -0.359370        -9.7789
  80   2.0000      -0.353268        -9.6129
  81   2.0000      -0.352877        -9.6023
  82   2.0000      -0.347182        -9.4473
  83   2.0000      -0.345183        -9.3929
  84   2.0000      -0.342223        -9.3124
  85   2.0000      -0.338458        -9.2099
  86   2.0000      -0.323055        -8.7908
  87   2.0000      -0.307031        -8.3547
  88   2.0000      -0.303244        -8.2517
  89   2.0000      -0.301716        -8.2101
  90   2.0000      -0.299063        -8.1379
  91   2.0000      -0.291058        -7.9201
  92   2.0000      -0.288021        -7.8374
  93   2.0000      -0.283252        -7.7077
  94   2.0000      -0.272175        -7.4063
  95   2.0000      -0.248710        -6.7677
  96   2.0000      -0.237567        -6.4645
  97   2.0000      -0.230097        -6.2613
  98   2.0000      -0.227484        -6.1901
  99   2.0000      -0.222431        -6.0527
 100   2.0000      -0.221419        -6.0251
 101   0.0000      -0.047931        -1.3043
 102   0.0000      -0.023025        -0.6265
 103   0.0000      -0.013715        -0.3732
 104   0.0000       0.000545         0.0148
 105   0.0000       0.004193         0.1141

MULLIKEN ATOMIC CHARGES
-----------------------
   0 C :   -0.531110
   1 C :   -0.107422
   2 O :   -0.272775
   3 P :    0.670671
   4 S :   -0.512723
   5 O :   -0.320785
   6 C :   -0.141494
   7 C :   -0.477142
   8 S :   -0.156483
   9 C :   -0.249646
  10 S :   -0.128503
  11 P :    0.686021
  12 S :   -0.515926
  13 O :   -0.325623
  14 C :   -0.126468
  15 C :   -0.491460
  16 O :   -0.270713
  17 C :   -0.148501
  18 C :   -0.485758
  19 H :    0.169367
  20 H :    0.172887
  21 H :    0.169171
  22 H :    0.178618
  23 H :    0.172141
  24 H :    0.175646
  25 H :    0.175627
  26 H :    0.168160
  27 H :    0.172247
  28 H :    0.171021
  29 H :    0.232112
  30 H :    0.232984
  31 H :    0.177489
  32 H :    0.164171
  33 H :    0.167800
  34 H :    0.170028
  35 H :    0.171192
  36 H :    0.176656
  37 H :    0.179721
  38 H :    0.166331
  39 H :    0.172217
  40 H :    0.170254
Sum of atomic charges:   -0.0000000

LOEWDIN ATOMIC CHARGES
----------------------
   0 C :   -0.402567
   1 C :    0.014702
   2 O :   -0.690481
   3 P :    0.370959
   4 S :   -0.149056
   5 O :   -0.688585
   6 C :    0.030007
   7 C :   -0.402218
   8 S :    0.171595
   9 C :   -0.399922
  10 S :    0.178260
  11 P :    0.378079
  12 S :   -0.153444
  13 O :   -0.671114
  14 C :    0.028998
  15 C :   -0.406082
  16 O :   -0.690486
  17 C :    0.017392
  18 C :   -0.402234
  19 H :    0.167381
  20 H :    0.162494
  21 H :    0.163211
  22 H :    0.187815
  23 H :    0.183478
  24 H :    0.181404
  25 H :    0.190883
  26 H :    0.163173
  27 H :    0.169069
  28 H :    0.164736
  29 H :    0.198952
  30 H :    0.202206
  31 H :    0.190883
  32 H :    0.180141
  33 H :    0.162469
  34 H :    0.167436
  35 H :    0.163051
  36 H :    0.182201
  37 H :    0.190171
  38 H :    0.162394
  39 H :    0.168697
  40 H :    0.163954

  Mayer bond orders larger than 0.100000
B(  0-C ,  1-C ) :   0.9321 B(  0-C , 19-H ) :   0.9590 B(  0-C , 20-H ) :   0.9675
B(  0-C , 21-H ) :   0.9739 B(  1-C ,  2-O ) :   0.7323 B(  1-C , 22-H ) :   0.9493
B(  1-C , 23-H ) :   0.9567 B(  2-O ,  3-P ) :   1.0578 B(  3-P ,  4-S ) :   1.7741
B(  3-P ,  5-O ) :   1.1545 B(  3-P ,  8-S ) :   1.0904 B(  5-O ,  6-C ) :   0.7913
B(  6-C ,  7-C ) :   0.9167 B(  6-C , 24-H ) :   0.9616 B(  6-C , 25-H ) :   0.9515
B(  7-C , 26-H ) :   0.9576 B(  7-C , 27-H ) :   0.9553 B(  7-C , 28-H ) :   0.9697
B(  8-S ,  9-C ) :   0.8962 B(  9-C , 10-S ) :   0.9081 B(  9-C , 29-H ) :   0.9073
B(  9-C , 30-H ) :   0.9046 B( 10-S , 11-P ) :   1.1177 B( 11-P , 12-S ) :   1.7124
B( 11-P , 13-O ) :   1.0779 B( 11-P , 16-O ) :   1.1423 B( 13-O , 14-C ) :   0.7702
B( 14-C , 15-C ) :   0.9437 B( 14-C , 31-H ) :   0.9532 B( 14-C , 32-H ) :   0.9558
B( 15-C , 33-H ) :   0.9717 B( 15-C , 34-H ) :   0.9592 B( 15-C , 35-H ) :   0.9606
B( 16-O , 17-C ) :   0.7710 B( 17-C , 18-C ) :   0.9147 B( 17-C , 36-H ) :   0.9567
B( 17-C , 37-H ) :   0.9514 B( 18-C , 38-H ) :   0.9593 B( 18-C , 39-H ) :   0.9575
B( 18-C , 40-H ) :   0.9714

Dispersion correction           -0.021691427
FINAL SINGLE POINT ENERGY     -2932.472494611269

DIPOLE MOMENT
-------------

Method             : SCF
Type of density    : Electron Density
Multiplicity       :   1
Irrep              :   0
Energy             : -2932.4971396915916557 Eh
Relativity type    :
Basis              : AO
                                X                 Y                 Z
Electronic contribution:      3.890788599       4.793929345     -13.840302206
Nuclear contribution   :     -3.867692068      -3.961872440      15.960489891
                        -----------------------------------------
Total Dipole Moment    :      0.023096531       0.832056905       2.120187684
                        -----------------------------------------
Magnitude (a.u.)       :      2.277728684
Magnitude (Debye)      :      5.789526215

Rotational constants in cm-1:             0.014060             0.004613             0.004481
Rotational constants in MHz :           421.512692           138.279372           134.351710

                             ****ORCA TERMINATED NORMALLY****
TOTAL RUN TIME: 0 days 0 hours 1 minutes 51 seconds 388 msec
