                         Program Version 6.0.0  -   RELEASE  -
|  1> ! pbe def2-sv(p) def2/J RI DEFGRID1 loosescf d4 GCP(DFT/SV(P)) printgap
|  2> %output
|  3>     printlevel normal
|  4> end
|  5> * xyz 0 1
|  6> C 5.1093835697 -0.8331148373 -2.2824438855
|  7> C 3.5976041497 -0.9326468476 -2.2193615681
|  8> O 3.1981323436 -0.8910393332 -0.8388101847
|  9> P 1.8468004826 -0.2257223693 -0.3219370101
| 10> S 1.3955513582 1.3943691208 -1.3383170772
| 11> O 2.1127309172 -0.106320789 1.230947927
| 12> C 2.6707272589 1.0840093977 1.8243665962
| 13> C 4.0828614977 1.3425071662 1.3474627224
| 14> S 0.585646225 -1.9314023962 -0.3403096982
| 15> C -0.4205087745 -1.8266817733 1.1787848717
| 16> S -2.1792221096 -1.5768159328 0.8555257677
| 17> P -2.0534973487 0.4944826985 0.4012400322
| 18> S -0.7904587152 1.5063146789 1.50132938
| 19> O -3.5703632907 0.9614937942 0.3960705608
| 20> C -4.5344413728 0.6848631932 1.4318571853
| 21> C -4.074037777 1.1387722748 2.8006788725
| 22> O -1.6840027178 0.6189393985 -1.1235236585
| 23> C -2.4762688619 0.0234722137 -2.1853245316
| 24> C -1.5417027283 -0.6297229677 -3.182519946
| 25> H 5.4274030591 -0.9183348735 -3.3162664132
| 26> H 5.4407507929 0.1219705484 -1.8841993313
| 27> H 5.557135083 -1.6327743737 -1.6997117608
| 28> H 3.2439152777 -1.8779327328 -2.6386761297
| 29> H 3.1202585467 -0.099743626 -2.7476120899
| 30> H 2.0125507509 1.9274496082 1.5908600476
| 31> H 2.629586177 0.8802115647 2.89528326
| 32> H 4.0730878138 1.5829801584 0.2849078978
| 33> H 4.497626078 2.18263815 1.8955342932
| 34> H 4.6991634013 0.4614079503 1.5064920752
| 35> H -0.0478036783 -1.0104555257 1.7984551728
| 36> H -0.3322064059 -2.7862267247 1.6806632112
| 37> H -5.4203107714 1.2323862186 1.1056222117
| 38> H -4.7366322123 -0.389586756 1.42803078
| 39> H -3.1983843172 0.5706098059 3.1110320217
| 40> H -3.8084560816 2.1932414428 2.781886919
| 41> H -4.8719947646 0.9811160674 3.5189742784
| 42> H -3.1675694799 -0.7035951277 -1.7496522499
| 43> H -3.0403294176 0.8396090005 -2.6395650664
| 44> H -2.1158078046 -0.9712902967 -4.0375018702
| 45> H -0.7959739458 0.090181309 -3.5111617145
| 46> H -1.0311967307 -1.4771558456 -2.7301989935
| 47> *
| 48>
| 49>                          ****END OF INPUT****

CARTESIAN COORDINATES (ANGSTROEM)
---------------------------------
  C      5.109384   -0.833115   -2.282444
  C      3.597604   -0.932647   -2.219362
  O      3.198132   -0.891039   -0.838810
  P      1.846800   -0.225722   -0.321937
  S      1.395551    1.394369   -1.338317
  O      2.112731   -0.106321    1.230948
  C      2.670727    1.084009    1.824367
  C      4.082861    1.342507    1.347463
  S      0.585646   -1.931402   -0.340310
  C     -0.420509   -1.826682    1.178785
  S     -2.179222   -1.576816    0.855526
  P     -2.053497    0.494483    0.401240
  S     -0.790459    1.506315    1.501329
  O     -3.570363    0.961494    0.396071
  C     -4.534441    0.684863    1.431857
  C     -4.074038    1.138772    2.800679
  O     -1.684003    0.618939   -1.123524
  C     -2.476269    0.023472   -2.185325
  C     -1.541703   -0.629723   -3.182520
  H      5.427403   -0.918335   -3.316266
  H      5.440751    0.121971   -1.884199
  H      5.557135   -1.632774   -1.699712
  H      3.243915   -1.877933   -2.638676
  H      3.120259   -0.099744   -2.747612
  H      2.012551    1.927450    1.590860
  H      2.629586    0.880212    2.895283
  H      4.073088    1.582980    0.284908
  H      4.497626    2.182638    1.895534
  H      4.699163    0.461408    1.506492
  H     -0.047804   -1.010456    1.798455
  H     -0.332206   -2.786227    1.680663
  H     -5.420311    1.232386    1.105622
  H     -4.736632   -0.389587    1.428031
  H     -3.198384    0.570610    3.111032
  H     -3.808456    2.193241    2.781887
  H     -4.871995    0.981116    3.518974
  H     -3.167569   -0.703595   -1.749652
  H     -3.040329    0.839609   -2.639565
  H     -2.115808   -0.971290   -4.037502
  H     -0.795974    0.090181   -3.511162
  H     -1.031197   -1.477156   -2.730199

 Total Charge           Charge          ....    0
 Multiplicity           Mult            ....    1
 Number of Electrons    NEL             ....  202
 Basis Dimension        Dim             ....  334

ORBITAL ENERGIES
----------------

  NO   OCC          E(Eh)            E(eV)
   0   2.0000     -88.044685     -2395.8177
   1   2.0000     -88.034932     -2395.5523
   2   2.0000     -87.980653     -2394.0753
   3   2.0000     -87.974692     -2393.9131
   4   2.0000     -76.423559     -2079.5908
   5   2.0000     -76.418413     -2079.4507
   6   2.0000     -18.793902      -511.4081
   7   2.0000     -18.786856      -511.2163
   8   2.0000     -18.783268      -511.1187
   9   2.0000     -18.780864      -511.0533
  10   2.0000      -9.959487      -271.0114
  11   2.0000      -9.956727      -270.9363
  12   2.0000      -9.948497      -270.7124
  13   2.0000      -9.944917      -270.6150
  14   2.0000      -9.944876      -270.6138
  15   2.0000      -9.883465      -268.9427
  16   2.0000      -9.883034      -268.9310
  17   2.0000      -9.878020      -268.7946
  18   2.0000      -9.874459      -268.6977
  19   2.0000      -7.689899      -209.2528
  20   2.0000      -7.680348      -208.9929
  21   2.0000      -7.625684      -207.5054
  22   2.0000      -7.619537      -207.3381
  23   2.0000      -6.420905      -174.7217
  24   2.0000      -6.415845      -174.5840
  25   2.0000      -5.717517      -155.5815
  26   2.0000      -5.714259      -155.4929
  27   2.0000      -5.708594      -155.3387
  28   2.0000      -5.707268      -155.3027
  29   2.0000      -5.704652      -155.2315
  30   2.0000      -5.697044      -155.0245
  31   2.0000      -5.654676      -153.8716
  32   2.0000      -5.648506      -153.7037
  33   2.0000      -5.646267      -153.6427
  34   2.0000      -5.645740      -153.6284
  35   2.0000      -5.640328      -153.4811
  36   2.0000      -5.639493      -153.4584
  37   2.0000      -4.643691      -126.3612
  38   2.0000      -4.642975      -126.3418
  39   2.0000      -4.640915      -126.2857
  40   2.0000      -4.638378      -126.2167
  41   2.0000      -4.637715      -126.1986
  42   2.0000      -4.636246      -126.1587
  43   2.0000      -0.985818       -26.8255
  44   2.0000      -0.979617       -26.6567
  45   2.0000      -0.940421       -25.5902
  46   2.0000      -0.938682       -25.5428
  47   2.0000      -0.760421       -20.6921
  48   2.0000      -0.717917       -19.5355
  49   2.0000      -0.707736       -19.2585
  50   2.0000      -0.687205       -18.6998
  51   2.0000      -0.682843       -18.5811
  52   2.0000      -0.669076       -18.2065
  53   2.0000      -0.647044       -17.6070
  54   2.0000      -0.630531       -17.1576
  55   2.0000      -0.593469       -16.1491
  56   2.0000      -0.586513       -15.9598
  57   2.0000      -0.568975       -15.4826
  58   2.0000      -0.562500       -15.3064
  59   2.0000      -0.560472       -15.2512
  60   2.0000      -0.503949       -13.7132
  61   2.0000      -0.494409       -13.4535
  62   2.0000      -0.471624       -12.8336
  63   2.0000      -0.471029       -12.8174
  64   2.0000      -0.453335       -12.3359
  65   2.0000      -0.445899       -12.1335
  66   2.0000      -0.434014       -11.8101
  67   2.0000      -0.430733       -11.7209
  68   2.0000      -0.425320       -11.5736
  69   2.0000      -0.418218       -11.3803
  70   2.0000      -0.411132       -11.1875
  71   2.0000      -0.395076       -10.7506
  72   2.0000      -0.392661       -10.6849
  73   2.0000      -0.381642       -10.3850
  74   2.0000      -0.376531       -10.2459
  75   2.0000      -0.369170       -10.0456
  76   2.0000      -0.354544        -9.6476
  77   2.0000      -0.351774        -9.5723
  78   2.0000      -0.347827        -9.4649
  79   2.0000      -0.346393        -9.4258
  80   2.0000      -0.342876        -9.3301
  81   2.0000      -0.341219        -9.2850
  82   2.0000      -0.337362        -9.1801
  83   2.0000      -0.336334        -9.1521
  84   2.0000      -0.325756        -8.8643
  85   2.0000      -0.314046        -8.5456
  86   2.0000      -0.307170        -8.3585
  87   2.0000      -0.296562        -8.0699
  88   2.0000      -0.292005        -7.9459
  89   2.0000      -0.288681        -7.8554
  90   2.0000      -0.279197        -7.5973
  91   2.0000      -0.273744        -7.4489
  92   2.0000      -0.267983        -7.2922
  93   2.0000      -0.260196        -7.0803
  94   2.0000      -0.252455        -6.8696
  95   2.0000      -0.236294        -6.4299
  96   2.0000      -0.217179        -5.9097
  97   2.0000      -0.209987        -5.7140
  98   2.0000      -0.198736        -5.4079
  99   2.0000      -0.187979        -5.1152
 100   2.0000      -0.175544        -4.7768
 101   0.0000      -0.040719        -1.1080
 102   0.0000      -0.025315        -0.6889
 103   0.0000      -0.020582        -0.5601
 104   0.0000       0.002636         0.0717
 105   0.0000       0.018874         0.5136

MULLIKEN ATOMIC CHARGES
-----------------------
   0 C :   -0.288593
   1 C :   -0.006238
   2 O :   -0.379195
   3 P :    0.620996
   4 S :   -0.299881
   5 O :   -0.370948
   6 C :   -0.005163
   7 C :   -0.311854
   8 S :   -0.106815
   9 C :   -0.352500
  10 S :   -0.117678
  11 P :    0.595530
  12 S :   -0.303556
  13 O :   -0.378612
  14 C :   -0.011211
  15 C :   -0.307242
  16 O :   -0.334197
  17 C :   -0.002197
  18 C :   -0.290613
  19 H :    0.108917
  20 H :    0.120875
  21 H :    0.115400
  22 H :    0.096505
  23 H :    0.101689
  24 H :    0.127799
  25 H :    0.102267
  26 H :    0.127071
  27 H :    0.110965
  28 H :    0.115238
  29 H :    0.208257
  30 H :    0.183221
  31 H :    0.109922
  32 H :    0.111890
  33 H :    0.123481
  34 H :    0.127906
  35 H :    0.110378
  36 H :    0.091905
  37 H :    0.107902
  38 H :    0.100370
  39 H :    0.126054
  40 H :    0.121956
Sum of atomic charges:   -0.0000000

LOEWDIN ATOMIC CHARGES
----------------------
   0 C :   -0.351823
   1 C :   -0.123904
   2 O :   -0.250642
   3 P :    0.566090
   4 S :   -0.297784
   5 O :   -0.235400
   6 C :   -0.116699
   7 C :   -0.367633
   8 S :    0.070455
   9 C :   -0.476051
  10 S :    0.057733
  11 P :    0.567662
  12 S :   -0.289935
  13 O :   -0.245892
  14 C :   -0.114010
  15 C :   -0.369431
  16 O :   -0.223849
  17 C :   -0.110261
  18 C :   -0.359606
  19 H :    0.129201
  20 H :    0.127198
  21 H :    0.125828
  22 H :    0.109605
  23 H :    0.102745
  24 H :    0.111931
  25 H :    0.118081
  26 H :    0.121234
  27 H :    0.130333
  28 H :    0.125203
  29 H :    0.130027
  30 H :    0.138225
  31 H :    0.121693
  32 H :    0.107493
  33 H :    0.120549
  34 H :    0.131126
  35 H :    0.129620
  36 H :    0.100206
  37 H :    0.117893
  38 H :    0.124931
  39 H :    0.129622
  40 H :    0.118237

  Mayer bond orders larger than 0.100000
B(  0-C ,  1-C ) :   1.1607 B(  0-C , 19-H ) :   0.9420 B(  0-C , 20-H ) :   0.9504
B(  0-C , 21-H ) :   0.9506 B(  1-C ,  2-O ) :   0.9149 B(  1-C , 22-H ) :   0.9319
B(  1-C , 23-H ) :   0.8968 B(  2-O ,  3-P ) :   1.0834 B(  3-P ,  4-S ) :   1.6390
B(  3-P ,  5-O ) :   1.1255 B(  3-P ,  8-S ) :   0.9448 B(  4-S ,  8-S ) :   0.1056
B(  5-O ,  6-C ) :   0.8936 B(  6-C ,  7-C ) :   1.1643 B(  6-C , 24-H ) :   0.9121
B(  6-C , 25-H ) :   0.9361 B(  7-C , 26-H ) :   0.9301 B(  7-C , 27-H ) :   0.9378
B(  7-C , 28-H ) :   0.9446 B(  8-S ,  9-C ) :   1.0012 B(  9-C , 10-S ) :   1.0041
B(  9-C , 29-H ) :   0.8576 B(  9-C , 30-H ) :   0.9104 B( 10-S , 11-P ) :   0.9311
B( 10-S , 12-S ) :   0.1068 B( 11-P , 12-S ) :   1.6343 B( 11-P , 13-O ) :   1.0911
B( 11-P , 16-O ) :   1.1608 B( 13-O , 14-C ) :   0.9130 B( 14-C , 15-C ) :   1.1672
B( 14-C , 31-H ) :   0.9336 B( 14-C , 32-H ) :   0.9268 B( 15-C , 33-H ) :   0.9320
B( 15-C , 34-H ) :   0.9431 B( 15-C , 35-H ) :   0.9347 B( 16-O , 17-C ) :   0.8869
B( 17-C , 18-C ) :   1.1662 B( 17-C , 36-H ) :   0.9140 B( 17-C , 37-H ) :   0.9343
B( 18-C , 38-H ) :   0.9384 B( 18-C , 39-H ) :   0.9426 B( 18-C , 40-H ) :   0.9382

Dispersion correction           -0.067530610
FINAL SINGLE POINT ENERGY     -2929.511570664742

DIPOLE MOMENT
-------------

Method             : SCF
Type of density    : Electron Density
Multiplicity       :   1
Irrep              :   0
Energy             : -2929.6292093258925888 Eh
Relativity type    :
Basis              : AO
                                X                 Y                 Z
Electronic contribution:     -8.312442583      -1.732146609       3.371925060
Nuclear contribution   :      7.845985735       0.908798906      -3.244714962
                        -----------------------------------------
Total Dipole Moment    :     -0.466456848      -0.823347703       0.127210098
                        -----------------------------------------
Magnitude (a.u.)       :      0.954811940
Magnitude (Debye)      :      2.426939079

Rotational constants in cm-1:             0.013338             0.005323             0.004790
Rotational constants in MHz :           399.860195           159.590944           143.609685

                             ****ORCA TERMINATED NORMALLY****
TOTAL RUN TIME: 0 days 0 hours 0 minutes 21 seconds 533 msec
