                         Program Version 6.0.0  -   RELEASE  -
|  1> ! pbe def2-sv(p) def2/J RI DEFGRID1 loosescf d4 GCP(DFT/SV(P)) printgap
|  2> %output
|  3>     printlevel normal
|  4> end
|  5> * xyz 0 1
|  6> C 5.4416675232 -0.8168100689 -0.9337186257
|  7> C 4.8114827902 -0.3910444959 0.3780680162
|  8> O 3.4428850321 -0.8359243607 0.4778173073
|  9> P 2.2131662634 -0.0210950594 -0.114031084
| 10> S 2.1052899765 0.1765078967 -2.0652067645
| 11> O 2.2996586138 1.3430412596 0.7025693699
| 12> C 2.085539594 2.6522556268 0.1508467395
| 13> C 3.4133298585 3.3045956739 -0.1788093429
| 14> S 0.7517309743 -1.1984405914 0.8346179037
| 15> C -0.2195261911 -1.7319213165 -0.6258858368
| 16> S -1.9820354592 -1.8263262148 -0.2795691056
| 17> P -2.402684046 0.2455036955 0.0390430891
| 18> S -1.0163297262 1.5123068852 -0.509231469
| 19> O -2.8668729367 0.3703425276 1.5581607016
| 20> C -1.9758894377 0.3711269583 2.6877198562
| 21> C -1.8767751873 -1.0095194935 3.3070655302
| 22> O -3.7565931536 0.506152797 -0.7097572185
| 23> C -4.9401947062 -0.3217867373 -0.531856884
| 24> C -5.1946813731 -1.1375795935 -1.7828540044
| 25> H 5.3795708596 -1.8958750783 -1.0443548805
| 26> H 4.9259051336 -0.3539463607 -1.7726344152
| 27> H 6.483627633 -0.5130009181 -0.9459732345
| 28> H 4.8433530879 0.6949704286 0.4992803722
| 29> H 5.3044520933 -0.8678737676 1.2273636764
| 30> H 1.4574580375 2.5728213208 -0.7413642214
| 31> H 1.5411717051 3.2014308628 0.9202807512
| 32> H 3.9178867804 2.7434082453 -0.9636004462
| 33> H 3.2333889351 4.3151522997 -0.5306479306
| 34> H 4.0457529799 3.3384480839 0.7044506402
| 35> H 0.0838994855 -2.7390192677 -0.9008782815
| 36> H -0.0307231293 -1.0261754529 -1.4389234383
| 37> H -0.9937129357 0.737213332 2.3711969863
| 38> H -2.4202873862 1.0857688395 3.3832213473
| 39> H -2.8698194781 -1.3855353016 3.5356327628
| 40> H -1.3794848891 -1.7006285064 2.6301004293
| 41> H -1.2976168495 -0.9437489036 4.2221852522
| 42> H -4.8022001196 -0.961751674 0.3410356498
| 43> H -5.7485063338 0.3870957436 -0.3466316869
| 44> H -4.3926744901 -1.8544904026 -1.9391733437
| 45> H -6.1325786363 -1.6720881816 -1.6711321059
| 46> H -5.2560396807 -0.4823795968 -2.647303263
| 47> *
| 48>
| 49>                          ****END OF INPUT****

CARTESIAN COORDINATES (ANGSTROEM)
---------------------------------
  C      5.441668   -0.816810   -0.933719
  C      4.811483   -0.391044    0.378068
  O      3.442885   -0.835924    0.477817
  P      2.213166   -0.021095   -0.114031
  S      2.105290    0.176508   -2.065207
  O      2.299659    1.343041    0.702569
  C      2.085540    2.652256    0.150847
  C      3.413330    3.304596   -0.178809
  S      0.751731   -1.198441    0.834618
  C     -0.219526   -1.731921   -0.625886
  S     -1.982035   -1.826326   -0.279569
  P     -2.402684    0.245504    0.039043
  S     -1.016330    1.512307   -0.509231
  O     -2.866873    0.370343    1.558161
  C     -1.975889    0.371127    2.687720
  C     -1.876775   -1.009519    3.307066
  O     -3.756593    0.506153   -0.709757
  C     -4.940195   -0.321787   -0.531857
  C     -5.194681   -1.137580   -1.782854
  H      5.379571   -1.895875   -1.044355
  H      4.925905   -0.353946   -1.772634
  H      6.483628   -0.513001   -0.945973
  H      4.843353    0.694970    0.499280
  H      5.304452   -0.867874    1.227364
  H      1.457458    2.572821   -0.741364
  H      1.541172    3.201431    0.920281
  H      3.917887    2.743408   -0.963600
  H      3.233389    4.315152   -0.530648
  H      4.045753    3.338448    0.704451
  H      0.083899   -2.739019   -0.900878
  H     -0.030723   -1.026175   -1.438923
  H     -0.993713    0.737213    2.371197
  H     -2.420287    1.085769    3.383221
  H     -2.869819   -1.385535    3.535633
  H     -1.379485   -1.700629    2.630100
  H     -1.297617   -0.943749    4.222185
  H     -4.802200   -0.961752    0.341036
  H     -5.748506    0.387096   -0.346632
  H     -4.392674   -1.854490   -1.939173
  H     -6.132579   -1.672088   -1.671132
  H     -5.256040   -0.482380   -2.647303

 Total Charge           Charge          ....    0
 Multiplicity           Mult            ....    1
 Number of Electrons    NEL             ....  202
 Basis Dimension        Dim             ....  334

ORBITAL ENERGIES
----------------

  NO   OCC          E(Eh)            E(eV)
   0   2.0000     -88.045849     -2395.8494
   1   2.0000     -88.037385     -2395.6190
   2   2.0000     -87.985877     -2394.2174
   3   2.0000     -87.982222     -2394.1180
   4   2.0000     -76.425354     -2079.6396
   5   2.0000     -76.423343     -2079.5849
   6   2.0000     -18.792512      -511.3703
   7   2.0000     -18.787795      -511.2419
   8   2.0000     -18.787594      -511.2364
   9   2.0000     -18.784223      -511.1447
  10   2.0000      -9.960470      -271.0382
  11   2.0000      -9.952876      -270.8315
  12   2.0000      -9.952036      -270.8087
  13   2.0000      -9.948753      -270.7193
  14   2.0000      -9.945264      -270.6244
  15   2.0000      -9.888173      -269.0709
  16   2.0000      -9.882690      -268.9217
  17   2.0000      -9.881027      -268.8764
  18   2.0000      -9.879265      -268.8285
  19   2.0000      -7.690749      -209.2759
  20   2.0000      -7.682419      -209.0492
  21   2.0000      -7.630731      -207.6427
  22   2.0000      -7.627128      -207.5447
  23   2.0000      -6.422885      -174.7756
  24   2.0000      -6.420802      -174.7189
  25   2.0000      -5.718685      -155.6133
  26   2.0000      -5.715104      -155.5159
  27   2.0000      -5.710404      -155.3880
  28   2.0000      -5.707829      -155.3179
  29   2.0000      -5.707159      -155.2997
  30   2.0000      -5.699003      -155.0777
  31   2.0000      -5.659595      -154.0054
  32   2.0000      -5.656243      -153.9142
  33   2.0000      -5.651639      -153.7889
  34   2.0000      -5.650640      -153.7617
  35   2.0000      -5.647542      -153.6774
  36   2.0000      -5.647268      -153.6700
  37   2.0000      -4.645564      -126.4122
  38   2.0000      -4.644666      -126.3878
  39   2.0000      -4.643389      -126.3530
  40   2.0000      -4.643232      -126.3488
  41   2.0000      -4.642185      -126.3203
  42   2.0000      -4.641668      -126.3062
  43   2.0000      -0.987257       -26.8646
  44   2.0000      -0.981149       -26.6984
  45   2.0000      -0.942209       -25.6388
  46   2.0000      -0.938333       -25.5333
  47   2.0000      -0.761027       -20.7086
  48   2.0000      -0.722028       -19.6474
  49   2.0000      -0.711248       -19.3540
  50   2.0000      -0.688447       -18.7336
  51   2.0000      -0.683895       -18.6097
  52   2.0000      -0.672108       -18.2890
  53   2.0000      -0.649247       -17.6669
  54   2.0000      -0.634934       -17.2774
  55   2.0000      -0.596305       -16.2263
  56   2.0000      -0.584909       -15.9162
  57   2.0000      -0.576269       -15.6811
  58   2.0000      -0.572602       -15.5813
  59   2.0000      -0.557426       -15.1683
  60   2.0000      -0.505299       -13.7499
  61   2.0000      -0.495948       -13.4954
  62   2.0000      -0.476376       -12.9629
  63   2.0000      -0.473065       -12.8728
  64   2.0000      -0.452058       -12.3011
  65   2.0000      -0.448677       -12.2091
  66   2.0000      -0.439293       -11.9538
  67   2.0000      -0.430740       -11.7210
  68   2.0000      -0.429456       -11.6861
  69   2.0000      -0.411631       -11.2011
  70   2.0000      -0.403970       -10.9926
  71   2.0000      -0.397599       -10.8192
  72   2.0000      -0.393958       -10.7201
  73   2.0000      -0.386490       -10.5169
  74   2.0000      -0.374732       -10.1970
  75   2.0000      -0.371719       -10.1150
  76   2.0000      -0.366157        -9.9636
  77   2.0000      -0.357634        -9.7317
  78   2.0000      -0.352259        -9.5855
  79   2.0000      -0.349155        -9.5010
  80   2.0000      -0.346981        -9.4418
  81   2.0000      -0.345753        -9.4084
  82   2.0000      -0.337569        -9.1857
  83   2.0000      -0.335245        -9.1225
  84   2.0000      -0.333921        -9.0864
  85   2.0000      -0.312480        -8.5030
  86   2.0000      -0.307881        -8.3779
  87   2.0000      -0.302234        -8.2242
  88   2.0000      -0.291917        -7.9435
  89   2.0000      -0.287376        -7.8199
  90   2.0000      -0.285840        -7.7781
  91   2.0000      -0.276239        -7.5168
  92   2.0000      -0.274141        -7.4598
  93   2.0000      -0.260652        -7.0927
  94   2.0000      -0.259408        -7.0589
  95   2.0000      -0.233052        -6.3417
  96   2.0000      -0.219988        -5.9862
  97   2.0000      -0.212489        -5.7821
  98   2.0000      -0.201681        -5.4880
  99   2.0000      -0.191441        -5.2094
 100   2.0000      -0.188529        -5.1301
 101   0.0000      -0.046660        -1.2697
 102   0.0000      -0.034150        -0.9293
 103   0.0000      -0.009470        -0.2577
 104   0.0000       0.004868         0.1325
 105   0.0000       0.013210         0.3595

MULLIKEN ATOMIC CHARGES
-----------------------
   0 C :   -0.299288
   1 C :   -0.018515
   2 O :   -0.369946
   3 P :    0.650939
   4 S :   -0.323119
   5 O :   -0.383687
   6 C :   -0.023759
   7 C :   -0.292065
   8 S :   -0.111646
   9 C :   -0.329461
  10 S :   -0.137626
  11 P :    0.612391
  12 S :   -0.314470
  13 O :   -0.378924
  14 C :   -0.005694
  15 C :   -0.299660
  16 O :   -0.353842
  17 C :   -0.022412
  18 C :   -0.286262
  19 H :    0.115469
  20 H :    0.130317
  21 H :    0.105647
  22 H :    0.105309
  23 H :    0.106532
  24 H :    0.133886
  25 H :    0.106006
  26 H :    0.116029
  27 H :    0.113498
  28 H :    0.114781
  29 H :    0.181937
  30 H :    0.211859
  31 H :    0.111856
  32 H :    0.103849
  33 H :    0.108669
  34 H :    0.128890
  35 H :    0.108558
  36 H :    0.109977
  37 H :    0.115627
  38 H :    0.123932
  39 H :    0.110335
  40 H :    0.124083
Sum of atomic charges:   -0.0000000

LOEWDIN ATOMIC CHARGES
----------------------
   0 C :   -0.364885
   1 C :   -0.114750
   2 O :   -0.248135
   3 P :    0.572422
   4 S :   -0.299943
   5 O :   -0.244697
   6 C :   -0.122425
   7 C :   -0.361166
   8 S :    0.084485
   9 C :   -0.474967
  10 S :    0.068432
  11 P :    0.566539
  12 S :   -0.294211
  13 O :   -0.250705
  14 C :   -0.118073
  15 C :   -0.363850
  16 O :   -0.234846
  17 C :   -0.111862
  18 C :   -0.359107
  19 H :    0.127335
  20 H :    0.122579
  21 H :    0.127410
  22 H :    0.108802
  23 H :    0.119418
  24 H :    0.106866
  25 H :    0.117640
  26 H :    0.121940
  27 H :    0.131941
  28 H :    0.121980
  29 H :    0.136147
  30 H :    0.124375
  31 H :    0.106228
  32 H :    0.118027
  33 H :    0.123048
  34 H :    0.111745
  35 H :    0.129882
  36 H :    0.108869
  37 H :    0.124014
  38 H :    0.122002
  39 H :    0.130038
  40 H :    0.131458

  Mayer bond orders larger than 0.100000
B(  0-C ,  1-C ) :   1.1664 B(  0-C , 19-H ) :   0.9471 B(  0-C , 20-H ) :   0.9323
B(  0-C , 21-H ) :   0.9395 B(  1-C ,  2-O ) :   0.9107 B(  1-C , 22-H ) :   0.9159
B(  1-C , 23-H ) :   0.9359 B(  2-O ,  3-P ) :   1.1191 B(  3-P ,  4-S ) :   1.6067
B(  3-P ,  5-O ) :   1.1072 B(  3-P ,  8-S ) :   0.9535 B(  4-S ,  8-S ) :   0.1154
B(  5-O ,  6-C ) :   0.9013 B(  6-C ,  7-C ) :   1.1628 B(  6-C , 24-H ) :   0.9010
B(  6-C , 25-H ) :   0.9342 B(  7-C , 26-H ) :   0.9382 B(  7-C , 27-H ) :   0.9393
B(  7-C , 28-H ) :   0.9423 B(  8-S ,  9-C ) :   0.9880 B(  9-C , 10-S ) :   1.0201
B(  9-C , 29-H ) :   0.9076 B(  9-C , 30-H ) :   0.8518 B( 10-S , 11-P ) :   0.9189
B( 10-S , 12-S ) :   0.1101 B( 11-P , 12-S ) :   1.6551 B( 11-P , 13-O ) :   1.0904
B( 11-P , 16-O ) :   1.1555 B( 13-O , 14-C ) :   0.9071 B( 14-C , 15-C ) :   1.1700
B( 14-C , 31-H ) :   0.9057 B( 14-C , 32-H ) :   0.9352 B( 15-C , 33-H ) :   0.9467
B( 15-C , 34-H ) :   0.9302 B( 15-C , 35-H ) :   0.9402 B( 16-O , 17-C ) :   0.8859
B( 17-C , 18-C ) :   1.1638 B( 17-C , 36-H ) :   0.9190 B( 17-C , 37-H ) :   0.9343
B( 18-C , 38-H ) :   0.9397 B( 18-C , 39-H ) :   0.9393 B( 18-C , 40-H ) :   0.9458

Dispersion correction           -0.065230154
FINAL SINGLE POINT ENERGY     -2929.514861224205

DIPOLE MOMENT
-------------

Method             : SCF
Type of density    : Electron Density
Multiplicity       :   1
Irrep              :   0
Energy             : -2929.6336115093567969 Eh
Relativity type    :
Basis              : AO
                                X                 Y                 Z
Electronic contribution:     -5.857940571      -2.626345503      -3.765332501
Nuclear contribution   :      5.688860127       2.372762234       4.745163743
                        -----------------------------------------
Total Dipole Moment    :     -0.169080444      -0.253583269       0.979831243
                        -----------------------------------------
Magnitude (a.u.)       :      1.026139335
Magnitude (Debye)      :      2.608238909

Rotational constants in cm-1:             0.014014             0.004451             0.004404
Rotational constants in MHz :           420.134494           133.444989           132.033241

                             ****ORCA TERMINATED NORMALLY****
TOTAL RUN TIME: 0 days 0 hours 0 minutes 20 seconds 827 msec
