                         Program Version 6.0.0  -   RELEASE  -
|  1> ! pbe def2-sv(p) def2/J RI DEFGRID1 loosescf d4 GCP(DFT/SV(P)) printgap
|  2> %output
|  3>     printlevel normal
|  4> end
|  5> * xyz 0 1
|  6> C 3.6138609642 1.6617320417 -1.3250461573
|  7> C 2.1952508741 1.7517086681 -0.8024907504
|  8> O 1.6652156173 0.4495226856 -0.5089904059
|  9> P 2.1465081319 -0.4144546802 0.7444940697
| 10> S 2.8927138655 0.6304780074 2.2156461037
| 11> O 3.1750424122 -1.5026671132 0.2318024931
| 12> C 2.8561391557 -2.6619122094 -0.5729537588
| 13> C 2.4316439974 -2.2953656441 -1.9794994008
| 14> S 0.3972806415 -1.5280328912 1.1563885492
| 15> C -0.3966328508 -0.2653391146 2.1798779586
| 16> S -0.8887832435 1.2214038881 1.2616091633
| 17> P -1.9908843798 0.3203922433 -0.3210342102
| 18> S -1.0909604873 -0.3010038965 -1.9504936326
| 19> O -3.1271712168 1.3963955134 -0.6140895518
| 20> C -2.9517333813 2.4490173342 -1.5739445655
| 21> C -1.9707611597 3.493620166 -1.0811990166
| 22> O -2.7684673837 -0.7722658683 0.5177864979
| 23> C -3.3262205505 -1.9505260819 -0.1027488957
| 24> C -4.5310784783 -1.6127755084 -0.9548516253
| 25> H 3.6449231773 1.0578856852 -2.2281025892
| 26> H 3.9826575538 2.6587565354 -1.5437931775
| 27> H 4.2517988932 1.2030938165 -0.5691882475
| 28> H 1.5116875147 2.1521611463 -1.55351923
| 29> H 2.1513247209 2.3608114664 0.1065419933
| 30> H 3.786815215 -3.231902274 -0.5692620836
| 31> H 2.0725078818 -3.2300849895 -0.0638678313
| 32> H 1.5009918436 -1.730487516 -1.968229302
| 33> H 3.1998701154 -1.6961645946 -2.4610362451
| 34> H 2.2793964042 -3.2054791946 -2.551257758
| 35> H 0.3050699321 0.0758570406 2.9427518156
| 36> H -1.274252707 -0.7271996391 2.6245052
| 37> H -2.6057889451 2.006942158 -2.5148538887
| 38> H -3.9524483254 2.8628714909 -1.7036538358
| 39> H -1.9000828813 4.2985545854 -1.8055580125
| 40> H -2.2926448496 3.89344055 -0.1231796553
| 41> H -0.9862896218 3.0423191662 -0.9523122494
| 42> H -2.545859233 -2.4290004485 -0.703233133
| 43> H -3.5895080902 -2.5909381317 0.7398960297
| 44> H -4.2239596466 -1.002853772 -1.80341329
| 45> H -4.9801809298 -2.5297850918 -1.3230195848
| 46> H -5.2613030792 -1.0591723058 -0.3705909677
| 47> *
| 48>
| 49>                          ****END OF INPUT****

CARTESIAN COORDINATES (ANGSTROEM)
---------------------------------
  C      3.613861    1.661732   -1.325046
  C      2.195251    1.751709   -0.802491
  O      1.665216    0.449523   -0.508990
  P      2.146508   -0.414455    0.744494
  S      2.892714    0.630478    2.215646
  O      3.175042   -1.502667    0.231802
  C      2.856139   -2.661912   -0.572954
  C      2.431644   -2.295366   -1.979499
  S      0.397281   -1.528033    1.156389
  C     -0.396633   -0.265339    2.179878
  S     -0.888783    1.221404    1.261609
  P     -1.990884    0.320392   -0.321034
  S     -1.090960   -0.301004   -1.950494
  O     -3.127171    1.396396   -0.614090
  C     -2.951733    2.449017   -1.573945
  C     -1.970761    3.493620   -1.081199
  O     -2.768467   -0.772266    0.517786
  C     -3.326221   -1.950526   -0.102749
  C     -4.531078   -1.612776   -0.954852
  H      3.644923    1.057886   -2.228103
  H      3.982658    2.658757   -1.543793
  H      4.251799    1.203094   -0.569188
  H      1.511688    2.152161   -1.553519
  H      2.151325    2.360811    0.106542
  H      3.786815   -3.231902   -0.569262
  H      2.072508   -3.230085   -0.063868
  H      1.500992   -1.730488   -1.968229
  H      3.199870   -1.696165   -2.461036
  H      2.279396   -3.205479   -2.551258
  H      0.305070    0.075857    2.942752
  H     -1.274253   -0.727200    2.624505
  H     -2.605789    2.006942   -2.514854
  H     -3.952448    2.862871   -1.703654
  H     -1.900083    4.298555   -1.805558
  H     -2.292645    3.893441   -0.123180
  H     -0.986290    3.042319   -0.952312
  H     -2.545859   -2.429000   -0.703233
  H     -3.589508   -2.590938    0.739896
  H     -4.223960   -1.002854   -1.803413
  H     -4.980181   -2.529785   -1.323020
  H     -5.261303   -1.059172   -0.370591

 Total Charge           Charge          ....    0
 Multiplicity           Mult            ....    1
 Number of Electrons    NEL             ....  202
 Basis Dimension        Dim             ....  334

ORBITAL ENERGIES
----------------

  NO   OCC          E(Eh)            E(eV)
   0   2.0000     -88.042339     -2395.7538
   1   2.0000     -88.040092     -2395.6927
   2   2.0000     -87.987479     -2394.2610
   3   2.0000     -87.980877     -2394.0814
   4   2.0000     -76.427924     -2079.7095
   5   2.0000     -76.422403     -2079.5593
   6   2.0000     -18.796596      -511.4814
   7   2.0000     -18.792461      -511.3689
   8   2.0000     -18.791343      -511.3385
   9   2.0000     -18.782114      -511.0873
  10   2.0000      -9.957702      -270.9628
  11   2.0000      -9.956510      -270.9304
  12   2.0000      -9.955456      -270.9017
  13   2.0000      -9.954146      -270.8661
  14   2.0000      -9.942708      -270.5548
  15   2.0000      -9.889589      -269.1094
  16   2.0000      -9.886359      -269.0215
  17   2.0000      -9.882635      -268.9202
  18   2.0000      -9.878402      -268.8050
  19   2.0000      -7.687403      -209.1849
  20   2.0000      -7.685028      -209.1202
  21   2.0000      -7.632187      -207.6824
  22   2.0000      -7.626198      -207.5194
  23   2.0000      -6.425365      -174.8431
  24   2.0000      -6.420066      -174.6989
  25   2.0000      -5.715212      -155.5188
  26   2.0000      -5.713209      -155.4643
  27   2.0000      -5.712045      -155.4327
  28   2.0000      -5.709568      -155.3652
  29   2.0000      -5.704267      -155.2210
  30   2.0000      -5.701676      -155.1505
  31   2.0000      -5.660911      -154.0412
  32   2.0000      -5.655190      -153.8855
  33   2.0000      -5.653028      -153.8267
  34   2.0000      -5.652337      -153.8079
  35   2.0000      -5.647087      -153.6651
  36   2.0000      -5.645933      -153.6337
  37   2.0000      -4.648034      -126.4794
  38   2.0000      -4.647160      -126.4557
  39   2.0000      -4.645711      -126.4162
  40   2.0000      -4.642906      -126.3399
  41   2.0000      -4.641584      -126.3039
  42   2.0000      -4.640537      -126.2754
  43   2.0000      -0.990048       -26.9406
  44   2.0000      -0.979697       -26.6589
  45   2.0000      -0.950257       -25.8578
  46   2.0000      -0.940788       -25.6001
  47   2.0000      -0.764388       -20.8001
  48   2.0000      -0.720653       -19.6100
  49   2.0000      -0.708034       -19.2666
  50   2.0000      -0.690616       -18.7926
  51   2.0000      -0.686434       -18.6788
  52   2.0000      -0.671784       -18.2802
  53   2.0000      -0.652099       -17.7445
  54   2.0000      -0.638128       -17.3644
  55   2.0000      -0.601672       -16.3723
  56   2.0000      -0.590684       -16.0733
  57   2.0000      -0.575866       -15.6701
  58   2.0000      -0.573160       -15.5965
  59   2.0000      -0.561448       -15.2778
  60   2.0000      -0.499356       -13.5882
  61   2.0000      -0.491232       -13.3671
  62   2.0000      -0.477241       -12.9864
  63   2.0000      -0.472430       -12.8555
  64   2.0000      -0.458603       -12.4792
  65   2.0000      -0.446056       -12.1378
  66   2.0000      -0.441632       -12.0174
  67   2.0000      -0.432690       -11.7741
  68   2.0000      -0.424344       -11.5470
  69   2.0000      -0.416711       -11.3393
  70   2.0000      -0.407055       -11.0765
  71   2.0000      -0.396770       -10.7967
  72   2.0000      -0.394013       -10.7216
  73   2.0000      -0.388257       -10.5650
  74   2.0000      -0.382228       -10.4010
  75   2.0000      -0.376025       -10.2322
  76   2.0000      -0.369967       -10.0673
  77   2.0000      -0.359788        -9.7903
  78   2.0000      -0.354425        -9.6444
  79   2.0000      -0.350574        -9.5396
  80   2.0000      -0.348457        -9.4820
  81   2.0000      -0.344910        -9.3855
  82   2.0000      -0.342497        -9.3198
  83   2.0000      -0.341388        -9.2897
  84   2.0000      -0.331471        -9.0198
  85   2.0000      -0.317759        -8.6467
  86   2.0000      -0.309692        -8.4272
  87   2.0000      -0.302767        -8.2387
  88   2.0000      -0.297734        -8.1017
  89   2.0000      -0.287428        -7.8213
  90   2.0000      -0.278850        -7.5879
  91   2.0000      -0.272723        -7.4212
  92   2.0000      -0.270478        -7.3601
  93   2.0000      -0.264466        -7.1965
  94   2.0000      -0.263296        -7.1646
  95   2.0000      -0.231021        -6.2864
  96   2.0000      -0.220392        -5.9972
  97   2.0000      -0.207097        -5.6354
  98   2.0000      -0.200072        -5.4442
  99   2.0000      -0.196334        -5.3425
 100   2.0000      -0.193889        -5.2760
 101   0.0000      -0.049673        -1.3517
 102   0.0000      -0.022321        -0.6074
 103   0.0000      -0.017532        -0.4771
 104   0.0000       0.005199         0.1415
 105   0.0000       0.017278         0.4702

MULLIKEN ATOMIC CHARGES
-----------------------
   0 C :   -0.307943
   1 C :   -0.019970
   2 O :   -0.364447
   3 P :    0.631719
   4 S :   -0.323651
   5 O :   -0.369312
   6 C :   -0.025471
   7 C :   -0.331504
   8 S :   -0.118670
   9 C :   -0.326574
  10 S :   -0.096932
  11 P :    0.619534
  12 S :   -0.315273
  13 O :   -0.366686
  14 C :   -0.004614
  15 C :   -0.339919
  16 O :   -0.375105
  17 C :   -0.005744
  18 C :   -0.304105
  19 H :    0.115715
  20 H :    0.108778
  21 H :    0.126422
  22 H :    0.112191
  23 H :    0.111551
  24 H :    0.113357
  25 H :    0.120235
  26 H :    0.157417
  27 H :    0.120328
  28 H :    0.109947
  29 H :    0.192396
  30 H :    0.186783
  31 H :    0.108677
  32 H :    0.106743
  33 H :    0.116478
  34 H :    0.124699
  35 H :    0.142492
  36 H :    0.113108
  37 H :    0.103910
  38 H :    0.122775
  39 H :    0.112564
  40 H :    0.118103
Sum of atomic charges:   -0.0000000

LOEWDIN ATOMIC CHARGES
----------------------
   0 C :   -0.364992
   1 C :   -0.124317
   2 O :   -0.239534
   3 P :    0.575309
   4 S :   -0.315072
   5 O :   -0.241704
   6 C :   -0.114197
   7 C :   -0.370555
   8 S :    0.078906
   9 C :   -0.474075
  10 S :    0.085575
  11 P :    0.573726
  12 S :   -0.306649
  13 O :   -0.243064
  14 C :   -0.122491
  15 C :   -0.370188
  16 O :   -0.240255
  17 C :   -0.117995
  18 C :   -0.364174
  19 H :    0.122614
  20 H :    0.129384
  21 H :    0.124047
  22 H :    0.114905
  23 H :    0.107572
  24 H :    0.123263
  25 H :    0.107505
  26 H :    0.126411
  27 H :    0.125906
  28 H :    0.130563
  29 H :    0.131181
  30 H :    0.134202
  31 H :    0.107575
  32 H :    0.119548
  33 H :    0.132782
  34 H :    0.128085
  35 H :    0.120282
  36 H :    0.110755
  37 H :    0.117821
  38 H :    0.123126
  39 H :    0.130870
  40 H :    0.127349

  Mayer bond orders larger than 0.100000
B(  0-C ,  1-C ) :   1.1617 B(  0-C , 19-H ) :   0.9431 B(  0-C , 20-H ) :   0.9399
B(  0-C , 21-H ) :   0.9343 B(  1-C ,  2-O ) :   0.9063 B(  1-C , 22-H ) :   0.9221
B(  1-C , 23-H ) :   0.9127 B(  2-O ,  3-P ) :   1.0965 B(  3-P ,  4-S ) :   1.6226
B(  3-P ,  5-O ) :   1.1286 B(  3-P ,  8-S ) :   0.9444 B(  5-O ,  6-C ) :   0.9059
B(  6-C ,  7-C ) :   1.1636 B(  6-C , 24-H ) :   0.9347 B(  6-C , 25-H ) :   0.9173
B(  7-C , 26-H ) :   0.9244 B(  7-C , 27-H ) :   0.9418 B(  7-C , 28-H ) :   0.9354
B(  8-S ,  9-C ) :   1.0169 B(  9-C , 10-S ) :   1.0005 B(  9-C , 29-H ) :   0.8766
B(  9-C , 30-H ) :   0.9029 B( 10-S , 11-P ) :   0.9520 B( 10-S , 12-S ) :   0.1076
B( 11-P , 12-S ) :   1.6116 B( 11-P , 13-O ) :   1.1000 B( 11-P , 16-O ) :   1.1130
B( 13-O , 14-C ) :   0.9143 B( 14-C , 15-C ) :   1.1620 B( 14-C , 31-H ) :   0.9108
B( 14-C , 32-H ) :   0.9322 B( 15-C , 33-H ) :   0.9387 B( 15-C , 34-H ) :   0.9431
B( 15-C , 35-H ) :   0.9276 B( 16-O , 17-C ) :   0.8999 B( 17-C , 18-C ) :   1.1657
B( 17-C , 36-H ) :   0.9146 B( 17-C , 37-H ) :   0.9340 B( 18-C , 38-H ) :   0.9357
B( 18-C , 39-H ) :   0.9389 B( 18-C , 40-H ) :   0.9459

Dispersion correction           -0.068533126
FINAL SINGLE POINT ENERGY     -2929.518458067576

DIPOLE MOMENT
-------------

Method             : SCF
Type of density    : Electron Density
Multiplicity       :   1
Irrep              :   0
Energy             : -2929.6357816594340875 Eh
Relativity type    :
Basis              : AO
                                X                 Y                 Z
Electronic contribution:      3.774743838      -2.426234724      16.777650714
Nuclear contribution   :     -4.813363287       2.121893503     -17.718649814
                        -----------------------------------------
Total Dipole Moment    :     -1.038619450      -0.304341220      -0.940999100
                        -----------------------------------------
Magnitude (a.u.)       :      1.434166394
Magnitude (Debye)      :      3.645361272

Rotational constants in cm-1:             0.011524             0.005801             0.005353
Rotational constants in MHz :           345.467324           173.913169           160.481341

                             ****ORCA TERMINATED NORMALLY****
TOTAL RUN TIME: 0 days 0 hours 0 minutes 22 seconds 104 msec
