                         Program Version 6.0.0  -   RELEASE  -
|  1> ! pbe def2-sv(p) def2/J RI DEFGRID1 loosescf d4 GCP(DFT/SV(P)) printgap
|  2> %output
|  3>     printlevel normal
|  4> end
|  5> * xyz 0 1
|  6> C -0.0038894402 -2.2790045932 2.3864876166
|  7> C 1.3455870772 -2.0580500295 1.7352196631
|  8> O 1.517268239 -0.6464641306 1.481867445
|  9> P 2.3637108648 -0.0501743319 0.2839549647
| 10> S 3.2264755859 -1.4020143501 -0.8506223685
| 11> O 3.2899865362 0.9103936501 1.1380714599
| 12> C 3.9874590371 2.0653970679 0.6351474739
| 13> C 4.8732446561 1.7461432887 -0.5516000718
| 14> S 1.0895647016 1.3187846218 -0.7277789422
| 15> C 0.4400451862 0.13685255 -1.9339522845
| 16> S -0.5350855999 -1.1808944575 -1.1614574046
| 17> P -2.0199874827 0.0855269083 -0.3396873456
| 18> S -2.6071403259 1.5681112799 -1.4856075843
| 19> O -1.3976005029 0.4638262304 1.0619363145
| 20> C -1.6853800883 1.7112928177 1.7226712658
| 21> C -3.094064841 1.7237300445 2.2766629748
| 22> O -3.1549183367 -0.935160206 0.0928619441
| 23> C -4.0699316762 -1.5032783008 -0.8663573301
| 24> C -5.2630387921 -2.046603864 -0.1064921493
| 25> H -0.1111893352 -3.3327636537 2.6221879692
| 26> H -0.0753136894 -1.6940221362 3.2986707052
| 27> H -0.8057428592 -1.9800768717 1.7157702308
| 28> H 1.4309184469 -2.6063641681 0.79098127
| 29> H 2.1573257429 -2.3671379312 2.3982631194
| 30> H 3.2466643878 2.8261504475 0.3727681444
| 31> H 4.574310742 2.4012267092 1.4920223246
| 32> H 4.2667678397 1.4409256826 -1.4031791234
| 33> H 5.4441260261 2.6284412641 -0.8225241643
| 34> H 5.5561068097 0.9357990271 -0.3073635971
| 35> H 1.265717093 -0.351356711 -2.4517127236
| 36> H -0.1874276648 0.7040110023 -2.6208194119
| 37> H -0.932252536 1.7717797217 2.5096339693
| 38> H -1.5390958606 2.5281459481 1.0080042519
| 39> H -3.8090834261 1.6683000865 1.4563669022
| 40> H -3.2472886281 0.8728037689 2.9347962899
| 41> H -3.2584826687 2.644446823 2.8274273512
| 42> H -4.364942078 -0.7201871331 -1.5729880596
| 43> H -3.5469485954 -2.2953344505 -1.4091991999
| 44> H -5.9507940647 -2.5076575682 -0.807691332
| 45> H -4.9347946117 -2.7873754179 0.6166127421
| 46> H -5.7716159733 -1.2428863416 0.4181888547
| 47> *
| 48>
| 49>                          ****END OF INPUT****

CARTESIAN COORDINATES (ANGSTROEM)
---------------------------------
  C     -0.003889   -2.279005    2.386488
  C      1.345587   -2.058050    1.735220
  O      1.517268   -0.646464    1.481867
  P      2.363711   -0.050174    0.283955
  S      3.226476   -1.402014   -0.850622
  O      3.289987    0.910394    1.138071
  C      3.987459    2.065397    0.635147
  C      4.873245    1.746143   -0.551600
  S      1.089565    1.318785   -0.727779
  C      0.440045    0.136853   -1.933952
  S     -0.535086   -1.180894   -1.161457
  P     -2.019987    0.085527   -0.339687
  S     -2.607140    1.568111   -1.485608
  O     -1.397601    0.463826    1.061936
  C     -1.685380    1.711293    1.722671
  C     -3.094065    1.723730    2.276663
  O     -3.154918   -0.935160    0.092862
  C     -4.069932   -1.503278   -0.866357
  C     -5.263039   -2.046604   -0.106492
  H     -0.111189   -3.332764    2.622188
  H     -0.075314   -1.694022    3.298671
  H     -0.805743   -1.980077    1.715770
  H      1.430918   -2.606364    0.790981
  H      2.157326   -2.367138    2.398263
  H      3.246664    2.826150    0.372768
  H      4.574311    2.401227    1.492022
  H      4.266768    1.440926   -1.403179
  H      5.444126    2.628441   -0.822524
  H      5.556107    0.935799   -0.307364
  H      1.265717   -0.351357   -2.451713
  H     -0.187428    0.704011   -2.620819
  H     -0.932253    1.771780    2.509634
  H     -1.539096    2.528146    1.008004
  H     -3.809083    1.668300    1.456367
  H     -3.247289    0.872804    2.934796
  H     -3.258483    2.644447    2.827427
  H     -4.364942   -0.720187   -1.572988
  H     -3.546949   -2.295334   -1.409199
  H     -5.950794   -2.507658   -0.807691
  H     -4.934795   -2.787375    0.616613
  H     -5.771616   -1.242886    0.418189

 Total Charge           Charge          ....    0
 Multiplicity           Mult            ....    1
 Number of Electrons    NEL             ....  202
 Basis Dimension        Dim             ....  334

ORBITAL ENERGIES
----------------

  NO   OCC          E(Eh)            E(eV)
   0   2.0000     -88.044797     -2395.8207
   1   2.0000     -88.043401     -2395.7827
   2   2.0000     -87.991459     -2394.3693
   3   2.0000     -87.984521     -2394.1805
   4   2.0000     -76.429534     -2079.7533
   5   2.0000     -76.425402     -2079.6409
   6   2.0000     -18.799707      -511.5660
   7   2.0000     -18.791888      -511.3533
   8   2.0000     -18.791534      -511.3436
   9   2.0000     -18.783153      -511.1156
  10   2.0000      -9.957136      -270.9474
  11   2.0000      -9.956930      -270.9418
  12   2.0000      -9.954998      -270.8893
  13   2.0000      -9.950891      -270.7775
  14   2.0000      -9.943014      -270.5632
  15   2.0000      -9.891806      -269.1697
  16   2.0000      -9.884124      -268.9607
  17   2.0000      -9.882205      -268.9085
  18   2.0000      -9.876363      -268.7495
  19   2.0000      -7.689691      -209.2471
  20   2.0000      -7.688124      -209.2045
  21   2.0000      -7.636346      -207.7955
  22   2.0000      -7.629558      -207.6108
  23   2.0000      -6.426950      -174.8862
  24   2.0000      -6.422407      -174.7626
  25   2.0000      -5.717472      -155.5803
  26   2.0000      -5.715876      -155.5369
  27   2.0000      -5.714314      -155.4944
  28   2.0000      -5.712663      -155.4495
  29   2.0000      -5.706671      -155.2864
  30   2.0000      -5.705235      -155.2473
  31   2.0000      -5.665135      -154.1562
  32   2.0000      -5.658385      -153.9725
  33   2.0000      -5.656953      -153.9335
  34   2.0000      -5.656674      -153.9259
  35   2.0000      -5.650200      -153.7498
  36   2.0000      -5.649792      -153.7387
  37   2.0000      -4.649326      -126.5146
  38   2.0000      -4.648777      -126.4997
  39   2.0000      -4.647510      -126.4652
  40   2.0000      -4.644735      -126.3897
  41   2.0000      -4.644407      -126.3807
  42   2.0000      -4.642929      -126.3405
  43   2.0000      -0.991448       -26.9787
  44   2.0000      -0.983603       -26.7652
  45   2.0000      -0.950048       -25.8521
  46   2.0000      -0.939542       -25.5662
  47   2.0000      -0.767040       -20.8722
  48   2.0000      -0.723108       -19.6768
  49   2.0000      -0.710648       -19.3377
  50   2.0000      -0.690229       -18.7821
  51   2.0000      -0.682979       -18.5848
  52   2.0000      -0.673552       -18.3283
  53   2.0000      -0.650240       -17.6939
  54   2.0000      -0.639424       -17.3996
  55   2.0000      -0.601518       -16.3681
  56   2.0000      -0.593397       -16.1472
  57   2.0000      -0.571822       -15.5601
  58   2.0000      -0.566868       -15.4253
  59   2.0000      -0.557992       -15.1837
  60   2.0000      -0.507961       -13.8223
  61   2.0000      -0.498008       -13.5515
  62   2.0000      -0.480186       -13.0665
  63   2.0000      -0.468537       -12.7495
  64   2.0000      -0.459741       -12.5102
  65   2.0000      -0.446268       -12.1436
  66   2.0000      -0.437602       -11.9078
  67   2.0000      -0.433522       -11.7967
  68   2.0000      -0.423062       -11.5121
  69   2.0000      -0.416595       -11.3361
  70   2.0000      -0.411581       -11.1997
  71   2.0000      -0.396516       -10.7898
  72   2.0000      -0.395577       -10.7642
  73   2.0000      -0.385886       -10.5005
  74   2.0000      -0.381387       -10.3781
  75   2.0000      -0.375674       -10.2226
  76   2.0000      -0.369507       -10.0548
  77   2.0000      -0.360357        -9.8058
  78   2.0000      -0.350150        -9.5281
  79   2.0000      -0.348526        -9.4839
  80   2.0000      -0.347876        -9.4662
  81   2.0000      -0.345853        -9.4111
  82   2.0000      -0.342954        -9.3322
  83   2.0000      -0.336761        -9.1637
  84   2.0000      -0.327657        -8.9160
  85   2.0000      -0.322871        -8.7858
  86   2.0000      -0.312321        -8.4987
  87   2.0000      -0.304797        -8.2939
  88   2.0000      -0.295517        -8.0414
  89   2.0000      -0.288057        -7.8384
  90   2.0000      -0.282807        -7.6956
  91   2.0000      -0.278232        -7.5711
  92   2.0000      -0.270338        -7.3563
  93   2.0000      -0.267541        -7.2802
  94   2.0000      -0.253803        -6.9063
  95   2.0000      -0.233817        -6.3625
  96   2.0000      -0.219791        -5.9808
  97   2.0000      -0.214898        -5.8477
  98   2.0000      -0.208623        -5.6769
  99   2.0000      -0.199486        -5.4283
 100   2.0000      -0.198379        -5.3982
 101   0.0000      -0.048333        -1.3152
 102   0.0000      -0.024946        -0.6788
 103   0.0000      -0.001978        -0.0538
 104   0.0000       0.000761         0.0207
 105   0.0000       0.006835         0.1860

MULLIKEN ATOMIC CHARGES
-----------------------
   0 C :   -0.287770
   1 C :   -0.003788
   2 O :   -0.359002
   3 P :    0.611224
   4 S :   -0.336969
   5 O :   -0.364008
   6 C :   -0.013103
   7 C :   -0.307233
   8 S :   -0.102111
   9 C :   -0.355419
  10 S :   -0.086702
  11 P :    0.618674
  12 S :   -0.328959
  13 O :   -0.355046
  14 C :   -0.003082
  15 C :   -0.303788
  16 O :   -0.379300
  17 C :   -0.014970
  18 C :   -0.280358
  19 H :    0.102635
  20 H :    0.107319
  21 H :    0.124106
  22 H :    0.112675
  23 H :    0.100733
  24 H :    0.114537
  25 H :    0.109499
  26 H :    0.124340
  27 H :    0.110611
  28 H :    0.126172
  29 H :    0.193173
  30 H :    0.191846
  31 H :    0.107857
  32 H :    0.112666
  33 H :    0.120891
  34 H :    0.115626
  35 H :    0.112037
  36 H :    0.108010
  37 H :    0.105206
  38 H :    0.113902
  39 H :    0.118001
  40 H :    0.119867
Sum of atomic charges:    0.0000000

LOEWDIN ATOMIC CHARGES
----------------------
   0 C :   -0.355447
   1 C :   -0.117729
   2 O :   -0.237958
   3 P :    0.571901
   4 S :   -0.318973
   5 O :   -0.240490
   6 C :   -0.115058
   7 C :   -0.368758
   8 S :    0.080196
   9 C :   -0.481095
  10 S :    0.090379
  11 P :    0.570601
  12 S :   -0.322772
  13 O :   -0.225028
  14 C :   -0.117652
  15 C :   -0.364018
  16 O :   -0.245807
  17 C :   -0.120110
  18 C :   -0.349906
  19 H :    0.126752
  20 H :    0.123287
  21 H :    0.115990
  22 H :    0.103399
  23 H :    0.112045
  24 H :    0.108162
  25 H :    0.121586
  26 H :    0.120770
  27 H :    0.129580
  28 H :    0.130036
  29 H :    0.129858
  30 H :    0.130684
  31 H :    0.119974
  32 H :    0.109447
  33 H :    0.121446
  34 H :    0.125805
  35 H :    0.130417
  36 H :    0.109441
  37 H :    0.111141
  38 H :    0.131892
  39 H :    0.127610
  40 H :    0.128406

  Mayer bond orders larger than 0.100000
B(  0-C ,  1-C ) :   1.1633 B(  0-C , 19-H ) :   0.9400 B(  0-C , 20-H ) :   0.9485
B(  0-C , 21-H ) :   0.9377 B(  1-C ,  2-O ) :   0.8959 B(  1-C , 22-H ) :   0.9043
B(  1-C , 23-H ) :   0.9348 B(  2-O ,  3-P ) :   1.1409 B(  3-P ,  4-S ) :   1.6011
B(  3-P ,  5-O ) :   1.1304 B(  3-P ,  8-S ) :   0.9294 B(  4-S ,  8-S ) :   0.1097
B(  5-O ,  6-C ) :   0.9163 B(  6-C ,  7-C ) :   1.1635 B(  6-C , 24-H ) :   0.9256
B(  6-C , 25-H ) :   0.9340 B(  7-C , 26-H ) :   0.9335 B(  7-C , 27-H ) :   0.9356
B(  7-C , 28-H ) :   0.9433 B(  8-S ,  9-C ) :   1.0132 B(  9-C , 10-S ) :   1.0008
B(  9-C , 29-H ) :   0.8781 B(  9-C , 30-H ) :   0.8823 B( 10-S , 11-P ) :   0.9580
B( 10-S , 12-S ) :   0.1053 B( 11-P , 12-S ) :   1.5950 B( 11-P , 13-O ) :   1.1239
B( 11-P , 16-O ) :   1.0947 B( 13-O , 14-C ) :   0.8970 B( 14-C , 15-C ) :   1.1646
B( 14-C , 31-H ) :   0.9326 B( 14-C , 32-H ) :   0.9142 B( 15-C , 33-H ) :   0.9351
B( 15-C , 34-H ) :   0.9469 B( 15-C , 35-H ) :   0.9399 B( 16-O , 17-C ) :   0.9023
B( 17-C , 18-C ) :   1.1611 B( 17-C , 36-H ) :   0.9105 B( 17-C , 37-H ) :   0.9290
B( 18-C , 38-H ) :   0.9416 B( 18-C , 39-H ) :   0.9505 B( 18-C , 40-H ) :   0.9513

Dispersion correction           -0.066625143
FINAL SINGLE POINT ENERGY     -2929.524678574591

DIPOLE MOMENT
-------------

Method             : SCF
Type of density    : Electron Density
Multiplicity       :   1
Irrep              :   0
Energy             : -2929.6430428666399166 Eh
Relativity type    :
Basis              : AO
                                X                 Y                 Z
Electronic contribution:      9.716731215       1.561653856     -11.710774180
Nuclear contribution   :    -10.275411212      -1.416128041      12.486373166
                        -----------------------------------------
Total Dipole Moment    :     -0.558679997       0.145525815       0.775598986
                        -----------------------------------------
Magnitude (a.u.)       :      0.966878942
Magnitude (Debye)      :      2.457610961

Rotational constants in cm-1:             0.013124             0.005030             0.004816
Rotational constants in MHz :           393.446725           150.797654           144.380802

                             ****ORCA TERMINATED NORMALLY****
TOTAL RUN TIME: 0 days 0 hours 0 minutes 21 seconds 414 msec
