                         Program Version 6.0.0  -   RELEASE  -
|  1> ! pbe def2-sv(p) def2/J RI DEFGRID1 loosescf d4 GCP(DFT/SV(P)) printgap
|  2> %output
|  3>     printlevel normal
|  4> end
|  5> * xyz 0 1
|  6> C 2.1764878326 2.2510353474 -2.6229313343
|  7> C 2.5687933465 1.8461507988 -1.2177808161
|  8> O 1.8813080359 0.6108818967 -0.9074416705
|  9> P 2.0661902366 -0.0836189923 0.5024733013
| 10> S 1.5887443286 1.0781171854 2.0178602395
| 11> O 3.5990934082 -0.5064037565 0.4097006294
| 12> C 4.2450943349 -1.5189572598 1.2047595898
| 13> C 3.9826684992 -1.36895173 2.6883624845
| 14> S 1.0033539166 -1.8834181768 0.2707094281
| 15> C -0.3199224043 -1.6277713483 1.4990472778
| 16> S -1.9914403336 -1.6482326194 0.8031974062
| 17> P -1.9986151122 0.0558576741 -0.441614604
| 18> S -1.0476634786 0.0655915973 -2.1608919409
| 19> O -1.532559369 1.1395044548 0.6174342568
| 20> C -1.1195999077 2.4613809192 0.2250060145
| 21> C -2.2866153347 3.3055737753 -0.2381591353
| 22> O -3.5546307137 0.3523764238 -0.5869879211
| 23> C -4.3405900549 -0.1944110369 -1.6580263934
| 24> C -4.5088928336 -1.6938648067 -1.5225791392
| 25> H 1.0956384915 2.3379852051 -2.7014176484
| 26> H 2.6356403868 3.204413678 -2.8625103002
| 27> H 2.5066989036 1.4973510513 -3.3316557793
| 28> H 2.2723776879 2.5982764441 -0.4783366148
| 29> H 3.644401474 1.6702386381 -1.1365310047
| 30> H 3.9040302208 -2.4943384573 0.8469902738
| 31> H 5.3034422432 -1.3889560863 0.9715566085
| 32> H 4.2592307647 -0.3728813453 3.0262234016
| 33> H 2.9257653043 -1.5237786221 2.9018618372
| 34> H 4.5646809644 -2.1069024466 3.2309699514
| 35> H -0.1395530845 -0.6817362088 2.0178734202
| 36> H -0.2981897839 -2.4680724008 2.1890187593
| 37> H -0.6497381553 2.8660192263 1.1237525056
| 38> H -0.3709941873 2.3652917024 -0.5689899025
| 39> H -1.9468789074 4.322722905 -0.4066582671
| 40> H -2.6887533199 2.905040203 -1.167472426
| 41> H -3.0694788522 3.3036223139 0.5153879022
| 42> H -5.2941278161 0.3291661568 -1.579244403
| 43> H -3.8537544339 0.0538487888 -2.6071788165
| 44> H -4.9046959603 -1.9425200715 -0.5412207168
| 45> H -5.1873479803 -2.0529086865 -2.289733849
| 46> H -3.5442471752 -2.1865124725 -1.6439656128
| 47> *
| 48>
| 49>                          ****END OF INPUT****

CARTESIAN COORDINATES (ANGSTROEM)
---------------------------------
  C      2.176488    2.251035   -2.622931
  C      2.568793    1.846151   -1.217781
  O      1.881308    0.610882   -0.907442
  P      2.066190   -0.083619    0.502473
  S      1.588744    1.078117    2.017860
  O      3.599093   -0.506404    0.409701
  C      4.245094   -1.518957    1.204760
  C      3.982668   -1.368952    2.688362
  S      1.003354   -1.883418    0.270709
  C     -0.319922   -1.627771    1.499047
  S     -1.991440   -1.648233    0.803197
  P     -1.998615    0.055858   -0.441615
  S     -1.047663    0.065592   -2.160892
  O     -1.532559    1.139504    0.617434
  C     -1.119600    2.461381    0.225006
  C     -2.286615    3.305574   -0.238159
  O     -3.554631    0.352376   -0.586988
  C     -4.340590   -0.194411   -1.658026
  C     -4.508893   -1.693865   -1.522579
  H      1.095638    2.337985   -2.701418
  H      2.635640    3.204414   -2.862510
  H      2.506699    1.497351   -3.331656
  H      2.272378    2.598276   -0.478337
  H      3.644401    1.670239   -1.136531
  H      3.904030   -2.494338    0.846990
  H      5.303442   -1.388956    0.971557
  H      4.259231   -0.372881    3.026223
  H      2.925765   -1.523779    2.901862
  H      4.564681   -2.106902    3.230970
  H     -0.139553   -0.681736    2.017873
  H     -0.298190   -2.468072    2.189019
  H     -0.649738    2.866019    1.123753
  H     -0.370994    2.365292   -0.568990
  H     -1.946879    4.322723   -0.406658
  H     -2.688753    2.905040   -1.167472
  H     -3.069479    3.303622    0.515388
  H     -5.294128    0.329166   -1.579244
  H     -3.853754    0.053849   -2.607179
  H     -4.904696   -1.942520   -0.541221
  H     -5.187348   -2.052909   -2.289734
  H     -3.544247   -2.186512   -1.643966

 Total Charge           Charge          ....    0
 Multiplicity           Mult            ....    1
 Number of Electrons    NEL             ....  202
 Basis Dimension        Dim             ....  334

ORBITAL ENERGIES
----------------

  NO   OCC          E(Eh)            E(eV)
   0   2.0000     -88.047234     -2395.8870
   1   2.0000     -88.039964     -2395.6892
   2   2.0000     -87.986373     -2394.2309
   3   2.0000     -87.979690     -2394.0491
   4   2.0000     -76.425816     -2079.6522
   5   2.0000     -76.420628     -2079.5110
   6   2.0000     -18.791170      -511.3337
   7   2.0000     -18.788163      -511.2519
   8   2.0000     -18.784587      -511.1546
   9   2.0000     -18.783387      -511.1220
  10   2.0000      -9.957499      -270.9573
  11   2.0000      -9.955839      -270.9121
  12   2.0000      -9.949087      -270.7284
  13   2.0000      -9.948561      -270.7141
  14   2.0000      -9.941061      -270.5100
  15   2.0000      -9.885014      -268.9849
  16   2.0000      -9.883153      -268.9343
  17   2.0000      -9.880475      -268.8614
  18   2.0000      -9.877661      -268.7848
  19   2.0000      -7.692341      -209.3192
  20   2.0000      -7.685552      -209.1345
  21   2.0000      -7.631185      -207.6551
  22   2.0000      -7.624614      -207.4763
  23   2.0000      -6.423388      -174.7893
  24   2.0000      -6.418351      -174.6522
  25   2.0000      -5.720144      -155.6530
  26   2.0000      -5.716855      -155.5635
  27   2.0000      -5.713657      -155.4765
  28   2.0000      -5.709897      -155.3742
  29   2.0000      -5.709354      -155.3594
  30   2.0000      -5.702367      -155.1693
  31   2.0000      -5.659996      -154.0163
  32   2.0000      -5.653355      -153.8356
  33   2.0000      -5.652126      -153.8022
  34   2.0000      -5.651106      -153.7744
  35   2.0000      -5.645284      -153.6160
  36   2.0000      -5.644919      -153.6061
  37   2.0000      -4.645973      -126.4233
  38   2.0000      -4.645171      -126.4015
  39   2.0000      -4.643817      -126.3647
  40   2.0000      -4.640915      -126.2857
  41   2.0000      -4.640192      -126.2660
  42   2.0000      -4.638723      -126.2261
  43   2.0000      -0.984165       -26.7805
  44   2.0000      -0.981663       -26.7124
  45   2.0000      -0.941627       -25.6230
  46   2.0000      -0.939854       -25.5747
  47   2.0000      -0.762121       -20.7384
  48   2.0000      -0.720015       -19.5926
  49   2.0000      -0.705669       -19.2022
  50   2.0000      -0.687958       -18.7203
  51   2.0000      -0.683694       -18.6043
  52   2.0000      -0.672253       -18.2929
  53   2.0000      -0.648955       -17.6590
  54   2.0000      -0.637203       -17.3392
  55   2.0000      -0.597857       -16.2685
  56   2.0000      -0.588923       -16.0254
  57   2.0000      -0.573709       -15.6114
  58   2.0000      -0.567510       -15.4427
  59   2.0000      -0.556842       -15.1524
  60   2.0000      -0.503192       -13.6925
  61   2.0000      -0.487486       -13.2652
  62   2.0000      -0.470922       -12.8144
  63   2.0000      -0.468188       -12.7400
  64   2.0000      -0.452353       -12.3091
  65   2.0000      -0.447904       -12.1881
  66   2.0000      -0.435383       -11.8474
  67   2.0000      -0.429847       -11.6967
  68   2.0000      -0.427298       -11.6274
  69   2.0000      -0.414593       -11.2817
  70   2.0000      -0.414080       -11.2677
  71   2.0000      -0.406027       -11.0486
  72   2.0000      -0.386263       -10.5108
  73   2.0000      -0.381901       -10.3921
  74   2.0000      -0.380493       -10.3537
  75   2.0000      -0.372843       -10.1456
  76   2.0000      -0.365942        -9.9578
  77   2.0000      -0.352896        -9.6028
  78   2.0000      -0.350657        -9.5419
  79   2.0000      -0.348585        -9.4855
  80   2.0000      -0.344772        -9.3817
  81   2.0000      -0.343797        -9.3552
  82   2.0000      -0.338692        -9.2163
  83   2.0000      -0.329716        -8.9720
  84   2.0000      -0.329314        -8.9611
  85   2.0000      -0.313772        -8.5382
  86   2.0000      -0.308894        -8.4054
  87   2.0000      -0.298048        -8.1103
  88   2.0000      -0.295659        -8.0453
  89   2.0000      -0.291963        -7.9447
  90   2.0000      -0.276552        -7.5254
  91   2.0000      -0.268208        -7.2983
  92   2.0000      -0.264467        -7.1965
  93   2.0000      -0.262630        -7.1465
  94   2.0000      -0.258029        -7.0213
  95   2.0000      -0.241680        -6.5764
  96   2.0000      -0.222377        -6.0512
  97   2.0000      -0.205183        -5.5833
  98   2.0000      -0.198703        -5.4070
  99   2.0000      -0.195368        -5.3162
 100   2.0000      -0.191437        -5.2093
 101   0.0000      -0.041935        -1.1411
 102   0.0000      -0.033211        -0.9037
 103   0.0000      -0.015171        -0.4128
 104   0.0000       0.003956         0.1076
 105   0.0000       0.014064         0.3827

MULLIKEN ATOMIC CHARGES
-----------------------
   0 C :   -0.289218
   1 C :   -0.010930
   2 O :   -0.353973
   3 P :    0.617820
   4 S :   -0.332758
   5 O :   -0.385468
   6 C :   -0.000107
   7 C :   -0.311369
   8 S :   -0.074387
   9 C :   -0.358009
  10 S :   -0.093846
  11 P :    0.610647
  12 S :   -0.316309
  13 O :   -0.364596
  14 C :   -0.039513
  15 C :   -0.292227
  16 O :   -0.371631
  17 C :   -0.004082
  18 C :   -0.324791
  19 H :    0.137030
  20 H :    0.105996
  21 H :    0.116359
  22 H :    0.101496
  23 H :    0.104581
  24 H :    0.109043
  25 H :    0.107053
  26 H :    0.128191
  27 H :    0.118112
  28 H :    0.111363
  29 H :    0.211629
  30 H :    0.181725
  31 H :    0.113152
  32 H :    0.128989
  33 H :    0.107388
  34 H :    0.115693
  35 H :    0.115977
  36 H :    0.104637
  37 H :    0.109352
  38 H :    0.121249
  39 H :    0.114980
  40 H :    0.130753
Sum of atomic charges:   -0.0000000

LOEWDIN ATOMIC CHARGES
----------------------
   0 C :   -0.352930
   1 C :   -0.115774
   2 O :   -0.236549
   3 P :    0.569759
   4 S :   -0.304368
   5 O :   -0.250684
   6 C :   -0.113362
   7 C :   -0.369737
   8 S :    0.098498
   9 C :   -0.481249
  10 S :    0.088011
  11 P :    0.563789
  12 S :   -0.310704
  13 O :   -0.235014
  14 C :   -0.126516
  15 C :   -0.363172
  16 O :   -0.243181
  17 C :   -0.122573
  18 C :   -0.371529
  19 H :    0.126978
  20 H :    0.127882
  21 H :    0.128662
  22 H :    0.106068
  23 H :    0.110756
  24 H :    0.109068
  25 H :    0.120443
  26 H :    0.129705
  27 H :    0.118083
  28 H :    0.129853
  29 H :    0.125746
  30 H :    0.136966
  31 H :    0.115758
  32 H :    0.109053
  33 H :    0.128344
  34 H :    0.120687
  35 H :    0.126455
  36 H :    0.118446
  37 H :    0.108628
  38 H :    0.125047
  39 H :    0.132219
  40 H :    0.122439

  Mayer bond orders larger than 0.100000
B(  0-C ,  1-C ) :   1.1621 B(  0-C , 19-H ) :   0.9439 B(  0-C , 20-H ) :   0.9399
B(  0-C , 21-H ) :   0.9472 B(  1-C ,  2-O ) :   0.8970 B(  1-C , 22-H ) :   0.9155
B(  1-C , 23-H ) :   0.9262 B(  2-O ,  3-P ) :   1.1446 B(  3-P ,  4-S ) :   1.6004
B(  3-P ,  5-O ) :   1.0922 B(  3-P ,  8-S ) :   0.9737 B(  4-S ,  8-S ) :   0.1254
B(  4-S , 29-H ) :   0.1093 B(  5-O ,  6-C ) :   0.9157 B(  6-C ,  7-C ) :   1.1647
B(  6-C , 24-H ) :   0.9279 B(  6-C , 25-H ) :   0.9343 B(  7-C , 26-H ) :   0.9416
B(  7-C , 27-H ) :   0.9357 B(  7-C , 28-H ) :   0.9346 B(  8-S ,  9-C ) :   0.9941
B(  9-C , 10-S ) :   1.0061 B(  9-C , 29-H ) :   0.8455 B(  9-C , 30-H ) :   0.9116
B( 10-S , 11-P ) :   0.9572 B( 10-S , 12-S ) :   0.1118 B( 11-P , 12-S ) :   1.6351
B( 11-P , 13-O ) :   1.1246 B( 11-P , 16-O ) :   1.0931 B( 13-O , 14-C ) :   0.8984
B( 14-C , 15-C ) :   1.1588 B( 14-C , 31-H ) :   0.9253 B( 14-C , 32-H ) :   0.9074
B( 15-C , 33-H ) :   0.9401 B( 15-C , 34-H ) :   0.9379 B( 15-C , 35-H ) :   0.9456
B( 16-O , 17-C ) :   0.9107 B( 17-C , 18-C ) :   1.1654 B( 17-C , 36-H ) :   0.9325
B( 17-C , 37-H ) :   0.9116 B( 18-C , 38-H ) :   0.9437 B( 18-C , 39-H ) :   0.9383
B( 18-C , 40-H ) :   0.9328

Dispersion correction           -0.067300155
FINAL SINGLE POINT ENERGY     -2929.516698450167

DIPOLE MOMENT
-------------

Method             : SCF
Type of density    : Electron Density
Multiplicity       :   1
Irrep              :   0
Energy             : -2929.6351979935002419 Eh
Relativity type    :
Basis              : AO
                                X                 Y                 Z
Electronic contribution:     -0.709709045      -9.778606284       4.350248664
Nuclear contribution   :      1.050554107       9.720106555      -4.301837492
                        -----------------------------------------
Total Dipole Moment    :      0.340845062      -0.058499729       0.048411173
                        -----------------------------------------
Magnitude (a.u.)       :      0.349200825
Magnitude (Debye)      :      0.887597959

Rotational constants in cm-1:             0.012186             0.005608             0.004895
Rotational constants in MHz :           365.312565           168.109411           146.754787

                             ****ORCA TERMINATED NORMALLY****
TOTAL RUN TIME: 0 days 0 hours 0 minutes 21 seconds 674 msec
