                         Program Version 6.0.0  -   RELEASE  -
|  1> ! pbe def2-sv(p) def2/J RI DEFGRID1 loosescf d4 GCP(DFT/SV(P)) printgap
|  2> %output
|  3>     printlevel normal
|  4> end
|  5> * xyz 0 1
|  6> C 1.0297987932 -2.7518484361 1.4520278976
|  7> C 2.1063576055 -1.7205838114 1.7254072626
|  8> O 1.7879203989 -0.4603722537 1.1017265145
|  9> P 2.4104203262 0.013151448 -0.2929346367
| 10> S 3.0115776869 -1.423530526 -1.4717412937
| 11> O 3.6336630125 0.9656358558 0.0495717659
| 12> C 3.5525277761 2.3181213066 0.5546206491
| 13> C 2.8541093327 2.3987605048 1.8959135384
| 14> S 0.9149573163 1.3342734853 -0.9861487368
| 15> C 0.0514204989 0.1620004631 -2.0624984584
| 16> S -0.7447432909 -1.1948310633 -1.1645751051
| 17> P -2.0420873631 0.0008416887 -0.0016030563
| 18> S -2.7970244667 1.6007309859 -0.855564237
| 19> O -1.1294331798 0.2364614524 1.2711333757
| 20> C -1.3146852674 1.3591546589 2.1549806427
| 21> C -2.6180260169 1.2646272566 2.9199812218
| 22> O -3.108654917 -1.0290446168 0.5707606285
| 23> C -4.3384042037 -1.3286622023 -0.1108024811
| 24> C -4.1078542966 -2.1037013407 -1.3922174733
| 25> H 0.0534805497 -2.3500773472 1.7127077291
| 26> H 1.0258357454 -3.0218194434 0.3980657186
| 27> H 1.2263138608 -3.6390966994 2.0452852663
| 28> H 3.0775225 -2.068310888 1.3605030096
| 29> H 2.1735733387 -1.4906812292 2.7903648461
| 30> H 4.5981014689 2.6227099354 0.6234387068
| 31> H 3.0364731638 2.9305925925 -0.1894531357
| 32> H 3.3517463633 1.759265944 2.6204418084
| 33> H 2.8782429353 3.4256906971 2.2466430347
| 34> H 1.8175580083 2.0826994521 1.795185255
| 35> H 0.7629324006 -0.2987626749 -2.7471556639
| 36> H -0.7001046046 0.7429651061 -2.5962433132
| 37> H -0.4510415109 1.3130508189 2.820321043
| 38> H -1.278890292 2.2779325136 1.5601502371
| 39> H -3.4571760393 1.3427516573 2.2295148033
| 40> H -2.680335291 0.3136248964 3.4424144019
| 41> H -2.6746987345 2.0776102298 3.6370053722
| 42> H -4.9057081564 -1.9118148808 0.615812675
| 43> H -4.8561286519 -0.3869062209 -0.3199291113
| 44> H -3.4962096287 -2.9813819764 -1.1985439697
| 45> H -5.0638292111 -2.4127585684 -1.8027277945
| 46> H -3.5971065468 -1.4762546324 -2.121471588
| 47> *
| 48>
| 49>                          ****END OF INPUT****

CARTESIAN COORDINATES (ANGSTROEM)
---------------------------------
  C      1.029799   -2.751848    1.452028
  C      2.106358   -1.720584    1.725407
  O      1.787920   -0.460372    1.101727
  P      2.410420    0.013151   -0.292935
  S      3.011578   -1.423531   -1.471741
  O      3.633663    0.965636    0.049572
  C      3.552528    2.318121    0.554621
  C      2.854109    2.398761    1.895914
  S      0.914957    1.334273   -0.986149
  C      0.051420    0.162000   -2.062498
  S     -0.744743   -1.194831   -1.164575
  P     -2.042087    0.000842   -0.001603
  S     -2.797024    1.600731   -0.855564
  O     -1.129433    0.236461    1.271133
  C     -1.314685    1.359155    2.154981
  C     -2.618026    1.264627    2.919981
  O     -3.108655   -1.029045    0.570761
  C     -4.338404   -1.328662   -0.110802
  C     -4.107854   -2.103701   -1.392217
  H      0.053481   -2.350077    1.712708
  H      1.025836   -3.021819    0.398066
  H      1.226314   -3.639097    2.045285
  H      3.077523   -2.068311    1.360503
  H      2.173573   -1.490681    2.790365
  H      4.598101    2.622710    0.623439
  H      3.036473    2.930593   -0.189453
  H      3.351746    1.759266    2.620442
  H      2.878243    3.425691    2.246643
  H      1.817558    2.082699    1.795185
  H      0.762932   -0.298763   -2.747156
  H     -0.700105    0.742965   -2.596243
  H     -0.451042    1.313051    2.820321
  H     -1.278890    2.277933    1.560150
  H     -3.457176    1.342752    2.229515
  H     -2.680335    0.313625    3.442414
  H     -2.674699    2.077610    3.637005
  H     -4.905708   -1.911815    0.615813
  H     -4.856129   -0.386906   -0.319929
  H     -3.496210   -2.981382   -1.198544
  H     -5.063829   -2.412759   -1.802728
  H     -3.597107   -1.476255   -2.121472

 Total Charge           Charge          ....    0
 Multiplicity           Mult            ....    1
 Number of Electrons    NEL             ....  202
 Basis Dimension        Dim             ....  334

ORBITAL ENERGIES
----------------

  NO   OCC          E(Eh)            E(eV)
   0   2.0000     -88.044486     -2395.8123
   1   2.0000     -88.043681     -2395.7904
   2   2.0000     -87.992559     -2394.3993
   3   2.0000     -87.982531     -2394.1264
   4   2.0000     -76.428954     -2079.7376
   5   2.0000     -76.423516     -2079.5896
   6   2.0000     -18.797075      -511.4944
   7   2.0000     -18.790892      -511.3262
   8   2.0000     -18.789931      -511.3000
   9   2.0000     -18.783624      -511.1284
  10   2.0000      -9.959686      -271.0168
  11   2.0000      -9.956919      -270.9415
  12   2.0000      -9.955265      -270.8965
  13   2.0000      -9.952720      -270.8273
  14   2.0000      -9.947163      -270.6761
  15   2.0000      -9.892562      -269.1903
  16   2.0000      -9.885979      -269.0112
  17   2.0000      -9.885558      -268.9997
  18   2.0000      -9.872402      -268.6417
  19   2.0000      -7.689447      -209.2405
  20   2.0000      -7.688493      -209.2145
  21   2.0000      -7.637405      -207.8244
  22   2.0000      -7.627845      -207.5642
  23   2.0000      -6.426379      -174.8707
  24   2.0000      -6.421251      -174.7311
  25   2.0000      -5.717295      -155.5755
  26   2.0000      -5.716399      -155.5511
  27   2.0000      -5.714054      -155.4873
  28   2.0000      -5.713117      -155.4618
  29   2.0000      -5.706322      -155.2769
  30   2.0000      -5.705284      -155.2487
  31   2.0000      -5.666196      -154.1850
  32   2.0000      -5.658041      -153.9631
  33   2.0000      -5.657727      -153.9546
  34   2.0000      -5.656922      -153.9327
  35   2.0000      -5.648759      -153.7106
  36   2.0000      -5.647487      -153.6759
  37   2.0000      -4.648763      -126.4993
  38   2.0000      -4.648125      -126.4819
  39   2.0000      -4.647035      -126.4522
  40   2.0000      -4.644048      -126.3710
  41   2.0000      -4.642789      -126.3367
  42   2.0000      -4.641749      -126.3084
  43   2.0000      -0.989365       -26.9220
  44   2.0000      -0.979254       -26.6469
  45   2.0000      -0.948055       -25.7979
  46   2.0000      -0.939819       -25.5738
  47   2.0000      -0.767337       -20.8803
  48   2.0000      -0.722121       -19.6499
  49   2.0000      -0.710293       -19.3281
  50   2.0000      -0.690491       -18.7892
  51   2.0000      -0.687941       -18.7198
  52   2.0000      -0.673463       -18.3259
  53   2.0000      -0.651810       -17.7366
  54   2.0000      -0.640492       -17.4287
  55   2.0000      -0.604381       -16.4460
  56   2.0000      -0.590765       -16.0755
  57   2.0000      -0.577766       -15.7218
  58   2.0000      -0.574016       -15.6198
  59   2.0000      -0.558302       -15.1922
  60   2.0000      -0.499468       -13.5912
  61   2.0000      -0.493194       -13.4205
  62   2.0000      -0.475742       -12.9456
  63   2.0000      -0.474256       -12.9051
  64   2.0000      -0.458515       -12.4768
  65   2.0000      -0.447084       -12.1658
  66   2.0000      -0.442445       -12.0395
  67   2.0000      -0.436335       -11.8733
  68   2.0000      -0.428788       -11.6679
  69   2.0000      -0.414644       -11.2830
  70   2.0000      -0.406097       -11.0505
  71   2.0000      -0.397413       -10.8142
  72   2.0000      -0.395664       -10.7666
  73   2.0000      -0.389545       -10.6001
  74   2.0000      -0.382807       -10.4167
  75   2.0000      -0.374128       -10.1805
  76   2.0000      -0.366663        -9.9774
  77   2.0000      -0.358464        -9.7543
  78   2.0000      -0.355298        -9.6682
  79   2.0000      -0.353147        -9.6096
  80   2.0000      -0.349074        -9.4988
  81   2.0000      -0.345926        -9.4131
  82   2.0000      -0.345006        -9.3881
  83   2.0000      -0.339041        -9.2258
  84   2.0000      -0.335112        -9.1189
  85   2.0000      -0.320468        -8.7204
  86   2.0000      -0.308484        -8.3943
  87   2.0000      -0.301341        -8.1999
  88   2.0000      -0.298013        -8.1093
  89   2.0000      -0.285755        -7.7758
  90   2.0000      -0.277892        -7.5618
  91   2.0000      -0.277876        -7.5614
  92   2.0000      -0.272541        -7.4162
  93   2.0000      -0.266897        -7.2626
  94   2.0000      -0.257808        -7.0153
  95   2.0000      -0.230572        -6.2742
  96   2.0000      -0.218198        -5.9375
  97   2.0000      -0.215477        -5.8634
  98   2.0000      -0.208687        -5.6786
  99   2.0000      -0.200950        -5.4681
 100   2.0000      -0.195229        -5.3124
 101   0.0000      -0.047085        -1.2812
 102   0.0000      -0.026279        -0.7151
 103   0.0000      -0.002288        -0.0623
 104   0.0000       0.002900         0.0789
 105   0.0000       0.008098         0.2204

MULLIKEN ATOMIC CHARGES
-----------------------
   0 C :   -0.293965
   1 C :   -0.008495
   2 O :   -0.376720
   3 P :    0.620038
   4 S :   -0.319669
   5 O :   -0.370101
   6 C :   -0.016609
   7 C :   -0.334388
   8 S :   -0.103911
   9 C :   -0.346620
  10 S :   -0.065458
  11 P :    0.617575
  12 S :   -0.336548
  13 O :   -0.355475
  14 C :   -0.024892
  15 C :   -0.293504
  16 O :   -0.373569
  17 C :   -0.005815
  18 C :   -0.315027
  19 H :    0.116560
  20 H :    0.129332
  21 H :    0.101338
  22 H :    0.105396
  23 H :    0.095729
  24 H :    0.114829
  25 H :    0.119093
  26 H :    0.118597
  27 H :    0.114511
  28 H :    0.148454
  29 H :    0.194197
  30 H :    0.190245
  31 H :    0.116247
  32 H :    0.112619
  33 H :    0.121889
  34 H :    0.115150
  35 H :    0.110693
  36 H :    0.106425
  37 H :    0.111032
  38 H :    0.119779
  39 H :    0.114337
  40 H :    0.126701
Sum of atomic charges:   -0.0000000

LOEWDIN ATOMIC CHARGES
----------------------
   0 C :   -0.365776
   1 C :   -0.114746
   2 O :   -0.250215
   3 P :    0.570863
   4 S :   -0.314973
   5 O :   -0.247623
   6 C :   -0.116240
   7 C :   -0.369180
   8 S :    0.088508
   9 C :   -0.477703
  10 S :    0.114516
  11 P :    0.572858
  12 S :   -0.326913
  13 O :   -0.230648
  14 C :   -0.119470
  15 C :   -0.365069
  16 O :   -0.243409
  17 C :   -0.119346
  18 C :   -0.369197
  19 H :    0.120867
  20 H :    0.121113
  21 H :    0.124965
  22 H :    0.108494
  23 H :    0.113110
  24 H :    0.124298
  25 H :    0.109720
  26 H :    0.127801
  27 H :    0.131757
  28 H :    0.123258
  29 H :    0.133187
  30 H :    0.131216
  31 H :    0.117678
  32 H :    0.110094
  33 H :    0.122064
  34 H :    0.126030
  35 H :    0.130053
  36 H :    0.119271
  37 H :    0.110497
  38 H :    0.125374
  39 H :    0.131678
  40 H :    0.121240

  Mayer bond orders larger than 0.100000
B(  0-C ,  1-C ) :   1.1732 B(  0-C , 19-H ) :   0.9417 B(  0-C , 20-H ) :   0.9355
B(  0-C , 21-H ) :   0.9382 B(  1-C ,  2-O ) :   0.9031 B(  1-C , 22-H ) :   0.9136
B(  1-C , 23-H ) :   0.9335 B(  2-O ,  3-P ) :   1.0898 B(  3-P ,  4-S ) :   1.6234
B(  3-P ,  5-O ) :   1.1201 B(  3-P ,  8-S ) :   0.9518 B(  4-S ,  8-S ) :   0.1003
B(  5-O ,  6-C ) :   0.9138 B(  6-C ,  7-C ) :   1.1628 B(  6-C , 24-H ) :   0.9347
B(  6-C , 25-H ) :   0.9183 B(  7-C , 26-H ) :   0.9452 B(  7-C , 27-H ) :   0.9356
B(  7-C , 28-H ) :   0.9299 B(  8-S ,  9-C ) :   1.0123 B(  9-C , 10-S ) :   1.0062
B(  9-C , 29-H ) :   0.8827 B(  9-C , 30-H ) :   0.8864 B( 10-S , 11-P ) :   0.9611
B( 10-S , 12-S ) :   0.1078 B( 11-P , 12-S ) :   1.5805 B( 11-P , 13-O ) :   1.1190
B( 11-P , 16-O ) :   1.1062 B( 13-O , 14-C ) :   0.9072 B( 14-C , 15-C ) :   1.1607
B( 14-C , 31-H ) :   0.9248 B( 14-C , 32-H ) :   0.9175 B( 15-C , 33-H ) :   0.9337
B( 15-C , 34-H ) :   0.9453 B( 15-C , 35-H ) :   0.9392 B( 16-O , 17-C ) :   0.9086
B( 17-C , 18-C ) :   1.1664 B( 17-C , 36-H ) :   0.9338 B( 17-C , 37-H ) :   0.9162
B( 18-C , 38-H ) :   0.9445 B( 18-C , 39-H ) :   0.9377 B( 18-C , 40-H ) :   0.9359

Dispersion correction           -0.068275936
FINAL SINGLE POINT ENERGY     -2929.522368205535

DIPOLE MOMENT
-------------

Method             : SCF
Type of density    : Electron Density
Multiplicity       :   1
Irrep              :   0
Energy             : -2929.6400858528922981 Eh
Relativity type    :
Basis              : AO
                                X                 Y                 Z
Electronic contribution:      8.342065083       1.409825495     -16.782428216
Nuclear contribution   :     -8.915853713      -1.103856011      18.189523085
                        -----------------------------------------
Total Dipole Moment    :     -0.573788629       0.305969483       1.407094869
                        -----------------------------------------
Magnitude (a.u.)       :      1.550086026
Magnitude (Debye)      :      3.940005560

Rotational constants in cm-1:             0.011929             0.005707             0.005199
Rotational constants in MHz :           357.629732           171.076697           155.852867

                             ****ORCA TERMINATED NORMALLY****
TOTAL RUN TIME: 0 days 0 hours 0 minutes 22 seconds 30 msec
