                         Program Version 6.0.0  -   RELEASE  -
|  1> ! pbe def2-sv(p) def2/J RI DEFGRID1 loosescf d4 GCP(DFT/SV(P)) printgap
|  2> %output
|  3>     printlevel normal
|  4> end
|  5> * xyz 0 1
|  6> C 3.9979111341 -1.998027303 -2.0473404063
|  7> C 4.5130357707 -1.5915857108 -0.6822618679
|  8> O 3.4497504409 -1.2577485724 0.2299601441
|  9> P 2.4964525338 -0.0051943326 0.0144148022
| 10> S 3.3446301767 1.6234351303 -0.6505446436
| 11> O 1.8655677882 0.1892052861 1.4462811989
| 12> C 1.3042225788 -0.9034754217 2.2146042549
| 13> C 2.2526328237 -1.3031674872 3.3256368768
| 14> S 0.9062987163 -0.7884616621 -1.1843074177
| 15> C 0.2329021409 0.8160866287 -1.6710702679
| 16> S -0.4600699906 1.7463707399 -0.2732556234
| 17> P -2.2477726134 0.6240840546 -0.1053936203
| 18> S -3.1707225253 0.1883473602 -1.7780713233
| 19> O -2.9645112712 1.6233211923 0.8883519631
| 20> C -4.3988031604 1.7575758326 0.9777214728
| 21> C -4.9978263069 0.7122867308 1.8960283434
| 22> O -1.8845630149 -0.6295038493 0.8097907229
| 23> C -1.9349731276 -2.0012826208 0.3662105995
| 24> C -3.2788524807 -2.6251815383 0.6845492751
| 25> H 3.2456370166 -2.7772079429 -1.953876326
| 26> H 3.5546344428 -1.1396273869 -2.5496557434
| 27> H 4.8253708994 -2.3647476611 -2.6461804522
| 28> H 5.1785458729 -0.7271104853 -0.764053936
| 29> H 5.029963623 -2.4142486027 -0.1861980476
| 30> H 0.3612362474 -0.51637925 2.6078227128
| 31> H 1.1090542583 -1.7435061039 1.5422126544
| 32> H 2.4753571492 -0.4430044378 3.9508689741
| 33> H 1.7884741847 -2.0764498209 3.929666719
| 34> H 3.1810749767 -1.6817171486 2.9061256124
| 35> H -0.5460245795 0.6288809003 -2.4107748099
| 36> H 1.0335799704 1.4295846688 -2.0839140839
| 37> H -4.5479276328 2.7666382835 1.365436112
| 38> H -4.8204834238 1.6835913677 -0.0302880096
| 39> H -6.056321238 0.9155955607 2.025318692
| 40> H -4.8764631105 -0.2784968575 1.46485326
| 41> H -4.5045449102 0.7401012087 2.8638277411
| 42> H -1.7359557538 -2.0435116954 -0.7081355322
| 43> H -1.1282314529 -2.4981415861 0.906342789
| 44> H -3.5057196694 -2.5152806778 1.7414269327
| 45> H -4.0596144593 -2.1500005661 0.0938700109
| 46> H -3.2457469642 -3.6802956082 0.4326665867
| 47> *
| 48>
| 49>                          ****END OF INPUT****

CARTESIAN COORDINATES (ANGSTROEM)
---------------------------------
  C      3.997911   -1.998027   -2.047340
  C      4.513036   -1.591586   -0.682262
  O      3.449750   -1.257749    0.229960
  P      2.496453   -0.005194    0.014415
  S      3.344630    1.623435   -0.650545
  O      1.865568    0.189205    1.446281
  C      1.304223   -0.903475    2.214604
  C      2.252633   -1.303167    3.325637
  S      0.906299   -0.788462   -1.184307
  C      0.232902    0.816087   -1.671070
  S     -0.460070    1.746371   -0.273256
  P     -2.247773    0.624084   -0.105394
  S     -3.170723    0.188347   -1.778071
  O     -2.964511    1.623321    0.888352
  C     -4.398803    1.757576    0.977721
  C     -4.997826    0.712287    1.896028
  O     -1.884563   -0.629504    0.809791
  C     -1.934973   -2.001283    0.366211
  C     -3.278852   -2.625182    0.684549
  H      3.245637   -2.777208   -1.953876
  H      3.554634   -1.139627   -2.549656
  H      4.825371   -2.364748   -2.646180
  H      5.178546   -0.727110   -0.764054
  H      5.029964   -2.414249   -0.186198
  H      0.361236   -0.516379    2.607823
  H      1.109054   -1.743506    1.542213
  H      2.475357   -0.443004    3.950869
  H      1.788474   -2.076450    3.929667
  H      3.181075   -1.681717    2.906126
  H     -0.546025    0.628881   -2.410775
  H      1.033580    1.429585   -2.083914
  H     -4.547928    2.766638    1.365436
  H     -4.820483    1.683591   -0.030288
  H     -6.056321    0.915596    2.025319
  H     -4.876463   -0.278497    1.464853
  H     -4.504545    0.740101    2.863828
  H     -1.735956   -2.043512   -0.708136
  H     -1.128231   -2.498142    0.906343
  H     -3.505720   -2.515281    1.741427
  H     -4.059614   -2.150001    0.093870
  H     -3.245747   -3.680296    0.432667

 Total Charge           Charge          ....    0
 Multiplicity           Mult            ....    1
 Number of Electrons    NEL             ....  202
 Basis Dimension        Dim             ....  334

ORBITAL ENERGIES
----------------

  NO   OCC          E(Eh)            E(eV)
   0   2.0000     -88.041781     -2395.7386
   1   2.0000     -88.035749     -2395.5745
   2   2.0000     -87.993421     -2394.4227
   3   2.0000     -87.988240     -2394.2817
   4   2.0000     -76.427911     -2079.7092
   5   2.0000     -76.427899     -2079.7089
   6   2.0000     -18.799188      -511.5519
   7   2.0000     -18.795033      -511.4389
   8   2.0000     -18.793435      -511.3954
   9   2.0000     -18.789923      -511.2998
  10   2.0000      -9.957461      -270.9563
  11   2.0000      -9.956923      -270.9416
  12   2.0000      -9.954899      -270.8866
  13   2.0000      -9.954637      -270.8795
  14   2.0000      -9.950425      -270.7648
  15   2.0000      -9.890605      -269.1371
  16   2.0000      -9.887688      -269.0577
  17   2.0000      -9.886939      -269.0373
  18   2.0000      -9.886907      -269.0364
  19   2.0000      -7.686463      -209.1593
  20   2.0000      -7.681100      -209.0133
  21   2.0000      -7.638348      -207.8500
  22   2.0000      -7.633527      -207.7188
  23   2.0000      -6.425728      -174.8529
  24   2.0000      -6.425336      -174.8423
  25   2.0000      -5.714149      -155.4899
  26   2.0000      -5.711096      -155.4068
  27   2.0000      -5.708986      -155.3494
  28   2.0000      -5.705914      -155.2658
  29   2.0000      -5.703557      -155.2017
  30   2.0000      -5.697707      -155.0425
  31   2.0000      -5.667071      -154.2088
  32   2.0000      -5.662504      -154.0846
  33   2.0000      -5.659394      -153.9999
  34   2.0000      -5.658279      -153.9696
  35   2.0000      -5.654013      -153.8535
  36   2.0000      -5.653725      -153.8457
  37   2.0000      -4.648294      -126.4865
  38   2.0000      -4.648170      -126.4831
  39   2.0000      -4.647367      -126.4613
  40   2.0000      -4.646971      -126.4505
  41   2.0000      -4.646350      -126.4336
  42   2.0000      -4.645590      -126.4129
  43   2.0000      -0.990971       -26.9657
  44   2.0000      -0.987305       -26.8659
  45   2.0000      -0.948025       -25.7971
  46   2.0000      -0.946850       -25.7651
  47   2.0000      -0.762471       -20.7479
  48   2.0000      -0.724390       -19.7117
  49   2.0000      -0.711751       -19.3677
  50   2.0000      -0.692748       -18.8506
  51   2.0000      -0.691125       -18.8065
  52   2.0000      -0.674800       -18.3622
  53   2.0000      -0.653826       -17.7915
  54   2.0000      -0.639505       -17.4018
  55   2.0000      -0.605427       -16.4745
  56   2.0000      -0.595133       -16.1944
  57   2.0000      -0.575926       -15.6717
  58   2.0000      -0.572889       -15.5891
  59   2.0000      -0.559078       -15.2133
  60   2.0000      -0.506050       -13.7703
  61   2.0000      -0.498346       -13.5607
  62   2.0000      -0.481563       -13.1040
  63   2.0000      -0.477287       -12.9876
  64   2.0000      -0.458044       -12.4640
  65   2.0000      -0.450389       -12.2557
  66   2.0000      -0.441565       -12.0156
  67   2.0000      -0.436611       -11.8808
  68   2.0000      -0.428787       -11.6679
  69   2.0000      -0.420350       -11.4383
  70   2.0000      -0.405858       -11.0440
  71   2.0000      -0.397381       -10.8133
  72   2.0000      -0.394410       -10.7324
  73   2.0000      -0.385642       -10.4939
  74   2.0000      -0.380365       -10.3502
  75   2.0000      -0.377337       -10.2679
  76   2.0000      -0.369895       -10.0653
  77   2.0000      -0.364219        -9.9109
  78   2.0000      -0.360695        -9.8150
  79   2.0000      -0.356361        -9.6971
  80   2.0000      -0.352718        -9.5979
  81   2.0000      -0.346852        -9.4383
  82   2.0000      -0.344141        -9.3646
  83   2.0000      -0.341339        -9.2883
  84   2.0000      -0.336595        -9.1592
  85   2.0000      -0.326121        -8.8742
  86   2.0000      -0.312232        -8.4963
  87   2.0000      -0.301879        -8.2145
  88   2.0000      -0.297630        -8.0989
  89   2.0000      -0.295470        -8.0401
  90   2.0000      -0.286345        -7.7919
  91   2.0000      -0.278892        -7.5890
  92   2.0000      -0.272165        -7.4060
  93   2.0000      -0.266551        -7.2532
  94   2.0000      -0.259759        -7.0684
  95   2.0000      -0.232408        -6.3242
  96   2.0000      -0.218730        -5.9519
  97   2.0000      -0.217494        -5.9183
  98   2.0000      -0.207927        -5.6580
  99   2.0000      -0.203412        -5.5351
 100   2.0000      -0.198725        -5.4076
 101   0.0000      -0.046546        -1.2666
 102   0.0000      -0.023880        -0.6498
 103   0.0000      -0.003174        -0.0864
 104   0.0000       0.006250         0.1701
 105   0.0000       0.010904         0.2967

MULLIKEN ATOMIC CHARGES
-----------------------
   0 C :   -0.317531
   1 C :   -0.000217
   2 O :   -0.383065
   3 P :    0.599966
   4 S :   -0.306423
   5 O :   -0.345659
   6 C :   -0.028387
   7 C :   -0.280329
   8 S :   -0.107673
   9 C :   -0.378507
  10 S :   -0.052135
  11 P :    0.631409
  12 S :   -0.337720
  13 O :   -0.375600
  14 C :   -0.006742
  15 C :   -0.316120
  16 O :   -0.375475
  17 C :   -0.018606
  18 C :   -0.293649
  19 H :    0.116583
  20 H :    0.130484
  21 H :    0.115131
  22 H :    0.114495
  23 H :    0.105274
  24 H :    0.118859
  25 H :    0.106916
  26 H :    0.121832
  27 H :    0.106898
  28 H :    0.115711
  29 H :    0.189632
  30 H :    0.195293
  31 H :    0.110084
  32 H :    0.113939
  33 H :    0.113982
  34 H :    0.128043
  35 H :    0.119073
  36 H :    0.109201
  37 H :    0.103554
  38 H :    0.116561
  39 H :    0.131043
  40 H :    0.109871
Sum of atomic charges:   -0.0000000

LOEWDIN ATOMIC CHARGES
----------------------
   0 C :   -0.371002
   1 C :   -0.115388
   2 O :   -0.248562
   3 P :    0.572447
   4 S :   -0.303666
   5 O :   -0.230931
   6 C :   -0.115586
   7 C :   -0.356150
   8 S :    0.071773
   9 C :   -0.489124
  10 S :    0.100880
  11 P :    0.574432
  12 S :   -0.318763
  13 O :   -0.244278
  14 C :   -0.113405
  15 C :   -0.361714
  16 O :   -0.248714
  17 C :   -0.122595
  18 C :   -0.363106
  19 H :    0.122868
  20 H :    0.122578
  21 H :    0.132139
  22 H :    0.114269
  23 H :    0.118610
  24 H :    0.121061
  25 H :    0.101495
  26 H :    0.129797
  27 H :    0.128132
  28 H :    0.125289
  29 H :    0.127613
  30 H :    0.130032
  31 H :    0.121034
  32 H :    0.110780
  33 H :    0.132036
  34 H :    0.125272
  35 H :    0.128041
  36 H :    0.103328
  37 H :    0.111442
  38 H :    0.123888
  39 H :    0.122971
  40 H :    0.130779

  Mayer bond orders larger than 0.100000
B(  0-C ,  1-C ) :   1.1668 B(  0-C , 19-H ) :   0.9435 B(  0-C , 20-H ) :   0.9345
B(  0-C , 21-H ) :   0.9365 B(  1-C ,  2-O ) :   0.9038 B(  1-C , 22-H ) :   0.9192
B(  1-C , 23-H ) :   0.9343 B(  2-O ,  3-P ) :   1.0803 B(  3-P ,  4-S ) :   1.6412
B(  3-P ,  5-O ) :   1.1436 B(  3-P ,  8-S ) :   0.9400 B(  4-S ,  8-S ) :   0.1080
B(  5-O ,  6-C ) :   0.8912 B(  6-C ,  7-C ) :   1.1586 B(  6-C , 24-H ) :   0.9299
B(  6-C , 25-H ) :   0.9055 B(  7-C , 26-H ) :   0.9471 B(  7-C , 27-H ) :   0.9408
B(  7-C , 28-H ) :   0.9444 B(  8-S ,  9-C ) :   0.9949 B(  9-C , 10-S ) :   1.0123
B(  9-C , 29-H ) :   0.8747 B(  9-C , 30-H ) :   0.8785 B( 10-S , 11-P ) :   0.9666
B( 10-S , 12-S ) :   0.1030 B( 11-P , 12-S ) :   1.5876 B( 11-P , 13-O ) :   1.1338
B( 11-P , 16-O ) :   1.0944 B( 13-O , 14-C ) :   0.9070 B( 14-C , 15-C ) :   1.1610
B( 14-C , 31-H ) :   0.9352 B( 14-C , 32-H ) :   0.9125 B( 15-C , 33-H ) :   0.9382
B( 15-C , 34-H ) :   0.9357 B( 15-C , 35-H ) :   0.9466 B( 16-O , 17-C ) :   0.9009
B( 17-C , 18-C ) :   1.1708 B( 17-C , 36-H ) :   0.9062 B( 17-C , 37-H ) :   0.9264
B( 18-C , 38-H ) :   0.9413 B( 18-C , 39-H ) :   0.9263 B( 18-C , 40-H ) :   0.9365

Dispersion correction           -0.065382250
FINAL SINGLE POINT ENERGY     -2929.523556499787

DIPOLE MOMENT
-------------

Method             : SCF
Type of density    : Electron Density
Multiplicity       :   1
Irrep              :   0
Energy             : -2929.6431444461459250 Eh
Relativity type    :
Basis              : AO
                                X                 Y                 Z
Electronic contribution:      6.637596775      18.575721908     -11.060059329
Nuclear contribution   :     -7.029457485     -20.228294113      11.968431925
                        -----------------------------------------
Total Dipole Moment    :     -0.391860710      -1.652572205       0.908372596
                        -----------------------------------------
Magnitude (a.u.)       :      1.926055680
Magnitude (Debye)      :      4.895644475

Rotational constants in cm-1:             0.013298             0.004632             0.004451
Rotational constants in MHz :           398.653246           138.876338           133.429474

                             ****ORCA TERMINATED NORMALLY****
TOTAL RUN TIME: 0 days 0 hours 0 minutes 21 seconds 453 msec
