                         Program Version 6.0.1  -  RELEASE   -
|  1> ! r2scan-3c def2/J RI DEFGRID2 scfconv6 printgap
|  2> %output
|  3>     printlevel normal
|  4> end
|  5> * xyz 0 1
|  6> C 5.2378219507 -2.37288711 -1.0151898897
|  7> C 3.9141598805 -3.0732845207 -1.2770625693
|  8> O 2.9883324597 -2.189023964 -1.940331056
|  9> C 2.249556758 -1.3878755949 -1.2053421329
| 10> O 2.2541620186 -1.3599643687 0.0086867884
| 11> C 1.3802768439 -0.4845629245 -2.05442913
| 12> C 0.3862271239 0.2473956947 -1.16359354
| 13> H -0.1177947422 1.0463560626 -1.7182097881
| 14> C 1.1197920158 0.8919530012 0.0016989884
| 15> O 2.1326409053 1.5351262168 -0.1564981232
| 16> O 0.5032747844 0.7194397973 1.152646189
| 17> C 1.0882031265 1.3040999738 2.3323155469
| 18> C 0.5812936468 2.7194766699 2.548575759
| 19> S -0.9020492492 -0.9046497518 -0.5819875916
| 20> P -2.1791611809 0.5153444753 0.3520597712
| 21> S -2.0148613561 2.3690019227 -0.253773497
| 22> O -3.6223908892 -0.1316836426 0.0873397465
| 23> C -4.1847687836 -0.1745642545 -1.2285291246
| 24> O -2.1038102693 0.3615822641 1.9221902372
| 25> C -2.2080866429 -0.9185942379 2.5739625985
| 26> H 5.9314289235 -3.0722893371 -0.5604178597
| 27> H 5.6578660926 -2.004506194 -1.9469548492
| 28> H 5.0888461175 -1.5329612038 -0.3395701135
| 29> H 3.4622341667 -3.4120831176 -0.3406604202
| 30> H 4.0341654768 -3.9076024337 -1.9678832797
| 31> H 0.874305032 -1.0711715168 -2.8202954448
| 32> H 2.0339309936 0.2429749021 -2.5408025044
| 33> H 0.7848412954 0.6427548956 3.1442295436
| 34> H 2.1747204798 1.2875659656 2.2101365403
| 35> H 0.890547668 3.3594683687 1.724852859
| 36> H -0.505320874 2.7227430015 2.6003037228
| 37> H 0.9880196135 3.109248492 3.4755043196
| 38> H -3.6466730459 -0.9007410451 -1.8374664968
| 39> H -4.1325651759 0.8126390511 -1.6903502097
| 40> H -5.2202423411 -0.4765486677 -1.0942431299
| 41> H -3.1545969059 -1.3918357801 2.3200196782
| 42> H -2.1586917341 -0.7006386758 3.6376522468
| 43> H -1.3767302096 -1.5553266737 2.2708691499
| 44> *
| 45>
| 46>                          ****END OF INPUT****

CARTESIAN COORDINATES (ANGSTROEM)
---------------------------------
  C      5.237822   -2.372887   -1.015190
  C      3.914160   -3.073285   -1.277063
  O      2.988332   -2.189024   -1.940331
  C      2.249557   -1.387876   -1.205342
  O      2.254162   -1.359964    0.008687
  C      1.380277   -0.484563   -2.054429
  C      0.386227    0.247396   -1.163594
  H     -0.117795    1.046356   -1.718210
  C      1.119792    0.891953    0.001699
  O      2.132641    1.535126   -0.156498
  O      0.503275    0.719440    1.152646
  C      1.088203    1.304100    2.332316
  C      0.581294    2.719477    2.548576
  S     -0.902049   -0.904650   -0.581988
  P     -2.179161    0.515344    0.352060
  S     -2.014861    2.369002   -0.253773
  O     -3.622391   -0.131684    0.087340
  C     -4.184769   -0.174564   -1.228529
  O     -2.103810    0.361582    1.922190
  C     -2.208087   -0.918594    2.573963
  H      5.931429   -3.072289   -0.560418
  H      5.657866   -2.004506   -1.946955
  H      5.088846   -1.532961   -0.339570
  H      3.462234   -3.412083   -0.340660
  H      4.034165   -3.907602   -1.967883
  H      0.874305   -1.071172   -2.820295
  H      2.033931    0.242975   -2.540803
  H      0.784841    0.642755    3.144230
  H      2.174720    1.287566    2.210137
  H      0.890548    3.359468    1.724853
  H     -0.505321    2.722743    2.600304
  H      0.988020    3.109248    3.475504
  H     -3.646673   -0.900741   -1.837466
  H     -4.132565    0.812639   -1.690350
  H     -5.220242   -0.476549   -1.094243
  H     -3.154597   -1.391836    2.320020
  H     -2.158692   -0.700639    3.637652
  H     -1.376730   -1.555327    2.270869

 Total Charge           Charge          ....    0
 Multiplicity           Mult            ....    1
 Number of Electrons    NEL             ....  174
 Basis Dimension        Dim             ....  510

ORBITAL ENERGIES
----------------

  NO   OCC          E(Eh)            E(eV)
   0   2.0000     -88.571688     -2410.1582
   1   2.0000     -88.516046     -2408.6441
   2   2.0000     -76.912138     -2092.8857
   3   2.0000     -19.009513      -517.2751
   4   2.0000     -18.992769      -516.8195
   5   2.0000     -18.990638      -516.7615
   6   2.0000     -18.988892      -516.7140
   7   2.0000     -18.942327      -515.4469
   8   2.0000     -18.924353      -514.9578
   9   2.0000     -10.166859      -276.6543
  10   2.0000     -10.154551      -276.3194
  11   2.0000     -10.100026      -274.8357
  12   2.0000     -10.096650      -274.7438
  13   2.0000     -10.091120      -274.5933
  14   2.0000     -10.089883      -274.5597
  15   2.0000     -10.083205      -274.3780
  16   2.0000     -10.065605      -273.8990
  17   2.0000     -10.033854      -273.0351
  18   2.0000     -10.013668      -272.4858
  19   2.0000      -7.865987      -214.0444
  20   2.0000      -7.810822      -212.5433
  21   2.0000      -6.590307      -179.3314
  22   2.0000      -5.812780      -158.1738
  23   2.0000      -5.809973      -158.0974
  24   2.0000      -5.803066      -157.9095
  25   2.0000      -5.758702      -156.7022
  26   2.0000      -5.751018      -156.4932
  27   2.0000      -5.750680      -156.4839
  28   2.0000      -4.735997      -128.8730
  29   2.0000      -4.735365      -128.8558
  30   2.0000      -4.733815      -128.8136
  31   2.0000      -1.086989       -29.5785
  32   2.0000      -1.070242       -29.1228
  33   2.0000      -1.049075       -28.5468
  34   2.0000      -1.006964       -27.4009
  35   2.0000      -0.991778       -26.9876
  36   2.0000      -0.974992       -26.5309
  37   2.0000      -0.809289       -22.0219
  38   2.0000      -0.758831       -20.6488
  39   2.0000      -0.733544       -19.9608
  40   2.0000      -0.731758       -19.9122
  41   2.0000      -0.697650       -18.9840
  42   2.0000      -0.674769       -18.3614
  43   2.0000      -0.657173       -17.8826
  44   2.0000      -0.646440       -17.5905
  45   2.0000      -0.630058       -17.1448
  46   2.0000      -0.593120       -16.1396
  47   2.0000      -0.539588       -14.6829
  48   2.0000      -0.533019       -14.5042
  49   2.0000      -0.520055       -14.1514
  50   2.0000      -0.501461       -13.6454
  51   2.0000      -0.491920       -13.3858
  52   2.0000      -0.483690       -13.1619
  53   2.0000      -0.465213       -12.6591
  54   2.0000      -0.456933       -12.4338
  55   2.0000      -0.450892       -12.2694
  56   2.0000      -0.448315       -12.1993
  57   2.0000      -0.438491       -11.9320
  58   2.0000      -0.434557       -11.8249
  59   2.0000      -0.429640       -11.6911
  60   2.0000      -0.417940       -11.3727
  61   2.0000      -0.416529       -11.3343
  62   2.0000      -0.413084       -11.2406
  63   2.0000      -0.400751       -10.9050
  64   2.0000      -0.392476       -10.6798
  65   2.0000      -0.381862       -10.3910
  66   2.0000      -0.373491       -10.1632
  67   2.0000      -0.364340        -9.9142
  68   2.0000      -0.358064        -9.7434
  69   2.0000      -0.351267        -9.5585
  70   2.0000      -0.346794        -9.4367
  71   2.0000      -0.337188        -9.1754
  72   2.0000      -0.334099        -9.0913
  73   2.0000      -0.330011        -8.9801
  74   2.0000      -0.321653        -8.7526
  75   2.0000      -0.316540        -8.6135
  76   2.0000      -0.313580        -8.5329
  77   2.0000      -0.301401        -8.2016
  78   2.0000      -0.284566        -7.7434
  79   2.0000      -0.283884        -7.7249
  80   2.0000      -0.274930        -7.4812
  81   2.0000      -0.264957        -7.2098
  82   2.0000      -0.255828        -6.9614
  83   2.0000      -0.248583        -6.7643
  84   2.0000      -0.221814        -6.0359
  85   2.0000      -0.215122        -5.8538
  86   2.0000      -0.210843        -5.7373
  87   0.0000      -0.041191        -1.1209
  88   0.0000      -0.023175        -0.6306
  89   0.0000      -0.009258        -0.2519
  90   0.0000       0.008151         0.2218
  91   0.0000       0.017790         0.4841

MULLIKEN ATOMIC CHARGES
-----------------------
   0 C :   -0.463874
   1 C :   -0.136894
   2 O :   -0.162909
   3 C :    0.406188
   4 O :   -0.389881
   5 C :   -0.479997
   6 C :    0.039763
   7 H :    0.247021
   8 C :    0.227322
   9 O :   -0.384219
  10 O :   -0.118802
  11 C :   -0.127590
  12 C :   -0.482081
  13 S :   -0.226929
  14 P :    0.781018
  15 S :   -0.444768
  16 O :   -0.348083
  17 C :   -0.297462
  18 O :   -0.310738
  19 C :   -0.302226
  20 H :    0.148667
  21 H :    0.153524
  22 H :    0.175658
  23 H :    0.167600
  24 H :    0.150588
  25 H :    0.191455
  26 H :    0.201146
  27 H :    0.142039
  28 H :    0.171053
  29 H :    0.172076
  30 H :    0.172964
  31 H :    0.142662
  32 H :    0.157985
  33 H :    0.174594
  34 H :    0.151021
  35 H :    0.168149
  36 H :    0.155959
  37 H :    0.178000
Sum of atomic charges:   -0.0000000

LOEWDIN ATOMIC CHARGES
----------------------
   0 C :   -0.387210
   1 C :    0.031388
   2 O :   -0.574104
   3 C :    0.369049
   4 O :   -0.427227
   5 C :   -0.206809
   6 C :   -0.198052
   7 H :    0.208590
   8 C :    0.349964
   9 O :   -0.420479
  10 O :   -0.620424
  11 C :    0.036661
  12 C :   -0.392382
  13 S :    0.210499
  14 P :    0.398111
  15 S :   -0.086799
  16 O :   -0.687381
  17 C :   -0.061762
  18 O :   -0.649716
  19 C :   -0.052846
  20 H :    0.160114
  21 H :    0.158428
  22 H :    0.167588
  23 H :    0.188505
  24 H :    0.179235
  25 H :    0.190238
  26 H :    0.205275
  27 H :    0.177970
  28 H :    0.192935
  29 H :    0.167018
  30 H :    0.166325
  31 H :    0.155409
  32 H :    0.168534
  33 H :    0.176375
  34 H :    0.176537
  35 H :    0.174448
  36 H :    0.179903
  37 H :    0.176095

  Mayer bond orders larger than 0.100000
B(  0-C ,  1-C ) :   0.9441 B(  0-C , 20-H ) :   0.9644 B(  0-C , 21-H ) :   0.9721
B(  0-C , 22-H ) :   0.9684 B(  1-C ,  2-O ) :   0.8001 B(  1-C , 23-H ) :   0.9668
B(  1-C , 24-H ) :   0.9615 B(  2-O ,  3-C ) :   1.1311 B(  3-C ,  4-O ) :   1.7985
B(  3-C ,  5-C ) :   0.9694 B(  4-O ,  8-C ) :   0.1278 B(  5-C ,  6-C ) :   0.9177
B(  5-C ,  9-O ) :   0.1140 B(  5-C , 25-H ) :   0.9745 B(  5-C , 26-H ) :   0.9142
B(  6-C ,  7-H ) :   0.9155 B(  6-C ,  8-C ) :   0.8133 B(  6-C , 13-S ) :   0.8633
B(  8-C ,  9-O ) :   1.8973 B(  8-C , 10-O ) :   1.1433 B( 10-O , 11-C ) :   0.7747
B( 11-C , 12-C ) :   0.9228 B( 11-C , 27-H ) :   0.9643 B( 11-C , 28-H ) :   0.9658
B( 12-C , 29-H ) :   0.9697 B( 12-C , 30-H ) :   0.9652 B( 12-C , 31-H ) :   0.9691
B( 13-S , 14-P ) :   0.9886 B( 14-P , 15-S ) :   1.7955 B( 14-P , 16-O ) :   1.0324
B( 14-P , 18-O ) :   1.1511 B( 16-O , 17-C ) :   0.8337 B( 17-C , 32-H ) :   0.9570
B( 17-C , 33-H ) :   0.9595 B( 17-C , 34-H ) :   0.9672 B( 18-O , 19-C ) :   0.7921
B( 19-C , 35-H ) :   0.9610 B( 19-C , 36-H ) :   0.9652 B( 19-C , 37-H ) :   0.9559

Dispersion correction           -0.017720394
FINAL SINGLE POINT ENERGY     -1981.455019035727

DIPOLE MOMENT
-------------

Method             : SCF
Type of density    : Electron Density
Multiplicity       :   1
Irrep              :   0
Energy             : -1981.4748142934513453 Eh
Relativity type    :
Basis              : AO
                                X                 Y                 Z
Electronic contribution:    -12.845459418       5.026715706      -4.031012747
Nuclear contribution   :     12.953975348      -6.900018627       3.972366393
                        -----------------------------------------
Total Dipole Moment    :      0.108515930      -1.873302921      -0.058646354
                        -----------------------------------------
Magnitude (a.u.)       :      1.877359565
Magnitude (Debye)      :      4.771868787

Rotational constants in cm-1:             0.015760             0.006295             0.005545
Rotational constants in MHz :           472.458613           188.706492           166.245595

                             ****ORCA TERMINATED NORMALLY****
TOTAL RUN TIME: 0 days 0 hours 1 minutes 38 seconds 401 msec
