                         Program Version 6.0.1  -  RELEASE   -
|  1> ! r2scan-3c def2/J RI DEFGRID2 scfconv6 printgap
|  2> %output
|  3>     printlevel normal
|  4> end
|  5> %cpcm
|  6>     smd true
|  7>     smdsolvent "water"
|  8> end
|  9> * xyz 0 1
| 10> C 5.2378219507 -2.37288711 -1.0151898897
| 11> C 3.9141598805 -3.0732845207 -1.2770625693
| 12> O 2.9883324597 -2.189023964 -1.940331056
| 13> C 2.249556758 -1.3878755949 -1.2053421329
| 14> O 2.2541620186 -1.3599643687 0.0086867884
| 15> C 1.3802768439 -0.4845629245 -2.05442913
| 16> C 0.3862271239 0.2473956947 -1.16359354
| 17> H -0.1177947422 1.0463560626 -1.7182097881
| 18> C 1.1197920158 0.8919530012 0.0016989884
| 19> O 2.1326409053 1.5351262168 -0.1564981232
| 20> O 0.5032747844 0.7194397973 1.152646189
| 21> C 1.0882031265 1.3040999738 2.3323155469
| 22> C 0.5812936468 2.7194766699 2.548575759
| 23> S -0.9020492492 -0.9046497518 -0.5819875916
| 24> P -2.1791611809 0.5153444753 0.3520597712
| 25> S -2.0148613561 2.3690019227 -0.253773497
| 26> O -3.6223908892 -0.1316836426 0.0873397465
| 27> C -4.1847687836 -0.1745642545 -1.2285291246
| 28> O -2.1038102693 0.3615822641 1.9221902372
| 29> C -2.2080866429 -0.9185942379 2.5739625985
| 30> H 5.9314289235 -3.0722893371 -0.5604178597
| 31> H 5.6578660926 -2.004506194 -1.9469548492
| 32> H 5.0888461175 -1.5329612038 -0.3395701135
| 33> H 3.4622341667 -3.4120831176 -0.3406604202
| 34> H 4.0341654768 -3.9076024337 -1.9678832797
| 35> H 0.874305032 -1.0711715168 -2.8202954448
| 36> H 2.0339309936 0.2429749021 -2.5408025044
| 37> H 0.7848412954 0.6427548956 3.1442295436
| 38> H 2.1747204798 1.2875659656 2.2101365403
| 39> H 0.890547668 3.3594683687 1.724852859
| 40> H -0.505320874 2.7227430015 2.6003037228
| 41> H 0.9880196135 3.109248492 3.4755043196
| 42> H -3.6466730459 -0.9007410451 -1.8374664968
| 43> H -4.1325651759 0.8126390511 -1.6903502097
| 44> H -5.2202423411 -0.4765486677 -1.0942431299
| 45> H -3.1545969059 -1.3918357801 2.3200196782
| 46> H -2.1586917341 -0.7006386758 3.6376522468
| 47> H -1.3767302096 -1.5553266737 2.2708691499
| 48> *
| 49>
| 50>                          ****END OF INPUT****

CARTESIAN COORDINATES (ANGSTROEM)
---------------------------------
  C      5.237822   -2.372887   -1.015190
  C      3.914160   -3.073285   -1.277063
  O      2.988332   -2.189024   -1.940331
  C      2.249557   -1.387876   -1.205342
  O      2.254162   -1.359964    0.008687
  C      1.380277   -0.484563   -2.054429
  C      0.386227    0.247396   -1.163594
  H     -0.117795    1.046356   -1.718210
  C      1.119792    0.891953    0.001699
  O      2.132641    1.535126   -0.156498
  O      0.503275    0.719440    1.152646
  C      1.088203    1.304100    2.332316
  C      0.581294    2.719477    2.548576
  S     -0.902049   -0.904650   -0.581988
  P     -2.179161    0.515344    0.352060
  S     -2.014861    2.369002   -0.253773
  O     -3.622391   -0.131684    0.087340
  C     -4.184769   -0.174564   -1.228529
  O     -2.103810    0.361582    1.922190
  C     -2.208087   -0.918594    2.573963
  H      5.931429   -3.072289   -0.560418
  H      5.657866   -2.004506   -1.946955
  H      5.088846   -1.532961   -0.339570
  H      3.462234   -3.412083   -0.340660
  H      4.034165   -3.907602   -1.967883
  H      0.874305   -1.071172   -2.820295
  H      2.033931    0.242975   -2.540803
  H      0.784841    0.642755    3.144230
  H      2.174720    1.287566    2.210137
  H      0.890548    3.359468    1.724853
  H     -0.505321    2.722743    2.600304
  H      0.988020    3.109248    3.475504
  H     -3.646673   -0.900741   -1.837466
  H     -4.132565    0.812639   -1.690350
  H     -5.220242   -0.476549   -1.094243
  H     -3.154597   -1.391836    2.320020
  H     -2.158692   -0.700639    3.637652
  H     -1.376730   -1.555327    2.270869

 Total Charge           Charge          ....    0
 Multiplicity           Mult            ....    1
 Number of Electrons    NEL             ....  174
 Basis Dimension        Dim             ....  510

ORBITAL ENERGIES
----------------

  NO   OCC          E(Eh)            E(eV)
   0   2.0000     -88.577459     -2410.3152
   1   2.0000     -88.528202     -2408.9749
   2   2.0000     -76.919934     -2093.0978
   3   2.0000     -19.009906      -517.2858
   4   2.0000     -19.005257      -517.1593
   5   2.0000     -18.996998      -516.9346
   6   2.0000     -18.992871      -516.8223
   7   2.0000     -18.952337      -515.7193
   8   2.0000     -18.947292      -515.5820
   9   2.0000     -10.173149      -276.8255
  10   2.0000     -10.173055      -276.8229
  11   2.0000     -10.095194      -274.7042
  12   2.0000     -10.086943      -274.4797
  13   2.0000     -10.085797      -274.4485
  14   2.0000     -10.084603      -274.4160
  15   2.0000     -10.080787      -274.3122
  16   2.0000     -10.060561      -273.7618
  17   2.0000     -10.019670      -272.6491
  18   2.0000     -10.017512      -272.5904
  19   2.0000      -7.871717      -214.2003
  20   2.0000      -7.823327      -212.8835
  21   2.0000      -6.598196      -179.5460
  22   2.0000      -5.818551      -158.3308
  23   2.0000      -5.815729      -158.2540
  24   2.0000      -5.808733      -158.0637
  25   2.0000      -5.771083      -157.0392
  26   2.0000      -5.763568      -156.8346
  27   2.0000      -5.763193      -156.8245
  28   2.0000      -4.743831      -129.0862
  29   2.0000      -4.743216      -129.0695
  30   2.0000      -4.741828      -129.0317
  31   2.0000      -1.090451       -29.6727
  32   2.0000      -1.085316       -29.5329
  33   2.0000      -1.053054       -28.6550
  34   2.0000      -1.010110       -27.4865
  35   2.0000      -1.000661       -27.2294
  36   2.0000      -0.995275       -27.0828
  37   2.0000      -0.812821       -22.1180
  38   2.0000      -0.753833       -20.5128
  39   2.0000      -0.737580       -20.0706
  40   2.0000      -0.731241       -19.8981
  41   2.0000      -0.695629       -18.9290
  42   2.0000      -0.669532       -18.2189
  43   2.0000      -0.659616       -17.9491
  44   2.0000      -0.651200       -17.7200
  45   2.0000      -0.628627       -17.1058
  46   2.0000      -0.593678       -16.1548
  47   2.0000      -0.540269       -14.7015
  48   2.0000      -0.529104       -14.3976
  49   2.0000      -0.524125       -14.2622
  50   2.0000      -0.506273       -13.7764
  51   2.0000      -0.491079       -13.3629
  52   2.0000      -0.484382       -13.1807
  53   2.0000      -0.468485       -12.7481
  54   2.0000      -0.462470       -12.5844
  55   2.0000      -0.456673       -12.4267
  56   2.0000      -0.449850       -12.2411
  57   2.0000      -0.447218       -12.1694
  58   2.0000      -0.437999       -11.9186
  59   2.0000      -0.426981       -11.6187
  60   2.0000      -0.418440       -11.3863
  61   2.0000      -0.415985       -11.3195
  62   2.0000      -0.410226       -11.1628
  63   2.0000      -0.401132       -10.9153
  64   2.0000      -0.389829       -10.6078
  65   2.0000      -0.384593       -10.4653
  66   2.0000      -0.368748       -10.0341
  67   2.0000      -0.366866        -9.9829
  68   2.0000      -0.359191        -9.7741
  69   2.0000      -0.353558        -9.6208
  70   2.0000      -0.344544        -9.3755
  71   2.0000      -0.342519        -9.3204
  72   2.0000      -0.338246        -9.2041
  73   2.0000      -0.331608        -9.0235
  74   2.0000      -0.322845        -8.7850
  75   2.0000      -0.315412        -8.5828
  76   2.0000      -0.308575        -8.3967
  77   2.0000      -0.306480        -8.3397
  78   2.0000      -0.288068        -7.8387
  79   2.0000      -0.286168        -7.7870
  80   2.0000      -0.279908        -7.6167
  81   2.0000      -0.278364        -7.5747
  82   2.0000      -0.270189        -7.3522
  83   2.0000      -0.260469        -7.0877
  84   2.0000      -0.235417        -6.4060
  85   2.0000      -0.228560        -6.2194
  86   2.0000      -0.222640        -6.0583
  87   0.0000      -0.048067        -1.3080
  88   0.0000      -0.028043        -0.7631
  89   0.0000      -0.025229        -0.6865
  90   0.0000       0.004276         0.1164
  91   0.0000       0.011032         0.3002

MULLIKEN ATOMIC CHARGES
-----------------------
   0 C :   -0.495102
   1 C :   -0.137728
   2 O :   -0.173300
   3 C :    0.438151
   4 O :   -0.456424
   5 C :   -0.517177
   6 C :    0.054740
   7 H :    0.271293
   8 C :    0.220428
   9 O :   -0.451684
  10 O :   -0.133768
  11 C :   -0.132618
  12 C :   -0.509978
  13 S :   -0.221070
  14 P :    0.802229
  15 S :   -0.497580
  16 O :   -0.376427
  17 C :   -0.307627
  18 O :   -0.348891
  19 C :   -0.301804
  20 H :    0.172407
  21 H :    0.167141
  22 H :    0.169926
  23 H :    0.174973
  24 H :    0.177287
  25 H :    0.227701
  26 H :    0.235493
  27 H :    0.179450
  28 H :    0.176419
  29 H :    0.170466
  30 H :    0.169791
  31 H :    0.171889
  32 H :    0.175056
  33 H :    0.176753
  34 H :    0.178959
  35 H :    0.184803
  36 H :    0.183821
  37 H :    0.182002
Sum of atomic charges:   -0.0000000

LOEWDIN ATOMIC CHARGES
----------------------
   0 C :   -0.390808
   1 C :    0.037437
   2 O :   -0.573263
   3 C :    0.376564
   4 O :   -0.473981
   5 C :   -0.198268
   6 C :   -0.194122
   7 H :    0.216945
   8 C :    0.350456
   9 O :   -0.471716
  10 O :   -0.625692
  11 C :    0.040257
  12 C :   -0.394874
  13 S :    0.221124
  14 P :    0.399597
  15 S :   -0.126383
  16 O :   -0.697858
  17 C :   -0.056605
  18 O :   -0.668939
  19 C :   -0.043771
  20 H :    0.168934
  21 H :    0.162572
  22 H :    0.163376
  23 H :    0.191120
  24 H :    0.190937
  25 H :    0.205506
  26 H :    0.215764
  27 H :    0.192158
  28 H :    0.194732
  29 H :    0.163042
  30 H :    0.163665
  31 H :    0.166694
  32 H :    0.175886
  33 H :    0.177242
  34 H :    0.188400
  35 H :    0.181929
  36 H :    0.191999
  37 H :    0.179944

  Mayer bond orders larger than 0.100000
B(  0-C ,  1-C ) :   0.9373 B(  0-C , 20-H ) :   0.9589 B(  0-C , 21-H ) :   0.9690
B(  0-C , 22-H ) :   0.9689 B(  1-C ,  2-O ) :   0.7837 B(  1-C , 23-H ) :   0.9627
B(  1-C , 24-H ) :   0.9515 B(  2-O ,  3-C ) :   1.1462 B(  3-C ,  4-O ) :   1.7460
B(  3-C ,  5-C ) :   0.9451 B(  4-O ,  8-C ) :   0.1260 B(  5-C ,  6-C ) :   0.8910
B(  5-C , 25-H ) :   0.9628 B(  5-C , 26-H ) :   0.9217 B(  6-C ,  7-H ) :   0.9034
B(  6-C ,  8-C ) :   0.8177 B(  6-C , 13-S ) :   0.8605 B(  8-C ,  9-O ) :   1.8347
B(  8-C , 10-O ) :   1.1537 B( 10-O , 11-C ) :   0.7587 B( 11-C , 12-C ) :   0.9126
B( 11-C , 27-H ) :   0.9538 B( 11-C , 28-H ) :   0.9566 B( 12-C , 29-H ) :   0.9709
B( 12-C , 30-H ) :   0.9669 B( 12-C , 31-H ) :   0.9622 B( 13-S , 14-P ) :   1.0027
B( 14-P , 15-S ) :   1.7683 B( 14-P , 16-O ) :   1.0396 B( 14-P , 18-O ) :   1.1548
B( 16-O , 17-C ) :   0.8256 B( 17-C , 32-H ) :   0.9505 B( 17-C , 33-H ) :   0.9555
B( 17-C , 34-H ) :   0.9571 B( 18-O , 19-C ) :   0.7857 B( 19-C , 35-H ) :   0.9524
B( 19-C , 36-H ) :   0.9542 B( 19-C , 37-H ) :   0.9489

Dispersion correction           -0.017720394
FINAL SINGLE POINT ENERGY     -1981.469693733783

DIPOLE MOMENT
-------------

Method             : SCF
Type of density    : Electron Density
Multiplicity       :   1
Irrep              :   0
Energy             : -1981.4894889915065050 Eh
Relativity type    :
Basis              : AO
                                X                 Y                 Z
Electronic contribution:    -12.985598042       4.257842894      -4.268993808
Nuclear contribution   :     12.953975348      -6.900018627       3.972366393
                        -----------------------------------------
Total Dipole Moment    :     -0.031622694      -2.642175733      -0.296627415
                        -----------------------------------------
Magnitude (a.u.)       :      2.658962283
Magnitude (Debye)      :      6.758545014

Rotational constants in cm-1:             0.015760             0.006295             0.005545
Rotational constants in MHz :           472.458613           188.706492           166.245595

                             ****ORCA TERMINATED NORMALLY****
TOTAL RUN TIME: 0 days 0 hours 2 minutes 2 seconds 323 msec
