                         Program Version 6.0.0  -   RELEASE  -
|  1> ! pbe def2-sv(p) def2/J RI DEFGRID1 loosescf d4 GCP(DFT/SV(P)) printgap
|  2> %output
|  3>     printlevel normal
|  4> end
|  5> * xyz 0 1
|  6> C 4.6117368678 0.8210793863 -1.6243920486
|  7> C 4.7757320383 0.034516646 -0.3403043128
|  8> O 3.5815877177 -0.6817610271 0.0253028771
|  9> P 2.2308011368 0.0570983186 0.4224104649
| 10> S 2.4342848227 1.6780249518 1.4914283735
| 11> O 1.4367318421 -1.0735705025 1.1871431468
| 12> C 1.3268190108 -2.4339228433 0.7010281982
| 13> C 2.3383917917 -3.3277084633 1.3860995166
| 14> S 1.2267790299 0.2739835914 -1.4501300709
| 15> C 0.0779382903 1.5750604266 -0.9168812907
| 16> S -0.9301106971 1.1318019081 0.5194475778
| 17> P -2.3279027202 -0.1380399788 -0.49021598
| 18> S -1.6327539439 -1.8249836338 -1.1978896893
| 19> O -2.9557601816 0.7554775118 -1.6306060801
| 20> C -4.0521969751 1.6912458427 -1.4723732973
| 21> C -3.7105379209 2.8526697171 -0.5630612114
| 22> O -3.5173222529 -0.292664702 0.5515365488
| 23> C -3.52521826 -1.3369202433 1.5400131824
| 24> C -2.515217775 -1.0816843467 2.640359222
| 25> H 4.2328453553 0.1803112916 -2.4170383154
| 26> H 3.9127081341 1.64185958 -1.4710165746
| 27> H 5.5734115993 1.2291686069 -1.9184385023
| 28> H 5.0413738671 0.7005851401 0.4863150561
| 29> H 5.526750616 -0.7502728215 -0.4431391326
| 30> H 0.3033782342 -2.7349536522 0.9352183696
| 31> H 1.4537806405 -2.4393475655 -0.3851715487
| 32> H 2.2179734555 -3.2641787169 2.4641279297
| 33> H 2.1768669841 -4.3517373861 1.0645557633
| 34> H 3.348427544 -3.0232241464 1.1253609474
| 35> H -0.5602918018 1.7882263873 -1.7719193349
| 36> H 0.6501509799 2.4513912365 -0.6146084395
| 37> H -4.2415888501 2.0221051509 -2.4948670777
| 38> H -4.915093006 1.1417870401 -1.0928131114
| 39> H -4.5435728929 3.5488923297 -0.55709361
| 40> H -3.5363350003 2.5018780423 0.4516077722
| 41> H -2.8203625047 3.3690285645 -0.9137114722
| 42> H -4.5463771807 -1.3286403053 1.9236013397
| 43> H -3.3216369849 -2.2891902282 1.039195047
| 44> H -2.6141689994 -1.8458583953 3.4045899436
| 45> H -1.5023754578 -1.113619147 2.2390897084
| 46> H -2.6765227095 -0.1032926362 3.0858194385
| 47> *
| 48>
| 49>                          ****END OF INPUT****

CARTESIAN COORDINATES (ANGSTROEM)
---------------------------------
  C      4.611737    0.821079   -1.624392
  C      4.775732    0.034517   -0.340304
  O      3.581588   -0.681761    0.025303
  P      2.230801    0.057098    0.422410
  S      2.434285    1.678025    1.491428
  O      1.436732   -1.073571    1.187143
  C      1.326819   -2.433923    0.701028
  C      2.338392   -3.327708    1.386100
  S      1.226779    0.273984   -1.450130
  C      0.077938    1.575060   -0.916881
  S     -0.930111    1.131802    0.519448
  P     -2.327903   -0.138040   -0.490216
  S     -1.632754   -1.824984   -1.197890
  O     -2.955760    0.755478   -1.630606
  C     -4.052197    1.691246   -1.472373
  C     -3.710538    2.852670   -0.563061
  O     -3.517322   -0.292665    0.551537
  C     -3.525218   -1.336920    1.540013
  C     -2.515218   -1.081684    2.640359
  H      4.232845    0.180311   -2.417038
  H      3.912708    1.641860   -1.471017
  H      5.573412    1.229169   -1.918439
  H      5.041374    0.700585    0.486315
  H      5.526751   -0.750273   -0.443139
  H      0.303378   -2.734954    0.935218
  H      1.453781   -2.439348   -0.385172
  H      2.217973   -3.264179    2.464128
  H      2.176867   -4.351737    1.064556
  H      3.348428   -3.023224    1.125361
  H     -0.560292    1.788226   -1.771919
  H      0.650151    2.451391   -0.614608
  H     -4.241589    2.022105   -2.494867
  H     -4.915093    1.141787   -1.092813
  H     -4.543573    3.548892   -0.557094
  H     -3.536335    2.501878    0.451608
  H     -2.820363    3.369029   -0.913711
  H     -4.546377   -1.328640    1.923601
  H     -3.321637   -2.289190    1.039195
  H     -2.614169   -1.845858    3.404590
  H     -1.502375   -1.113619    2.239090
  H     -2.676523   -0.103293    3.085819

 Total Charge           Charge          ....    0
 Multiplicity           Mult            ....    1
 Number of Electrons    NEL             ....  202
 Basis Dimension        Dim             ....  334

ORBITAL ENERGIES
----------------

  NO   OCC          E(Eh)            E(eV)
   0   2.0000     -88.038847     -2395.6588
   1   2.0000     -88.034517     -2395.5410
   2   2.0000     -87.983542     -2394.1539
   3   2.0000     -87.981379     -2394.0950
   4   2.0000     -76.426132     -2079.6608
   5   2.0000     -76.422939     -2079.5739
   6   2.0000     -18.798512      -511.5335
   7   2.0000     -18.794014      -511.4111
   8   2.0000     -18.792489      -511.3696
   9   2.0000     -18.784001      -511.1386
  10   2.0000      -9.960413      -271.0366
  11   2.0000      -9.955856      -270.9126
  12   2.0000      -9.954762      -270.8828
  13   2.0000      -9.952591      -270.8238
  14   2.0000      -9.943369      -270.5728
  15   2.0000      -9.890081      -269.1228
  16   2.0000      -9.886425      -269.0233
  17   2.0000      -9.882485      -268.9161
  18   2.0000      -9.878349      -268.8035
  19   2.0000      -7.683112      -209.0681
  20   2.0000      -7.679489      -208.9695
  21   2.0000      -7.628857      -207.5918
  22   2.0000      -7.626469      -207.5268
  23   2.0000      -6.423571      -174.7943
  24   2.0000      -6.420194      -174.7024
  25   2.0000      -5.710944      -155.4027
  26   2.0000      -5.707879      -155.3193
  27   2.0000      -5.707318      -155.3040
  28   2.0000      -5.704167      -155.2183
  29   2.0000      -5.699981      -155.1044
  30   2.0000      -5.696336      -155.0052
  31   2.0000      -5.657828      -153.9573
  32   2.0000      -5.655408      -153.8915
  33   2.0000      -5.649382      -153.7275
  34   2.0000      -5.649024      -153.7178
  35   2.0000      -5.647363      -153.6726
  36   2.0000      -5.646302      -153.6437
  37   2.0000      -4.646956      -126.4501
  38   2.0000      -4.645144      -126.4008
  39   2.0000      -4.643451      -126.3547
  40   2.0000      -4.643160      -126.3468
  41   2.0000      -4.641818      -126.3103
  42   2.0000      -4.640496      -126.2743
  43   2.0000      -0.991724       -26.9862
  44   2.0000      -0.984366       -26.7859
  45   2.0000      -0.948834       -25.8191
  46   2.0000      -0.940237       -25.5851
  47   2.0000      -0.759928       -20.6787
  48   2.0000      -0.719274       -19.5724
  49   2.0000      -0.707519       -19.2526
  50   2.0000      -0.693986       -18.8843
  51   2.0000      -0.686467       -18.6797
  52   2.0000      -0.672377       -18.2963
  53   2.0000      -0.648997       -17.6601
  54   2.0000      -0.635936       -17.3047
  55   2.0000      -0.597036       -16.2462
  56   2.0000      -0.589648       -16.0452
  57   2.0000      -0.583174       -15.8690
  58   2.0000      -0.567771       -15.4498
  59   2.0000      -0.558522       -15.1981
  60   2.0000      -0.500176       -13.6105
  61   2.0000      -0.494424       -13.4540
  62   2.0000      -0.475401       -12.9363
  63   2.0000      -0.471002       -12.8166
  64   2.0000      -0.460842       -12.5401
  65   2.0000      -0.449446       -12.2300
  66   2.0000      -0.443528       -12.0690
  67   2.0000      -0.430018       -11.7014
  68   2.0000      -0.424267       -11.5449
  69   2.0000      -0.420178       -11.4336
  70   2.0000      -0.411948       -11.2097
  71   2.0000      -0.401073       -10.9138
  72   2.0000      -0.388005       -10.5581
  73   2.0000      -0.378989       -10.3128
  74   2.0000      -0.376262       -10.2386
  75   2.0000      -0.373680       -10.1683
  76   2.0000      -0.365596        -9.9484
  77   2.0000      -0.360062        -9.7978
  78   2.0000      -0.355447        -9.6722
  79   2.0000      -0.353838        -9.6284
  80   2.0000      -0.348738        -9.4897
  81   2.0000      -0.344924        -9.3859
  82   2.0000      -0.340677        -9.2703
  83   2.0000      -0.338726        -9.2172
  84   2.0000      -0.331380        -9.0173
  85   2.0000      -0.323531        -8.8037
  86   2.0000      -0.311776        -8.4839
  87   2.0000      -0.300595        -8.1796
  88   2.0000      -0.295721        -8.0470
  89   2.0000      -0.293177        -7.9778
  90   2.0000      -0.288854        -7.8601
  91   2.0000      -0.274702        -7.4750
  92   2.0000      -0.266679        -7.2567
  93   2.0000      -0.260551        -7.0900
  94   2.0000      -0.255596        -6.9551
  95   2.0000      -0.235111        -6.3977
  96   2.0000      -0.213908        -5.8207
  97   2.0000      -0.207541        -5.6475
  98   2.0000      -0.202652        -5.5144
  99   2.0000      -0.194698        -5.2980
 100   2.0000      -0.185339        -5.0433
 101   0.0000      -0.042083        -1.1451
 102   0.0000      -0.025456        -0.6927
 103   0.0000      -0.006191        -0.1685
 104   0.0000       0.001590         0.0433
 105   0.0000       0.016475         0.4483

MULLIKEN ATOMIC CHARGES
-----------------------
   0 C :   -0.315808
   1 C :    0.000237
   2 O :   -0.382496
   3 P :    0.601517
   4 S :   -0.321622
   5 O :   -0.351996
   6 C :   -0.020339
   7 C :   -0.281543
   8 S :   -0.075741
   9 C :   -0.356650
  10 S :   -0.077999
  11 P :    0.603088
  12 S :   -0.310416
  13 O :   -0.373897
  14 C :    0.006542
  15 C :   -0.317975
  16 O :   -0.384268
  17 C :   -0.003407
  18 C :   -0.343514
  19 H :    0.119366
  20 H :    0.125634
  21 H :    0.112500
  22 H :    0.112714
  23 H :    0.104411
  24 H :    0.114479
  25 H :    0.109342
  26 H :    0.113975
  27 H :    0.108026
  28 H :    0.116263
  29 H :    0.181519
  30 H :    0.191966
  31 H :    0.110737
  32 H :    0.111323
  33 H :    0.113741
  34 H :    0.131065
  35 H :    0.118457
  36 H :    0.104972
  37 H :    0.111845
  38 H :    0.115834
  39 H :    0.157340
  40 H :    0.120777
Sum of atomic charges:   -0.0000000

LOEWDIN ATOMIC CHARGES
----------------------
   0 C :   -0.371376
   1 C :   -0.116122
   2 O :   -0.247465
   3 P :    0.572732
   4 S :   -0.317723
   5 O :   -0.234203
   6 C :   -0.117655
   7 C :   -0.359296
   8 S :    0.078976
   9 C :   -0.482204
  10 S :    0.093767
  11 P :    0.567811
  12 S :   -0.307044
  13 O :   -0.244758
  14 C :   -0.107256
  15 C :   -0.368801
  16 O :   -0.246417
  17 C :   -0.119874
  18 C :   -0.371899
  19 H :    0.123953
  20 H :    0.120567
  21 H :    0.130763
  22 H :    0.112914
  23 H :    0.118115
  24 H :    0.112467
  25 H :    0.106879
  26 H :    0.126122
  27 H :    0.128806
  28 H :    0.123686
  29 H :    0.130164
  30 H :    0.131780
  31 H :    0.122058
  32 H :    0.116279
  33 H :    0.131518
  34 H :    0.121777
  35 H :    0.125030
  36 H :    0.118445
  37 H :    0.110316
  38 H :    0.133054
  39 H :    0.127394
  40 H :    0.126723

  Mayer bond orders larger than 0.100000
B(  0-C ,  1-C ) :   1.1669 B(  0-C , 19-H ) :   0.9430 B(  0-C , 20-H ) :   0.9342
B(  0-C , 21-H ) :   0.9366 B(  1-C ,  2-O ) :   0.9066 B(  1-C , 22-H ) :   0.9191
B(  1-C , 23-H ) :   0.9340 B(  2-O ,  3-P ) :   1.0793 B(  3-P ,  4-S ) :   1.6178
B(  3-P ,  5-O ) :   1.1373 B(  3-P ,  8-S ) :   0.9603 B(  4-S ,  8-S ) :   0.1106
B(  5-O ,  6-C ) :   0.8896 B(  6-C ,  7-C ) :   1.1570 B(  6-C , 24-H ) :   0.9217
B(  6-C , 25-H ) :   0.9186 B(  7-C , 26-H ) :   0.9468 B(  7-C , 27-H ) :   0.9411
B(  7-C , 28-H ) :   0.9429 B(  8-S ,  9-C ) :   1.0016 B(  9-C , 10-S ) :   1.0027
B(  9-C , 29-H ) :   0.8946 B(  9-C , 30-H ) :   0.8891 B( 10-S , 11-P ) :   0.9470
B( 10-S , 12-S ) :   0.1128 B( 11-P , 12-S ) :   1.6720 B( 11-P , 13-O ) :   1.1067
B( 11-P , 16-O ) :   1.0706 B( 13-O , 14-C ) :   0.8946 B( 14-C , 15-C ) :   1.1702
B( 14-C , 31-H ) :   0.9357 B( 14-C , 32-H ) :   0.9274 B( 15-C , 33-H ) :   0.9351
B( 15-C , 34-H ) :   0.9367 B( 15-C , 35-H ) :   0.9455 B( 16-O , 17-C ) :   0.9041
B( 17-C , 18-C ) :   1.1635 B( 17-C , 36-H ) :   0.9326 B( 17-C , 37-H ) :   0.9118
B( 18-C , 38-H ) :   0.9381 B( 18-C , 39-H ) :   0.9251 B( 18-C , 40-H ) :   0.9442

Dispersion correction           -0.066729351
FINAL SINGLE POINT ENERGY     -2929.516539657518

DIPOLE MOMENT
-------------

Method             : SCF
Type of density    : Electron Density
Multiplicity       :   1
Irrep              :   0
Energy             : -2929.6352367785143542 Eh
Relativity type    :
Basis              : AO
                                X                 Y                 Z
Electronic contribution:      0.162192846       2.568311022      -4.084109592
Nuclear contribution   :     -0.755256001      -2.487317394       3.964719685
                        -----------------------------------------
Total Dipole Moment    :     -0.593063156       0.080993627      -0.119389907
                        -----------------------------------------
Magnitude (a.u.)       :      0.610358767
Magnitude (Debye)      :      1.551408692

Rotational constants in cm-1:             0.012536             0.005226             0.004673
Rotational constants in MHz :           375.810316           156.667133           140.096152

                             ****ORCA TERMINATED NORMALLY****
TOTAL RUN TIME: 0 days 0 hours 0 minutes 21 seconds 458 msec
