                         Program Version 6.0.0  -   RELEASE  -
|  1> ! r2scan-3c def2/J RI DEFGRID2 scfconv6 printgap
|  2> %output
|  3>     printlevel normal
|  4> end
|  5> * xyz 0 1
|  6> C 5.393836224 -1.9824836167 -1.4259072447
|  7> C 4.3281820481 -0.9062128863 -1.4763110795
|  8> O 3.2933558076 -1.2629286087 -0.5379339195
|  9> P 2.2760636424 -0.1891521736 0.0344760684
| 10> S 3.0813388752 1.4785028541 0.6870954665
| 11> O 1.466017139 -1.0409727486 1.0915860132
| 12> C 1.7907253403 -1.0214512326 2.4997185452
| 13> C 3.0984496076 -1.7324292601 2.7725501251
| 14> S 0.8515997744 0.017391243 -1.5190662751
| 15> C 0.0506925731 1.4955091215 -0.8350571336
| 16> S -0.9648615833 1.1319851892 0.6118181876
| 17> P -2.5795178761 0.2257537646 -0.4577643346
| 18> S -2.9532670031 0.985922717 -2.2211627098
| 19> O -3.7987796002 0.2622990014 0.5596048863
| 20> C -4.7079153403 1.3742287556 0.6360293295
| 21> C -4.044458659 2.6262747773 1.1724309714
| 22> O -2.2547844692 -1.3110736187 -0.5716430895
| 23> C -1.6756061228 -2.1882204102 0.4241445928
| 24> C -2.328341448 -2.0619044402 1.7833532548
| 25> H 5.8355527511 -2.0277082049 -0.4345403046
| 26> H 4.955130813 -2.9477597438 -1.6609656641
| 27> H 6.166666778 -1.7518928455 -2.151732751
| 28> H 3.8775996162 -0.8356359278 -2.4700181152
| 29> H 4.7320430593 0.0728179622 -1.1964727463
| 30> H 1.8356845472 0.0209175846 2.8299738388
| 31> H 0.9452880479 -1.5236335463 2.9710602289
| 32> H 3.2708772582 -1.7741654465 3.8433653844
| 33> H 3.0699885108 -2.7407410872 2.3683639203
| 34> H 3.9168643888 -1.1878786783 2.3029674337
| 35> H -0.5799113078 1.9041918332 -1.6257588343
| 36> H 0.8151950291 2.2072860277 -0.5224354839
| 37> H -5.1178544916 1.5548482079 -0.362581526
| 38> H -5.4954532907 1.0192519298 1.3021946997
| 39> H -3.5367307126 2.4156697962 2.1101797908
| 40> H -3.3162586544 2.999925844 0.4542993881
| 41> H -4.7990038065 3.3892906506 1.3344373548
| 42> H -1.8257494866 -3.1801524549 -0.0054081105
| 43> H -0.6049225809 -1.9743744322 0.4800818525
| 44> H -2.1446373511 -1.0733784871 2.2006950137
| 45> H -3.4012717807 -2.2145544295 1.7011606186
| 46> H -1.9090908389 -2.8124329468 2.4468246544
| 47> *
| 48>
| 49>                          ****END OF INPUT****

CARTESIAN COORDINATES (ANGSTROEM)
---------------------------------
  C      5.393836   -1.982484   -1.425907
  C      4.328182   -0.906213   -1.476311
  O      3.293356   -1.262929   -0.537934
  P      2.276064   -0.189152    0.034476
  S      3.081339    1.478503    0.687095
  O      1.466017   -1.040973    1.091586
  C      1.790725   -1.021451    2.499719
  C      3.098450   -1.732429    2.772550
  S      0.851600    0.017391   -1.519066
  C      0.050693    1.495509   -0.835057
  S     -0.964862    1.131985    0.611818
  P     -2.579518    0.225754   -0.457764
  S     -2.953267    0.985923   -2.221163
  O     -3.798780    0.262299    0.559605
  C     -4.707915    1.374229    0.636029
  C     -4.044459    2.626275    1.172431
  O     -2.254784   -1.311074   -0.571643
  C     -1.675606   -2.188220    0.424145
  C     -2.328341   -2.061904    1.783353
  H      5.835553   -2.027708   -0.434540
  H      4.955131   -2.947760   -1.660966
  H      6.166667   -1.751893   -2.151733
  H      3.877600   -0.835636   -2.470018
  H      4.732043    0.072818   -1.196473
  H      1.835685    0.020918    2.829974
  H      0.945288   -1.523634    2.971060
  H      3.270877   -1.774165    3.843365
  H      3.069989   -2.740741    2.368364
  H      3.916864   -1.187879    2.302967
  H     -0.579911    1.904192   -1.625759
  H      0.815195    2.207286   -0.522435
  H     -5.117854    1.554848   -0.362582
  H     -5.495453    1.019252    1.302195
  H     -3.536731    2.415670    2.110180
  H     -3.316259    2.999926    0.454299
  H     -4.799004    3.389291    1.334437
  H     -1.825749   -3.180152   -0.005408
  H     -0.604923   -1.974374    0.480082
  H     -2.144637   -1.073378    2.200695
  H     -3.401272   -2.214554    1.701161
  H     -1.909091   -2.812433    2.446825

 Total Charge           Charge          ....    0
 Multiplicity           Mult            ....    1
 Number of Electrons    NEL             ....  202
 Basis Dimension        Dim             ....  539

ORBITAL ENERGIES
----------------

  NO   OCC          E(Eh)            E(eV)
   0   2.0000     -88.576098     -2410.2782
   1   2.0000     -88.573940     -2410.2195
   2   2.0000     -88.525146     -2408.8917
   3   2.0000     -88.516017     -2408.6433
   4   2.0000     -76.917517     -2093.0320
   5   2.0000     -76.912858     -2092.9053
   6   2.0000     -18.997873      -516.9584
   7   2.0000     -18.997217      -516.9406
   8   2.0000     -18.992703      -516.8177
   9   2.0000     -18.986769      -516.6562
  10   2.0000     -10.103919      -274.9416
  11   2.0000     -10.102817      -274.9116
  12   2.0000     -10.101614      -274.8789
  13   2.0000     -10.098414      -274.7918
  14   2.0000     -10.097072      -274.7553
  15   2.0000     -10.036779      -273.1147
  16   2.0000     -10.034246      -273.0457
  17   2.0000     -10.032802      -273.0064
  18   2.0000     -10.027863      -272.8720
  19   2.0000      -7.870130      -214.1571
  20   2.0000      -7.868300      -214.1073
  21   2.0000      -7.819929      -212.7911
  22   2.0000      -7.810918      -212.5459
  23   2.0000      -6.596267      -179.4936
  24   2.0000      -6.591111      -179.3532
  25   2.0000      -5.816951      -158.2873
  26   2.0000      -5.815085      -158.2365
  27   2.0000      -5.814045      -158.2082
  28   2.0000      -5.812169      -158.1572
  29   2.0000      -5.807314      -158.0251
  30   2.0000      -5.805499      -157.9757
  31   2.0000      -5.767471      -156.9409
  32   2.0000      -5.760224      -156.7437
  33   2.0000      -5.760018      -156.7381
  34   2.0000      -5.758584      -156.6990
  35   2.0000      -5.751167      -156.4972
  36   2.0000      -5.750905      -156.4901
  37   2.0000      -4.741662      -129.0272
  38   2.0000      -4.741199      -129.0146
  39   2.0000      -4.740036      -128.9829
  40   2.0000      -4.736838      -128.8959
  41   2.0000      -4.736102      -128.8759
  42   2.0000      -4.734616      -128.8355
  43   2.0000      -1.056309       -28.7436
  44   2.0000      -1.048151       -28.5216
  45   2.0000      -1.017696       -27.6929
  46   2.0000      -1.008686       -27.4477
  47   2.0000      -0.801729       -21.8162
  48   2.0000      -0.761809       -20.7299
  49   2.0000      -0.751508       -20.4496
  50   2.0000      -0.738155       -20.0862
  51   2.0000      -0.734059       -19.9748
  52   2.0000      -0.712984       -19.4013
  53   2.0000      -0.686434       -18.6788
  54   2.0000      -0.668346       -18.1866
  55   2.0000      -0.635306       -17.2876
  56   2.0000      -0.627717       -17.0810
  57   2.0000      -0.608857       -16.5679
  58   2.0000      -0.604563       -16.4510
  59   2.0000      -0.592136       -16.1128
  60   2.0000      -0.533342       -14.5130
  61   2.0000      -0.515496       -14.0273
  62   2.0000      -0.502895       -13.6845
  63   2.0000      -0.488773       -13.3002
  64   2.0000      -0.479456       -13.0467
  65   2.0000      -0.464595       -12.6423
  66   2.0000      -0.460805       -12.5391
  67   2.0000      -0.458631       -12.4800
  68   2.0000      -0.449384       -12.2284
  69   2.0000      -0.437732       -11.9113
  70   2.0000      -0.427358       -11.6290
  71   2.0000      -0.417588       -11.3631
  72   2.0000      -0.414759       -11.2862
  73   2.0000      -0.400802       -10.9064
  74   2.0000      -0.395205       -10.7541
  75   2.0000      -0.390242       -10.6190
  76   2.0000      -0.384172       -10.4539
  77   2.0000      -0.379554       -10.3282
  78   2.0000      -0.377072       -10.2607
  79   2.0000      -0.367644       -10.0041
  80   2.0000      -0.366841        -9.9823
  81   2.0000      -0.364220        -9.9109
  82   2.0000      -0.359713        -9.7883
  83   2.0000      -0.356706        -9.7065
  84   2.0000      -0.349234        -9.5031
  85   2.0000      -0.335754        -9.1363
  86   2.0000      -0.325044        -8.8449
  87   2.0000      -0.319541        -8.6951
  88   2.0000      -0.308288        -8.3889
  89   2.0000      -0.306360        -8.3365
  90   2.0000      -0.305433        -8.3112
  91   2.0000      -0.295574        -8.0430
  92   2.0000      -0.284437        -7.7399
  93   2.0000      -0.278373        -7.5749
  94   2.0000      -0.274474        -7.4688
  95   2.0000      -0.248688        -6.7671
  96   2.0000      -0.231542        -6.3006
  97   2.0000      -0.227862        -6.2004
  98   2.0000      -0.218058        -5.9337
  99   2.0000      -0.214871        -5.8469
 100   2.0000      -0.212340        -5.7781
 101   0.0000      -0.046343        -1.2611
 102   0.0000      -0.025751        -0.7007
 103   0.0000      -0.002990        -0.0814
 104   0.0000       0.001577         0.0429
 105   0.0000       0.015433         0.4199

MULLIKEN ATOMIC CHARGES
-----------------------
   0 C :   -0.439593
   1 C :   -0.153374
   2 O :   -0.290959
   3 P :    0.683105
   4 S :   -0.488528
   5 O :   -0.268646
   6 C :   -0.149766
   7 C :   -0.442058
   8 S :   -0.124921
   9 C :   -0.241216
  10 S :   -0.160060
  11 P :    0.655800
  12 S :   -0.464124
  13 O :   -0.269111
  14 C :   -0.168767
  15 C :   -0.443961
  16 O :   -0.256134
  17 C :   -0.147172
  18 C :   -0.455802
  19 H :    0.154259
  20 H :    0.154960
  21 H :    0.148450
  22 H :    0.153840
  23 H :    0.170728
  24 H :    0.175990
  25 H :    0.150550
  26 H :    0.148466
  27 H :    0.155412
  28 H :    0.168941
  29 H :    0.219617
  30 H :    0.214845
  31 H :    0.176089
  32 H :    0.147892
  33 H :    0.152214
  34 H :    0.178676
  35 H :    0.147400
  36 H :    0.150312
  37 H :    0.184997
  38 H :    0.160743
  39 H :    0.162472
  40 H :    0.148435
Sum of atomic charges:   -0.0000000

LOEWDIN ATOMIC CHARGES
----------------------
   0 C :   -0.385112
   1 C :    0.022031
   2 O :   -0.662855
   3 P :    0.373655
   4 S :   -0.136651
   5 O :   -0.691217
   6 C :    0.018755
   7 C :   -0.398252
   8 S :    0.171718
   9 C :   -0.425452
  10 S :    0.145030
  11 P :    0.386872
  12 S :   -0.111458
  13 O :   -0.670577
  14 C :    0.021506
  15 C :   -0.408290
  16 O :   -0.650836
  17 C :    0.024494
  18 C :   -0.403729
  19 H :    0.159857
  20 H :    0.160493
  21 H :    0.160843
  22 H :    0.173132
  23 H :    0.180971
  24 H :    0.182466
  25 H :    0.179076
  26 H :    0.160306
  27 H :    0.160735
  28 H :    0.165932
  29 H :    0.194499
  30 H :    0.192522
  31 H :    0.181284
  32 H :    0.179026
  33 H :    0.159060
  34 H :    0.166269
  35 H :    0.159247
  36 H :    0.182137
  37 H :    0.195938
  38 H :    0.162510
  39 H :    0.165252
  40 H :    0.158813

  Mayer bond orders larger than 0.100000
B(  0-C ,  1-C ) :   0.9576 B(  0-C , 19-H ) :   0.9712 B(  0-C , 20-H ) :   0.9713
B(  0-C , 21-H ) :   0.9640 B(  1-C ,  2-O ) :   0.7769 B(  1-C , 22-H ) :   0.9453
B(  1-C , 23-H ) :   0.9520 B(  2-O ,  3-P ) :   1.0979 B(  3-P ,  4-S ) :   1.7395
B(  3-P ,  5-O ) :   1.1460 B(  3-P ,  8-S ) :   1.0794 B(  5-O ,  6-C ) :   0.7805
B(  6-C ,  7-C ) :   0.9290 B(  6-C , 24-H ) :   0.9604 B(  6-C , 25-H ) :   0.9622
B(  7-C , 26-H ) :   0.9623 B(  7-C , 27-H ) :   0.9719 B(  7-C , 28-H ) :   0.9582
B(  8-S ,  9-C ) :   0.9187 B(  9-C , 10-S ) :   0.9110 B(  9-C , 29-H ) :   0.9000
B(  9-C , 30-H ) :   0.9031 B( 10-S , 11-P ) :   0.9969 B( 11-P , 12-S ) :   1.8071
B( 11-P , 13-O ) :   1.0424 B( 11-P , 16-O ) :   1.1838 B( 13-O , 14-C ) :   0.8090
B( 14-C , 15-C ) :   0.9138 B( 14-C , 31-H ) :   0.9676 B( 14-C , 32-H ) :   0.9619
B( 15-C , 33-H ) :   0.9689 B( 15-C , 34-H ) :   0.9636 B( 15-C , 35-H ) :   0.9571
B( 16-O , 17-C ) :   0.8148 B( 17-C , 18-C ) :   0.9008 B( 17-C , 36-H ) :   0.9612
B( 17-C , 37-H ) :   0.9502 B( 18-C , 38-H ) :   0.9663 B( 18-C , 39-H ) :   0.9657
B( 18-C , 40-H ) :   0.9595

Dispersion correction           -0.021427611
FINAL SINGLE POINT ENERGY     -2932.463030537929

DIPOLE MOMENT
-------------

Method             : SCF
Type of density    : Electron Density
Multiplicity       :   1
Irrep              :   0
Energy             : -2932.4881604521192457 Eh
Relativity type    :
Basis              : AO
                                X                 Y                 Z
Electronic contribution:     -6.085147293       9.021246870     -14.036981858
Nuclear contribution   :      6.527917440     -10.000345791      15.388553194
                        -----------------------------------------
Total Dipole Moment    :      0.442770147      -0.979098922       1.351571336
                        -----------------------------------------
Magnitude (a.u.)       :      1.726680392
Magnitude (Debye)      :      4.388872767

Rotational constants in cm-1:             0.013772             0.004509             0.004283
Rotational constants in MHz :           412.878968           135.168905           128.387830

                             ****ORCA TERMINATED NORMALLY****
TOTAL RUN TIME: 0 days 0 hours 1 minutes 20 seconds 326 msec
