                         Program Version 6.0.0  -   RELEASE  -
|  1> ! r2scan-3c def2/J RI DEFGRID2 scfconv6 printgap
|  2> %output
|  3>     printlevel normal
|  4> end
|  5> %cpcm
|  6>     smd true
|  7>     smdsolvent "water"
|  8> end
|  9> * xyz 0 1
| 10> C 5.393836224 -1.9824836167 -1.4259072447
| 11> C 4.3281820481 -0.9062128863 -1.4763110795
| 12> O 3.2933558076 -1.2629286087 -0.5379339195
| 13> P 2.2760636424 -0.1891521736 0.0344760684
| 14> S 3.0813388752 1.4785028541 0.6870954665
| 15> O 1.466017139 -1.0409727486 1.0915860132
| 16> C 1.7907253403 -1.0214512326 2.4997185452
| 17> C 3.0984496076 -1.7324292601 2.7725501251
| 18> S 0.8515997744 0.017391243 -1.5190662751
| 19> C 0.0506925731 1.4955091215 -0.8350571336
| 20> S -0.9648615833 1.1319851892 0.6118181876
| 21> P -2.5795178761 0.2257537646 -0.4577643346
| 22> S -2.9532670031 0.985922717 -2.2211627098
| 23> O -3.7987796002 0.2622990014 0.5596048863
| 24> C -4.7079153403 1.3742287556 0.6360293295
| 25> C -4.044458659 2.6262747773 1.1724309714
| 26> O -2.2547844692 -1.3110736187 -0.5716430895
| 27> C -1.6756061228 -2.1882204102 0.4241445928
| 28> C -2.328341448 -2.0619044402 1.7833532548
| 29> H 5.8355527511 -2.0277082049 -0.4345403046
| 30> H 4.955130813 -2.9477597438 -1.6609656641
| 31> H 6.166666778 -1.7518928455 -2.151732751
| 32> H 3.8775996162 -0.8356359278 -2.4700181152
| 33> H 4.7320430593 0.0728179622 -1.1964727463
| 34> H 1.8356845472 0.0209175846 2.8299738388
| 35> H 0.9452880479 -1.5236335463 2.9710602289
| 36> H 3.2708772582 -1.7741654465 3.8433653844
| 37> H 3.0699885108 -2.7407410872 2.3683639203
| 38> H 3.9168643888 -1.1878786783 2.3029674337
| 39> H -0.5799113078 1.9041918332 -1.6257588343
| 40> H 0.8151950291 2.2072860277 -0.5224354839
| 41> H -5.1178544916 1.5548482079 -0.362581526
| 42> H -5.4954532907 1.0192519298 1.3021946997
| 43> H -3.5367307126 2.4156697962 2.1101797908
| 44> H -3.3162586544 2.999925844 0.4542993881
| 45> H -4.7990038065 3.3892906506 1.3344373548
| 46> H -1.8257494866 -3.1801524549 -0.0054081105
| 47> H -0.6049225809 -1.9743744322 0.4800818525
| 48> H -2.1446373511 -1.0733784871 2.2006950137
| 49> H -3.4012717807 -2.2145544295 1.7011606186
| 50> H -1.9090908389 -2.8124329468 2.4468246544
| 51> *
| 52>
| 53>                          ****END OF INPUT****

CARTESIAN COORDINATES (ANGSTROEM)
---------------------------------
  C      5.393836   -1.982484   -1.425907
  C      4.328182   -0.906213   -1.476311
  O      3.293356   -1.262929   -0.537934
  P      2.276064   -0.189152    0.034476
  S      3.081339    1.478503    0.687095
  O      1.466017   -1.040973    1.091586
  C      1.790725   -1.021451    2.499719
  C      3.098450   -1.732429    2.772550
  S      0.851600    0.017391   -1.519066
  C      0.050693    1.495509   -0.835057
  S     -0.964862    1.131985    0.611818
  P     -2.579518    0.225754   -0.457764
  S     -2.953267    0.985923   -2.221163
  O     -3.798780    0.262299    0.559605
  C     -4.707915    1.374229    0.636029
  C     -4.044459    2.626275    1.172431
  O     -2.254784   -1.311074   -0.571643
  C     -1.675606   -2.188220    0.424145
  C     -2.328341   -2.061904    1.783353
  H      5.835553   -2.027708   -0.434540
  H      4.955131   -2.947760   -1.660966
  H      6.166667   -1.751893   -2.151733
  H      3.877600   -0.835636   -2.470018
  H      4.732043    0.072818   -1.196473
  H      1.835685    0.020918    2.829974
  H      0.945288   -1.523634    2.971060
  H      3.270877   -1.774165    3.843365
  H      3.069989   -2.740741    2.368364
  H      3.916864   -1.187879    2.302967
  H     -0.579911    1.904192   -1.625759
  H      0.815195    2.207286   -0.522435
  H     -5.117854    1.554848   -0.362582
  H     -5.495453    1.019252    1.302195
  H     -3.536731    2.415670    2.110180
  H     -3.316259    2.999926    0.454299
  H     -4.799004    3.389291    1.334437
  H     -1.825749   -3.180152   -0.005408
  H     -0.604923   -1.974374    0.480082
  H     -2.144637   -1.073378    2.200695
  H     -3.401272   -2.214554    1.701161
  H     -1.909091   -2.812433    2.446825

 Total Charge           Charge          ....    0
 Multiplicity           Mult            ....    1
 Number of Electrons    NEL             ....  202
 Basis Dimension        Dim             ....  539

ORBITAL ENERGIES
----------------

  NO   OCC          E(Eh)            E(eV)
   0   2.0000     -88.580624     -2410.4013
   1   2.0000     -88.578300     -2410.3381
   2   2.0000     -88.530117     -2409.0270
   3   2.0000     -88.528364     -2408.9793
   4   2.0000     -76.921017     -2093.1273
   5   2.0000     -76.920273     -2093.1070
   6   2.0000     -18.997636      -516.9520
   7   2.0000     -18.996005      -516.9076
   8   2.0000     -18.995211      -516.8860
   9   2.0000     -18.993762      -516.8465
  10   2.0000     -10.103437      -274.9285
  11   2.0000     -10.091139      -274.5939
  12   2.0000     -10.090435      -274.5747
  13   2.0000     -10.090329      -274.5718
  14   2.0000     -10.090202      -274.5683
  15   2.0000     -10.020293      -272.6660
  16   2.0000     -10.020007      -272.6582
  17   2.0000     -10.019220      -272.6368
  18   2.0000     -10.018230      -272.6099
  19   2.0000      -7.874785      -214.2838
  20   2.0000      -7.872599      -214.2243
  21   2.0000      -7.825177      -212.9339
  22   2.0000      -7.823627      -212.8917
  23   2.0000      -6.599335      -179.5770
  24   2.0000      -6.599030      -179.5687
  25   2.0000      -5.821549      -158.4124
  26   2.0000      -5.819427      -158.3547
  27   2.0000      -5.818682      -158.3344
  28   2.0000      -5.816491      -158.2748
  29   2.0000      -5.812037      -158.1536
  30   2.0000      -5.809742      -158.0911
  31   2.0000      -5.772668      -157.0823
  32   2.0000      -5.771172      -157.0416
  33   2.0000      -5.765470      -156.8864
  34   2.0000      -5.765267      -156.8809
  35   2.0000      -5.763892      -156.8435
  36   2.0000      -5.763648      -156.8368
  37   2.0000      -4.745024      -129.1187
  38   2.0000      -4.744345      -129.1002
  39   2.0000      -4.744267      -129.0981
  40   2.0000      -4.743963      -129.0898
  41   2.0000      -4.742970      -129.0628
  42   2.0000      -4.742916      -129.0613
  43   2.0000      -1.054899       -28.7053
  44   2.0000      -1.052799       -28.6481
  45   2.0000      -1.015431       -27.6313
  46   2.0000      -1.013111       -27.5682
  47   2.0000      -0.804927       -21.9032
  48   2.0000      -0.757283       -20.6067
  49   2.0000      -0.746027       -20.3004
  50   2.0000      -0.726359       -19.7652
  51   2.0000      -0.725282       -19.7359
  52   2.0000      -0.711858       -19.3706
  53   2.0000      -0.689234       -18.7550
  54   2.0000      -0.674572       -18.3560
  55   2.0000      -0.632032       -17.1985
  56   2.0000      -0.624452       -16.9922
  57   2.0000      -0.604033       -16.4366
  58   2.0000      -0.593877       -16.1602
  59   2.0000      -0.590682       -16.0733
  60   2.0000      -0.528074       -14.3696
  61   2.0000      -0.513246       -13.9661
  62   2.0000      -0.496743       -13.5171
  63   2.0000      -0.486650       -13.2424
  64   2.0000      -0.478246       -13.0137
  65   2.0000      -0.460112       -12.5203
  66   2.0000      -0.457658       -12.4535
  67   2.0000      -0.449967       -12.2442
  68   2.0000      -0.443923       -12.0798
  69   2.0000      -0.435828       -11.8595
  70   2.0000      -0.423403       -11.5214
  71   2.0000      -0.412026       -11.2118
  72   2.0000      -0.409006       -11.1296
  73   2.0000      -0.397932       -10.8283
  74   2.0000      -0.394081       -10.7235
  75   2.0000      -0.386624       -10.5206
  76   2.0000      -0.383430       -10.4336
  77   2.0000      -0.376540       -10.2462
  78   2.0000      -0.363878        -9.9016
  79   2.0000      -0.359649        -9.7865
  80   2.0000      -0.355072        -9.6620
  81   2.0000      -0.353639        -9.6230
  82   2.0000      -0.352385        -9.5889
  83   2.0000      -0.349449        -9.5090
  84   2.0000      -0.344171        -9.3654
  85   2.0000      -0.329806        -8.9745
  86   2.0000      -0.319976        -8.7070
  87   2.0000      -0.313807        -8.5391
  88   2.0000      -0.307779        -8.3751
  89   2.0000      -0.303869        -8.2687
  90   2.0000      -0.299918        -8.1612
  91   2.0000      -0.290651        -7.9090
  92   2.0000      -0.284821        -7.7504
  93   2.0000      -0.278152        -7.5689
  94   2.0000      -0.276549        -7.5253
  95   2.0000      -0.252706        -6.8765
  96   2.0000      -0.238618        -6.4931
  97   2.0000      -0.235006        -6.3948
  98   2.0000      -0.227084        -6.1793
  99   2.0000      -0.225373        -6.1327
 100   2.0000      -0.221185        -6.0187
 101   0.0000      -0.052145        -1.4190
 102   0.0000      -0.032531        -0.8852
 103   0.0000      -0.006922        -0.1883
 104   0.0000      -0.003201        -0.0871
 105   0.0000       0.014685         0.3996

MULLIKEN ATOMIC CHARGES
-----------------------
   0 C :   -0.482331
   1 C :   -0.145532
   2 O :   -0.315036
   3 P :    0.715971
   4 S :   -0.531841
   5 O :   -0.287170
   6 C :   -0.141410
   7 C :   -0.484958
   8 S :   -0.150474
   9 C :   -0.248244
  10 S :   -0.152179
  11 P :    0.668780
  12 S :   -0.519850
  13 O :   -0.288390
  14 C :   -0.160982
  15 C :   -0.481773
  16 O :   -0.292546
  17 C :   -0.143452
  18 C :   -0.482779
  19 H :    0.166396
  20 H :    0.166487
  21 H :    0.169971
  22 H :    0.172523
  23 H :    0.172414
  24 H :    0.177685
  25 H :    0.180612
  26 H :    0.172969
  27 H :    0.170282
  28 H :    0.167725
  29 H :    0.231894
  30 H :    0.234290
  31 H :    0.178870
  32 H :    0.175995
  33 H :    0.168938
  34 H :    0.172805
  35 H :    0.172082
  36 H :    0.175271
  37 H :    0.184054
  38 H :    0.165623
  39 H :    0.170396
  40 H :    0.176912
Sum of atomic charges:   -0.0000000

LOEWDIN ATOMIC CHARGES
----------------------
   0 C :   -0.388893
   1 C :    0.026363
   2 O :   -0.673842
   3 P :    0.378912
   4 S :   -0.163682
   5 O :   -0.695636
   6 C :    0.024852
   7 C :   -0.401585
   8 S :    0.155083
   9 C :   -0.421615
  10 S :    0.153438
  11 P :    0.388784
  12 S :   -0.154201
  13 O :   -0.677148
  14 C :    0.027184
  15 C :   -0.410839
  16 O :   -0.674323
  17 C :    0.029788
  18 C :   -0.402613
  19 H :    0.162757
  20 H :    0.163570
  21 H :    0.169196
  22 H :    0.180413
  23 H :    0.182027
  24 H :    0.182883
  25 H :    0.191442
  26 H :    0.169411
  27 H :    0.164485
  28 H :    0.162861
  29 H :    0.197802
  30 H :    0.197876
  31 H :    0.181810
  32 H :    0.191141
  33 H :    0.163587
  34 H :    0.161579
  35 H :    0.168256
  36 H :    0.192324
  37 H :    0.196305
  38 H :    0.163124
  39 H :    0.166366
  40 H :    0.170759

  Mayer bond orders larger than 0.100000
B(  0-C ,  1-C ) :   0.9532 B(  0-C , 19-H ) :   0.9687 B(  0-C , 20-H ) :   0.9687
B(  0-C , 21-H ) :   0.9582 B(  1-C ,  2-O ) :   0.7695 B(  1-C , 22-H ) :   0.9369
B(  1-C , 23-H ) :   0.9488 B(  2-O ,  3-P ) :   1.1060 B(  3-P ,  4-S ) :   1.7058
B(  3-P ,  5-O ) :   1.1601 B(  3-P ,  8-S ) :   1.0847 B(  5-O ,  6-C ) :   0.7682
B(  6-C ,  7-C ) :   0.9178 B(  6-C , 24-H ) :   0.9571 B(  6-C , 25-H ) :   0.9512
B(  7-C , 26-H ) :   0.9564 B(  7-C , 27-H ) :   0.9710 B(  7-C , 28-H ) :   0.9583
B(  8-S ,  9-C ) :   0.9059 B(  9-C , 10-S ) :   0.9007 B(  9-C , 29-H ) :   0.8974
B(  9-C , 30-H ) :   0.8998 B( 10-S , 11-P ) :   1.0127 B( 11-P , 12-S ) :   1.7860
B( 11-P , 13-O ) :   1.0536 B( 11-P , 16-O ) :   1.1854 B( 13-O , 14-C ) :   0.7972
B( 14-C , 15-C ) :   0.9036 B( 14-C , 31-H ) :   0.9660 B( 14-C , 32-H ) :   0.9508
B( 15-C , 33-H ) :   0.9660 B( 15-C , 34-H ) :   0.9650 B( 15-C , 35-H ) :   0.9519
B( 16-O , 17-C ) :   0.8050 B( 17-C , 18-C ) :   0.8995 B( 17-C , 36-H ) :   0.9502
B( 17-C , 37-H ) :   0.9437 B( 18-C , 38-H ) :   0.9616 B( 18-C , 39-H ) :   0.9662
B( 18-C , 40-H ) :   0.9503

Dispersion correction           -0.021427611
FINAL SINGLE POINT ENERGY     -2932.471979935286

DIPOLE MOMENT
-------------

Method             : SCF
Type of density    : Electron Density
Multiplicity       :   1
Irrep              :   0
Energy             : -2932.4971098494761463 Eh
Relativity type    :
Basis              : AO
                                X                 Y                 Z
Electronic contribution:     -6.003699176       8.815969409     -13.385176667
Nuclear contribution   :      6.527917440     -10.000345791      15.388553194
                        -----------------------------------------
Total Dipole Moment    :      0.524218264      -1.184376382       2.003376527
                        -----------------------------------------
Magnitude (a.u.)       :      2.385596301
Magnitude (Debye)      :      6.063703906

Rotational constants in cm-1:             0.013772             0.004509             0.004283
Rotational constants in MHz :           412.878968           135.168905           128.387830

                             ****ORCA TERMINATED NORMALLY****
TOTAL RUN TIME: 0 days 0 hours 1 minutes 55 seconds 406 msec
