                         Program Version 6.0.1  -  RELEASE   -
|  1> ! pbe def2-sv(p) def2/J RI DEFGRID1 loosescf d4 GCP(DFT/SV(P)) printgap
|  2> %output
|  3>     printlevel normal
|  4> end
|  5> * xyz 0 1
|  6> C 2.4882358375 -3.9161248266 -0.5483585461
|  7> C 2.8850483371 -3.1668323669 0.7135803116
|  8> O 2.8986977825 -1.7462365043 0.4718549355
|  9> C 1.7961302705 -1.0610491275 0.6667419571
| 10> O 0.7588329484 -1.5373596076 1.0885499932
| 11> C 1.9674188104 0.3995269603 0.3109387045
| 12> C 0.7249277254 0.9006759845 -0.4096146343
| 13> H 0.4670758692 0.2519426989 -1.2566811528
| 14> C 0.8073618796 2.3360384303 -0.9075099905
| 15> O 0.0748914891 2.7636504183 -1.7705852208
| 16> O 1.7300115233 3.0260933767 -0.2808688979
| 17> C 1.8550430621 4.4317648213 -0.5828907167
| 18> C 0.8940977001 5.24857785 0.2654511463
| 19> S -0.7466993039 0.8993872501 0.689524583
| 20> P -1.6422076883 -0.9389471689 0.079051944
| 21> S -0.8967768316 -1.874722819 -1.4691750256
| 22> O -1.9028510218 -1.8507430329 1.3350967562
| 23> C -2.4416887743 -1.3352847227 2.5677829088
| 24> O -3.15595095 -0.4490892267 -0.1922941502
| 25> C -3.4674328302 0.3829137378 -1.3092877081
| 26> H 3.1708288226 -3.6759581252 -1.3585937925
| 27> H 2.5166900629 -4.9838297273 -0.3585225029
| 28> H 1.4790087343 -3.639435742 -0.8501906822
| 29> H 3.9053029304 -3.404643459 1.0147603992
| 30> H 2.1839475809 -3.3775585536 1.5259188761
| 31> H 2.8461750494 0.5078890996 -0.3242395623
| 32> H 2.1179784899 0.972643572 1.2281737076
| 33> H 2.8934763124 4.6667303967 -0.3505396872
| 34> H 1.6557809342 4.5789608704 -1.647729715
| 35> H 1.0674793506 5.0551593176 1.3202042201
| 36> H 1.0455100643 6.3037205315 0.0637620559
| 37> H -0.1331371265 4.9855142397 0.0234558276
| 38> H -3.4274352673 -0.9071945532 2.3940557568
| 39> H -1.7688637826 -0.5818538342 2.976780255
| 40> H -2.5015309226 -2.196074829 3.2286219936
| 41> H -3.1439920567 -0.0955259378 -2.2354110454
| 42> H -2.9756254372 1.3522482316 -1.2098711549
| 43> H -4.547770939 0.499555173 -1.2977971454
| 44> *
| 45>
| 46>                          ****END OF INPUT****

CARTESIAN COORDINATES (ANGSTROEM)
---------------------------------
  C      2.488236   -3.916125   -0.548359
  C      2.885048   -3.166832    0.713580
  O      2.898698   -1.746237    0.471855
  C      1.796130   -1.061049    0.666742
  O      0.758833   -1.537360    1.088550
  C      1.967419    0.399527    0.310939
  C      0.724928    0.900676   -0.409615
  H      0.467076    0.251943   -1.256681
  C      0.807362    2.336038   -0.907510
  O      0.074891    2.763650   -1.770585
  O      1.730012    3.026093   -0.280869
  C      1.855043    4.431765   -0.582891
  C      0.894098    5.248578    0.265451
  S     -0.746699    0.899387    0.689525
  P     -1.642208   -0.938947    0.079052
  S     -0.896777   -1.874723   -1.469175
  O     -1.902851   -1.850743    1.335097
  C     -2.441689   -1.335285    2.567783
  O     -3.155951   -0.449089   -0.192294
  C     -3.467433    0.382914   -1.309288
  H      3.170829   -3.675958   -1.358594
  H      2.516690   -4.983830   -0.358523
  H      1.479009   -3.639436   -0.850191
  H      3.905303   -3.404643    1.014760
  H      2.183948   -3.377559    1.525919
  H      2.846175    0.507889   -0.324240
  H      2.117978    0.972644    1.228174
  H      2.893476    4.666730   -0.350540
  H      1.655781    4.578961   -1.647730
  H      1.067479    5.055159    1.320204
  H      1.045510    6.303721    0.063762
  H     -0.133137    4.985514    0.023456
  H     -3.427435   -0.907195    2.394056
  H     -1.768864   -0.581854    2.976780
  H     -2.501531   -2.196075    3.228622
  H     -3.143992   -0.095526   -2.235411
  H     -2.975625    1.352248   -1.209871
  H     -4.547771    0.499555   -1.297797

 Total Charge           Charge          ....    0
 Multiplicity           Mult            ....    1
 Number of Electrons    NEL             ....  174
 Basis Dimension        Dim             ....  316

ORBITAL ENERGIES
----------------

  NO   OCC          E(Eh)            E(eV)
   0   2.0000     -88.036402     -2395.5923
   1   2.0000     -87.978332     -2394.0121
   2   2.0000     -76.419473     -2079.4796
   3   2.0000     -18.814128      -511.9584
   4   2.0000     -18.806245      -511.7439
   5   2.0000     -18.785658      -511.1837
   6   2.0000     -18.777573      -510.9637
   7   2.0000     -18.742018      -509.9962
   8   2.0000     -18.739138      -509.9179
   9   2.0000     -10.017793      -272.5980
  10   2.0000     -10.012122      -272.4437
  11   2.0000      -9.955984      -270.9161
  12   2.0000      -9.945473      -270.6301
  13   2.0000      -9.945322      -270.6260
  14   2.0000      -9.941869      -270.5320
  15   2.0000      -9.929624      -270.1988
  16   2.0000      -9.909503      -269.6513
  17   2.0000      -9.893044      -269.2034
  18   2.0000      -9.878456      -268.8064
  19   2.0000      -7.680625      -209.0004
  20   2.0000      -7.623389      -207.4430
  21   2.0000      -6.415946      -174.5868
  22   2.0000      -5.708618      -155.3394
  23   2.0000      -5.705462      -155.2535
  24   2.0000      -5.697306      -155.0316
  25   2.0000      -5.652516      -153.8128
  26   2.0000      -5.644243      -153.5877
  27   2.0000      -5.643004      -153.5540
  28   2.0000      -4.638638      -126.2238
  29   2.0000      -4.637853      -126.2024
  30   2.0000      -4.636409      -126.1631
  31   2.0000      -1.021508       -27.7967
  32   2.0000      -1.013656       -27.5830
  33   2.0000      -0.977569       -26.6010
  34   2.0000      -0.930971       -25.3330
  35   2.0000      -0.922092       -25.0914
  36   2.0000      -0.917297       -24.9609
  37   2.0000      -0.762287       -20.7429
  38   2.0000      -0.711333       -19.3564
  39   2.0000      -0.708678       -19.2841
  40   2.0000      -0.687471       -18.7070
  41   2.0000      -0.655569       -17.8389
  42   2.0000      -0.626808       -17.0563
  43   2.0000      -0.621130       -16.9018
  44   2.0000      -0.614634       -16.7250
  45   2.0000      -0.593833       -16.1590
  46   2.0000      -0.568452       -15.4684
  47   2.0000      -0.510125       -13.8812
  48   2.0000      -0.502240       -13.6666
  49   2.0000      -0.497955       -13.5500
  50   2.0000      -0.475726       -12.9452
  51   2.0000      -0.466267       -12.6878
  52   2.0000      -0.459409       -12.5012
  53   2.0000      -0.450822       -12.2675
  54   2.0000      -0.435076       -11.8390
  55   2.0000      -0.425464       -11.5775
  56   2.0000      -0.424690       -11.5564
  57   2.0000      -0.418225       -11.3805
  58   2.0000      -0.411952       -11.2098
  59   2.0000      -0.404760       -11.0141
  60   2.0000      -0.399946       -10.8831
  61   2.0000      -0.393764       -10.7149
  62   2.0000      -0.388625       -10.5750
  63   2.0000      -0.385890       -10.5006
  64   2.0000      -0.376722       -10.2511
  65   2.0000      -0.367974       -10.0131
  66   2.0000      -0.363964        -9.9040
  67   2.0000      -0.353155        -9.6098
  68   2.0000      -0.348473        -9.4824
  69   2.0000      -0.337021        -9.1708
  70   2.0000      -0.332875        -9.0580
  71   2.0000      -0.330534        -8.9943
  72   2.0000      -0.323972        -8.8157
  73   2.0000      -0.306454        -8.3390
  74   2.0000      -0.303209        -8.2507
  75   2.0000      -0.294695        -8.0191
  76   2.0000      -0.289508        -7.8779
  77   2.0000      -0.287574        -7.8253
  78   2.0000      -0.268413        -7.3039
  79   2.0000      -0.264243        -7.1904
  80   2.0000      -0.261031        -7.1030
  81   2.0000      -0.252452        -6.8696
  82   2.0000      -0.236710        -6.4412
  83   2.0000      -0.228382        -6.2146
  84   2.0000      -0.205703        -5.5975
  85   2.0000      -0.198714        -5.4073
  86   2.0000      -0.189601        -5.1593
  87   0.0000      -0.048617        -1.3229
  88   0.0000      -0.035425        -0.9640
  89   0.0000      -0.026303        -0.7157
  90   0.0000       0.025629         0.6974
  91   0.0000       0.031943         0.8692

MULLIKEN ATOMIC CHARGES
-----------------------
   0 C :   -0.314452
   1 C :   -0.015238
   2 O :   -0.219109
   3 C :    0.129165
   4 O :   -0.206805
   5 C :   -0.011496
   6 C :   -0.388692
   7 H :    0.155192
   8 C :    0.221760
   9 O :   -0.184695
  10 O :   -0.227161
  11 C :   -0.013278
  12 C :   -0.305642
  13 S :   -0.106056
  14 P :    0.631319
  15 S :   -0.308427
  16 O :   -0.353128
  17 C :   -0.105191
  18 O :   -0.391498
  19 C :   -0.103446
  20 H :    0.109879
  21 H :    0.109510
  22 H :    0.146178
  23 H :    0.101624
  24 H :    0.110433
  25 H :    0.108410
  26 H :    0.118780
  27 H :    0.106042
  28 H :    0.113846
  29 H :    0.115940
  30 H :    0.116775
  31 H :    0.131763
  32 H :    0.123082
  33 H :    0.122717
  34 H :    0.131239
  35 H :    0.115945
  36 H :    0.117145
  37 H :    0.117568
Sum of atomic charges:   -0.0000000

LOEWDIN ATOMIC CHARGES
----------------------
   0 C :   -0.359557
   1 C :   -0.110805
   2 O :   -0.049156
   3 C :    0.038429
   4 O :   -0.173696
   5 C :   -0.253895
   6 C :   -0.264838
   7 H :    0.134497
   8 C :    0.009673
   9 O :   -0.157293
  10 O :   -0.050016
  11 C :   -0.108992
  12 C :   -0.355378
  13 S :    0.099622
  14 P :    0.595891
  15 S :   -0.297882
  16 O :   -0.227418
  17 C :   -0.207390
  18 O :   -0.268216
  19 C :   -0.222642
  20 H :    0.123363
  21 H :    0.129710
  22 H :    0.130495
  23 H :    0.116747
  24 H :    0.121025
  25 H :    0.139062
  26 H :    0.145239
  27 H :    0.119350
  28 H :    0.122974
  29 H :    0.125908
  30 H :    0.132606
  31 H :    0.133101
  32 H :    0.114932
  33 H :    0.111858
  34 H :    0.126716
  35 H :    0.110037
  36 H :    0.107421
  37 H :    0.118518

  Mayer bond orders larger than 0.100000
B(  0-C ,  1-C ) :   1.1772 B(  0-C , 20-H ) :   0.9490 B(  0-C , 21-H ) :   0.9423
B(  0-C , 22-H ) :   0.9302 B(  1-C ,  2-O ) :   0.9052 B(  1-C , 23-H ) :   0.9368
B(  1-C , 24-H ) :   0.9111 B(  2-O ,  3-C ) :   1.2664 B(  3-C ,  4-O ) :   1.9622
B(  3-C ,  5-C ) :   1.0021 B(  5-C ,  6-C ) :   0.9893 B(  5-C , 25-H ) :   0.9007
B(  5-C , 26-H ) :   0.8687 B(  6-C ,  7-H ) :   0.8398 B(  6-C ,  8-C ) :   0.9031
B(  6-C , 13-S ) :   1.0240 B(  7-H , 15-S ) :   0.1115 B(  8-C ,  9-O ) :   2.0700
B(  8-C , 10-O ) :   1.2488 B( 10-O , 11-C ) :   0.9062 B( 11-C , 12-C ) :   1.1774
B( 11-C , 27-H ) :   0.9368 B( 11-C , 28-H ) :   0.9126 B( 12-C , 29-H ) :   0.9484
B( 12-C , 30-H ) :   0.9437 B( 12-C , 31-H ) :   0.9445 B( 13-S , 14-P ) :   0.9284
B( 13-S , 15-S ) :   0.1146 B( 14-P , 15-S ) :   1.6023 B( 14-P , 16-O ) :   1.1439
B( 14-P , 18-O ) :   1.0543 B( 16-O , 17-C ) :   0.9206 B( 17-C , 32-H ) :   0.9456
B( 17-C , 33-H ) :   0.9409 B( 17-C , 34-H ) :   0.9600 B( 18-O , 19-C ) :   0.9391
B( 19-C , 35-H ) :   0.9384 B( 19-C , 36-H ) :   0.9379 B( 19-C , 37-H ) :   0.9585

Dispersion correction           -0.051372312
FINAL SINGLE POINT ENERGY     -1979.015672999261

DIPOLE MOMENT
-------------

Method             : SCF
Type of density    : Electron Density
Multiplicity       :   1
Irrep              :   0
Energy             : -1979.1460949604902453 Eh
Relativity type    :
Basis              : AO
                                X                 Y                 Z
Electronic contribution:     -7.115938183      -5.892823309      -1.558855644
Nuclear contribution   :      7.948194248       6.792254450       2.669298552
                        -----------------------------------------
Total Dipole Moment    :      0.832256065       0.899431141       1.110442907
                        -----------------------------------------
Magnitude (a.u.)       :      1.653695857
Magnitude (Debye)      :      4.203360822

Rotational constants in cm-1:             0.011006             0.007774             0.005604
Rotational constants in MHz :           329.946696           233.065005           168.002925

                             ****ORCA TERMINATED NORMALLY****
TOTAL RUN TIME: 0 days 0 hours 0 minutes 38 seconds 809 msec
