                         Program Version 6.0.1  -  RELEASE   -
|  1> ! pbe def2-sv(p) def2/J RI DEFGRID1 loosescf d4 GCP(DFT/SV(P)) printgap
|  2> %output
|  3>     printlevel normal
|  4> end
|  5> * xyz 0 1
|  6> C 2.8916909249 -3.1168811505 1.2832423122
|  7> C 2.969691302 -1.6011852699 1.3431796805
|  8> O 2.7154155012 -1.0514854019 0.0343890471
|  9> C 1.6365005486 -0.3577665893 -0.1930756799
| 10> O 0.8002949217 -0.0552964103 0.6483414867
| 11> C 1.5122725254 0.0912219678 -1.6278221274
| 12> C 0.3211558345 1.0316249721 -1.7368588603
| 13> H 0.3221542537 1.5506279013 -2.6990132945
| 14> C 0.313540851 2.0685976459 -0.6215346307
| 15> O -0.6834645659 2.4597319003 -0.0605863748
| 16> O 1.5296628132 2.5251954314 -0.3985227228
| 17> C 1.7010937925 3.5438561266 0.6082484389
| 18> C 2.9686779723 4.3138424641 0.2926085891
| 19> S -1.2885661104 0.1697504824 -1.7558508785
| 20> P -1.6580233274 -0.8206543932 0.0815684942
| 21> S -0.7614178032 -2.5088241562 0.5525451805
| 22> O -1.9262672865 0.2346141566 1.2304320909
| 23> C -1.3066829971 0.2396730471 2.5133714482
| 24> O -3.2098751636 -1.1108053116 -0.2140129124
| 25> C -3.6264085277 -2.096734025 -1.1618890912
| 26> H 3.1604285971 -3.5269501134 2.2508883973
| 27> H 1.8791664496 -3.4302909896 1.0358031799
| 28> H 3.5742203776 -3.4946567763 0.528174054
| 29> H 3.9748590991 -1.2665613838 1.6065430241
| 30> H 2.2379573392 -1.1951357678 2.0463619008
| 31> H 1.3764946561 -0.781738196 -2.2686952461
| 32> H 2.4336755789 0.5959506898 -1.920600451
| 33> H 0.8156019417 4.1867552493 0.6041086059
| 34> H 1.7640569408 3.0431258097 1.5796829145
| 35> H 2.886763963 4.7858222752 -0.6818957973
| 36> H 3.1169518111 5.0780065492 1.0482460723
| 37> H 3.8219889215 3.6427227707 0.289248808
| 38> H -0.5731848873 1.0442735277 2.5419540373
| 39> H -0.8168456295 -0.7171791242 2.7057018875
| 40> H -2.0997986853 0.4145649545 3.237248862
| 41> H -4.6761524968 -2.2823497565 -0.9484165089
| 42> H -3.044768289 -3.0117518693 -1.0299227895
| 43> H -3.5017262528 -1.7185609514 -2.1763782855
| 44> *
| 45>
| 46>                          ****END OF INPUT****

CARTESIAN COORDINATES (ANGSTROEM)
---------------------------------
  C      2.891691   -3.116881    1.283242
  C      2.969691   -1.601185    1.343180
  O      2.715416   -1.051485    0.034389
  C      1.636501   -0.357767   -0.193076
  O      0.800295   -0.055296    0.648341
  C      1.512273    0.091222   -1.627822
  C      0.321156    1.031625   -1.736859
  H      0.322154    1.550628   -2.699013
  C      0.313541    2.068598   -0.621535
  O     -0.683465    2.459732   -0.060586
  O      1.529663    2.525195   -0.398523
  C      1.701094    3.543856    0.608248
  C      2.968678    4.313842    0.292609
  S     -1.288566    0.169750   -1.755851
  P     -1.658023   -0.820654    0.081568
  S     -0.761418   -2.508824    0.552545
  O     -1.926267    0.234614    1.230432
  C     -1.306683    0.239673    2.513371
  O     -3.209875   -1.110805   -0.214013
  C     -3.626409   -2.096734   -1.161889
  H      3.160429   -3.526950    2.250888
  H      1.879166   -3.430291    1.035803
  H      3.574220   -3.494657    0.528174
  H      3.974859   -1.266561    1.606543
  H      2.237957   -1.195136    2.046362
  H      1.376495   -0.781738   -2.268695
  H      2.433676    0.595951   -1.920600
  H      0.815602    4.186755    0.604109
  H      1.764057    3.043126    1.579683
  H      2.886764    4.785822   -0.681896
  H      3.116952    5.078007    1.048246
  H      3.821989    3.642723    0.289249
  H     -0.573185    1.044274    2.541954
  H     -0.816846   -0.717179    2.705702
  H     -2.099799    0.414565    3.237249
  H     -4.676152   -2.282350   -0.948417
  H     -3.044768   -3.011752   -1.029923
  H     -3.501726   -1.718561   -2.176378

 Total Charge           Charge          ....    0
 Multiplicity           Mult            ....    1
 Number of Electrons    NEL             ....  174
 Basis Dimension        Dim             ....  316

ORBITAL ENERGIES
----------------

  NO   OCC          E(Eh)            E(eV)
   0   2.0000     -88.029666     -2395.4090
   1   2.0000     -87.966938     -2393.7021
   2   2.0000     -76.415080     -2079.3600
   3   2.0000     -18.817162      -512.0410
   4   2.0000     -18.808950      -511.8175
   5   2.0000     -18.774661      -510.8845
   6   2.0000     -18.770724      -510.7774
   7   2.0000     -18.757018      -510.4044
   8   2.0000     -18.733913      -509.7757
   9   2.0000     -10.025802      -272.8159
  10   2.0000     -10.014214      -272.5006
  11   2.0000      -9.953397      -270.8457
  12   2.0000      -9.953048      -270.8362
  13   2.0000      -9.950666      -270.7714
  14   2.0000      -9.928480      -270.1677
  15   2.0000      -9.926694      -270.1191
  16   2.0000      -9.918627      -269.8996
  17   2.0000      -9.895446      -269.2688
  18   2.0000      -9.884261      -268.9644
  19   2.0000      -7.674591      -208.8362
  20   2.0000      -7.612147      -207.1370
  21   2.0000      -6.411044      -174.4534
  22   2.0000      -5.703075      -155.1885
  23   2.0000      -5.698852      -155.0736
  24   2.0000      -5.691160      -154.8643
  25   2.0000      -5.641108      -153.5023
  26   2.0000      -5.632856      -153.2778
  27   2.0000      -5.632076      -153.2566
  28   2.0000      -4.633520      -126.0845
  29   2.0000      -4.633282      -126.0780
  30   2.0000      -4.631478      -126.0289
  31   2.0000      -1.026595       -27.9351
  32   2.0000      -1.014562       -27.6076
  33   2.0000      -0.967766       -26.3343
  34   2.0000      -0.933153       -25.3924
  35   2.0000      -0.923800       -25.1379
  36   2.0000      -0.915472       -24.9112
  37   2.0000      -0.765090       -20.8191
  38   2.0000      -0.717870       -19.5342
  39   2.0000      -0.710591       -19.3362
  40   2.0000      -0.686265       -18.6742
  41   2.0000      -0.654585       -17.8122
  42   2.0000      -0.622636       -16.9428
  43   2.0000      -0.614843       -16.7307
  44   2.0000      -0.608253       -16.5514
  45   2.0000      -0.594928       -16.1888
  46   2.0000      -0.564519       -15.3613
  47   2.0000      -0.517868       -14.0919
  48   2.0000      -0.511208       -13.9107
  49   2.0000      -0.494901       -13.4669
  50   2.0000      -0.489186       -13.3114
  51   2.0000      -0.461301       -12.5526
  52   2.0000      -0.457399       -12.4465
  53   2.0000      -0.450808       -12.2671
  54   2.0000      -0.444596       -12.0981
  55   2.0000      -0.433123       -11.7859
  56   2.0000      -0.419343       -11.4109
  57   2.0000      -0.415213       -11.2985
  58   2.0000      -0.406727       -11.0676
  59   2.0000      -0.404151       -10.9975
  60   2.0000      -0.397624       -10.8199
  61   2.0000      -0.394408       -10.7324
  62   2.0000      -0.386580       -10.5194
  63   2.0000      -0.381679       -10.3860
  64   2.0000      -0.377716       -10.2782
  65   2.0000      -0.367418        -9.9979
  66   2.0000      -0.358891        -9.7659
  67   2.0000      -0.356862        -9.7107
  68   2.0000      -0.353490        -9.6190
  69   2.0000      -0.342591        -9.3224
  70   2.0000      -0.339266        -9.2319
  71   2.0000      -0.327447        -8.9103
  72   2.0000      -0.324638        -8.8338
  73   2.0000      -0.306029        -8.3275
  74   2.0000      -0.302320        -8.2266
  75   2.0000      -0.298368        -8.1190
  76   2.0000      -0.286147        -7.7864
  77   2.0000      -0.276685        -7.5290
  78   2.0000      -0.268887        -7.3168
  79   2.0000      -0.264210        -7.1895
  80   2.0000      -0.249378        -6.7859
  81   2.0000      -0.246760        -6.7147
  82   2.0000      -0.239941        -6.5291
  83   2.0000      -0.225013        -6.1229
  84   2.0000      -0.214655        -5.8410
  85   2.0000      -0.185594        -5.0503
  86   2.0000      -0.179387        -4.8814
  87   0.0000      -0.046313        -1.2602
  88   0.0000      -0.025506        -0.6941
  89   0.0000      -0.020870        -0.5679
  90   0.0000      -0.004888        -0.1330
  91   0.0000       0.028431         0.7737

MULLIKEN ATOMIC CHARGES
-----------------------
   0 C :   -0.299569
   1 C :   -0.023162
   2 O :   -0.210259
   3 C :    0.141966
   4 O :   -0.226435
   5 C :   -0.060689
   6 C :   -0.302316
   7 H :    0.146257
   8 C :    0.191803
   9 O :   -0.168059
  10 O :   -0.249906
  11 C :   -0.029719
  12 C :   -0.277930
  13 S :   -0.091864
  14 P :    0.641886
  15 S :   -0.373065
  16 O :   -0.348991
  17 C :   -0.089443
  18 O :   -0.375058
  19 C :   -0.103751
  20 H :    0.110015
  21 H :    0.141134
  22 H :    0.111023
  23 H :    0.103290
  24 H :    0.120225
  25 H :    0.137153
  26 H :    0.124108
  27 H :    0.117206
  28 H :    0.109195
  29 H :    0.115186
  30 H :    0.114348
  31 H :    0.113269
  32 H :    0.114628
  33 H :    0.115408
  34 H :    0.115832
  35 H :    0.120914
  36 H :    0.112241
  37 H :    0.113129
Sum of atomic charges:   -0.0000000

LOEWDIN ATOMIC CHARGES
----------------------
   0 C :   -0.356508
   1 C :   -0.106812
   2 O :   -0.033386
   3 C :    0.043443
   4 O :   -0.164316
   5 C :   -0.253919
   6 C :   -0.264124
   7 H :    0.152010
   8 C :    0.005716
   9 O :   -0.146726
  10 O :   -0.067559
  11 C :   -0.106257
  12 C :   -0.350796
  13 S :    0.113535
  14 P :    0.582715
  15 S :   -0.345045
  16 O :   -0.220683
  17 C :   -0.208407
  18 O :   -0.257529
  19 C :   -0.220834
  20 H :    0.130260
  21 H :    0.127366
  22 H :    0.124289
  23 H :    0.117246
  24 H :    0.122618
  25 H :    0.150283
  26 H :    0.147793
  27 H :    0.121332
  28 H :    0.117105
  29 H :    0.126820
  30 H :    0.131967
  31 H :    0.125327
  32 H :    0.109947
  33 H :    0.105069
  34 H :    0.116256
  35 H :    0.120290
  36 H :    0.105710
  37 H :    0.105807

  Mayer bond orders larger than 0.100000
B(  0-C ,  1-C ) :   1.1794 B(  0-C , 20-H ) :   0.9419 B(  0-C , 21-H ) :   0.9311
B(  0-C , 22-H ) :   0.9482 B(  1-C ,  2-O ) :   0.8925 B(  1-C , 23-H ) :   0.9345
B(  1-C , 24-H ) :   0.9066 B(  2-O ,  3-C ) :   1.2950 B(  3-C ,  4-O ) :   1.8650
B(  3-C ,  5-C ) :   1.0090 B(  5-C ,  6-C ) :   1.0314 B(  5-C , 25-H ) :   0.8823
B(  5-C , 26-H ) :   0.8743 B(  6-C ,  7-H ) :   0.8646 B(  6-C ,  8-C ) :   0.8752
B(  6-C , 13-S ) :   1.0593 B(  8-C ,  9-O ) :   2.1089 B(  8-C , 10-O ) :   1.2101
B( 10-O , 11-C ) :   0.9045 B( 11-C , 12-C ) :   1.1562 B( 11-C , 27-H ) :   0.9200
B( 11-C , 28-H ) :   0.9328 B( 12-C , 29-H ) :   0.9516 B( 12-C , 30-H ) :   0.9437
B( 12-C , 31-H ) :   0.9489 B( 13-S , 14-P ) :   0.9627 B( 13-S , 15-S ) :   0.1117
B( 14-P , 15-S ) :   1.5556 B( 14-P , 16-O ) :   1.1472 B( 14-P , 18-O ) :   1.0701
B( 16-O , 17-C ) :   0.9309 B( 17-C , 32-H ) :   0.9509 B( 17-C , 33-H ) :   0.9301
B( 17-C , 34-H ) :   0.9537 B( 18-O , 19-C ) :   0.9447 B( 19-C , 35-H ) :   0.9597
B( 19-C , 36-H ) :   0.9285 B( 19-C , 37-H ) :   0.9476

Dispersion correction           -0.054188030
FINAL SINGLE POINT ENERGY     -1979.005534509402

DIPOLE MOMENT
-------------

Method             : SCF
Type of density    : Electron Density
Multiplicity       :   1
Irrep              :   0
Energy             : -1979.1357065754318683 Eh
Relativity type    :
Basis              : AO
                                X                 Y                 Z
Electronic contribution:    -15.327246432      -2.964985777      -7.309425716
Nuclear contribution   :     17.151614873       3.581773222       7.250243857
                        -----------------------------------------
Total Dipole Moment    :      1.824368442       0.616787446      -0.059181859
                        -----------------------------------------
Magnitude (a.u.)       :      1.926719870
Magnitude (Debye)      :      4.897332712

Rotational constants in cm-1:             0.012416             0.008557             0.006516
Rotational constants in MHz :           372.228889           256.524182           195.348069

                             ****ORCA TERMINATED NORMALLY****
TOTAL RUN TIME: 0 days 0 hours 0 minutes 45 seconds 602 msec
