                         Program Version 6.0.0  -   RELEASE  -
|  1> ! pbe def2-sv(p) def2/J RI DEFGRID1 loosescf d4 GCP(DFT/SV(P)) printgap
|  2> %output
|  3>     printlevel normal
|  4> end
|  5> * xyz 0 1
|  6> C 3.7571135093 1.5424380758 -1.7513837235
|  7> C 2.4122493246 0.8760896041 -1.9532909456
|  8> O 2.2459327808 -0.2590243478 -1.085894793
|  9> P 2.0353998631 -0.1011190665 0.4929819968
| 10> S 1.0274368046 1.4755597254 1.0611708596
| 11> O 3.4657161431 -0.0748073336 1.1728341067
| 12> C 4.4843810122 -1.0736817977 0.9168570972
| 13> C 4.5849427587 -2.0391201936 2.0803383695
| 14> S 1.3251787925 -2.0396430958 0.8965263456
| 15> C -0.2494422044 -2.026910377 0.0020104512
| 16> S -1.6386154414 -1.3442403632 0.9753209911
| 17> P -2.162799725 0.326712708 -0.2017289202
| 18> S -1.1108098821 0.66327993 -1.8255656365
| 19> O -2.208416769 1.4248320311 0.9313467416
| 20> C -2.1724777465 2.8413722645 0.6718632654
| 21> C -3.3456107664 3.3053643553 -0.1651406341
| 22> O -3.7203368076 0.1468518499 -0.4906575487
| 23> C -4.2281180396 -0.541239344 -1.6445259485
| 24> C -3.912586553 -2.0233145208 -1.6168414109
| 25> H 4.5611086459 0.8279218184 -1.9078773931
| 26> H 3.859581403 2.3603897065 -2.4574909983
| 27> H 3.8225441536 1.9394664455 -0.7384994164
| 28> H 2.3040459801 0.4600780688 -2.9560169288
| 29> H 1.5962454439 1.5813056897 -1.7667795048
| 30> H 4.2486773204 -1.5952579152 -0.0138711418
| 31> H 5.4062403404 -0.501132811 0.7991743305
| 32> H 3.6629944423 -2.6071074158 2.1843224208
| 33> H 5.4077628164 -2.7241296224 1.9022853138
| 34> H 4.7654593156 -1.4918009646 3.0013285575
| 35> H -0.4745076809 -3.0704792387 -0.2003397503
| 36> H -0.1413067159 -1.4505688388 -0.9205361857
| 37> H -2.1814753663 3.2824811946 1.6695918891
| 38> H -1.2193333988 3.0748679331 0.1862885707
| 39> H -3.2831988592 2.8767103213 -1.165029004
| 40> H -4.2798417866 2.9935781879 0.2949527615
| 41> H -3.3218893898 4.3877425763 -0.2436025401
| 42> H -5.3025897811 -0.3574113815 -1.6059140872
| 43> H -3.8020802428 -0.0755405636 -2.5392387736
| 44> H -4.4297933847 -2.5150406712 -2.4344601952
| 45> H -2.8404891494 -2.1762584068 -1.7344645696
| 46> H -4.2295041902 -2.4593410724 -0.6728515174
| 47> *
| 48>
| 49>                          ****END OF INPUT****

CARTESIAN COORDINATES (ANGSTROEM)
---------------------------------
  C      3.757114    1.542438   -1.751384
  C      2.412249    0.876090   -1.953291
  O      2.245933   -0.259024   -1.085895
  P      2.035400   -0.101119    0.492982
  S      1.027437    1.475560    1.061171
  O      3.465716   -0.074807    1.172834
  C      4.484381   -1.073682    0.916857
  C      4.584943   -2.039120    2.080338
  S      1.325179   -2.039643    0.896526
  C     -0.249442   -2.026910    0.002010
  S     -1.638615   -1.344240    0.975321
  P     -2.162800    0.326713   -0.201729
  S     -1.110810    0.663280   -1.825566
  O     -2.208417    1.424832    0.931347
  C     -2.172478    2.841372    0.671863
  C     -3.345611    3.305364   -0.165141
  O     -3.720337    0.146852   -0.490658
  C     -4.228118   -0.541239   -1.644526
  C     -3.912587   -2.023315   -1.616841
  H      4.561109    0.827922   -1.907877
  H      3.859581    2.360390   -2.457491
  H      3.822544    1.939466   -0.738499
  H      2.304046    0.460078   -2.956017
  H      1.596245    1.581306   -1.766780
  H      4.248677   -1.595258   -0.013871
  H      5.406240   -0.501133    0.799174
  H      3.662994   -2.607107    2.184322
  H      5.407763   -2.724130    1.902285
  H      4.765459   -1.491801    3.001329
  H     -0.474508   -3.070479   -0.200340
  H     -0.141307   -1.450569   -0.920536
  H     -2.181475    3.282481    1.669592
  H     -1.219333    3.074868    0.186289
  H     -3.283199    2.876710   -1.165029
  H     -4.279842    2.993578    0.294953
  H     -3.321889    4.387743   -0.243603
  H     -5.302590   -0.357411   -1.605914
  H     -3.802080   -0.075541   -2.539239
  H     -4.429793   -2.515041   -2.434460
  H     -2.840489   -2.176258   -1.734465
  H     -4.229504   -2.459341   -0.672852

 Total Charge           Charge          ....    0
 Multiplicity           Mult            ....    1
 Number of Electrons    NEL             ....  202
 Basis Dimension        Dim             ....  334

ORBITAL ENERGIES
----------------

  NO   OCC          E(Eh)            E(eV)
   0   2.0000     -88.041435     -2395.7292
   1   2.0000     -88.037618     -2395.6254
   2   2.0000     -87.988906     -2394.2999
   3   2.0000     -87.974955     -2393.9202
   4   2.0000     -76.423721     -2079.5952
   5   2.0000     -76.419705     -2079.4859
   6   2.0000     -18.791314      -511.3377
   7   2.0000     -18.785937      -511.1913
   8   2.0000     -18.784913      -511.1635
   9   2.0000     -18.782832      -511.1068
  10   2.0000      -9.956886      -270.9407
  11   2.0000      -9.956219      -270.9225
  12   2.0000      -9.949768      -270.7470
  13   2.0000      -9.945196      -270.6226
  14   2.0000      -9.942267      -270.5428
  15   2.0000      -9.888436      -269.0780
  16   2.0000      -9.884418      -268.9687
  17   2.0000      -9.881511      -268.8896
  18   2.0000      -9.878936      -268.8195
  19   2.0000      -7.687010      -209.1742
  20   2.0000      -7.683109      -209.0680
  21   2.0000      -7.633584      -207.7204
  22   2.0000      -7.620038      -207.3518
  23   2.0000      -6.421106      -174.7272
  24   2.0000      -6.417633      -174.6327
  25   2.0000      -5.714948      -155.5116
  26   2.0000      -5.711367      -155.4142
  27   2.0000      -5.711019      -155.4047
  28   2.0000      -5.707742      -155.3155
  29   2.0000      -5.703956      -155.2125
  30   2.0000      -5.699822      -155.1000
  31   2.0000      -5.662289      -154.0787
  32   2.0000      -5.654745      -153.8734
  33   2.0000      -5.653398      -153.8368
  34   2.0000      -5.649097      -153.7197
  35   2.0000      -5.640661      -153.4902
  36   2.0000      -5.640007      -153.4724
  37   2.0000      -4.643289      -126.3503
  38   2.0000      -4.642738      -126.3353
  39   2.0000      -4.642086      -126.3176
  40   2.0000      -4.640642      -126.2783
  41   2.0000      -4.639200      -126.2390
  42   2.0000      -4.637868      -126.2028
  43   2.0000      -0.981549       -26.7093
  44   2.0000      -0.981105       -26.6972
  45   2.0000      -0.940888       -25.6029
  46   2.0000      -0.938736       -25.5443
  47   2.0000      -0.759703       -20.6726
  48   2.0000      -0.719179       -19.5699
  49   2.0000      -0.707287       -19.2463
  50   2.0000      -0.689522       -18.7628
  51   2.0000      -0.683646       -18.6029
  52   2.0000      -0.671332       -18.2679
  53   2.0000      -0.650449       -17.6996
  54   2.0000      -0.633378       -17.2351
  55   2.0000      -0.601326       -16.3629
  56   2.0000      -0.582809       -15.8590
  57   2.0000      -0.576035       -15.6747
  58   2.0000      -0.569364       -15.4932
  59   2.0000      -0.559136       -15.2149
  60   2.0000      -0.498843       -13.5742
  61   2.0000      -0.487407       -13.2630
  62   2.0000      -0.474756       -12.9188
  63   2.0000      -0.467134       -12.7114
  64   2.0000      -0.451745       -12.2926
  65   2.0000      -0.445501       -12.1227
  66   2.0000      -0.436757       -11.8848
  67   2.0000      -0.436011       -11.8645
  68   2.0000      -0.424022       -11.5382
  69   2.0000      -0.413501       -11.2519
  70   2.0000      -0.406179       -11.0527
  71   2.0000      -0.397247       -10.8096
  72   2.0000      -0.390403       -10.6234
  73   2.0000      -0.385764       -10.4972
  74   2.0000      -0.381663       -10.3856
  75   2.0000      -0.375082       -10.2065
  76   2.0000      -0.364686        -9.9236
  77   2.0000      -0.356626        -9.7043
  78   2.0000      -0.352057        -9.5800
  79   2.0000      -0.350516        -9.5380
  80   2.0000      -0.345705        -9.4071
  81   2.0000      -0.343121        -9.3368
  82   2.0000      -0.339190        -9.2298
  83   2.0000      -0.334131        -9.0922
  84   2.0000      -0.331794        -9.0286
  85   2.0000      -0.312438        -8.5019
  86   2.0000      -0.309189        -8.4135
  87   2.0000      -0.302675        -8.2362
  88   2.0000      -0.292111        -7.9487
  89   2.0000      -0.281014        -7.6468
  90   2.0000      -0.272489        -7.4148
  91   2.0000      -0.271003        -7.3744
  92   2.0000      -0.267499        -7.2790
  93   2.0000      -0.263666        -7.1747
  94   2.0000      -0.259343        -7.0571
  95   2.0000      -0.234077        -6.3696
  96   2.0000      -0.218859        -5.9555
  97   2.0000      -0.210959        -5.7405
  98   2.0000      -0.205204        -5.5839
  99   2.0000      -0.190958        -5.1962
 100   2.0000      -0.182475        -4.9654
 101   0.0000      -0.037418        -1.0182
 102   0.0000      -0.027999        -0.7619
 103   0.0000      -0.013928        -0.3790
 104   0.0000       0.009898         0.2693
 105   0.0000       0.023149         0.6299

MULLIKEN ATOMIC CHARGES
-----------------------
   0 C :   -0.313182
   1 C :   -0.015682
   2 O :   -0.387129
   3 P :    0.614800
   4 S :   -0.308166
   5 O :   -0.366405
   6 C :   -0.034683
   7 C :   -0.289797
   8 S :   -0.099957
   9 C :   -0.359628
  10 S :   -0.067320
  11 P :    0.624792
  12 S :   -0.333516
  13 O :   -0.361086
  14 C :   -0.000530
  15 C :   -0.309134
  16 O :   -0.371655
  17 C :   -0.000028
  18 C :   -0.315522
  19 H :    0.108213
  20 H :    0.112505
  21 H :    0.129993
  22 H :    0.101036
  23 H :    0.128875
  24 H :    0.110232
  25 H :    0.110977
  26 H :    0.131269
  27 H :    0.110820
  28 H :    0.123720
  29 H :    0.183431
  30 H :    0.203118
  31 H :    0.107790
  32 H :    0.120133
  33 H :    0.122028
  34 H :    0.117169
  35 H :    0.110454
  36 H :    0.103978
  37 H :    0.107308
  38 H :    0.111396
  39 H :    0.118139
  40 H :    0.121245
Sum of atomic charges:   -0.0000000

LOEWDIN ATOMIC CHARGES
----------------------
   0 C :   -0.366524
   1 C :   -0.125366
   2 O :   -0.253583
   3 P :    0.563000
   4 S :   -0.302268
   5 O :   -0.240806
   6 C :   -0.121730
   7 C :   -0.359297
   8 S :    0.085331
   9 C :   -0.478672
  10 S :    0.092716
  11 P :    0.577190
  12 S :   -0.304964
  13 O :   -0.231203
  14 C :   -0.113117
  15 C :   -0.367303
  16 O :   -0.247157
  17 C :   -0.119915
  18 C :   -0.369044
  19 H :    0.120185
  20 H :    0.131101
  21 H :    0.125841
  22 H :    0.116673
  23 H :    0.108534
  24 H :    0.109097
  25 H :    0.120340
  26 H :    0.120208
  27 H :    0.130690
  28 H :    0.131016
  29 H :    0.136136
  30 H :    0.123988
  31 H :    0.121586
  32 H :    0.110669
  33 H :    0.121013
  34 H :    0.126264
  35 H :    0.129871
  36 H :    0.118344
  37 H :    0.107740
  38 H :    0.129822
  39 H :    0.117930
  40 H :    0.125666

  Mayer bond orders larger than 0.100000
B(  0-C ,  1-C ) :   1.1587 B(  0-C , 19-H ) :   0.9453 B(  0-C , 20-H ) :   0.9402
B(  0-C , 21-H ) :   0.9357 B(  1-C ,  2-O ) :   0.9039 B(  1-C , 22-H ) :   0.9361
B(  1-C , 23-H ) :   0.9049 B(  2-O ,  3-P ) :   1.0675 B(  3-P ,  4-S ) :   1.6651
B(  3-P ,  5-O ) :   1.1125 B(  3-P ,  8-S ) :   0.9656 B(  4-S ,  8-S ) :   0.1077
B(  5-O ,  6-C ) :   0.8971 B(  6-C ,  7-C ) :   1.1670 B(  6-C , 24-H ) :   0.9140
B(  6-C , 25-H ) :   0.9319 B(  7-C , 26-H ) :   0.9372 B(  7-C , 27-H ) :   0.9391
B(  7-C , 28-H ) :   0.9454 B(  8-S ,  9-C ) :   0.9983 B(  9-C , 10-S ) :   1.0059
B(  9-C , 29-H ) :   0.9103 B(  9-C , 30-H ) :   0.8479 B( 10-S , 11-P ) :   0.9646
B( 10-S , 12-S ) :   0.1155 B( 11-P , 12-S ) :   1.5668 B( 11-P , 13-O ) :   1.1523
B( 11-P , 16-O ) :   1.0916 B( 12-S , 30-H ) :   0.1008 B( 13-O , 14-C ) :   0.9020
B( 14-C , 15-C ) :   1.1631 B( 14-C , 31-H ) :   0.9360 B( 14-C , 32-H ) :   0.9173
B( 15-C , 33-H ) :   0.9353 B( 15-C , 34-H ) :   0.9445 B( 15-C , 35-H ) :   0.9379
B( 16-O , 17-C ) :   0.9210 B( 17-C , 18-C ) :   1.1649 B( 17-C , 36-H ) :   0.9339
B( 17-C , 37-H ) :   0.9149 B( 18-C , 38-H ) :   0.9379 B( 18-C , 39-H ) :   0.9387
B( 18-C , 40-H ) :   0.9424

Dispersion correction           -0.067352314
FINAL SINGLE POINT ENERGY     -2929.517235157362

DIPOLE MOMENT
-------------

Method             : SCF
Type of density    : Electron Density
Multiplicity       :   1
Irrep              :   0
Energy             : -2929.6356043848600166 Eh
Relativity type    :
Basis              : AO
                                X                 Y                 Z
Electronic contribution:     -3.734666426      -3.013883359      10.009228485
Nuclear contribution   :      3.995486565       2.442602302     -10.903672554
                        -----------------------------------------
Total Dipole Moment    :      0.260820138      -0.571281057      -0.894444069
                        -----------------------------------------
Magnitude (a.u.)       :      1.092894955
Magnitude (Debye)      :      2.777918211

Rotational constants in cm-1:             0.012971             0.005163             0.004633
Rotational constants in MHz :           388.852106           154.786389           138.898345

                             ****ORCA TERMINATED NORMALLY****
TOTAL RUN TIME: 0 days 0 hours 0 minutes 21 seconds 156 msec
