                         Program Version 6.0.0  -   RELEASE  -
|  1> ! pbe def2-sv(p) def2/J RI DEFGRID1 loosescf d4 GCP(DFT/SV(P)) printgap
|  2> %output
|  3>     printlevel normal
|  4> end
|  5> * xyz 0 1
|  6> C 4.4738592695 1.8725251776 0.1483599593
|  7> C 4.2259572719 0.7060503476 -0.7857388814
|  8> O 3.3382105507 -0.2819312585 -0.2362407446
|  9> P 1.9280376336 0.0108527323 0.4567745487
| 10> S 1.9813833889 0.7069893533 2.2872722271
| 11> O 1.2837412857 -1.4268605767 0.2929566211
| 12> C 1.147904425 -2.338678224 1.3927291594
| 13> C 2.4538497339 -3.0585625841 1.6543105811
| 14> S 0.8996443503 1.1722525826 -0.9920919618
| 15> C 0.4502179395 -0.1204513539 -2.1662365666
| 16> S -0.9233466388 -1.2384134229 -1.656560825
| 17> P -2.0938090523 -0.0863156084 -0.3606876244
| 18> S -3.8596734969 -0.8502772231 0.0071462654
| 19> O -2.1444278808 1.4131816773 -0.9045130536
| 20> C -3.1835951661 1.8695241925 -1.7873653796
| 21> C -2.9170423009 1.4565494527 -3.2209829728
| 22> O -1.1211847871 0.0684402638 0.8943764001
| 23> C -1.6041623636 0.735085288 2.0866482119
| 24> C -2.0229605808 -0.2742570632 3.1351778626
| 25> H 3.5502338579 2.4294744556 0.3061303549
| 26> H 4.8314720662 1.5206268854 1.1133168296
| 27> H 5.2148511866 2.5336154297 -0.2895500602
| 28> H 5.1440761766 0.1481218024 -0.9786685407
| 29> H 3.801110649 1.0598698844 -1.7297913647
| 30> H 0.8291606475 -1.7793706057 2.2787417189
| 31> H 0.3544310779 -3.0221156648 1.0840196903
| 32> H 2.315311272 -3.7808942318 2.4524161208
| 33> H 2.78700581 -3.5688651505 0.7548545063
| 34> H 3.2129688455 -2.3363662067 1.9525356557
| 35> H 1.2965534478 -0.7805746681 -2.343223894
| 36> H 0.1516564548 0.3928779853 -3.0767736851
| 37> H -4.1394552353 1.4651566744 -1.4371051684
| 38> H -3.1732571347 2.9540885984 -1.6715523219
| 39> H -1.9563883033 1.8432901301 -3.5505778872
| 40> H -2.9174942014 0.3701692007 -3.3024177659
| 41> H -3.699813368 1.8559589041 -3.8578370659
| 42> H -0.7623583679 1.3397859123 2.4319570511
| 43> H -2.4366510245 1.3889418086 1.8140338746
| 44> H -1.1818286047 -0.9078473043 3.4040427066
| 45> H -2.3640457225 0.256550204 4.0182026641
| 46> H -2.8307269262 -0.8979933696 2.7579033048
| 47> *
| 48>
| 49>                          ****END OF INPUT****

CARTESIAN COORDINATES (ANGSTROEM)
---------------------------------
  C      4.473859    1.872525    0.148360
  C      4.225957    0.706050   -0.785739
  O      3.338211   -0.281931   -0.236241
  P      1.928038    0.010853    0.456775
  S      1.981383    0.706989    2.287272
  O      1.283741   -1.426861    0.292957
  C      1.147904   -2.338678    1.392729
  C      2.453850   -3.058563    1.654311
  S      0.899644    1.172253   -0.992092
  C      0.450218   -0.120451   -2.166237
  S     -0.923347   -1.238413   -1.656561
  P     -2.093809   -0.086316   -0.360688
  S     -3.859673   -0.850277    0.007146
  O     -2.144428    1.413182   -0.904513
  C     -3.183595    1.869524   -1.787365
  C     -2.917042    1.456549   -3.220983
  O     -1.121185    0.068440    0.894376
  C     -1.604162    0.735085    2.086648
  C     -2.022961   -0.274257    3.135178
  H      3.550234    2.429474    0.306130
  H      4.831472    1.520627    1.113317
  H      5.214851    2.533615   -0.289550
  H      5.144076    0.148122   -0.978669
  H      3.801111    1.059870   -1.729791
  H      0.829161   -1.779371    2.278742
  H      0.354431   -3.022116    1.084020
  H      2.315311   -3.780894    2.452416
  H      2.787006   -3.568865    0.754855
  H      3.212969   -2.336366    1.952536
  H      1.296553   -0.780575   -2.343224
  H      0.151656    0.392878   -3.076774
  H     -4.139455    1.465157   -1.437105
  H     -3.173257    2.954089   -1.671552
  H     -1.956388    1.843290   -3.550578
  H     -2.917494    0.370169   -3.302418
  H     -3.699813    1.855959   -3.857837
  H     -0.762358    1.339786    2.431957
  H     -2.436651    1.388942    1.814034
  H     -1.181829   -0.907847    3.404043
  H     -2.364046    0.256550    4.018203
  H     -2.830727   -0.897993    2.757903

 Total Charge           Charge          ....    0
 Multiplicity           Mult            ....    1
 Number of Electrons    NEL             ....  202
 Basis Dimension        Dim             ....  334

ORBITAL ENERGIES
----------------

  NO   OCC          E(Eh)            E(eV)
   0   2.0000     -88.049744     -2395.9554
   1   2.0000     -88.043184     -2395.7768
   2   2.0000     -87.991544     -2394.3716
   3   2.0000     -87.982444     -2394.1240
   4   2.0000     -76.431033     -2079.7941
   5   2.0000     -76.424145     -2079.6067
   6   2.0000     -18.792666      -511.3744
   7   2.0000     -18.791396      -511.3399
   8   2.0000     -18.790007      -511.3021
   9   2.0000     -18.783309      -511.1198
  10   2.0000      -9.967376      -271.2261
  11   2.0000      -9.958363      -270.9808
  12   2.0000      -9.950894      -270.7776
  13   2.0000      -9.947781      -270.6929
  14   2.0000      -9.939693      -270.4728
  15   2.0000      -9.888392      -269.0768
  16   2.0000      -9.886046      -269.0130
  17   2.0000      -9.881106      -268.8786
  18   2.0000      -9.871985      -268.6304
  19   2.0000      -7.694516      -209.3784
  20   2.0000      -7.688254      -209.2080
  21   2.0000      -7.636461      -207.7987
  22   2.0000      -7.627628      -207.5583
  23   2.0000      -6.427940      -174.9131
  24   2.0000      -6.421641      -174.7417
  25   2.0000      -5.722838      -155.7263
  26   2.0000      -5.718882      -155.6187
  27   2.0000      -5.716828      -155.5628
  28   2.0000      -5.712406      -155.4425
  29   2.0000      -5.711100      -155.4069
  30   2.0000      -5.704855      -155.2370
  31   2.0000      -5.665474      -154.1654
  32   2.0000      -5.657237      -153.9413
  33   2.0000      -5.656530      -153.9220
  34   2.0000      -5.656371      -153.9177
  35   2.0000      -5.648283      -153.6976
  36   2.0000      -5.647752      -153.6832
  37   2.0000      -4.650371      -126.5430
  38   2.0000      -4.650117      -126.5361
  39   2.0000      -4.648309      -126.4869
  40   2.0000      -4.644141      -126.3735
  41   2.0000      -4.643604      -126.3589
  42   2.0000      -4.642035      -126.3162
  43   2.0000      -0.987815       -26.8798
  44   2.0000      -0.981519       -26.7085
  45   2.0000      -0.945152       -25.7189
  46   2.0000      -0.938881       -25.5482
  47   2.0000      -0.766354       -20.8535
  48   2.0000      -0.720858       -19.6156
  49   2.0000      -0.707105       -19.2413
  50   2.0000      -0.687468       -18.7070
  51   2.0000      -0.684240       -18.6191
  52   2.0000      -0.673968       -18.3396
  53   2.0000      -0.658388       -17.9157
  54   2.0000      -0.638298       -17.3690
  55   2.0000      -0.598017       -16.2729
  56   2.0000      -0.592707       -16.1284
  57   2.0000      -0.576801       -15.6955
  58   2.0000      -0.570952       -15.5364
  59   2.0000      -0.560282       -15.2461
  60   2.0000      -0.501208       -13.6386
  61   2.0000      -0.494864       -13.4659
  62   2.0000      -0.470968       -12.8157
  63   2.0000      -0.467131       -12.7113
  64   2.0000      -0.463807       -12.6208
  65   2.0000      -0.442200       -12.0329
  66   2.0000      -0.439922       -11.9709
  67   2.0000      -0.433925       -11.8077
  68   2.0000      -0.424424       -11.5492
  69   2.0000      -0.422995       -11.5103
  70   2.0000      -0.414132       -11.2691
  71   2.0000      -0.401288       -10.9196
  72   2.0000      -0.397290       -10.8108
  73   2.0000      -0.388638       -10.5754
  74   2.0000      -0.375500       -10.2179
  75   2.0000      -0.371372       -10.1056
  76   2.0000      -0.367600       -10.0029
  77   2.0000      -0.357608        -9.7310
  78   2.0000      -0.351127        -9.5547
  79   2.0000      -0.349001        -9.4968
  80   2.0000      -0.348126        -9.4730
  81   2.0000      -0.345664        -9.4060
  82   2.0000      -0.343624        -9.3505
  83   2.0000      -0.335770        -9.1368
  84   2.0000      -0.330765        -9.0006
  85   2.0000      -0.317590        -8.6421
  86   2.0000      -0.309272        -8.4157
  87   2.0000      -0.298644        -8.1265
  88   2.0000      -0.294371        -8.0103
  89   2.0000      -0.292295        -7.9538
  90   2.0000      -0.282746        -7.6939
  91   2.0000      -0.274547        -7.4708
  92   2.0000      -0.270525        -7.3614
  93   2.0000      -0.263621        -7.1735
  94   2.0000      -0.258584        -7.0364
  95   2.0000      -0.228213        -6.2100
  96   2.0000      -0.217387        -5.9154
  97   2.0000      -0.212212        -5.7746
  98   2.0000      -0.206150        -5.6096
  99   2.0000      -0.200209        -5.4480
 100   2.0000      -0.196614        -5.3501
 101   0.0000      -0.045740        -1.2447
 102   0.0000      -0.034028        -0.9260
 103   0.0000      -0.021641        -0.5889
 104   0.0000      -0.001562        -0.0425
 105   0.0000       0.014809         0.4030

MULLIKEN ATOMIC CHARGES
-----------------------
   0 C :   -0.313991
   1 C :    0.000710
   2 O :   -0.375207
   3 P :    0.631052
   4 S :   -0.319882
   5 O :   -0.366628
   6 C :   -0.030882
   7 C :   -0.293305
   8 S :   -0.088965
   9 C :   -0.325192
  10 S :   -0.081759
  11 P :    0.619922
  12 S :   -0.325362
  13 O :   -0.378139
  14 C :   -0.008001
  15 C :   -0.321605
  16 O :   -0.376546
  17 C :   -0.006243
  18 C :   -0.298450
  19 H :    0.121322
  20 H :    0.128919
  21 H :    0.111800
  22 H :    0.107848
  23 H :    0.098799
  24 H :    0.132464
  25 H :    0.107482
  26 H :    0.110836
  27 H :    0.112932
  28 H :    0.118681
  29 H :    0.184176
  30 H :    0.189173
  31 H :    0.113001
  32 H :    0.105069
  33 H :    0.112970
  34 H :    0.129170
  35 H :    0.114869
  36 H :    0.115671
  37 H :    0.095513
  38 H :    0.120265
  39 H :    0.104486
  40 H :    0.123030
Sum of atomic charges:   -0.0000000

LOEWDIN ATOMIC CHARGES
----------------------
   0 C :   -0.370067
   1 C :   -0.118210
   2 O :   -0.251919
   3 P :    0.582108
   4 S :   -0.298273
   5 O :   -0.231814
   6 C :   -0.120679
   7 C :   -0.360606
   8 S :    0.105347
   9 C :   -0.468321
  10 S :    0.093226
  11 P :    0.559165
  12 S :   -0.323272
  13 O :   -0.247216
  14 C :   -0.123501
  15 C :   -0.366360
  16 O :   -0.248071
  17 C :   -0.121907
  18 C :   -0.360824
  19 H :    0.118780
  20 H :    0.129562
  21 H :    0.130008
  22 H :    0.120688
  23 H :    0.104063
  24 H :    0.108167
  25 H :    0.118460
  26 H :    0.129835
  27 H :    0.124889
  28 H :    0.122876
  29 H :    0.135838
  30 H :    0.134484
  31 H :    0.108913
  32 H :    0.118217
  33 H :    0.119763
  34 H :    0.123165
  35 H :    0.132365
  36 H :    0.111469
  37 H :    0.106049
  38 H :    0.122193
  39 H :    0.128416
  40 H :    0.122994

  Mayer bond orders larger than 0.100000
B(  0-C ,  1-C ) :   1.1675 B(  0-C , 19-H ) :   0.9352 B(  0-C , 20-H ) :   0.9419
B(  0-C , 21-H ) :   0.9347 B(  1-C ,  2-O ) :   0.9217 B(  1-C , 22-H ) :   0.9334
B(  1-C , 23-H ) :   0.9220 B(  2-O ,  3-P ) :   1.0852 B(  3-P ,  4-S ) :   1.6229
B(  3-P ,  5-O ) :   1.1190 B(  3-P ,  8-S ) :   0.9435 B(  5-O ,  6-C ) :   0.8963
B(  6-C ,  7-C ) :   1.1602 B(  6-C , 24-H ) :   0.9004 B(  6-C , 25-H ) :   0.9310
B(  7-C , 26-H ) :   0.9410 B(  7-C , 27-H ) :   0.9470 B(  7-C , 28-H ) :   0.9392
B(  8-S ,  9-C ) :   1.0203 B(  9-C , 10-S ) :   0.9495 B(  9-C , 29-H ) :   0.9044
B(  9-C , 30-H ) :   0.9022 B( 10-S , 11-P ) :   1.0103 B( 11-P , 12-S ) :   1.6338
B( 11-P , 13-O ) :   1.0645 B( 11-P , 16-O ) :   1.1006 B( 13-O , 14-C ) :   0.9148
B( 14-C , 15-C ) :   1.1628 B( 14-C , 31-H ) :   0.9059 B( 14-C , 32-H ) :   0.9329
B( 15-C , 33-H ) :   0.9424 B( 15-C , 34-H ) :   0.9367 B( 15-C , 35-H ) :   0.9388
B( 16-O , 17-C ) :   0.8797 B( 17-C , 18-C ) :   1.1748 B( 17-C , 36-H ) :   0.9096
B( 17-C , 37-H ) :   0.9110 B( 18-C , 38-H ) :   0.9401 B( 18-C , 39-H ) :   0.9396
B( 18-C , 40-H ) :   0.9333

Dispersion correction           -0.069125842
FINAL SINGLE POINT ENERGY     -2929.513279178319

DIPOLE MOMENT
-------------

Method             : SCF
Type of density    : Electron Density
Multiplicity       :   1
Irrep              :   0
Energy             : -2929.6311910141598673 Eh
Relativity type    :
Basis              : AO
                                X                 Y                 Z
Electronic contribution:     -6.688031586      -1.868132921      -2.942195512
Nuclear contribution   :      7.753791837       2.401013554       1.924011876
                        -----------------------------------------
Total Dipole Moment    :      1.065760251       0.532880632      -1.018183637
                        -----------------------------------------
Magnitude (a.u.)       :      1.567324025
Magnitude (Debye)      :      3.983821072

Rotational constants in cm-1:             0.011945             0.005942             0.005177
Rotational constants in MHz :           358.096818           178.134366           155.207386

                             ****ORCA TERMINATED NORMALLY****
TOTAL RUN TIME: 0 days 0 hours 0 minutes 22 seconds 364 msec
