                         Program Version 6.0.0  -   RELEASE  -
|  1> ! pbe def2-sv(p) def2/J RI DEFGRID1 loosescf d4 GCP(DFT/SV(P)) printgap
|  2> %output
|  3>     printlevel normal
|  4> end
|  5> * xyz 0 1
|  6> C 1.5423640124 -0.9135087611 3.6608594003
|  7> C 1.4345396171 0.4252554512 2.9589255588
|  8> O 0.9625813606 0.2959969415 1.5989526776
|  9> P 1.7431578777 -0.4902210397 0.4676013499
| 10> S 1.3906115533 -2.4119846814 0.2277784402
| 11> O 3.251458404 -0.1763361766 0.878200234
| 12> C 4.3635207081 -0.9274066215 0.3660326544
| 13> C 4.6026950209 -0.6731639259 -1.1082687415
| 14> S 1.4215176029 0.7428816535 -1.2254372126
| 15> C 0.4771557337 -0.3836227981 -2.2797535336
| 16> S -1.2343657495 0.1498758567 -2.6093156021
| 17> P -2.0163304579 0.3631983912 -0.659837379
| 18> S -3.9730324163 0.3595885563 -0.6207702459
| 19> O -1.2899727741 1.6402258984 -0.0438000019
| 20> C -1.5167119321 2.9621297813 -0.5700639994
| 21> C -2.59904765 3.6789494797 0.2129660994
| 22> O -1.2736643046 -0.7787402272 0.1545049931
| 23> C -1.9751672229 -1.5838665137 1.1256110467
| 24> C -2.2980446478 -0.7888930094 2.3723049595
| 25> H 0.5855028937 -1.4302917779 3.6552494988
| 26> H 2.2747721109 -1.5423168805 3.155679213
| 27> H 1.85859801 -0.7571803726 4.687584928
| 28> H 2.4000108224 0.9347179699 2.9424402459
| 29> H 0.6874014906 1.0682096426 3.4280872057
| 30> H 5.2060259452 -0.5927747683 0.9728721904
| 31> H 4.1747386433 -1.9910102831 0.5450978379
| 32> H 4.6619358279 0.3943759345 -1.3038003422
| 33> H 5.5323126603 -1.1475146302 -1.4059142482
| 34> H 3.7890381906 -1.0944686599 -1.6966202604
| 35> H 0.4716040808 -1.3754631672 -1.8189793587
| 36> H 0.9453392278 -0.4067248134 -3.2607633294
| 37> H -0.5517364245 3.46506378 -0.4755475279
| 38> H -1.7838989987 2.8863073684 -1.6299746901
| 39> H -2.3324560807 3.7222763785 1.2651162751
| 40> H -2.7103577169 4.6871384479 -0.1727832732
| 41> H -3.5462873347 3.1533467274 0.1119731552
| 42> H -2.88927037 -1.9699767259 0.6649216158
| 43> H -1.286614129 -2.4075704174 1.3257705318
| 44> H -3.0182634873 -0.0081040947 2.1318277534
| 45> H -2.7249755517 -1.4495086953 3.1203299821
| 46> H -1.3970901754 -0.324266514 2.7614065504
| 47> *
| 48>
| 49>                          ****END OF INPUT****

CARTESIAN COORDINATES (ANGSTROEM)
---------------------------------
  C      1.542364   -0.913509    3.660859
  C      1.434540    0.425255    2.958926
  O      0.962581    0.295997    1.598953
  P      1.743158   -0.490221    0.467601
  S      1.390612   -2.411985    0.227778
  O      3.251458   -0.176336    0.878200
  C      4.363521   -0.927407    0.366033
  C      4.602695   -0.673164   -1.108269
  S      1.421518    0.742882   -1.225437
  C      0.477156   -0.383623   -2.279754
  S     -1.234366    0.149876   -2.609316
  P     -2.016330    0.363198   -0.659837
  S     -3.973032    0.359589   -0.620770
  O     -1.289973    1.640226   -0.043800
  C     -1.516712    2.962130   -0.570064
  C     -2.599048    3.678949    0.212966
  O     -1.273664   -0.778740    0.154505
  C     -1.975167   -1.583867    1.125611
  C     -2.298045   -0.788893    2.372305
  H      0.585503   -1.430292    3.655249
  H      2.274772   -1.542317    3.155679
  H      1.858598   -0.757180    4.687585
  H      2.400011    0.934718    2.942440
  H      0.687401    1.068210    3.428087
  H      5.206026   -0.592775    0.972872
  H      4.174739   -1.991010    0.545098
  H      4.661936    0.394376   -1.303800
  H      5.532313   -1.147515   -1.405914
  H      3.789038   -1.094469   -1.696620
  H      0.471604   -1.375463   -1.818979
  H      0.945339   -0.406725   -3.260763
  H     -0.551736    3.465064   -0.475548
  H     -1.783899    2.886307   -1.629975
  H     -2.332456    3.722276    1.265116
  H     -2.710358    4.687138   -0.172783
  H     -3.546287    3.153347    0.111973
  H     -2.889270   -1.969977    0.664922
  H     -1.286614   -2.407570    1.325771
  H     -3.018263   -0.008104    2.131828
  H     -2.724976   -1.449509    3.120330
  H     -1.397090   -0.324267    2.761407

 Total Charge           Charge          ....    0
 Multiplicity           Mult            ....    1
 Number of Electrons    NEL             ....  202
 Basis Dimension        Dim             ....  334

ORBITAL ENERGIES
----------------

  NO   OCC          E(Eh)            E(eV)
   0   2.0000     -88.046568     -2395.8689
   1   2.0000     -88.038069     -2395.6377
   2   2.0000     -87.993434     -2394.4231
   3   2.0000     -87.982274     -2394.1194
   4   2.0000     -76.433122     -2079.8510
   5   2.0000     -76.421142     -2079.5250
   6   2.0000     -18.800505      -511.5878
   7   2.0000     -18.793167      -511.3881
   8   2.0000     -18.786902      -511.2176
   9   2.0000     -18.783364      -511.1213
  10   2.0000      -9.959954      -271.0241
  11   2.0000      -9.957375      -270.9539
  12   2.0000      -9.954800      -270.8839
  13   2.0000      -9.947663      -270.6897
  14   2.0000      -9.942287      -270.5434
  15   2.0000      -9.890524      -269.1349
  16   2.0000      -9.888162      -269.0706
  17   2.0000      -9.876628      -268.7567
  18   2.0000      -9.875643      -268.7299
  19   2.0000      -7.691409      -209.2939
  20   2.0000      -7.683547      -209.0799
  21   2.0000      -7.638154      -207.8447
  22   2.0000      -7.627487      -207.5545
  23   2.0000      -6.430053      -174.9707
  24   2.0000      -6.418904      -174.6673
  25   2.0000      -5.719305      -155.6302
  26   2.0000      -5.716062      -155.5420
  27   2.0000      -5.711800      -155.4260
  28   2.0000      -5.708178      -155.3274
  29   2.0000      -5.707605      -155.3118
  30   2.0000      -5.700556      -155.1200
  31   2.0000      -5.666976      -154.2062
  32   2.0000      -5.659047      -153.9905
  33   2.0000      -5.658141      -153.9658
  34   2.0000      -5.656417      -153.9189
  35   2.0000      -5.648279      -153.6975
  36   2.0000      -5.647430      -153.6744
  37   2.0000      -4.653000      -126.6146
  38   2.0000      -4.651454      -126.5725
  39   2.0000      -4.650606      -126.5494
  40   2.0000      -4.641305      -126.2963
  41   2.0000      -4.640901      -126.2853
  42   2.0000      -4.639301      -126.2418
  43   2.0000      -0.993902       -27.0454
  44   2.0000      -0.980437       -26.6790
  45   2.0000      -0.948127       -25.7999
  46   2.0000      -0.938763       -25.5450
  47   2.0000      -0.761868       -20.7315
  48   2.0000      -0.721962       -19.6456
  49   2.0000      -0.705919       -19.2090
  50   2.0000      -0.694099       -18.8874
  51   2.0000      -0.679445       -18.4886
  52   2.0000      -0.675405       -18.3787
  53   2.0000      -0.654856       -17.8195
  54   2.0000      -0.638616       -17.3776
  55   2.0000      -0.601578       -16.3698
  56   2.0000      -0.588990       -16.0272
  57   2.0000      -0.583797       -15.8859
  58   2.0000      -0.566068       -15.4035
  59   2.0000      -0.557805       -15.1786
  60   2.0000      -0.502275       -13.6676
  61   2.0000      -0.492865       -13.4115
  62   2.0000      -0.476674       -12.9710
  63   2.0000      -0.469415       -12.7734
  64   2.0000      -0.460244       -12.5239
  65   2.0000      -0.443871       -12.0783
  66   2.0000      -0.436143       -11.8681
  67   2.0000      -0.434730       -11.8296
  68   2.0000      -0.425072       -11.5668
  69   2.0000      -0.415819       -11.3150
  70   2.0000      -0.413826       -11.2608
  71   2.0000      -0.406840       -11.0707
  72   2.0000      -0.396372       -10.7858
  73   2.0000      -0.387781       -10.5521
  74   2.0000      -0.380521       -10.3545
  75   2.0000      -0.376696       -10.2504
  76   2.0000      -0.360454        -9.8084
  77   2.0000      -0.355331        -9.6691
  78   2.0000      -0.354253        -9.6397
  79   2.0000      -0.351455        -9.5636
  80   2.0000      -0.347853        -9.4656
  81   2.0000      -0.342370        -9.3164
  82   2.0000      -0.339988        -9.2515
  83   2.0000      -0.334426        -9.1002
  84   2.0000      -0.325196        -8.8490
  85   2.0000      -0.320645        -8.7252
  86   2.0000      -0.316238        -8.6053
  87   2.0000      -0.302745        -8.2381
  88   2.0000      -0.295794        -8.0490
  89   2.0000      -0.290626        -7.9083
  90   2.0000      -0.281249        -7.6532
  91   2.0000      -0.280649        -7.6369
  92   2.0000      -0.270868        -7.3707
  93   2.0000      -0.262886        -7.1535
  94   2.0000      -0.254204        -6.9172
  95   2.0000      -0.230771        -6.2796
  96   2.0000      -0.221919        -6.0387
  97   2.0000      -0.212613        -5.7855
  98   2.0000      -0.206362        -5.6154
  99   2.0000      -0.200569        -5.4578
 100   2.0000      -0.193161        -5.2562
 101   0.0000      -0.042668        -1.1610
 102   0.0000      -0.028474        -0.7748
 103   0.0000      -0.016629        -0.4525
 104   0.0000       0.002761         0.0751
 105   0.0000       0.010674         0.2905

MULLIKEN ATOMIC CHARGES
-----------------------
   0 C :   -0.319939
   1 C :   -0.004232
   2 O :   -0.368974
   3 P :    0.652665
   4 S :   -0.321862
   5 O :   -0.388264
   6 C :   -0.004034
   7 C :   -0.307083
   8 S :   -0.091389
   9 C :   -0.351003
  10 S :   -0.089251
  11 P :    0.610993
  12 S :   -0.323262
  13 O :   -0.356017
  14 C :   -0.010639
  15 C :   -0.286705
  16 O :   -0.375377
  17 C :   -0.006324
  18 C :   -0.325689
  19 H :    0.125099
  20 H :    0.126349
  21 H :    0.112765
  22 H :    0.113494
  23 H :    0.114567
  24 H :    0.103173
  25 H :    0.111767
  26 H :    0.118467
  27 H :    0.113465
  28 H :    0.119305
  29 H :    0.204436
  30 H :    0.179834
  31 H :    0.101685
  32 H :    0.098016
  33 H :    0.108742
  34 H :    0.104855
  35 H :    0.127499
  36 H :    0.111629
  37 H :    0.112431
  38 H :    0.121038
  39 H :    0.107698
  40 H :    0.130070
Sum of atomic charges:    0.0000000

LOEWDIN ATOMIC CHARGES
----------------------
   0 C :   -0.365624
   1 C :   -0.113050
   2 O :   -0.234304
   3 P :    0.585622
   4 S :   -0.294256
   5 O :   -0.248978
   6 C :   -0.120928
   7 C :   -0.368205
   8 S :    0.099690
   9 C :   -0.483569
  10 S :    0.076523
  11 P :    0.565856
  12 S :   -0.316991
  13 O :   -0.239220
  14 C :   -0.119810
  15 C :   -0.363159
  16 O :   -0.238763
  17 C :   -0.120065
  18 C :   -0.370578
  19 H :    0.127720
  20 H :    0.123329
  21 H :    0.131047
  22 H :    0.114393
  23 H :    0.120339
  24 H :    0.117450
  25 H :    0.109207
  26 H :    0.124767
  27 H :    0.131052
  28 H :    0.119465
  29 H :    0.124359
  30 H :    0.137191
  31 H :    0.114436
  32 H :    0.104088
  33 H :    0.123488
  34 H :    0.127212
  35 H :    0.124232
  36 H :    0.111189
  37 H :    0.111869
  38 H :    0.120848
  39 H :    0.128882
  40 H :    0.123246

  Mayer bond orders larger than 0.100000
B(  0-C ,  1-C ) :   1.1720 B(  0-C , 19-H ) :   0.9452 B(  0-C , 20-H ) :   0.9327
B(  0-C , 21-H ) :   0.9362 B(  1-C ,  2-O ) :   0.9012 B(  1-C , 22-H ) :   0.9266
B(  1-C , 23-H ) :   0.9255 B(  2-O ,  3-P ) :   1.1288 B(  3-P ,  4-S ) :   1.5826
B(  3-P ,  5-O ) :   1.0693 B(  3-P ,  8-S ) :   0.9641 B(  4-S ,  8-S ) :   0.1267
B(  4-S , 29-H ) :   0.1101 B(  5-O ,  6-C ) :   0.9104 B(  6-C ,  7-C ) :   1.1692
B(  6-C , 24-H ) :   0.9330 B(  6-C , 25-H ) :   0.9129 B(  7-C , 26-H ) :   0.9435
B(  7-C , 27-H ) :   0.9375 B(  7-C , 28-H ) :   0.9391 B(  8-S ,  9-C ) :   1.0112
B(  9-C , 10-S ) :   0.9772 B(  9-C , 29-H ) :   0.8501 B(  9-C , 30-H ) :   0.9101
B( 10-S , 11-P ) :   0.9816 B( 11-P , 12-S ) :   1.6332 B( 11-P , 13-O ) :   1.0982
B( 11-P , 16-O ) :   1.1065 B( 13-O , 14-C ) :   0.9087 B( 14-C , 15-C ) :   1.1665
B( 14-C , 31-H ) :   0.9330 B( 14-C , 32-H ) :   0.9125 B( 15-C , 33-H ) :   0.9477
B( 15-C , 34-H ) :   0.9405 B( 15-C , 35-H ) :   0.9319 B( 16-O , 17-C ) :   0.8898
B( 17-C , 18-C ) :   1.1679 B( 17-C , 36-H ) :   0.9179 B( 17-C , 37-H ) :   0.9169
B( 18-C , 38-H ) :   0.9277 B( 18-C , 39-H ) :   0.9381 B( 18-C , 40-H ) :   0.9318

Dispersion correction           -0.069178261
FINAL SINGLE POINT ENERGY     -2929.517092633937

DIPOLE MOMENT
-------------

Method             : SCF
Type of density    : Electron Density
Multiplicity       :   1
Irrep              :   0
Energy             : -2929.6366364300274654 Eh
Relativity type    :
Basis              : AO
                                X                 Y                 Z
Electronic contribution:     -8.211825280      -3.203477873     -17.263981782
Nuclear contribution   :     10.044494950       3.740030089      18.161464540
                        -----------------------------------------
Total Dipole Moment    :      1.832669670       0.536552215       0.897482758
                        -----------------------------------------
Magnitude (a.u.)       :      2.109986185
Magnitude (Debye)      :      5.363158664

Rotational constants in cm-1:             0.011882             0.005979             0.005360
Rotational constants in MHz :           356.213056           179.248908           160.676893

                             ****ORCA TERMINATED NORMALLY****
TOTAL RUN TIME: 0 days 0 hours 0 minutes 22 seconds 237 msec
