                         Program Version 6.0.0  -   RELEASE  -
|  1> ! pbe def2-sv(p) def2/J RI DEFGRID1 loosescf d4 GCP(DFT/SV(P)) printgap
|  2> %output
|  3>     printlevel normal
|  4> end
|  5> * xyz 0 1
|  6> C 4.1921314441 -0.3338896069 -2.3906171317
|  7> C 4.4324636823 0.4322086518 -1.1057891246
|  8> O 3.7442583401 -0.1525560374 0.0123341111
|  9> P 2.1590020686 -0.1836545764 0.1256247828
| 10> S 1.2686271562 1.4730932936 -0.4622253502
| 11> O 1.9426754884 -0.5710686037 1.645248091
| 12> C 1.8937275577 0.4092034526 2.7005104725
| 13> C 3.2729585424 0.927193671 3.0520928336
| 14> S 1.6244355797 -2.0129978007 -0.761163093
| 15> C -0.1300401199 -1.6932386735 -1.0800522457
| 16> S -1.0643717605 -1.2704604597 0.4222714867
| 17> P -2.1533825616 0.4293393161 -0.2970886354
| 18> S -1.9158600184 0.9205536882 -2.1728688555
| 19> O -1.8115264837 1.5978126978 0.7018606853
| 20> C -1.8137597783 1.4927399002 2.1449091333
| 21> C -3.1898288608 1.7400952356 2.7277161954
| 22> O -3.6624978488 0.0970893238 0.0987552346
| 23> C -4.5569337049 -0.6107245663 -0.7756570665
| 24> C -4.1187629482 -2.0403527819 -1.0207145039
| 25> H 4.8273388344 0.0678987882 -3.1735891916
| 26> H 4.4132228372 -1.3888275342 -2.2489893716
| 27> H 3.1511009426 -0.2312907846 -2.6959144992
| 28> H 4.1007854784 1.4704239856 -1.2108436599
| 29> H 5.482079678 0.4043441841 -0.8100286253
| 30> H 1.2423676785 1.2296568313 2.3804261379
| 31> H 1.4375231246 -0.1256385626 3.5348256483
| 32> H 3.9405432169 0.0962863526 3.2626647096
| 33> H 3.6790108961 1.5023358354 2.2218749038
| 34> H 3.203279205 1.5671445534 3.9262199574
| 35> H -0.521297854 -2.6221204378 -1.4882281691
| 36> H -0.2405492031 -0.8713531188 -1.7938248216
| 37> H -1.4370044856 0.5043845711 2.4259794184
| 38> H -1.106657549 2.2630459432 2.4607433095
| 39> H -3.112686519 1.7615103575 3.8103715565
| 40> H -3.5755646989 2.6931004351 2.3759429133
| 41> H -3.8758204046 0.9518431575 2.4315542551
| 42> H -5.5158057974 -0.5661919285 -0.257351586
| 43> H -4.618636582 -0.0620314562 -1.72043962
| 44> H -3.2070969841 -2.0488465815 -1.6165491016
| 45> H -3.9332884306 -2.5482443638 -0.0776231539
| 46> H -4.8974958484 -2.5638156508 -1.5659627646
| 47> *
| 48>
| 49>                          ****END OF INPUT****

CARTESIAN COORDINATES (ANGSTROEM)
---------------------------------
  C      4.192131   -0.333890   -2.390617
  C      4.432464    0.432209   -1.105789
  O      3.744258   -0.152556    0.012334
  P      2.159002   -0.183655    0.125625
  S      1.268627    1.473093   -0.462225
  O      1.942675   -0.571069    1.645248
  C      1.893728    0.409203    2.700510
  C      3.272959    0.927194    3.052093
  S      1.624436   -2.012998   -0.761163
  C     -0.130040   -1.693239   -1.080052
  S     -1.064372   -1.270460    0.422271
  P     -2.153383    0.429339   -0.297089
  S     -1.915860    0.920554   -2.172869
  O     -1.811526    1.597813    0.701861
  C     -1.813760    1.492740    2.144909
  C     -3.189829    1.740095    2.727716
  O     -3.662498    0.097089    0.098755
  C     -4.556934   -0.610725   -0.775657
  C     -4.118763   -2.040353   -1.020715
  H      4.827339    0.067899   -3.173589
  H      4.413223   -1.388828   -2.248989
  H      3.151101   -0.231291   -2.695914
  H      4.100785    1.470424   -1.210844
  H      5.482080    0.404344   -0.810029
  H      1.242368    1.229657    2.380426
  H      1.437523   -0.125639    3.534826
  H      3.940543    0.096286    3.262665
  H      3.679011    1.502336    2.221875
  H      3.203279    1.567145    3.926220
  H     -0.521298   -2.622120   -1.488228
  H     -0.240549   -0.871353   -1.793825
  H     -1.437004    0.504385    2.425979
  H     -1.106658    2.263046    2.460743
  H     -3.112687    1.761510    3.810372
  H     -3.575565    2.693100    2.375943
  H     -3.875820    0.951843    2.431554
  H     -5.515806   -0.566192   -0.257352
  H     -4.618637   -0.062031   -1.720440
  H     -3.207097   -2.048847   -1.616549
  H     -3.933288   -2.548244   -0.077623
  H     -4.897496   -2.563816   -1.565963

 Total Charge           Charge          ....    0
 Multiplicity           Mult            ....    1
 Number of Electrons    NEL             ....  202
 Basis Dimension        Dim             ....  334

ORBITAL ENERGIES
----------------

  NO   OCC          E(Eh)            E(eV)
   0   2.0000     -88.042092     -2395.7471
   1   2.0000     -88.039875     -2395.6868
   2   2.0000     -87.983219     -2394.1451
   3   2.0000     -87.982325     -2394.1208
   4   2.0000     -76.423589     -2079.5916
   5   2.0000     -76.422676     -2079.5667
   6   2.0000     -18.790063      -511.3036
   7   2.0000     -18.788698      -511.2665
   8   2.0000     -18.787708      -511.2395
   9   2.0000     -18.785251      -511.1727
  10   2.0000      -9.956950      -270.9424
  11   2.0000      -9.953137      -270.8386
  12   2.0000      -9.950933      -270.7786
  13   2.0000      -9.950701      -270.7723
  14   2.0000      -9.950503      -270.7670
  15   2.0000      -9.885607      -269.0010
  16   2.0000      -9.884164      -268.9618
  17   2.0000      -9.884013      -268.9577
  18   2.0000      -9.882046      -268.9042
  19   2.0000      -7.687671      -209.1922
  20   2.0000      -7.684154      -209.0965
  21   2.0000      -7.628449      -207.5806
  22   2.0000      -7.626791      -207.5355
  23   2.0000      -6.420839      -174.7199
  24   2.0000      -6.420158      -174.7014
  25   2.0000      -5.715649      -155.5307
  26   2.0000      -5.712108      -155.4344
  27   2.0000      -5.712029      -155.4322
  28   2.0000      -5.708806      -155.3445
  29   2.0000      -5.704520      -155.2279
  30   2.0000      -5.701090      -155.1345
  31   2.0000      -5.657428      -153.9465
  32   2.0000      -5.655621      -153.8973
  33   2.0000      -5.649136      -153.7208
  34   2.0000      -5.648415      -153.7012
  35   2.0000      -5.647530      -153.6771
  36   2.0000      -5.647031      -153.6635
  37   2.0000      -4.643575      -126.3581
  38   2.0000      -4.642582      -126.3311
  39   2.0000      -4.642456      -126.3277
  40   2.0000      -4.641933      -126.3134
  41   2.0000      -4.641340      -126.2973
  42   2.0000      -4.640722      -126.2805
  43   2.0000      -0.984181       -26.7809
  44   2.0000      -0.983772       -26.7698
  45   2.0000      -0.943041       -25.6614
  46   2.0000      -0.941450       -25.6182
  47   2.0000      -0.760647       -20.6983
  48   2.0000      -0.719010       -19.5653
  49   2.0000      -0.708400       -19.2766
  50   2.0000      -0.688715       -18.7409
  51   2.0000      -0.686051       -18.6684
  52   2.0000      -0.674583       -18.3563
  53   2.0000      -0.649254       -17.6671
  54   2.0000      -0.633856       -17.2481
  55   2.0000      -0.600515       -16.3408
  56   2.0000      -0.591199       -16.0873
  57   2.0000      -0.574714       -15.6388
  58   2.0000      -0.571218       -15.5436
  59   2.0000      -0.560125       -15.2418
  60   2.0000      -0.498272       -13.5587
  61   2.0000      -0.490961       -13.3597
  62   2.0000      -0.472157       -12.8480
  63   2.0000      -0.469922       -12.7872
  64   2.0000      -0.447675       -12.1818
  65   2.0000      -0.446559       -12.1515
  66   2.0000      -0.442362       -12.0373
  67   2.0000      -0.436503       -11.8778
  68   2.0000      -0.429680       -11.6922
  69   2.0000      -0.422169       -11.4878
  70   2.0000      -0.409126       -11.1329
  71   2.0000      -0.393957       -10.7201
  72   2.0000      -0.390736       -10.6325
  73   2.0000      -0.385833       -10.4991
  74   2.0000      -0.380344       -10.3497
  75   2.0000      -0.374414       -10.1883
  76   2.0000      -0.366641        -9.9768
  77   2.0000      -0.356495        -9.7007
  78   2.0000      -0.351457        -9.5636
  79   2.0000      -0.350515        -9.5380
  80   2.0000      -0.348418        -9.4809
  81   2.0000      -0.346305        -9.4234
  82   2.0000      -0.341309        -9.2875
  83   2.0000      -0.338584        -9.2133
  84   2.0000      -0.334405        -9.0996
  85   2.0000      -0.313031        -8.5180
  86   2.0000      -0.311394        -8.4735
  87   2.0000      -0.295085        -8.0297
  88   2.0000      -0.293198        -7.9783
  89   2.0000      -0.288406        -7.8479
  90   2.0000      -0.279927        -7.6172
  91   2.0000      -0.275121        -7.4864
  92   2.0000      -0.267390        -7.2761
  93   2.0000      -0.261154        -7.1064
  94   2.0000      -0.258147        -7.0245
  95   2.0000      -0.231279        -6.2934
  96   2.0000      -0.219515        -5.9733
  97   2.0000      -0.211797        -5.7633
  98   2.0000      -0.199271        -5.4224
  99   2.0000      -0.196693        -5.3523
 100   2.0000      -0.186297        -5.0694
 101   0.0000      -0.042572        -1.1584
 102   0.0000      -0.032774        -0.8918
 103   0.0000      -0.009625        -0.2619
 104   0.0000       0.009655         0.2627
 105   0.0000       0.017888         0.4868

MULLIKEN ATOMIC CHARGES
-----------------------
   0 C :   -0.318641
   1 C :   -0.002359
   2 O :   -0.372477
   3 P :    0.603566
   4 S :   -0.313340
   5 O :   -0.360770
   6 C :   -0.030125
   7 C :   -0.293017
   8 S :   -0.085702
   9 C :   -0.349547
  10 S :   -0.124604
  11 P :    0.621315
  12 S :   -0.293948
  13 O :   -0.349136
  14 C :   -0.046109
  15 C :   -0.279338
  16 O :   -0.382115
  17 C :    0.003970
  18 C :   -0.318150
  19 H :    0.113418
  20 H :    0.118034
  21 H :    0.131540
  22 H :    0.110600
  23 H :    0.104180
  24 H :    0.120821
  25 H :    0.103540
  26 H :    0.117570
  27 H :    0.121315
  28 H :    0.108103
  29 H :    0.181672
  30 H :    0.205382
  31 H :    0.116842
  32 H :    0.122258
  33 H :    0.106769
  34 H :    0.120005
  35 H :    0.123390
  36 H :    0.102391
  37 H :    0.111568
  38 H :    0.119855
  39 H :    0.119110
  40 H :    0.112164
Sum of atomic charges:    0.0000000

LOEWDIN ATOMIC CHARGES
----------------------
   0 C :   -0.370165
   1 C :   -0.119446
   2 O :   -0.245258
   3 P :    0.561556
   4 S :   -0.308041
   5 O :   -0.240118
   6 C :   -0.120349
   7 C :   -0.361002
   8 S :    0.093497
   9 C :   -0.479426
  10 S :    0.061887
  11 P :    0.577439
  12 S :   -0.287435
  13 O :   -0.227167
  14 C :   -0.114569
  15 C :   -0.361140
  16 O :   -0.251102
  17 C :   -0.117591
  18 C :   -0.370806
  19 H :    0.131256
  20 H :    0.123764
  21 H :    0.123009
  22 H :    0.110697
  23 H :    0.118173
  24 H :    0.107958
  25 H :    0.116905
  26 H :    0.127360
  27 H :    0.124477
  28 H :    0.128488
  29 H :    0.133288
  30 H :    0.123076
  31 H :    0.104417
  32 H :    0.121277
  33 H :    0.128269
  34 H :    0.129782
  35 H :    0.125754
  36 H :    0.117215
  37 H :    0.111465
  38 H :    0.118713
  39 H :    0.123722
  40 H :    0.130171

  Mayer bond orders larger than 0.100000
B(  0-C ,  1-C ) :   1.1671 B(  0-C , 19-H ) :   0.9376 B(  0-C , 20-H ) :   0.9440
B(  0-C , 21-H ) :   0.9350 B(  1-C ,  2-O ) :   0.9083 B(  1-C , 22-H ) :   0.9155
B(  1-C , 23-H ) :   0.9339 B(  2-O ,  3-P ) :   1.1006 B(  3-P ,  4-S ) :   1.6194
B(  3-P ,  5-O ) :   1.1203 B(  3-P ,  8-S ) :   0.9581 B(  4-S ,  8-S ) :   0.1141
B(  5-O ,  6-C ) :   0.9131 B(  6-C ,  7-C ) :   1.1620 B(  6-C , 24-H ) :   0.9030
B(  6-C , 25-H ) :   0.9346 B(  7-C , 26-H ) :   0.9464 B(  7-C , 27-H ) :   0.9410
B(  7-C , 28-H ) :   0.9397 B(  8-S ,  9-C ) :   1.0006 B(  9-C , 10-S ) :   1.0016
B(  9-C , 29-H ) :   0.9060 B(  9-C , 30-H ) :   0.8488 B( 10-S , 11-P ) :   0.9356
B( 10-S , 12-S ) :   0.1174 B( 11-P , 12-S ) :   1.6250 B( 11-P , 13-O ) :   1.1422
B( 11-P , 16-O ) :   1.0722 B( 12-S , 30-H ) :   0.1078 B( 13-O , 14-C ) :   0.9046
B( 14-C , 15-C ) :   1.1578 B( 14-C , 31-H ) :   0.9120 B( 14-C , 32-H ) :   0.9277
B( 15-C , 33-H ) :   0.9389 B( 15-C , 34-H ) :   0.9461 B( 15-C , 35-H ) :   0.9373
B( 16-O , 17-C ) :   0.9156 B( 17-C , 18-C ) :   1.1642 B( 17-C , 36-H ) :   0.9342
B( 17-C , 37-H ) :   0.9172 B( 18-C , 38-H ) :   0.9366 B( 18-C , 39-H ) :   0.9416
B( 18-C , 40-H ) :   0.9371

Dispersion correction           -0.067055201
FINAL SINGLE POINT ENERGY     -2929.516600454353

DIPOLE MOMENT
-------------

Method             : SCF
Type of density    : Electron Density
Multiplicity       :   1
Irrep              :   0
Energy             : -2929.6344305224229174 Eh
Relativity type    :
Basis              : AO
                                X                 Y                 Z
Electronic contribution:      0.523346787      -1.751860474      -8.732969167
Nuclear contribution   :     -0.529085501       1.212507151       9.818086591
                        -----------------------------------------
Total Dipole Moment    :     -0.005738714      -0.539353323       1.085117423
                        -----------------------------------------
Magnitude (a.u.)       :      1.211781648
Magnitude (Debye)      :      3.080104170

Rotational constants in cm-1:             0.012266             0.005431             0.004711
Rotational constants in MHz :           367.732490           162.831149           141.220399

                             ****ORCA TERMINATED NORMALLY****
TOTAL RUN TIME: 0 days 0 hours 0 minutes 21 seconds 367 msec
