                         Program Version 6.0.0  -   RELEASE  -
|  1> ! pbe def2-sv(p) def2/J RI DEFGRID1 loosescf d4 GCP(DFT/SV(P)) printgap
|  2> %output
|  3>     printlevel normal
|  4> end
|  5> * xyz 0 1
|  6> C 0.8553285602 1.379927983 -0.5797224457
|  7> C 1.5891365196 0.1402420482 -0.0530193559
|  8> H 2.5338162154 0.0534712882 -0.60375408
|  9> C 0.750090535 -1.1246664287 -0.338345116
| 10> H 1.1840485318 -1.9693296869 0.2192754688
| 11> C -0.691629849 -0.9089520716 0.1655341341
| 12> H -1.3323877239 -1.7476669325 -0.1274571416
| 13> C -1.263930112 0.382839066 -0.4568024493
| 14> H -1.2761587005 0.295437645 -1.5550598058
| 15> O -0.4583421235 1.4837569338 -0.0754836766
| 16> O -2.5602556558 0.6205448207 -0.0551583995
| 17> O -0.7501729932 -0.8435833458 1.5677503818
| 18> O 0.8024330806 -1.3556761732 -1.7237588656
| 19> O 1.8136344062 0.3096852437 1.3287169748
| 20> H 0.8365800077 1.3362254866 -1.6759835898
| 21> H 1.3654614576 2.2816605963 -0.2415357537
| 22> H -2.5969314256 0.5871438503 0.9162801192
| 23> H -0.1152250221 -0.1659560315 1.8655074791
| 24> H 0.4314738454 -2.2256872005 -1.9292251952
| 25> H 2.5023956891 -0.2974284809 1.6335015626
| 26> *
| 27>
| 28>                          ****END OF INPUT****

CARTESIAN COORDINATES (ANGSTROEM)
---------------------------------
  C      0.855329    1.379928   -0.579722
  C      1.589137    0.140242   -0.053019
  H      2.533816    0.053471   -0.603754
  C      0.750091   -1.124666   -0.338345
  H      1.184049   -1.969330    0.219275
  C     -0.691630   -0.908952    0.165534
  H     -1.332388   -1.747667   -0.127457
  C     -1.263930    0.382839   -0.456802
  H     -1.276159    0.295438   -1.555060
  O     -0.458342    1.483757   -0.075484
  O     -2.560256    0.620545   -0.055158
  O     -0.750173   -0.843583    1.567750
  O      0.802433   -1.355676   -1.723759
  O      1.813634    0.309685    1.328717
  H      0.836580    1.336225   -1.675984
  H      1.365461    2.281661   -0.241536
  H     -2.596931    0.587144    0.916280
  H     -0.115225   -0.165956    1.865507
  H      0.431474   -2.225687   -1.929225
  H      2.502396   -0.297428    1.633502

 Total Charge           Charge          ....    0
 Multiplicity           Mult            ....    1
 Number of Electrons    NEL             ....   80
 Basis Dimension        Dim             ....  160

ORBITAL ENERGIES
----------------

  NO   OCC          E(Eh)            E(eV)
   0   2.0000     -18.777638      -510.9655
   1   2.0000     -18.769901      -510.7550
   2   2.0000     -18.756401      -510.3876
   3   2.0000     -18.748377      -510.1693
   4   2.0000     -18.746717      -510.1241
   5   2.0000      -9.972927      -271.3771
   6   2.0000      -9.954151      -270.8662
   7   2.0000      -9.950319      -270.7619
   8   2.0000      -9.936603      -270.3887
   9   2.0000      -9.935250      -270.3519
  10   2.0000      -0.976119       -26.5615
  11   2.0000      -0.951956       -25.9040
  12   2.0000      -0.942618       -25.6499
  13   2.0000      -0.920277       -25.0420
  14   2.0000      -0.904064       -24.6008
  15   2.0000      -0.702094       -19.1049
  16   2.0000      -0.669679       -18.2229
  17   2.0000      -0.591344       -16.0913
  18   2.0000      -0.578350       -15.7377
  19   2.0000      -0.536263       -14.5925
  20   2.0000      -0.500807       -13.6276
  21   2.0000      -0.493853       -13.4384
  22   2.0000      -0.470474       -12.8023
  23   2.0000      -0.439856       -11.9691
  24   2.0000      -0.429005       -11.6738
  25   2.0000      -0.428411       -11.6576
  26   2.0000      -0.404765       -11.0142
  27   2.0000      -0.378064       -10.2876
  28   2.0000      -0.369861       -10.0644
  29   2.0000      -0.350243        -9.5306
  30   2.0000      -0.333110        -9.0644
  31   2.0000      -0.311633        -8.4800
  32   2.0000      -0.301902        -8.2152
  33   2.0000      -0.283518        -7.7149
  34   2.0000      -0.274179        -7.4608
  35   2.0000      -0.257807        -7.0153
  36   2.0000      -0.250507        -6.8167
  37   2.0000      -0.235493        -6.4081
  38   2.0000      -0.218581        -5.9479
  39   2.0000      -0.195339        -5.3154
  40   0.0000       0.004547         0.1237
  41   0.0000       0.008832         0.2403
  42   0.0000       0.054823         1.4918
  43   0.0000       0.067933         1.8485
  44   0.0000       0.078657         2.1404

MULLIKEN ATOMIC CHARGES
-----------------------
   0 C :    0.076037
   1 C :   -0.016844
   2 H :    0.078680
   3 C :    0.023031
   4 H :    0.057501
   5 C :    0.042908
   6 H :    0.063493
   7 C :    0.176634
   8 H :    0.051324
   9 O :   -0.309486
  10 O :   -0.376215
  11 O :   -0.442079
  12 O :   -0.411463
  13 O :   -0.418191
  14 H :    0.083457
  15 H :    0.097879
  16 H :    0.299703
  17 H :    0.302820
  18 H :    0.308989
  19 H :    0.311822
Sum of atomic charges:    0.0000000

LOEWDIN ATOMIC CHARGES
----------------------
   0 C :   -0.113145
   1 C :   -0.082893
   2 H :    0.111948
   3 C :   -0.084208
   4 H :    0.094253
   5 C :   -0.097747
   6 H :    0.110880
   7 C :   -0.007376
   8 H :    0.095147
   9 O :   -0.165951
  10 O :   -0.289315
  11 O :   -0.320698
  12 O :   -0.316373
  13 O :   -0.308078
  14 H :    0.111178
  15 H :    0.121672
  16 H :    0.282349
  17 H :    0.271510
  18 H :    0.293143
  19 H :    0.293704

  Mayer bond orders larger than 0.100000
B(  0-C ,  1-C ) :   1.0740 B(  0-C ,  9-O ) :   1.0366 B(  0-C , 14-H ) :   0.8972
B(  0-C , 15-H ) :   0.9190 B(  1-C ,  2-H ) :   0.8939 B(  1-C ,  3-C ) :   0.9848
B(  1-C , 13-O ) :   1.0308 B(  3-C ,  4-H ) :   0.9066 B(  3-C ,  5-C ) :   0.9601
B(  3-C , 12-O ) :   1.0599 B(  5-C ,  6-H ) :   0.8925 B(  5-C ,  7-C ) :   0.9731
B(  5-C , 11-O ) :   1.0424 B(  7-C ,  8-H ) :   0.8846 B(  7-C ,  9-O ) :   0.9969
B(  7-C , 10-O ) :   1.1750 B( 10-O , 16-H ) :   0.8294 B( 11-O , 17-H ) :   0.8056
B( 12-O , 18-H ) :   0.8441 B( 13-O , 19-H ) :   0.8418

Dispersion correction           -0.019862660
FINAL SINGLE POINT ENERGY      -571.419249315473

DIPOLE MOMENT
-------------

Method             : SCF
Type of density    : Electron Density
Multiplicity       :   1
Irrep              :   0
Energy             :  -571.5285302928292595 Eh
Relativity type    :
Basis              : AO
                                X                 Y                 Z
Electronic contribution:     -2.061144967       0.788740866       1.352289298
Nuclear contribution   :      3.297546683      -1.734431441      -1.390364208
                        -----------------------------------------
Total Dipole Moment    :      1.236401716      -0.945690576      -0.038074910
                        -----------------------------------------
Magnitude (a.u.)       :      1.557070829
Magnitude (Debye)      :      3.957759520

Rotational constants in cm-1:             0.058509             0.040549             0.038380
Rotational constants in MHz :          1754.062595          1215.618924          1150.602326

                             ****ORCA TERMINATED NORMALLY****
TOTAL RUN TIME: 0 days 0 hours 0 minutes 11 seconds 531 msec
