                         Program Version 6.0.0  -   RELEASE  -
|  1> ! pbe def2-sv(p) def2/J RI DEFGRID1 loosescf d4 GCP(DFT/SV(P)) printgap
|  2> %output
|  3>     printlevel normal
|  4> end
|  5> * xyz 0 1
|  6> C 4.6703343234 0.5009490517 -1.5557970884
|  7> C 4.6225628968 0.1783227383 -0.0768224475
|  8> O 3.3967032291 -0.4727711466 0.3052755558
|  9> P 1.9888438602 0.2623573317 0.2324604952
| 10> S 2.0224760713 2.140089446 0.7715599306
| 11> O 1.1001239261 -0.6237550796 1.2034359755
| 12> C 1.1663662853 -2.070175217 1.2234825009
| 13> C 2.0812774383 -2.5509001901 2.3294118948
| 14> S 1.3452692565 -0.2916855752 -1.7182936733
| 15> C -0.086104977 0.8109901236 -1.9949966694
| 16> S -0.9906225583 1.3549361624 -0.5303633678
| 17> P -2.0535714169 -0.4146691449 0.0151868487
| 18> S -1.6808576729 -2.0385005199 -1.0057987908
| 19> O -3.5934140929 0.0013553371 0.0102505806
| 20> C -4.4326807312 -0.1235872781 -1.1468234486
| 21> C -4.1002351399 0.9035851674 -2.2106530808
| 22> O -1.7888566342 -0.5982415884 1.5590427224
| 23> C -1.6217602183 0.4456240078 2.5450279158
| 24> C -2.7388206369 1.4650372423 2.5252995212
| 25> H 4.4526469986 -0.3861015 -2.1457102844
| 26> H 3.9361051021 1.2697692815 -1.791766435
| 27> H 5.6590306366 0.8699580536 -1.8089122672
| 28> H 4.7253535572 1.0906822007 0.5186617936
| 29> H 5.3952823049 -0.5388672603 0.2036453858
| 30> H 0.1361224982 -2.3930075774 1.3914060377
| 31> H 1.4976913562 -2.425648774 0.2436794959
| 32> H 1.7563546551 -2.1441990266 3.2832254312
| 33> H 2.0432603724 -3.6350573061 2.3688280873
| 34> H 3.1028415918 -2.2332429842 2.1395749849
| 35> H -0.743917335 0.2507151456 -2.6580642898
| 36> H 0.2657454145 1.7255810378 -2.4677323614
| 37> H -4.3300656698 -1.1390735434 -1.5432655775
| 38> H -5.4404948744 0.0194111112 -0.7544763564
| 39> H -4.0808976994 1.9017052381 -1.7807979569
| 40> H -3.1266316146 0.6892617599 -2.6477733272
| 41> H -4.8506087804 0.8636197026 -2.9936934967
| 42> H -1.5952214759 -0.1050801561 3.4866031981
| 43> H -0.6511620986 0.9222094447 2.3754869806
| 44> H -2.7240010457 2.0226569763 1.5901277492
| 45> H -3.7012782003 0.9707720318 2.6285549297
| 46> H -2.5965580359 2.1590629381 3.3480854105
| 47> *
| 48>
| 49>                          ****END OF INPUT****

CARTESIAN COORDINATES (ANGSTROEM)
---------------------------------
  C      4.670334    0.500949   -1.555797
  C      4.622563    0.178323   -0.076822
  O      3.396703   -0.472771    0.305276
  P      1.988844    0.262357    0.232460
  S      2.022476    2.140089    0.771560
  O      1.100124   -0.623755    1.203436
  C      1.166366   -2.070175    1.223483
  C      2.081277   -2.550900    2.329412
  S      1.345269   -0.291686   -1.718294
  C     -0.086105    0.810990   -1.994997
  S     -0.990623    1.354936   -0.530363
  P     -2.053571   -0.414669    0.015187
  S     -1.680858   -2.038501   -1.005799
  O     -3.593414    0.001355    0.010251
  C     -4.432681   -0.123587   -1.146823
  C     -4.100235    0.903585   -2.210653
  O     -1.788857   -0.598242    1.559043
  C     -1.621760    0.445624    2.545028
  C     -2.738821    1.465037    2.525300
  H      4.452647   -0.386101   -2.145710
  H      3.936105    1.269769   -1.791766
  H      5.659031    0.869958   -1.808912
  H      4.725354    1.090682    0.518662
  H      5.395282   -0.538867    0.203645
  H      0.136122   -2.393008    1.391406
  H      1.497691   -2.425649    0.243679
  H      1.756355   -2.144199    3.283225
  H      2.043260   -3.635057    2.368828
  H      3.102842   -2.233243    2.139575
  H     -0.743917    0.250715   -2.658064
  H      0.265745    1.725581   -2.467732
  H     -4.330066   -1.139074   -1.543266
  H     -5.440495    0.019411   -0.754476
  H     -4.080898    1.901705   -1.780798
  H     -3.126632    0.689262   -2.647773
  H     -4.850609    0.863620   -2.993693
  H     -1.595221   -0.105080    3.486603
  H     -0.651162    0.922209    2.375487
  H     -2.724001    2.022657    1.590128
  H     -3.701278    0.970772    2.628555
  H     -2.596558    2.159063    3.348085

 Total Charge           Charge          ....    0
 Multiplicity           Mult            ....    1
 Number of Electrons    NEL             ....  202
 Basis Dimension        Dim             ....  334

ORBITAL ENERGIES
----------------

  NO   OCC          E(Eh)            E(eV)
   0   2.0000     -88.047043     -2395.8818
   1   2.0000     -88.037487     -2395.6218
   2   2.0000     -87.985982     -2394.2203
   3   2.0000     -87.983568     -2394.1546
   4   2.0000     -76.426180     -2079.6621
   5   2.0000     -76.425002     -2079.6300
   6   2.0000     -18.793575      -511.3992
   7   2.0000     -18.789573      -511.2903
   8   2.0000     -18.788121      -511.2508
   9   2.0000     -18.784924      -511.1638
  10   2.0000      -9.961611      -271.0692
  11   2.0000      -9.952786      -270.8291
  12   2.0000      -9.951823      -270.8029
  13   2.0000      -9.949924      -270.7512
  14   2.0000      -9.940477      -270.4941
  15   2.0000      -9.887736      -269.0590
  16   2.0000      -9.885409      -268.9957
  17   2.0000      -9.883357      -268.9398
  18   2.0000      -9.877491      -268.7802
  19   2.0000      -7.690896      -209.2799
  20   2.0000      -7.682488      -209.0511
  21   2.0000      -7.631022      -207.6507
  22   2.0000      -7.628756      -207.5890
  23   2.0000      -6.423272      -174.7861
  24   2.0000      -6.422066      -174.7533
  25   2.0000      -5.718944      -155.6204
  26   2.0000      -5.715268      -155.5204
  27   2.0000      -5.710595      -155.3932
  28   2.0000      -5.707934      -155.3208
  29   2.0000      -5.706962      -155.2943
  30   2.0000      -5.699263      -155.0848
  31   2.0000      -5.660067      -154.0182
  32   2.0000      -5.657874      -153.9586
  33   2.0000      -5.651663      -153.7896
  34   2.0000      -5.651008      -153.7718
  35   2.0000      -5.649063      -153.7188
  36   2.0000      -5.649026      -153.7178
  37   2.0000      -4.645828      -126.4194
  38   2.0000      -4.645089      -126.3993
  39   2.0000      -4.645060      -126.3985
  40   2.0000      -4.643811      -126.3645
  41   2.0000      -4.643759      -126.3631
  42   2.0000      -4.642294      -126.3232
  43   2.0000      -0.985829       -26.8258
  44   2.0000      -0.983872       -26.7725
  45   2.0000      -0.942937       -25.6586
  46   2.0000      -0.939892       -25.5758
  47   2.0000      -0.761628       -20.7250
  48   2.0000      -0.717055       -19.5121
  49   2.0000      -0.707480       -19.2515
  50   2.0000      -0.689397       -18.7594
  51   2.0000      -0.686449       -18.6792
  52   2.0000      -0.674103       -18.3433
  53   2.0000      -0.649969       -17.6866
  54   2.0000      -0.639799       -17.4098
  55   2.0000      -0.599754       -16.3201
  56   2.0000      -0.590619       -16.0715
  57   2.0000      -0.573663       -15.6102
  58   2.0000      -0.568158       -15.4604
  59   2.0000      -0.566267       -15.4089
  60   2.0000      -0.498908       -13.5760
  61   2.0000      -0.489952       -13.3323
  62   2.0000      -0.469887       -12.7863
  63   2.0000      -0.469495       -12.7756
  64   2.0000      -0.458900       -12.4873
  65   2.0000      -0.445243       -12.1157
  66   2.0000      -0.442100       -12.0301
  67   2.0000      -0.433357       -11.7923
  68   2.0000      -0.421799       -11.4777
  69   2.0000      -0.419770       -11.4225
  70   2.0000      -0.410857       -11.1800
  71   2.0000      -0.396082       -10.7779
  72   2.0000      -0.389068       -10.5871
  73   2.0000      -0.384368       -10.4592
  74   2.0000      -0.380799       -10.3621
  75   2.0000      -0.375269       -10.2116
  76   2.0000      -0.365834        -9.9548
  77   2.0000      -0.359554        -9.7840
  78   2.0000      -0.352061        -9.5801
  79   2.0000      -0.350095        -9.5266
  80   2.0000      -0.349074        -9.4988
  81   2.0000      -0.346010        -9.4154
  82   2.0000      -0.340588        -9.2679
  83   2.0000      -0.338701        -9.2165
  84   2.0000      -0.332957        -9.0602
  85   2.0000      -0.317137        -8.6297
  86   2.0000      -0.307993        -8.3809
  87   2.0000      -0.294798        -8.0219
  88   2.0000      -0.292876        -7.9696
  89   2.0000      -0.290728        -7.9111
  90   2.0000      -0.287691        -7.8285
  91   2.0000      -0.271337        -7.3835
  92   2.0000      -0.263565        -7.1720
  93   2.0000      -0.260633        -7.0922
  94   2.0000      -0.257165        -6.9978
  95   2.0000      -0.236113        -6.4250
  96   2.0000      -0.222852        -6.0641
  97   2.0000      -0.209600        -5.7035
  98   2.0000      -0.205570        -5.5938
  99   2.0000      -0.192994        -5.2516
 100   2.0000      -0.187608        -5.1051
 101   0.0000      -0.051324        -1.3966
 102   0.0000      -0.029345        -0.7985
 103   0.0000      -0.008524        -0.2319
 104   0.0000      -0.000537        -0.0146
 105   0.0000       0.014927         0.4062

MULLIKEN ATOMIC CHARGES
-----------------------
   0 C :   -0.316799
   1 C :   -0.000391
   2 O :   -0.382725
   3 P :    0.604245
   4 S :   -0.314878
   5 O :   -0.364571
   6 C :   -0.021983
   7 C :   -0.282295
   8 S :   -0.095590
   9 C :   -0.303999
  10 S :   -0.111834
  11 P :    0.604719
  12 S :   -0.316017
  13 O :   -0.371907
  14 C :    0.000180
  15 C :   -0.317752
  16 O :   -0.361816
  17 C :   -0.016637
  18 C :   -0.313220
  19 H :    0.119893
  20 H :    0.125558
  21 H :    0.113046
  22 H :    0.112647
  23 H :    0.104298
  24 H :    0.123280
  25 H :    0.104517
  26 H :    0.111293
  27 H :    0.108356
  28 H :    0.115324
  29 H :    0.187484
  30 H :    0.184913
  31 H :    0.111048
  32 H :    0.104440
  33 H :    0.119985
  34 H :    0.120401
  35 H :    0.112899
  36 H :    0.106015
  37 H :    0.134888
  38 H :    0.124665
  39 H :    0.121056
  40 H :    0.117267
Sum of atomic charges:    0.0000000

LOEWDIN ATOMIC CHARGES
----------------------
   0 C :   -0.371439
   1 C :   -0.117803
   2 O :   -0.246081
   3 P :    0.565912
   4 S :   -0.322586
   5 O :   -0.236244
   6 C :   -0.123405
   7 C :   -0.359068
   8 S :    0.075530
   9 C :   -0.468724
  10 S :    0.099585
  11 P :    0.568141
  12 S :   -0.307353
  13 O :   -0.246513
  14 C :   -0.119858
  15 C :   -0.366351
  16 O :   -0.228417
  17 C :   -0.118273
  18 C :   -0.366613
  19 H :    0.123824
  20 H :    0.120978
  21 H :    0.131042
  22 H :    0.111992
  23 H :    0.117980
  24 H :    0.116586
  25 H :    0.106009
  26 H :    0.124722
  27 H :    0.129260
  28 H :    0.122618
  29 H :    0.128709
  30 H :    0.137530
  31 H :    0.109733
  32 H :    0.118769
  33 H :    0.125986
  34 H :    0.118041
  35 H :    0.130833
  36 H :    0.121491
  37 H :    0.115399
  38 H :    0.116646
  39 H :    0.127743
  40 H :    0.133670

  Mayer bond orders larger than 0.100000
B(  0-C ,  1-C ) :   1.1675 B(  0-C , 19-H ) :   0.9426 B(  0-C , 20-H ) :   0.9347
B(  0-C , 21-H ) :   0.9368 B(  1-C ,  2-O ) :   0.9052 B(  1-C , 22-H ) :   0.9169
B(  1-C , 23-H ) :   0.9334 B(  2-O ,  3-P ) :   1.0742 B(  3-P ,  4-S ) :   1.6179
B(  3-P ,  5-O ) :   1.1146 B(  3-P ,  8-S ) :   0.9803 B(  4-S ,  8-S ) :   0.1162
B(  5-O ,  6-C ) :   0.8814 B(  6-C ,  7-C ) :   1.1621 B(  6-C , 24-H ) :   0.9182
B(  6-C , 25-H ) :   0.9162 B(  7-C , 26-H ) :   0.9475 B(  7-C , 27-H ) :   0.9411
B(  7-C , 28-H ) :   0.9430 B(  8-S ,  9-C ) :   0.9768 B(  9-C , 10-S ) :   1.0257
B(  9-C , 29-H ) :   0.8853 B(  9-C , 30-H ) :   0.9046 B( 10-S , 11-P ) :   0.9355
B( 10-S , 12-S ) :   0.1080 B( 11-P , 12-S ) :   1.6314 B( 11-P , 13-O ) :   1.0740
B( 11-P , 16-O ) :   1.1434 B( 13-O , 14-C ) :   0.9208 B( 14-C , 15-C ) :   1.1612
B( 14-C , 31-H ) :   0.9132 B( 14-C , 32-H ) :   0.9339 B( 15-C , 33-H ) :   0.9438
B( 15-C , 34-H ) :   0.9377 B( 15-C , 35-H ) :   0.9379 B( 16-O , 17-C ) :   0.8901
B( 17-C , 18-C ) :   1.1698 B( 17-C , 36-H ) :   0.9341 B( 17-C , 37-H ) :   0.9102
B( 18-C , 38-H ) :   0.9373 B( 18-C , 39-H ) :   0.9414 B( 18-C , 40-H ) :   0.9351

Dispersion correction           -0.069553107
FINAL SINGLE POINT ENERGY     -2929.515754564065

DIPOLE MOMENT
-------------

Method             : SCF
Type of density    : Electron Density
Multiplicity       :   1
Irrep              :   0
Energy             : -2929.6337272451660283 Eh
Relativity type    :
Basis              : AO
                                X                 Y                 Z
Electronic contribution:      0.633904391       0.269263031      -2.863052045
Nuclear contribution   :     -0.792021028      -0.152440358       2.697272103
                        -----------------------------------------
Total Dipole Moment    :     -0.158116637       0.116822673      -0.165779942
                        -----------------------------------------
Magnitude (a.u.)       :      0.257160255
Magnitude (Debye)      :      0.653649423

Rotational constants in cm-1:             0.012807             0.005548             0.005315
Rotational constants in MHz :           383.952826           166.315940           159.344414

                             ****ORCA TERMINATED NORMALLY****
TOTAL RUN TIME: 0 days 0 hours 0 minutes 22 seconds 377 msec
