                         Program Version 6.0.0  -   RELEASE  -
|  1> ! pbe def2-sv(p) def2/J RI DEFGRID1 loosescf d4 GCP(DFT/SV(P)) printgap
|  2> %output
|  3>     printlevel normal
|  4> end
|  5> * xyz 0 1
|  6> C 3.2505608534 -1.2500337779 -2.3808863866
|  7> C 1.8623924442 -0.6550722484 -2.2874262661
|  8> O 1.3664259469 -0.6705177116 -0.9363926631
|  9> P 2.0008299079 0.2327330918 0.2023494437
| 10> S 2.8405636522 1.9226535776 -0.3131681088
| 11> O 2.9926050244 -0.8261501232 0.8714678797
| 12> C 4.052071798 -0.4306996456 1.7562738241
| 13> C 3.5260443807 0.0615553565 3.0898541675
| 14> S 0.3778554417 0.3404463049 1.547198073
| 15> C -0.2198092082 -1.3656932705 1.4599451093
| 16> S -1.2003080829 -1.7655536028 -0.0333230246
| 17> P -1.9613438492 0.1151338364 -0.5988649756
| 18> S -0.8737261116 1.5205624424 -1.431407342
| 19> O -2.7380077754 0.5297455696 0.7336390421
| 20> C -2.8006244647 1.8582382696 1.2915354325
| 21> C -2.6718435913 1.759827535 2.7980683561
| 22> O -3.0789944483 -0.2947772684 -1.6446386581
| 23> C -4.159197289 -1.2186588617 -1.3513827825
| 24> C -3.9211576575 -2.547480451 -2.0401322457
| 25> H 3.547200339 -1.3035077971 -3.4235497202
| 26> H 3.9575121908 -0.6191089097 -1.8430928181
| 27> H 3.2608786825 -2.2462937643 -1.9466821304
| 28> H 1.1258932316 -1.2412535288 -2.8404083937
| 29> H 1.8481835178 0.3790657402 -2.6480843908
| 30> H 4.6544397361 -1.3334549776 1.8664556181
| 31> H 4.6373657003 0.3525528825 1.2640492498
| 32> H 2.9517064346 0.9765275215 2.9455433238
| 33> H 2.8859437391 -0.6871947022 3.5488970943
| 34> H 4.3625157138 0.2726720837 3.7481785527
| 35> H -0.854262523 -1.5030578928 2.3324642417
| 36> H 0.6240461421 -2.052634701 1.4671130968
| 37> H -1.9991985106 2.4642321128 0.8554340236
| 38> H -3.7645414562 2.2820247048 1.0000724813
| 39> H -1.6909692543 1.3752635803 3.0666817632
| 40> H -2.7953157464 2.7491430915 3.2260257212
| 41> H -3.4378048905 1.0984768636 3.1921456134
| 42> H -4.2435656933 -1.3374515648 -0.269056653
| 43> H -5.0532729981 -0.727798476 -1.739696531
| 44> H -3.0305963953 -3.0285708544 -1.6418344834
| 45> H -4.7792094793 -3.1909185768 -1.8737886882
| 46> H -3.7891454424 -2.3929737189 -3.1074326915
| 47> *
| 48>
| 49>                          ****END OF INPUT****

CARTESIAN COORDINATES (ANGSTROEM)
---------------------------------
  C      3.250561   -1.250034   -2.380886
  C      1.862392   -0.655072   -2.287426
  O      1.366426   -0.670518   -0.936393
  P      2.000830    0.232733    0.202349
  S      2.840564    1.922654   -0.313168
  O      2.992605   -0.826150    0.871468
  C      4.052072   -0.430700    1.756274
  C      3.526044    0.061555    3.089854
  S      0.377855    0.340446    1.547198
  C     -0.219809   -1.365693    1.459945
  S     -1.200308   -1.765554   -0.033323
  P     -1.961344    0.115134   -0.598865
  S     -0.873726    1.520562   -1.431407
  O     -2.738008    0.529746    0.733639
  C     -2.800624    1.858238    1.291535
  C     -2.671844    1.759828    2.798068
  O     -3.078994   -0.294777   -1.644639
  C     -4.159197   -1.218659   -1.351383
  C     -3.921158   -2.547480   -2.040132
  H      3.547200   -1.303508   -3.423550
  H      3.957512   -0.619109   -1.843093
  H      3.260879   -2.246294   -1.946682
  H      1.125893   -1.241254   -2.840408
  H      1.848184    0.379066   -2.648084
  H      4.654440   -1.333455    1.866456
  H      4.637366    0.352553    1.264049
  H      2.951706    0.976528    2.945543
  H      2.885944   -0.687195    3.548897
  H      4.362516    0.272672    3.748179
  H     -0.854263   -1.503058    2.332464
  H      0.624046   -2.052635    1.467113
  H     -1.999199    2.464232    0.855434
  H     -3.764541    2.282025    1.000072
  H     -1.690969    1.375264    3.066682
  H     -2.795316    2.749143    3.226026
  H     -3.437805    1.098477    3.192146
  H     -4.243566   -1.337452   -0.269057
  H     -5.053273   -0.727798   -1.739697
  H     -3.030596   -3.028571   -1.641834
  H     -4.779209   -3.190919   -1.873789
  H     -3.789145   -2.392974   -3.107433

 Total Charge           Charge          ....    0
 Multiplicity           Mult            ....    1
 Number of Electrons    NEL             ....  202
 Basis Dimension        Dim             ....  334

ORBITAL ENERGIES
----------------

  NO   OCC          E(Eh)            E(eV)
   0   2.0000     -88.047608     -2395.8972
   1   2.0000     -88.039021     -2395.6636
   2   2.0000     -87.985866     -2394.2171
   3   2.0000     -87.972187     -2393.8449
   4   2.0000     -76.424092     -2079.6053
   5   2.0000     -76.420678     -2079.5124
   6   2.0000     -18.788719      -511.2670
   7   2.0000     -18.787881      -511.2442
   8   2.0000     -18.786754      -511.2136
   9   2.0000     -18.782175      -511.0890
  10   2.0000      -9.963147      -271.1110
  11   2.0000      -9.953384      -270.8454
  12   2.0000      -9.950527      -270.7676
  13   2.0000      -9.947586      -270.6876
  14   2.0000      -9.941668      -270.5265
  15   2.0000      -9.886505      -269.0255
  16   2.0000      -9.885463      -268.9971
  17   2.0000      -9.884474      -268.9702
  18   2.0000      -9.876962      -268.7658
  19   2.0000      -7.691890      -209.3070
  20   2.0000      -7.684100      -209.0950
  21   2.0000      -7.630951      -207.6487
  22   2.0000      -7.617225      -207.2752
  23   2.0000      -6.421446      -174.7364
  24   2.0000      -6.417700      -174.6345
  25   2.0000      -5.720238      -155.6556
  26   2.0000      -5.716148      -155.5443
  27   2.0000      -5.712278      -155.4390
  28   2.0000      -5.708649      -155.3402
  29   2.0000      -5.708484      -155.3357
  30   2.0000      -5.700863      -155.1284
  31   2.0000      -5.659940      -154.0148
  32   2.0000      -5.651701      -153.7906
  33   2.0000      -5.650946      -153.7701
  34   2.0000      -5.646540      -153.6502
  35   2.0000      -5.637578      -153.4063
  36   2.0000      -5.637217      -153.3965
  37   2.0000      -4.643672      -126.3607
  38   2.0000      -4.643423      -126.3540
  39   2.0000      -4.642083      -126.3175
  40   2.0000      -4.640787      -126.2822
  41   2.0000      -4.639323      -126.2424
  42   2.0000      -4.637922      -126.2043
  43   2.0000      -0.982257       -26.7286
  44   2.0000      -0.978884       -26.6368
  45   2.0000      -0.939965       -25.5778
  46   2.0000      -0.938762       -25.5450
  47   2.0000      -0.764512       -20.8034
  48   2.0000      -0.718993       -19.5648
  49   2.0000      -0.706744       -19.2315
  50   2.0000      -0.690382       -18.7862
  51   2.0000      -0.682691       -18.5770
  52   2.0000      -0.671644       -18.2764
  53   2.0000      -0.650236       -17.6938
  54   2.0000      -0.634547       -17.2669
  55   2.0000      -0.596471       -16.2308
  56   2.0000      -0.584536       -15.9060
  57   2.0000      -0.571950       -15.5636
  58   2.0000      -0.567503       -15.4426
  59   2.0000      -0.563832       -15.3427
  60   2.0000      -0.504146       -13.7185
  61   2.0000      -0.489827       -13.3289
  62   2.0000      -0.476823       -12.9750
  63   2.0000      -0.468644       -12.7525
  64   2.0000      -0.456480       -12.4215
  65   2.0000      -0.441405       -12.0112
  66   2.0000      -0.439098       -11.9485
  67   2.0000      -0.431618       -11.7449
  68   2.0000      -0.425110       -11.5678
  69   2.0000      -0.415922       -11.3178
  70   2.0000      -0.412400       -11.2220
  71   2.0000      -0.392217       -10.6728
  72   2.0000      -0.388851       -10.5812
  73   2.0000      -0.386299       -10.5117
  74   2.0000      -0.376922       -10.2566
  75   2.0000      -0.374880       -10.2010
  76   2.0000      -0.364729        -9.9248
  77   2.0000      -0.358036        -9.7427
  78   2.0000      -0.354910        -9.6576
  79   2.0000      -0.350649        -9.5416
  80   2.0000      -0.348478        -9.4826
  81   2.0000      -0.344437        -9.3726
  82   2.0000      -0.339257        -9.2317
  83   2.0000      -0.333839        -9.0842
  84   2.0000      -0.327899        -8.9226
  85   2.0000      -0.319927        -8.7057
  86   2.0000      -0.313795        -8.5388
  87   2.0000      -0.300391        -8.1740
  88   2.0000      -0.292479        -7.9588
  89   2.0000      -0.284005        -7.7282
  90   2.0000      -0.278983        -7.5915
  91   2.0000      -0.267977        -7.2920
  92   2.0000      -0.267042        -7.2666
  93   2.0000      -0.264933        -7.2092
  94   2.0000      -0.256372        -6.9762
  95   2.0000      -0.230680        -6.2771
  96   2.0000      -0.217483        -5.9180
  97   2.0000      -0.207932        -5.6581
  98   2.0000      -0.200810        -5.4643
  99   2.0000      -0.188210        -5.1215
 100   2.0000      -0.180452        -4.9103
 101   0.0000      -0.051068        -1.3896
 102   0.0000      -0.028441        -0.7739
 103   0.0000      -0.009313        -0.2534
 104   0.0000      -0.003623        -0.0986
 105   0.0000       0.020905         0.5688

MULLIKEN ATOMIC CHARGES
-----------------------
   0 C :   -0.303729
   1 C :    0.002142
   2 O :   -0.369938
   3 P :    0.632614
   4 S :   -0.304452
   5 O :   -0.378253
   6 C :   -0.006088
   7 C :   -0.306987
   8 S :   -0.101603
   9 C :   -0.304206
  10 S :   -0.120330
  11 P :    0.611234
  12 S :   -0.297472
  13 O :   -0.398498
  14 C :   -0.002729
  15 C :   -0.298705
  16 O :   -0.361576
  17 C :   -0.021732
  18 C :   -0.293443
  19 H :    0.110519
  20 H :    0.120104
  21 H :    0.110734
  22 H :    0.101688
  23 H :    0.119725
  24 H :    0.102660
  25 H :    0.110223
  26 H :    0.124149
  27 H :    0.109246
  28 H :    0.112161
  29 H :    0.181890
  30 H :    0.183587
  31 H :    0.118972
  32 H :    0.101008
  33 H :    0.123328
  34 H :    0.112154
  35 H :    0.110027
  36 H :    0.105833
  37 H :    0.108557
  38 H :    0.127438
  39 H :    0.108780
  40 H :    0.120969
Sum of atomic charges:   -0.0000000

LOEWDIN ATOMIC CHARGES
----------------------
   0 C :   -0.366178
   1 C :   -0.115897
   2 O :   -0.237962
   3 P :    0.575442
   4 S :   -0.303711
   5 O :   -0.250961
   6 C :   -0.122459
   7 C :   -0.367506
   8 S :    0.114714
   9 C :   -0.466465
  10 S :    0.075441
  11 P :    0.555106
  12 S :   -0.297992
  13 O :   -0.263010
  14 C :   -0.118851
  15 C :   -0.356989
  16 O :   -0.245040
  17 C :   -0.119943
  18 C :   -0.360180
  19 H :    0.129692
  20 H :    0.120466
  21 H :    0.123655
  22 H :    0.117642
  23 H :    0.113306
  24 H :    0.117103
  25 H :    0.109309
  26 H :    0.120110
  27 H :    0.121089
  28 H :    0.130266
  29 H :    0.135557
  30 H :    0.134037
  31 H :    0.110109
  32 H :    0.113573
  33 H :    0.115908
  34 H :    0.131513
  35 H :    0.123179
  36 H :    0.108011
  37 H :    0.120199
  38 H :    0.118915
  39 H :    0.129439
  40 H :    0.129360

  Mayer bond orders larger than 0.100000
B(  0-C ,  1-C ) :   1.1599 B(  0-C , 19-H ) :   0.9396 B(  0-C , 20-H ) :   0.9354
B(  0-C , 21-H ) :   0.9454 B(  1-C ,  2-O ) :   0.8962 B(  1-C , 22-H ) :   0.9332
B(  1-C , 23-H ) :   0.9185 B(  2-O ,  3-P ) :   1.1227 B(  3-P ,  4-S ) :   1.6438
B(  3-P ,  5-O ) :   1.0680 B(  3-P ,  8-S ) :   0.9391 B(  5-O ,  6-C ) :   0.9164
B(  6-C ,  7-C ) :   1.1649 B(  6-C , 24-H ) :   0.9342 B(  6-C , 25-H ) :   0.9130
B(  7-C , 26-H ) :   0.9365 B(  7-C , 27-H ) :   0.9463 B(  7-C , 28-H ) :   0.9385
B(  8-S ,  9-C ) :   1.0124 B(  9-C , 10-S ) :   0.9628 B(  9-C , 29-H ) :   0.9110
B(  9-C , 30-H ) :   0.9029 B( 10-S , 11-P ) :   0.9778 B( 10-S , 12-S ) :   0.1126
B( 11-P , 12-S ) :   1.6334 B( 11-P , 13-O ) :   1.0646 B( 11-P , 16-O ) :   1.1252
B( 13-O , 14-C ) :   0.8972 B( 14-C , 15-C ) :   1.1604 B( 14-C , 31-H ) :   0.9024
B( 14-C , 32-H ) :   0.9351 B( 15-C , 33-H ) :   0.9427 B( 15-C , 34-H ) :   0.9409
B( 15-C , 35-H ) :   0.9487 B( 16-O , 17-C ) :   0.8993 B( 17-C , 18-C ) :   1.1646
B( 17-C , 36-H ) :   0.9163 B( 17-C , 37-H ) :   0.9330 B( 18-C , 38-H ) :   0.9383
B( 18-C , 39-H ) :   0.9396 B( 18-C , 40-H ) :   0.9460

Dispersion correction           -0.068244844
FINAL SINGLE POINT ENERGY     -2929.509568158460

DIPOLE MOMENT
-------------

Method             : SCF
Type of density    : Electron Density
Multiplicity       :   1
Irrep              :   0
Energy             : -2929.6264338225209940 Eh
Relativity type    :
Basis              : AO
                                X                 Y                 Z
Electronic contribution:      0.964501598       8.046821745      -5.963814352
Nuclear contribution   :     -1.574373138      -9.501571101       7.082055953
                        -----------------------------------------
Total Dipole Moment    :     -0.609871540      -1.454749356       1.118241601
                        -----------------------------------------
Magnitude (a.u.)       :      1.933572668
Magnitude (Debye)      :      4.914751141

Rotational constants in cm-1:             0.011897             0.005722             0.005069
Rotational constants in MHz :           356.658801           171.538427           151.951936

                             ****ORCA TERMINATED NORMALLY****
TOTAL RUN TIME: 0 days 0 hours 0 minutes 21 seconds 433 msec
