                         Program Version 6.0.0  -   RELEASE  -
|  1> ! pbe def2-sv(p) def2/J RI DEFGRID1 loosescf d4 GCP(DFT/SV(P)) printgap
|  2> %output
|  3>     printlevel normal
|  4> end
|  5> * xyz 0 1
|  6> C 3.7508331184 -1.8231341959 -2.2469719409
|  7> C 2.4952785221 -0.9769947877 -2.2245589156
|  8> O 1.785175815 -1.1111760628 -0.9788600744
|  9> P 2.3495863503 -0.5390689624 0.3868649288
| 10> S 3.4445253139 1.0884053695 0.2579668381
| 11> O 3.0884153587 -1.8107366981 0.9877801639
| 12> C 4.0100410455 -1.7210907425 2.0882793487
| 13> C 3.3202666841 -1.3337290958 3.380502776
| 14> S 0.551503447 -0.3994983736 1.4804361614
| 15> C 0.1110008919 1.2629804114 0.9209772233
| 16> S -0.3980488327 1.3446318654 -0.8282307166
| 17> P -2.434037497 0.8298890526 -0.5942562206
| 18> S -3.5404561119 0.8160217502 -2.2091556041
| 19> O -2.8169997868 1.9052651214 0.5101433388
| 20> C -4.1873546737 2.2878272251 0.7512087382
| 21> C -4.9927800081 1.1585956897 1.3586901097
| 22> O -2.4518321318 -0.5218912838 0.2534188018
| 23> C -2.6172790245 -1.8087222932 -0.3614154548
| 24> C -1.4365100238 -2.1859607053 -1.2323580927
| 25> H 3.5112116125 -2.8559744633 -2.0084788479
| 26> H 4.2016498937 -1.7732022737 -3.2331103392
| 27> H 4.4629027552 -1.4474798483 -1.5129634323
| 28> H 1.7727425623 -1.2996936401 -2.9753102179
| 29> H 2.733684536 0.0809437212 -2.3752373716
| 30> H 4.4455449823 -2.7194626415 2.1466845471
| 31> H 4.7841366439 -0.9904842927 1.8324514931
| 32> H 2.9538397592 -0.3100974602 3.3148360692
| 33> H 2.4789858039 -1.9948606084 3.572527165
| 34> H 4.0283027417 -1.4018008826 4.2002344928
| 35> H 0.9869617652 1.907460407 1.0014101252
| 36> H -0.7003674321 1.6155429704 1.549666161
| 37> H -4.1037081597 3.1383446455 1.4290981367
| 38> H -4.6275237542 2.6097452925 -0.1977388495
| 39> H -4.4941231438 0.7723478609 2.2438558911
| 40> H -5.9777773785 1.5261622554 1.6289442491
| 41> H -5.1034094289 0.3521795063 0.6350928389
| 42> H -2.7315711132 -2.490827575 0.4818208738
| 43> H -3.5343263077 -1.7888636293 -0.9593131022
| 44> H -0.5152521838 -2.188869415 -0.6549884728
| 45> H -1.5989285186 -3.1734430884 -1.6522102894
| 46> H -1.3376706115 -1.467578331 -2.0471721131
| 47> *
| 48>
| 49>                          ****END OF INPUT****

CARTESIAN COORDINATES (ANGSTROEM)
---------------------------------
  C      3.750833   -1.823134   -2.246972
  C      2.495279   -0.976995   -2.224559
  O      1.785176   -1.111176   -0.978860
  P      2.349586   -0.539069    0.386865
  S      3.444525    1.088405    0.257967
  O      3.088415   -1.810737    0.987780
  C      4.010041   -1.721091    2.088279
  C      3.320267   -1.333729    3.380503
  S      0.551503   -0.399498    1.480436
  C      0.111001    1.262980    0.920977
  S     -0.398049    1.344632   -0.828231
  P     -2.434037    0.829889   -0.594256
  S     -3.540456    0.816022   -2.209156
  O     -2.817000    1.905265    0.510143
  C     -4.187355    2.287827    0.751209
  C     -4.992780    1.158596    1.358690
  O     -2.451832   -0.521891    0.253419
  C     -2.617279   -1.808722   -0.361415
  C     -1.436510   -2.185961   -1.232358
  H      3.511212   -2.855974   -2.008479
  H      4.201650   -1.773202   -3.233110
  H      4.462903   -1.447480   -1.512963
  H      1.772743   -1.299694   -2.975310
  H      2.733685    0.080944   -2.375237
  H      4.445545   -2.719463    2.146685
  H      4.784137   -0.990484    1.832451
  H      2.953840   -0.310097    3.314836
  H      2.478986   -1.994861    3.572527
  H      4.028303   -1.401801    4.200234
  H      0.986962    1.907460    1.001410
  H     -0.700367    1.615543    1.549666
  H     -4.103708    3.138345    1.429098
  H     -4.627524    2.609745   -0.197739
  H     -4.494123    0.772348    2.243856
  H     -5.977777    1.526162    1.628944
  H     -5.103409    0.352180    0.635093
  H     -2.731571   -2.490828    0.481821
  H     -3.534326   -1.788864   -0.959313
  H     -0.515252   -2.188869   -0.654988
  H     -1.598929   -3.173443   -1.652210
  H     -1.337671   -1.467578   -2.047172

 Total Charge           Charge          ....    0
 Multiplicity           Mult            ....    1
 Number of Electrons    NEL             ....  202
 Basis Dimension        Dim             ....  334

ORBITAL ENERGIES
----------------

  NO   OCC          E(Eh)            E(eV)
   0   2.0000     -88.045578     -2395.8420
   1   2.0000     -88.038855     -2395.6590
   2   2.0000     -87.994762     -2394.4592
   3   2.0000     -87.987867     -2394.2716
   4   2.0000     -76.430947     -2079.7918
   5   2.0000     -76.425296     -2079.6380
   6   2.0000     -18.799575      -511.5625
   7   2.0000     -18.793236      -511.3899
   8   2.0000     -18.792244      -511.3629
   9   2.0000     -18.789493      -511.2881
  10   2.0000      -9.957756      -270.9643
  11   2.0000      -9.955758      -270.9099
  12   2.0000      -9.953513      -270.8488
  13   2.0000      -9.951781      -270.8017
  14   2.0000      -9.947447      -270.6838
  15   2.0000      -9.888586      -269.0821
  16   2.0000      -9.885605      -269.0010
  17   2.0000      -9.885179      -268.9894
  18   2.0000      -9.873575      -268.6736
  19   2.0000      -7.690817      -209.2778
  20   2.0000      -7.684165      -209.0968
  21   2.0000      -7.639570      -207.8833
  22   2.0000      -7.633000      -207.7045
  23   2.0000      -6.428618      -174.9316
  24   2.0000      -6.423055      -174.7802
  25   2.0000      -5.718558      -155.6099
  26   2.0000      -5.715462      -155.5256
  27   2.0000      -5.712403      -155.4424
  28   2.0000      -5.708596      -155.3388
  29   2.0000      -5.707704      -155.3145
  30   2.0000      -5.700814      -155.1270
  31   2.0000      -5.668296      -154.2422
  32   2.0000      -5.661920      -154.0687
  33   2.0000      -5.660257      -154.0234
  34   2.0000      -5.659913      -154.0141
  35   2.0000      -5.653693      -153.8448
  36   2.0000      -5.653102      -153.8287
  37   2.0000      -4.651029      -126.5609
  38   2.0000      -4.650312      -126.5414
  39   2.0000      -4.649253      -126.5126
  40   2.0000      -4.645444      -126.4090
  41   2.0000      -4.644974      -126.3962
  42   2.0000      -4.643544      -126.3572
  43   2.0000      -0.991786       -26.9879
  44   2.0000      -0.985655       -26.8210
  45   2.0000      -0.950817       -25.8730
  46   2.0000      -0.944614       -25.7042
  47   2.0000      -0.764966       -20.8158
  48   2.0000      -0.723596       -19.6901
  49   2.0000      -0.707944       -19.2641
  50   2.0000      -0.690105       -18.7787
  51   2.0000      -0.683506       -18.5991
  52   2.0000      -0.675066       -18.3695
  53   2.0000      -0.656903       -17.8752
  54   2.0000      -0.640812       -17.4374
  55   2.0000      -0.605772       -16.4839
  56   2.0000      -0.595215       -16.1966
  57   2.0000      -0.575815       -15.6687
  58   2.0000      -0.570766       -15.5313
  59   2.0000      -0.561503       -15.2793
  60   2.0000      -0.497229       -13.5303
  61   2.0000      -0.492304       -13.3963
  62   2.0000      -0.477443       -12.9919
  63   2.0000      -0.469766       -12.7830
  64   2.0000      -0.460842       -12.5401
  65   2.0000      -0.446332       -12.1453
  66   2.0000      -0.443958       -12.0807
  67   2.0000      -0.436836       -11.8869
  68   2.0000      -0.429283       -11.6814
  69   2.0000      -0.415064       -11.2945
  70   2.0000      -0.410165       -11.1611
  71   2.0000      -0.396142       -10.7796
  72   2.0000      -0.395045       -10.7497
  73   2.0000      -0.392476       -10.6798
  74   2.0000      -0.390058       -10.6140
  75   2.0000      -0.379815       -10.3353
  76   2.0000      -0.365652        -9.9499
  77   2.0000      -0.359902        -9.7934
  78   2.0000      -0.353118        -9.6088
  79   2.0000      -0.352048        -9.5797
  80   2.0000      -0.349587        -9.5128
  81   2.0000      -0.343831        -9.3561
  82   2.0000      -0.343356        -9.3432
  83   2.0000      -0.337856        -9.1935
  84   2.0000      -0.329931        -8.9779
  85   2.0000      -0.320902        -8.7322
  86   2.0000      -0.312977        -8.5165
  87   2.0000      -0.300504        -8.1771
  88   2.0000      -0.294743        -8.0204
  89   2.0000      -0.288127        -7.8403
  90   2.0000      -0.284826        -7.7505
  91   2.0000      -0.278100        -7.5675
  92   2.0000      -0.273912        -7.4535
  93   2.0000      -0.269548        -7.3348
  94   2.0000      -0.257737        -7.0134
  95   2.0000      -0.232062        -6.3147
  96   2.0000      -0.217004        -5.9050
  97   2.0000      -0.214527        -5.8376
  98   2.0000      -0.208987        -5.6868
  99   2.0000      -0.208056        -5.6615
 100   2.0000      -0.202787        -5.5181
 101   0.0000      -0.041855        -1.1389
 102   0.0000      -0.022669        -0.6168
 103   0.0000      -0.014676        -0.3994
 104   0.0000       0.003942         0.1073
 105   0.0000       0.011949         0.3252

MULLIKEN ATOMIC CHARGES
-----------------------
   0 C :   -0.307709
   1 C :   -0.003542
   2 O :   -0.354509
   3 P :    0.611768
   4 S :   -0.333052
   5 O :   -0.371148
   6 C :   -0.005479
   7 C :   -0.317285
   8 S :   -0.066820
   9 C :   -0.375412
  10 S :   -0.055948
  11 P :    0.607307
  12 S :   -0.321144
  13 O :   -0.383991
  14 C :   -0.003487
  15 C :   -0.308310
  16 O :   -0.378165
  17 C :   -0.000624
  18 C :   -0.331063
  19 H :    0.116916
  20 H :    0.113933
  21 H :    0.121017
  22 H :    0.110664
  23 H :    0.114612
  24 H :    0.107716
  25 H :    0.112551
  26 H :    0.127669
  27 H :    0.119117
  28 H :    0.115407
  29 H :    0.195881
  30 H :    0.194423
  31 H :    0.105687
  32 H :    0.114901
  33 H :    0.115574
  34 H :    0.113004
  35 H :    0.125109
  36 H :    0.101321
  37 H :    0.107715
  38 H :    0.140472
  39 H :    0.104418
  40 H :    0.120505
Sum of atomic charges:   -0.0000000

LOEWDIN ATOMIC CHARGES
----------------------
   0 C :   -0.364520
   1 C :   -0.116573
   2 O :   -0.231079
   3 P :    0.573907
   4 S :   -0.320685
   5 O :   -0.242376
   6 C :   -0.118432
   7 C :   -0.369818
   8 S :    0.104861
   9 C :   -0.483226
  10 S :    0.094676
  11 P :    0.571722
  12 S :   -0.319491
  13 O :   -0.249339
  14 C :   -0.115505
  15 C :   -0.365264
  16 O :   -0.247784
  17 C :   -0.119992
  18 C :   -0.374630
  19 H :    0.126444
  20 H :    0.131267
  21 H :    0.121771
  22 H :    0.120946
  23 H :    0.111896
  24 H :    0.119930
  25 H :    0.111539
  26 H :    0.121509
  27 H :    0.124787
  28 H :    0.132232
  29 H :    0.130845
  30 H :    0.136113
  31 H :    0.118878
  32 H :    0.112952
  33 H :    0.125897
  34 H :    0.130861
  35 H :    0.123543
  36 H :    0.117657
  37 H :    0.107323
  38 H :    0.120517
  39 H :    0.127625
  40 H :    0.119016

  Mayer bond orders larger than 0.100000
B(  0-C ,  1-C ) :   1.1626 B(  0-C , 19-H ) :   0.9462 B(  0-C , 20-H ) :   0.9394
B(  0-C , 21-H ) :   0.9370 B(  1-C ,  2-O ) :   0.9023 B(  1-C , 22-H ) :   0.9331
B(  1-C , 23-H ) :   0.9175 B(  2-O ,  3-P ) :   1.1264 B(  3-P ,  4-S ) :   1.5867
B(  3-P ,  5-O ) :   1.1120 B(  3-P ,  8-S ) :   0.9666 B(  4-S ,  8-S ) :   0.1094
B(  5-O ,  6-C ) :   0.9067 B(  6-C ,  7-C ) :   1.1664 B(  6-C , 24-H ) :   0.9338
B(  6-C , 25-H ) :   0.9169 B(  7-C , 26-H ) :   0.9352 B(  7-C , 27-H ) :   0.9445
B(  7-C , 28-H ) :   0.9375 B(  8-S ,  9-C ) :   1.0007 B(  9-C , 10-S ) :   0.9840
B(  9-C , 29-H ) :   0.8734 B(  9-C , 30-H ) :   0.8892 B( 10-S , 11-P ) :   0.9852
B( 11-P , 12-S ) :   1.6304 B( 11-P , 13-O ) :   1.0916 B( 11-P , 16-O ) :   1.0865
B( 13-O , 14-C ) :   0.9065 B( 14-C , 15-C ) :   1.1630 B( 14-C , 31-H ) :   0.9358
B( 14-C , 32-H ) :   0.9176 B( 15-C , 33-H ) :   0.9462 B( 15-C , 34-H ) :   0.9380
B( 15-C , 35-H ) :   0.9361 B( 16-O , 17-C ) :   0.9041 B( 17-C , 18-C ) :   1.1651
B( 17-C , 36-H ) :   0.9328 B( 17-C , 37-H ) :   0.9170 B( 18-C , 38-H ) :   0.9286
B( 18-C , 39-H ) :   0.9374 B( 18-C , 40-H ) :   0.9338

Dispersion correction           -0.065542156
FINAL SINGLE POINT ENERGY     -2929.524346204869

DIPOLE MOMENT
-------------

Method             : SCF
Type of density    : Electron Density
Multiplicity       :   1
Irrep              :   0
Energy             : -2929.6453256899667394 Eh
Relativity type    :
Basis              : AO
                                X                 Y                 Z
Electronic contribution:     -1.400000200      12.425912277      -5.183817173
Nuclear contribution   :      1.602135849     -13.405627249       6.257503557
                        -----------------------------------------
Total Dipole Moment    :      0.202135649      -0.979714972       1.073686385
                        -----------------------------------------
Magnitude (a.u.)       :      1.467481754
Magnitude (Debye)      :      3.730042188

Rotational constants in cm-1:             0.013913             0.004489             0.004189
Rotational constants in MHz :           417.099828           134.584585           125.585500

                             ****ORCA TERMINATED NORMALLY****
TOTAL RUN TIME: 0 days 0 hours 0 minutes 20 seconds 977 msec
