                         Program Version 6.0.0  -   RELEASE  -
|  1> ! wb97x-v def2-tzvp def2/J RIJCOSX DEFGRID2 scfconv7 GCP(DFT/TZ) printgap
|  2> %output
|  3>     printlevel normal
|  4> end
|  5> * xyz 0 1
|  6> C -0.5459433091903789 1.3524686472481096 4.5283626906130584e-05
|  7> C 0.1588497793800433 0.19698243644876098 4.142078789382054e-05
|  8> C -0.5176263988381787 -1.0829037279655198 4.169028079712504e-05
|  9> O 0.010291433949545622 -2.191423019011072 3.279062149547598e-05
| 10> N -1.9113755997750883 -0.9641046140187408 1.0937460895288476e-05
| 11> C -2.662771706596245 0.1914263907467277 -1.297325203357734e-06
| 12> O -3.889929141015813 0.19523235831615923 -3.429155367913452e-05
| 13> N -1.9083000670111212 1.3451235091704332 2.918328773522093e-05
| 14> Br 2.048998363149994 0.2166450009086231 5.936689114292695e-05
| 15> H -0.08419206004462393 2.3326624615708487 5.750350775495221e-05
| 16> H -2.437125031550789 -1.8326069035781474 -8.629000282276037e-06
| 17> H -2.4135886501289656 2.223000607293704 2.311641600415333e-05
| 18> *
| 19>
| 20>                          ****END OF INPUT****

CARTESIAN COORDINATES (ANGSTROEM)
---------------------------------
  C     -0.545943    1.352469    0.000045
  C      0.158850    0.196982    0.000041
  C     -0.517626   -1.082904    0.000042
  O      0.010291   -2.191423    0.000033
  N     -1.911376   -0.964105    0.000011
  C     -2.662772    0.191426   -0.000001
  O     -3.889929    0.195232   -0.000034
  N     -1.908300    1.345124    0.000029
  Br     2.048998    0.216645    0.000059
  H     -0.084192    2.332662    0.000058
  H     -2.437125   -1.832607   -0.000009
  H     -2.413589    2.223001    0.000023

 Total Charge           Charge          ....    0
 Multiplicity           Mult            ....    1
 Number of Electrons    NEL             ....   92
 Basis Dimension        Dim             ....  314

ORBITAL ENERGIES
----------------

  NO   OCC          E(Eh)            E(eV)
   0   2.0000    -494.741314    -13462.5956
   1   2.0000     -66.910420     -1820.7251
   2   2.0000     -60.967263     -1659.0036
   3   2.0000     -60.965669     -1658.9602
   4   2.0000     -60.965668     -1658.9602
   5   2.0000     -21.668351      -589.6258
   6   2.0000     -21.666423      -589.5733
   7   2.0000     -16.620817      -452.2754
   8   2.0000     -16.602483      -451.7765
   9   2.0000     -12.221687      -332.5690
  10   2.0000     -12.192461      -331.7737
  11   2.0000     -12.157327      -330.8177
  12   2.0000     -12.131273      -330.1087
  13   2.0000     -10.662263      -290.1349
  14   2.0000      -8.442475      -229.7314
  15   2.0000      -8.434996      -229.5279
  16   2.0000      -8.434920      -229.5258
  17   2.0000      -4.427780      -120.4860
  18   2.0000      -4.424858      -120.4065
  19   2.0000      -4.424551      -120.3982
  20   2.0000      -4.416484      -120.1786
  21   2.0000      -4.416464      -120.1781
  22   2.0000      -1.737207       -47.2718
  23   2.0000      -1.722089       -46.8604
  24   2.0000      -1.612073       -43.8667
  25   2.0000      -1.552057       -42.2336
  26   2.0000      -1.402278       -38.1579
  27   2.0000      -1.327635       -36.1268
  28   2.0000      -1.250392       -34.0249
  29   2.0000      -1.245893       -33.9025
  30   2.0000      -1.125194       -30.6181
  31   2.0000      -1.119711       -30.4689
  32   2.0000      -1.075942       -29.2779
  33   2.0000      -1.058754       -28.8102
  34   2.0000      -1.039088       -28.2750
  35   2.0000      -0.980903       -26.6917
  36   2.0000      -0.968026       -26.3413
  37   2.0000      -0.928738       -25.2722
  38   2.0000      -0.912373       -24.8269
  39   2.0000      -0.891648       -24.2630
  40   2.0000      -0.884977       -24.0815
  41   2.0000      -0.868675       -23.6378
  42   2.0000      -0.839155       -22.8346
  43   2.0000      -0.778811       -21.1925
  44   2.0000      -0.748088       -20.3565
  45   2.0000      -0.696885       -18.9632
  46   0.0000      -0.358349        -9.7512
  47   0.0000      -0.322770        -8.7830
  48   0.0000      -0.316537        -8.6134
  49   0.0000      -0.190084        -5.1725
  50   0.0000      -0.160088        -4.3562

MULLIKEN ATOMIC CHARGES
-----------------------
   0 C :    0.000391
   1 C :   -0.086649
   2 C :    0.202259
   3 O :   -0.321486
   4 N :   -0.210504
   5 C :    0.297350
   6 O :   -0.354619
   7 N :   -0.217986
   8 Br:    0.003948
   9 H :    0.170792
  10 H :    0.260006
  11 H :    0.256497
Sum of atomic charges:   -0.0000000

LOEWDIN ATOMIC CHARGES
----------------------
   0 C :   -0.166858
   1 C :   -0.412817
   2 C :   -0.419151
   3 O :    0.083416
   4 N :    0.204818
   5 C :   -0.483975
   6 O :    0.049885
   7 N :    0.183824
   8 Br:    0.384015
   9 H :    0.153717
  10 H :    0.213466
  11 H :    0.209661

  Mayer bond orders larger than 0.100000
B(  0-C ,  1-C ) :   1.7062 B(  0-C ,  7-N ) :   1.1578 B(  0-C ,  9-H ) :   0.9268
B(  1-C ,  2-C ) :   1.0142 B(  1-C ,  8-Br) :   1.1330 B(  2-C ,  3-O ) :   2.1765
B(  2-C ,  4-N ) :   1.1236 B(  4-N ,  5-C ) :   1.1579 B(  4-N , 10-H ) :   0.8864
B(  5-C ,  6-O ) :   2.1258 B(  5-C ,  7-N ) :   1.1126 B(  7-N , 11-H ) :   0.9035

FINAL SINGLE POINT ENERGY     -2988.166862188643

DIPOLE MOMENT
-------------

Method             : SCF
Type of density    : Electron Density
Multiplicity       :   1
Irrep              :   0
Energy             : -2988.1762659042433370 Eh
Relativity type    :
Basis              : AO
                                X                 Y                 Z
Electronic contribution:     23.657882855       1.120321047       0.000277105
Nuclear contribution   :    -23.722444344       0.561439820      -0.000251831
                        -----------------------------------------
Total Dipole Moment    :     -0.064561489       1.681760867       0.000025274
                        -----------------------------------------
Magnitude (a.u.)       :      1.682999644
Magnitude (Debye)      :      4.277845129

Rotational constants in cm-1:             0.098968             0.021505             0.017667
Rotational constants in MHz :          2966.974213           644.718136           529.630406

                             ****ORCA TERMINATED NORMALLY****
TOTAL RUN TIME: 0 days 0 hours 3 minutes 28 seconds 56 msec
