                         Program Version 6.0.0  -   RELEASE  -
|  1> ! wb97x-v def2-tzvp def2/J RIJCOSX DEFGRID2 scfconv7 GCP(DFT/TZ) printgap
|  2> %output
|  3>     printlevel normal
|  4> end
|  5> %cpcm
|  6>     smd true
|  7>     smdsolvent "water"
|  8> end
|  9> * xyz 0 1
| 10> C -0.5459433091903789 1.3524686472481096 4.5283626906130584e-05
| 11> C 0.1588497793800433 0.19698243644876098 4.142078789382054e-05
| 12> C -0.5176263988381787 -1.0829037279655198 4.169028079712504e-05
| 13> O 0.010291433949545622 -2.191423019011072 3.279062149547598e-05
| 14> N -1.9113755997750883 -0.9641046140187408 1.0937460895288476e-05
| 15> C -2.662771706596245 0.1914263907467277 -1.297325203357734e-06
| 16> O -3.889929141015813 0.19523235831615923 -3.429155367913452e-05
| 17> N -1.9083000670111212 1.3451235091704332 2.918328773522093e-05
| 18> Br 2.048998363149994 0.2166450009086231 5.936689114292695e-05
| 19> H -0.08419206004462393 2.3326624615708487 5.750350775495221e-05
| 20> H -2.437125031550789 -1.8326069035781474 -8.629000282276037e-06
| 21> H -2.4135886501289656 2.223000607293704 2.311641600415333e-05
| 22> *
| 23>
| 24>                          ****END OF INPUT****

CARTESIAN COORDINATES (ANGSTROEM)
---------------------------------
  C     -0.545943    1.352469    0.000045
  C      0.158850    0.196982    0.000041
  C     -0.517626   -1.082904    0.000042
  O      0.010291   -2.191423    0.000033
  N     -1.911376   -0.964105    0.000011
  C     -2.662772    0.191426   -0.000001
  O     -3.889929    0.195232   -0.000034
  N     -1.908300    1.345124    0.000029
  Br     2.048998    0.216645    0.000059
  H     -0.084192    2.332662    0.000058
  H     -2.437125   -1.832607   -0.000009
  H     -2.413589    2.223001    0.000023

 Total Charge           Charge          ....    0
 Multiplicity           Mult            ....    1
 Number of Electrons    NEL             ....   92
 Basis Dimension        Dim             ....  314

ORBITAL ENERGIES
----------------

  NO   OCC          E(Eh)            E(eV)
   0   2.0000    -494.735645    -13462.4413
   1   2.0000     -66.904821     -1820.5727
   2   2.0000     -60.961634     -1658.8504
   3   2.0000     -60.960097     -1658.8086
   4   2.0000     -60.960094     -1658.8085
   5   2.0000     -21.668372      -589.6264
   6   2.0000     -21.668059      -589.6179
   7   2.0000     -16.601187      -451.7413
   8   2.0000     -16.592836      -451.5140
   9   2.0000     -12.216924      -332.4394
  10   2.0000     -12.191732      -331.7539
  11   2.0000     -12.139394      -330.3297
  12   2.0000     -12.116827      -329.7156
  13   2.0000     -10.656709      -289.9838
  14   2.0000      -8.436796      -229.5769
  15   2.0000      -8.429562      -229.3801
  16   2.0000      -8.429525      -229.3790
  17   2.0000      -4.422052      -120.3302
  18   2.0000      -4.419240      -120.2536
  19   2.0000      -4.418955      -120.2459
  20   2.0000      -4.411134      -120.0331
  21   2.0000      -4.411115      -120.0325
  22   2.0000      -1.737688       -47.2849
  23   2.0000      -1.726472       -46.9797
  24   2.0000      -1.596300       -43.4375
  25   2.0000      -1.538321       -41.8598
  26   2.0000      -1.391595       -37.8672
  27   2.0000      -1.317717       -35.8569
  28   2.0000      -1.237801       -33.6823
  29   2.0000      -1.233213       -33.5574
  30   2.0000      -1.111790       -30.2534
  31   2.0000      -1.108266       -30.1575
  32   2.0000      -1.078780       -29.3551
  33   2.0000      -1.059057       -28.8184
  34   2.0000      -1.025899       -27.9161
  35   2.0000      -0.974588       -26.5199
  36   2.0000      -0.951472       -25.8909
  37   2.0000      -0.934779       -25.4366
  38   2.0000      -0.907562       -24.6960
  39   2.0000      -0.891962       -24.2715
  40   2.0000      -0.873297       -23.7636
  41   2.0000      -0.867025       -23.5930
  42   2.0000      -0.831504       -22.6264
  43   2.0000      -0.771544       -20.9948
  44   2.0000      -0.743398       -20.2289
  45   2.0000      -0.685950       -18.6657
  46   0.0000      -0.344845        -9.3837
  47   0.0000      -0.312474        -8.5028
  48   0.0000      -0.307196        -8.3592
  49   0.0000      -0.176971        -4.8156
  50   0.0000      -0.153338        -4.1725

MULLIKEN ATOMIC CHARGES
-----------------------
   0 C :   -0.003297
   1 C :   -0.069106
   2 C :    0.248501
   3 O :   -0.447756
   4 N :   -0.198030
   5 C :    0.350095
   6 O :   -0.478484
   7 N :   -0.199460
   8 Br:   -0.028782
   9 H :    0.217950
  10 H :    0.297260
  11 H :    0.311110
Sum of atomic charges:   -0.0000000

LOEWDIN ATOMIC CHARGES
----------------------
   0 C :   -0.122670
   1 C :   -0.418139
   2 C :   -0.409503
   3 O :    0.005357
   4 N :    0.221524
   5 C :   -0.463897
   6 O :   -0.019638
   7 N :    0.214298
   8 Br:    0.359838
   9 H :    0.172779
  10 H :    0.227415
  11 H :    0.232635

  Mayer bond orders larger than 0.100000
B(  0-C ,  1-C ) :   1.6367 B(  0-C ,  7-N ) :   1.2037 B(  0-C ,  9-H ) :   0.9339
B(  1-C ,  2-C ) :   1.0430 B(  1-C ,  8-Br) :   1.1070 B(  2-C ,  3-O ) :   2.0762
B(  2-C ,  4-N ) :   1.1528 B(  4-N ,  5-C ) :   1.1737 B(  4-N , 10-H ) :   0.8634
B(  5-C ,  6-O ) :   2.0097 B(  5-C ,  7-N ) :   1.1523 B(  7-N , 11-H ) :   0.8709

FINAL SINGLE POINT ENERGY     -2988.191555189908

DIPOLE MOMENT
-------------

Method             : SCF
Type of density    : Electron Density
Multiplicity       :   1
Irrep              :   0
Energy             : -2988.2009589055082870 Eh
Relativity type    :
Basis              : AO
                                X                 Y                 Z
Electronic contribution:     23.531136796       1.929502897       0.000287709
Nuclear contribution   :    -23.722444344       0.561439820      -0.000251831
                        -----------------------------------------
Total Dipole Moment    :     -0.191307549       2.490942717       0.000035878
                        -----------------------------------------
Magnitude (a.u.)       :      2.498278247
Magnitude (Debye)      :      6.350118652

Rotational constants in cm-1:             0.098968             0.021505             0.017667
Rotational constants in MHz :          2966.974213           644.718136           529.630406

                             ****ORCA TERMINATED NORMALLY****
TOTAL RUN TIME: 0 days 0 hours 3 minutes 18 seconds 403 msec
