                         Program Version 6.0.0  -   RELEASE  -
|  1> ! pbe def2-sv(p) def2/J RI DEFGRID1 loosescf d4 GCP(DFT/SV(P)) printgap
|  2> %output
|  3>     printlevel normal
|  4> end
|  5> * xyz 0 1
|  6> C 4.645404938 0.3680407873 -1.525886976
|  7> C 4.5639739477 0.0719548021 -0.0415922494
|  8> O 3.3443836925 -0.5949977515 0.3059826237
|  9> P 1.924246465 0.1418863869 0.2439993787
| 10> S 2.0221750174 1.9925916272 0.8876928158
| 11> O 1.0437902404 -0.8836816433 1.0698516753
| 12> C 0.8509817411 -0.7072079699 2.4870722115
| 13> C 2.1321283257 -0.9112934486 3.2667739955
| 14> S 1.2739651813 -0.2237551504 -1.749808892
| 15> C 0.0282154385 -1.5458829901 -1.609707158
| 16> S -1.6593332711 -1.0141413364 -2.0372487195
| 17> P -2.1698206911 -0.0082659661 -0.2410688063
| 18> S -3.9748071297 0.7431380988 -0.2101605281
| 19> O -0.9568924232 1.0076223568 -0.0194235783
| 20> C -1.0201838074 2.2863418626 -0.6892834097
| 21> C -1.4099421353 3.3714761093 0.2916939053
| 22> O -1.8151473728 -1.0031744684 0.9420600534
| 23> C -2.8231680148 -1.8820156092 1.4807180561
| 24> C -3.1039395632 -3.0533502132 0.5603499204
| 25> H 5.6086493433 0.8132199202 -1.7531072878
| 26> H 4.5220644866 -0.5441999111 -2.1034275296
| 27> H 3.8568009318 1.0671506839 -1.80700142
| 28> H 4.6287332285 0.9997836888 0.5370968786
| 29> H 5.3464446748 -0.6185320774 0.2758841387
| 30> H 0.4419870004 0.2935868233 2.657387462
| 31> H 0.0998017388 -1.4555692396 2.7414597356
| 32> H 1.9112963086 -0.8851173921 4.3293458751
| 33> H 2.579352035 -1.8684063478 3.011304862
| 34> H 2.8401280125 -0.1171382365 3.0341585992
| 35> H 0.0450628848 -1.9468596583 -0.6012757791
| 36> H 0.2874972366 -2.2969587987 -2.3507986971
| 37> H -0.0202348758 2.461829368 -1.0929459567
| 38> H -1.7379160834 2.2265263989 -1.5145399294
| 39> H -1.4315470855 4.3257863521 -0.2241145247
| 40> H -2.3940715357 3.1642849391 0.7067653068
| 41> H -0.6821908764 3.4163445235 1.0979891421
| 42> H -2.4110711528 -2.209270023 2.4365368923
| 43> H -3.734647975 -1.3005891727 1.6527924396
| 44> H -3.8092271041 -3.7227888702 1.0425406302
| 45> H -3.5378715344 -2.6980927367 -0.3734762817
| 46> H -2.1884637183 -3.5966854296 0.3406605482
| 47> *
| 48>
| 49>                          ****END OF INPUT****

CARTESIAN COORDINATES (ANGSTROEM)
---------------------------------
  C      4.645405    0.368041   -1.525887
  C      4.563974    0.071955   -0.041592
  O      3.344384   -0.594998    0.305983
  P      1.924246    0.141886    0.243999
  S      2.022175    1.992592    0.887693
  O      1.043790   -0.883682    1.069852
  C      0.850982   -0.707208    2.487072
  C      2.132128   -0.911293    3.266774
  S      1.273965   -0.223755   -1.749809
  C      0.028215   -1.545883   -1.609707
  S     -1.659333   -1.014141   -2.037249
  P     -2.169821   -0.008266   -0.241069
  S     -3.974807    0.743138   -0.210161
  O     -0.956892    1.007622   -0.019424
  C     -1.020184    2.286342   -0.689283
  C     -1.409942    3.371476    0.291694
  O     -1.815147   -1.003174    0.942060
  C     -2.823168   -1.882016    1.480718
  C     -3.103940   -3.053350    0.560350
  H      5.608649    0.813220   -1.753107
  H      4.522064   -0.544200   -2.103428
  H      3.856801    1.067151   -1.807001
  H      4.628733    0.999784    0.537097
  H      5.346445   -0.618532    0.275884
  H      0.441987    0.293587    2.657387
  H      0.099802   -1.455569    2.741460
  H      1.911296   -0.885117    4.329346
  H      2.579352   -1.868406    3.011305
  H      2.840128   -0.117138    3.034159
  H      0.045063   -1.946860   -0.601276
  H      0.287497   -2.296959   -2.350799
  H     -0.020235    2.461829   -1.092946
  H     -1.737916    2.226526   -1.514540
  H     -1.431547    4.325786   -0.224115
  H     -2.394072    3.164285    0.706765
  H     -0.682191    3.416345    1.097989
  H     -2.411071   -2.209270    2.436537
  H     -3.734648   -1.300589    1.652792
  H     -3.809227   -3.722789    1.042541
  H     -3.537872   -2.698093   -0.373476
  H     -2.188464   -3.596685    0.340661

 Total Charge           Charge          ....    0
 Multiplicity           Mult            ....    1
 Number of Electrons    NEL             ....  202
 Basis Dimension        Dim             ....  334

ORBITAL ENERGIES
----------------

  NO   OCC          E(Eh)            E(eV)
   0   2.0000     -88.046111     -2395.8565
   1   2.0000     -88.043959     -2395.7979
   2   2.0000     -87.992140     -2394.3879
   3   2.0000     -87.990609     -2394.3462
   4   2.0000     -76.430401     -2079.7769
   5   2.0000     -76.428136     -2079.7153
   6   2.0000     -18.797726      -511.5121
   7   2.0000     -18.796648      -511.4828
   8   2.0000     -18.789294      -511.2827
   9   2.0000     -18.788739      -511.2676
  10   2.0000      -9.962474      -271.0927
  11   2.0000      -9.957919      -270.9688
  12   2.0000      -9.953546      -270.8498
  13   2.0000      -9.950856      -270.7766
  14   2.0000      -9.938619      -270.4436
  15   2.0000      -9.889816      -269.1156
  16   2.0000      -9.885919      -269.0095
  17   2.0000      -9.884793      -268.9789
  18   2.0000      -9.867559      -268.5099
  19   2.0000      -7.691250      -209.2896
  20   2.0000      -7.688905      -209.2257
  21   2.0000      -7.636946      -207.8119
  22   2.0000      -7.635800      -207.7807
  23   2.0000      -6.427650      -174.9052
  24   2.0000      -6.425849      -174.8563
  25   2.0000      -5.719296      -155.6300
  26   2.0000      -5.717400      -155.5784
  27   2.0000      -5.715481      -155.5261
  28   2.0000      -5.713190      -155.4638
  29   2.0000      -5.708368      -155.3326
  30   2.0000      -5.705467      -155.2536
  31   2.0000      -5.665898      -154.1769
  32   2.0000      -5.664800      -154.1470
  33   2.0000      -5.657926      -153.9600
  34   2.0000      -5.656706      -153.9268
  35   2.0000      -5.656326      -153.9164
  36   2.0000      -5.655970      -153.9068
  37   2.0000      -4.650200      -126.5384
  38   2.0000      -4.649453      -126.5181
  39   2.0000      -4.648279      -126.4861
  40   2.0000      -4.648179      -126.4834
  41   2.0000      -4.647921      -126.4764
  42   2.0000      -4.646116      -126.4273
  43   2.0000      -0.991509       -26.9803
  44   2.0000      -0.987602       -26.8740
  45   2.0000      -0.946691       -25.7608
  46   2.0000      -0.945947       -25.7405
  47   2.0000      -0.762473       -20.7480
  48   2.0000      -0.721490       -19.6327
  49   2.0000      -0.708632       -19.2828
  50   2.0000      -0.687966       -18.7205
  51   2.0000      -0.683276       -18.5929
  52   2.0000      -0.672899       -18.3105
  53   2.0000      -0.659694       -17.9512
  54   2.0000      -0.641892       -17.4668
  55   2.0000      -0.601376       -16.3643
  56   2.0000      -0.596062       -16.2197
  57   2.0000      -0.574058       -15.6209
  58   2.0000      -0.567654       -15.4467
  59   2.0000      -0.557751       -15.1772
  60   2.0000      -0.499403       -13.5894
  61   2.0000      -0.493796       -13.4369
  62   2.0000      -0.475459       -12.9379
  63   2.0000      -0.474303       -12.9065
  64   2.0000      -0.462759       -12.5923
  65   2.0000      -0.449540       -12.2326
  66   2.0000      -0.441550       -12.0152
  67   2.0000      -0.437132       -11.8950
  68   2.0000      -0.423078       -11.5125
  69   2.0000      -0.421367       -11.4660
  70   2.0000      -0.412630       -11.2282
  71   2.0000      -0.397538       -10.8176
  72   2.0000      -0.395193       -10.7538
  73   2.0000      -0.392485       -10.6801
  74   2.0000      -0.385619       -10.4932
  75   2.0000      -0.377568       -10.2742
  76   2.0000      -0.368586       -10.0297
  77   2.0000      -0.357104        -9.7173
  78   2.0000      -0.355598        -9.6763
  79   2.0000      -0.350259        -9.5310
  80   2.0000      -0.346881        -9.4391
  81   2.0000      -0.345941        -9.4135
  82   2.0000      -0.334502        -9.1023
  83   2.0000      -0.333695        -9.0803
  84   2.0000      -0.327159        -8.9025
  85   2.0000      -0.323214        -8.7951
  86   2.0000      -0.314157        -8.5486
  87   2.0000      -0.300800        -8.1852
  88   2.0000      -0.297693        -8.1006
  89   2.0000      -0.291006        -7.9187
  90   2.0000      -0.287592        -7.8258
  91   2.0000      -0.274093        -7.4584
  92   2.0000      -0.270083        -7.3493
  93   2.0000      -0.265686        -7.2297
  94   2.0000      -0.254931        -6.9370
  95   2.0000      -0.237549        -6.4640
  96   2.0000      -0.220995        -6.0136
  97   2.0000      -0.212329        -5.7778
  98   2.0000      -0.209032        -5.6881
  99   2.0000      -0.207988        -5.6596
 100   2.0000      -0.199815        -5.4372
 101   0.0000      -0.048534        -1.3207
 102   0.0000      -0.034721        -0.9448
 103   0.0000      -0.024917        -0.6780
 104   0.0000      -0.006051        -0.1647
 105   0.0000       0.008242         0.2243

MULLIKEN ATOMIC CHARGES
-----------------------
   0 C :   -0.312174
   1 C :   -0.008609
   2 O :   -0.370801
   3 P :    0.638070
   4 S :   -0.319609
   5 O :   -0.381359
   6 C :   -0.008132
   7 C :   -0.299462
   8 S :   -0.097899
   9 C :   -0.356681
  10 S :   -0.076110
  11 P :    0.585483
  12 S :   -0.306837
  13 O :   -0.370056
  14 C :   -0.010645
  15 C :   -0.278316
  16 O :   -0.365315
  17 C :   -0.013531
  18 C :   -0.314377
  19 H :    0.114000
  20 H :    0.119001
  21 H :    0.121764
  22 H :    0.109077
  23 H :    0.103741
  24 H :    0.118164
  25 H :    0.104143
  26 H :    0.111619
  27 H :    0.114338
  28 H :    0.124558
  29 H :    0.212177
  30 H :    0.185743
  31 H :    0.107787
  32 H :    0.100094
  33 H :    0.103046
  34 H :    0.112790
  35 H :    0.118346
  36 H :    0.108240
  37 H :    0.117637
  38 H :    0.115110
  39 H :    0.130947
  40 H :    0.114037
Sum of atomic charges:   -0.0000000

LOEWDIN ATOMIC CHARGES
----------------------
   0 C :   -0.367393
   1 C :   -0.124763
   2 O :   -0.250891
   3 P :    0.588218
   4 S :   -0.296462
   5 O :   -0.233440
   6 C :   -0.116478
   7 C :   -0.366359
   8 S :    0.085860
   9 C :   -0.477243
  10 S :    0.078874
  11 P :    0.571362
  12 S :   -0.307263
  13 O :   -0.242813
  14 C :   -0.131059
  15 C :   -0.360527
  16 O :   -0.232194
  17 C :   -0.120980
  18 C :   -0.366656
  19 H :    0.131246
  20 H :    0.124906
  21 H :    0.117063
  22 H :    0.106808
  23 H :    0.118122
  24 H :    0.114695
  25 H :    0.115200
  26 H :    0.130678
  27 H :    0.125832
  28 H :    0.122635
  29 H :    0.135937
  30 H :    0.140545
  31 H :    0.106912
  32 H :    0.104350
  33 H :    0.127808
  34 H :    0.120414
  35 H :    0.122191
  36 H :    0.114828
  37 H :    0.111523
  38 H :    0.132259
  39 H :    0.123367
  40 H :    0.122886

  Mayer bond orders larger than 0.100000
B(  0-C ,  1-C ) :   1.1635 B(  0-C , 19-H ) :   0.9389 B(  0-C , 20-H ) :   0.9440
B(  0-C , 21-H ) :   0.9349 B(  1-C ,  2-O ) :   0.9234 B(  1-C , 22-H ) :   0.9120
B(  1-C , 23-H ) :   0.9323 B(  2-O ,  3-P ) :   1.0777 B(  3-P ,  4-S ) :   1.6047
B(  3-P ,  5-O ) :   1.1159 B(  3-P ,  8-S ) :   0.9528 B(  5-O ,  6-C ) :   0.8891
B(  6-C ,  7-C ) :   1.1614 B(  6-C , 24-H ) :   0.9196 B(  6-C , 25-H ) :   0.9289
B(  7-C , 26-H ) :   0.9387 B(  7-C , 27-H ) :   0.9441 B(  7-C , 28-H ) :   0.9334
B(  8-S ,  9-C ) :   0.9946 B(  9-C , 10-S ) :   0.9800 B(  9-C , 29-H ) :   0.8724
B(  9-C , 30-H ) :   0.9096 B( 10-S , 11-P ) :   0.9764 B( 11-P , 12-S ) :   1.6433
B( 11-P , 13-O ) :   1.0986 B( 11-P , 16-O ) :   1.0883 B( 13-O , 14-C ) :   0.8805
B( 14-C , 15-C ) :   1.1740 B( 14-C , 31-H ) :   0.9092 B( 14-C , 32-H ) :   0.9070
B( 15-C , 33-H ) :   0.9408 B( 15-C , 34-H ) :   0.9378 B( 15-C , 35-H ) :   0.9412
B( 16-O , 17-C ) :   0.9094 B( 17-C , 18-C ) :   1.1636 B( 17-C , 36-H ) :   0.9270
B( 17-C , 37-H ) :   0.9099 B( 18-C , 38-H ) :   0.9384 B( 18-C , 39-H ) :   0.9359
B( 18-C , 40-H ) :   0.9462

Dispersion correction           -0.069124931
FINAL SINGLE POINT ENERGY     -2929.517420819370

DIPOLE MOMENT
-------------

Method             : SCF
Type of density    : Electron Density
Multiplicity       :   1
Irrep              :   0
Energy             : -2929.6386943854054152 Eh
Relativity type    :
Basis              : AO
                                X                 Y                 Z
Electronic contribution:     -8.930640082       3.038710694     -10.945581787
Nuclear contribution   :      9.899691763      -4.398563984      11.420057976
                        -----------------------------------------
Total Dipole Moment    :      0.969051681      -1.359853290       0.474476189
                        -----------------------------------------
Magnitude (a.u.)       :      1.735911802
Magnitude (Debye)      :      4.412337147

Rotational constants in cm-1:             0.012051             0.005608             0.005467
Rotational constants in MHz :           361.265153           168.134072           163.910204

                             ****ORCA TERMINATED NORMALLY****
TOTAL RUN TIME: 0 days 0 hours 0 minutes 22 seconds 565 msec
