                         Program Version 6.0.1  -  RELEASE   -
|  1> ! pbe def2-sv(p) def2/J RI DEFGRID1 loosescf d4 GCP(DFT/SV(P)) printgap
|  2> %output
|  3>     printlevel normal
|  4> end
|  5> * xyz 0 1
|  6> C 3.0270680611 -3.9999421625 0.0669934225
|  7> C 2.7561329566 -2.5644479471 0.468847243
|  8> O 2.382578403 -1.8351378787 -0.716701242
|  9> C 2.1435625888 -0.551093668 -0.6068905064
| 10> O 2.2110357748 0.0807521355 0.4300228626
| 11> C 1.7818479745 0.0908742687 -1.93211159
| 12> C 0.5048470977 0.9223616805 -1.7792620711
| 13> H 0.4063773219 1.6120566626 -2.6202444907
| 14> C 0.5158561142 1.7110223584 -0.4853099817
| 15> O -0.3105955078 1.5159534401 0.3938040268
| 16> O 1.4349943191 2.6235044693 -0.4614462928
| 17> C 1.5964680073 3.4147488435 0.737965014
| 18> C 0.6159679059 4.5747664063 0.7650834889
| 19> S -1.0032887937 -0.1100065696 -1.8118756897
| 20> P -1.5717283329 -0.4501247897 0.198581001
| 21> S -0.4916905874 -1.1457517904 1.693891102
| 22> O -2.7632197744 0.5312890599 0.634623016
| 23> C -2.7183497645 1.4818836759 1.6957584445
| 24> O -2.4904019553 -1.6429926838 -0.3941861369
| 25> C -3.3069458862 -2.4574822465 0.4452026077
| 26> H 2.1333254059 -4.4366584467 -0.3684380766
| 27> H 3.8305065226 -4.0373257085 -0.6624986201
| 28> H 3.3102552366 -4.568361862 0.9463482559
| 29> H 3.6390786572 -2.0842168419 0.9018025561
| 30> H 1.9365116525 -2.4869664654 1.1916234749
| 31> H 1.6455351987 -0.6753991283 -2.6928275328
| 32> H 2.6034856839 0.7538896344 -2.2111099225
| 33> H 1.465042512 2.7565208528 1.6008377001
| 34> H 2.6274888427 3.7631045444 0.6837816321
| 35> H 0.7352884997 5.1869250334 -0.1243610248
| 36> H -0.4060836623 4.2059106091 0.8095429067
| 37> H 0.807076797 5.1798607166 1.6449309027
| 38> H -1.9414857252 1.2117443756 2.4128685045
| 39> H -3.6982716854 1.4543452592 2.1681608354
| 40> H -2.5161396389 2.4702654618 1.2874590167
| 41> H -4.2033186126 -1.9111385919 0.737860397
| 42> H -2.7480485885 -2.7560700845 1.335472141
| 43> H -3.5666463029 -3.3293348614 -0.150241643
| 44> *
| 45>
| 46>                          ****END OF INPUT****

CARTESIAN COORDINATES (ANGSTROEM)
---------------------------------
  C      3.027068   -3.999942    0.066993
  C      2.756133   -2.564448    0.468847
  O      2.382578   -1.835138   -0.716701
  C      2.143563   -0.551094   -0.606891
  O      2.211036    0.080752    0.430023
  C      1.781848    0.090874   -1.932112
  C      0.504847    0.922362   -1.779262
  H      0.406377    1.612057   -2.620244
  C      0.515856    1.711022   -0.485310
  O     -0.310596    1.515953    0.393804
  O      1.434994    2.623504   -0.461446
  C      1.596468    3.414749    0.737965
  C      0.615968    4.574766    0.765083
  S     -1.003289   -0.110007   -1.811876
  P     -1.571728   -0.450125    0.198581
  S     -0.491691   -1.145752    1.693891
  O     -2.763220    0.531289    0.634623
  C     -2.718350    1.481884    1.695758
  O     -2.490402   -1.642993   -0.394186
  C     -3.306946   -2.457482    0.445203
  H      2.133325   -4.436658   -0.368438
  H      3.830507   -4.037326   -0.662499
  H      3.310255   -4.568362    0.946348
  H      3.639079   -2.084217    0.901803
  H      1.936512   -2.486966    1.191623
  H      1.645535   -0.675399   -2.692828
  H      2.603486    0.753890   -2.211110
  H      1.465043    2.756521    1.600838
  H      2.627489    3.763105    0.683782
  H      0.735288    5.186925   -0.124361
  H     -0.406084    4.205911    0.809543
  H      0.807077    5.179861    1.644931
  H     -1.941486    1.211744    2.412869
  H     -3.698272    1.454345    2.168161
  H     -2.516140    2.470265    1.287459
  H     -4.203319   -1.911139    0.737860
  H     -2.748049   -2.756070    1.335472
  H     -3.566646   -3.329335   -0.150242

 Total Charge           Charge          ....    0
 Multiplicity           Mult            ....    1
 Number of Electrons    NEL             ....  174
 Basis Dimension        Dim             ....  316

ORBITAL ENERGIES
----------------

  NO   OCC          E(Eh)            E(eV)
   0   2.0000     -88.029774     -2395.4119
   1   2.0000     -87.958599     -2393.4752
   2   2.0000     -76.412161     -2079.2806
   3   2.0000     -18.822767      -512.1935
   4   2.0000     -18.804064      -511.6846
   5   2.0000     -18.771539      -510.7996
   6   2.0000     -18.766789      -510.6703
   7   2.0000     -18.759130      -510.4619
   8   2.0000     -18.738084      -509.8892
   9   2.0000     -10.035514      -273.0802
  10   2.0000     -10.011276      -272.4207
  11   2.0000      -9.958180      -270.9759
  12   2.0000      -9.953403      -270.8459
  13   2.0000      -9.938301      -270.4349
  14   2.0000      -9.927550      -270.1424
  15   2.0000      -9.921431      -269.9759
  16   2.0000      -9.916504      -269.8418
  17   2.0000      -9.896685      -269.3025
  18   2.0000      -9.882208      -268.9085
  19   2.0000      -7.674886      -208.8443
  20   2.0000      -7.603682      -206.9067
  21   2.0000      -6.406803      -174.3380
  22   2.0000      -5.703405      -155.1975
  23   2.0000      -5.699179      -155.0825
  24   2.0000      -5.691384      -154.8704
  25   2.0000      -5.632813      -153.2766
  26   2.0000      -5.624525      -153.0511
  27   2.0000      -5.623330      -153.0186
  28   2.0000      -4.629704      -125.9807
  29   2.0000      -4.628867      -125.9579
  30   2.0000      -4.627347      -125.9165
  31   2.0000      -1.036018       -28.1915
  32   2.0000      -1.010805       -27.5054
  33   2.0000      -0.959981       -26.1224
  34   2.0000      -0.941566       -25.6213
  35   2.0000      -0.916046       -24.9269
  36   2.0000      -0.913970       -24.8704
  37   2.0000      -0.767105       -20.8740
  38   2.0000      -0.716437       -19.4952
  39   2.0000      -0.707231       -19.2447
  40   2.0000      -0.685091       -18.6423
  41   2.0000      -0.648756       -17.6536
  42   2.0000      -0.626977       -17.0609
  43   2.0000      -0.612273       -16.6608
  44   2.0000      -0.606950       -16.5159
  45   2.0000      -0.588135       -16.0040
  46   2.0000      -0.560767       -15.2592
  47   2.0000      -0.513207       -13.9651
  48   2.0000      -0.505974       -13.7683
  49   2.0000      -0.501540       -13.6476
  50   2.0000      -0.488045       -13.2804
  51   2.0000      -0.465021       -12.6539
  52   2.0000      -0.458876       -12.4867
  53   2.0000      -0.447681       -12.1820
  54   2.0000      -0.437417       -11.9027
  55   2.0000      -0.431772       -11.7491
  56   2.0000      -0.420998       -11.4559
  57   2.0000      -0.413864       -11.2618
  58   2.0000      -0.412089       -11.2135
  59   2.0000      -0.403119       -10.9694
  60   2.0000      -0.396463       -10.7883
  61   2.0000      -0.394468       -10.7340
  62   2.0000      -0.383541       -10.4367
  63   2.0000      -0.381403       -10.3785
  64   2.0000      -0.366781        -9.9806
  65   2.0000      -0.363760        -9.8984
  66   2.0000      -0.361103        -9.8261
  67   2.0000      -0.352648        -9.5960
  68   2.0000      -0.346966        -9.4414
  69   2.0000      -0.345652        -9.4057
  70   2.0000      -0.338618        -9.2143
  71   2.0000      -0.329759        -8.9732
  72   2.0000      -0.311838        -8.4855
  73   2.0000      -0.309713        -8.4277
  74   2.0000      -0.297828        -8.1043
  75   2.0000      -0.295136        -8.0311
  76   2.0000      -0.287108        -7.8126
  77   2.0000      -0.282660        -7.6916
  78   2.0000      -0.267029        -7.2662
  79   2.0000      -0.258543        -7.0353
  80   2.0000      -0.255535        -6.9535
  81   2.0000      -0.250074        -6.8049
  82   2.0000      -0.239427        -6.5151
  83   2.0000      -0.225061        -6.1242
  84   2.0000      -0.209198        -5.6926
  85   2.0000      -0.178553        -4.8587
  86   2.0000      -0.171206        -4.6587
  87   0.0000      -0.045343        -1.2338
  88   0.0000      -0.034185        -0.9302
  89   0.0000      -0.026308        -0.7159
  90   0.0000       0.011264         0.3065
  91   0.0000       0.034638         0.9425

MULLIKEN ATOMIC CHARGES
-----------------------
   0 C :   -0.273478
   1 C :   -0.041582
   2 O :   -0.215286
   3 C :    0.098539
   4 O :   -0.204340
   5 C :   -0.025116
   6 C :   -0.305687
   7 H :    0.146288
   8 C :    0.241323
   9 O :   -0.219216
  10 O :   -0.213380
  11 C :   -0.006586
  12 C :   -0.321708
  13 S :   -0.078244
  14 P :    0.665040
  15 S :   -0.345772
  16 O :   -0.395155
  17 C :   -0.093838
  18 O :   -0.410076
  19 C :   -0.090785
  20 H :    0.121041
  21 H :    0.108562
  22 H :    0.110688
  23 H :    0.098403
  24 H :    0.134399
  25 H :    0.118284
  26 H :    0.122836
  27 H :    0.131154
  28 H :    0.108661
  29 H :    0.115708
  30 H :    0.137757
  31 H :    0.119618
  32 H :    0.116590
  33 H :    0.111907
  34 H :    0.111377
  35 H :    0.102295
  36 H :    0.105931
  37 H :    0.113849
Sum of atomic charges:    0.0000000

LOEWDIN ATOMIC CHARGES
----------------------
   0 C :   -0.350235
   1 C :   -0.111307
   2 O :   -0.043415
   3 C :    0.028193
   4 O :   -0.155543
   5 C :   -0.246605
   6 C :   -0.263286
   7 H :    0.147460
   8 C :    0.036031
   9 O :   -0.147796
  10 O :   -0.028217
  11 C :   -0.101257
  12 C :   -0.357394
  13 S :    0.118717
  14 P :    0.584444
  15 S :   -0.336693
  16 O :   -0.257933
  17 C :   -0.215248
  18 O :   -0.282505
  19 C :   -0.217829
  20 H :    0.129706
  21 H :    0.123031
  22 H :    0.130811
  23 H :    0.114015
  24 H :    0.119120
  25 H :    0.137708
  26 H :    0.146957
  27 H :    0.131592
  28 H :    0.122277
  29 H :    0.126087
  30 H :    0.129532
  31 H :    0.134525
  32 H :    0.108791
  33 H :    0.113926
  34 H :    0.106115
  35 H :    0.106457
  36 H :    0.103236
  37 H :    0.116531

  Mayer bond orders larger than 0.100000
B(  0-C ,  1-C ) :   1.1552 B(  0-C , 20-H ) :   0.9488 B(  0-C , 21-H ) :   0.9509
B(  0-C , 22-H ) :   0.9442 B(  1-C ,  2-O ) :   0.8932 B(  1-C , 23-H ) :   0.9298
B(  1-C , 24-H ) :   0.9118 B(  2-O ,  3-C ) :   1.2749 B(  2-O ,  4-O ) :   0.1013
B(  3-C ,  4-O ) :   1.9570 B(  3-C ,  5-C ) :   1.0051 B(  4-O ,  8-C ) :   0.1190
B(  5-C ,  6-C ) :   1.0162 B(  5-C , 25-H ) :   0.9042 B(  5-C , 26-H ) :   0.8756
B(  6-C ,  7-H ) :   0.8773 B(  6-C ,  8-C ) :   0.9145 B(  6-C , 13-S ) :   1.0422
B(  8-C ,  9-O ) :   1.8291 B(  8-C , 10-O ) :   1.2887 B(  9-O , 14-P ) :   0.1841
B( 10-O , 11-C ) :   0.8930 B( 11-C , 12-C ) :   1.1715 B( 11-C , 27-H ) :   0.9168
B( 11-C , 28-H ) :   0.9376 B( 12-C , 29-H ) :   0.9459 B( 12-C , 30-H ) :   0.9409
B( 12-C , 31-H ) :   0.9429 B( 13-S , 14-P ) :   0.9300 B( 13-S , 15-S ) :   0.1078
B( 14-P , 15-S ) :   1.5656 B( 14-P , 16-O ) :   1.0723 B( 14-P , 18-O ) :   1.0329
B( 16-O , 17-C ) :   0.9384 B( 17-C , 32-H ) :   0.9310 B( 17-C , 33-H ) :   0.9533
B( 17-C , 34-H ) :   0.9521 B( 18-O , 19-C ) :   0.9488 B( 19-C , 35-H ) :   0.9519
B( 19-C , 36-H ) :   0.9284 B( 19-C , 37-H ) :   0.9610

Dispersion correction           -0.053385142
FINAL SINGLE POINT ENERGY     -1979.006226367088

DIPOLE MOMENT
-------------

Method             : SCF
Type of density    : Electron Density
Multiplicity       :   1
Irrep              :   0
Energy             : -1979.1367886620450918 Eh
Relativity type    :
Basis              : AO
                                X                 Y                 Z
Electronic contribution:     -6.369696624      -1.531297297      -6.624006729
Nuclear contribution   :      7.139802525       2.623780245       6.289202969
                        -----------------------------------------
Total Dipole Moment    :      0.770105901       1.092482948      -0.334803760
                        -----------------------------------------
Magnitude (a.u.)       :      1.377924399
Magnitude (Debye)      :      3.502405481

Rotational constants in cm-1:             0.010363             0.009888             0.006589
Rotational constants in MHz :           310.682655           296.443136           197.518579

                             ****ORCA TERMINATED NORMALLY****
TOTAL RUN TIME: 0 days 0 hours 0 minutes 37 seconds 727 msec
