                         Program Version 6.0.1  -  RELEASE   -
|  1> ! pbe def2-sv(p) def2/J RI DEFGRID1 loosescf d4 GCP(DFT/SV(P)) printgap
|  2> %output
|  3>     printlevel normal
|  4> end
|  5> * xyz 0 1
|  6> C 2.0407305278 -4.3668573389 -0.952794939
|  7> C 1.6805366094 -3.1008538964 -0.1986356345
|  8> O 1.6217913719 -2.012621763 -1.1391614564
|  9> C 1.9787284927 -0.8086237324 -0.7627950331
| 10> O 2.3708270694 -0.5125512507 0.3492889579
| 11> C 1.8128854831 0.1994389474 -1.8853006546
| 12> C 0.5878027888 1.0796535428 -1.5910071838
| 13> H 0.4968764371 1.861732414 -2.3461993481
| 14> C 0.7361108712 1.6922095942 -0.2168699659
| 15> O 0.1650069649 1.2398546842 0.7604019211
| 16> O 1.5313046782 2.7174171599 -0.2168896494
| 17> C 1.8692960521 3.3384427335 1.0450587193
| 18> C 3.1380064254 2.7167449267 1.6041780078
| 19> S -0.9490147285 0.095277385 -1.6485684221
| 20> P -1.6797288344 -0.1596389235 0.3370471985
| 21> S -2.6198855357 1.2688157574 1.3196459784
| 22> O -2.7510884929 -1.2893003465 -0.0853321008
| 23> C -3.9570004646 -0.9769757152 -0.7824108571
| 24> O -0.7694932911 -1.1993708551 1.1312036447
| 25> C -0.1669183464 -0.9409852698 2.4004777692
| 26> H 3.0219828132 -4.2686764997 -1.4083603763
| 27> H 2.04976571 -5.2030482105 -0.2616494294
| 28> H 1.3073386203 -4.5530648352 -1.7315199829
| 29> H 2.4189648339 -2.8559147117 0.5712163735
| 30> H 0.693084175 -3.1795513344 0.2666633929
| 31> H 1.6614840013 -0.3271238213 -2.8258771641
| 32> H 2.6983067921 0.834853428 -1.9309628095
| 33> H 2.00944962 4.3914548349 0.8011140856
| 34> H 1.0289486068 3.2131398671 1.7327061066
| 35> H 3.9734074636 2.8984549826 0.9344386116
| 36> H 3.3540637863 3.1512058205 2.574235779
| 37> H 3.0074154811 1.6419053925 1.7168185227
| 38> H -3.7493560772 -0.8205612229 -1.8411671713
| 39> H -4.4151602427 -0.081439245 -0.3566346114
| 40> H -4.6086328276 -1.8361795517 -0.6431743284
| 41> H -0.6405079442 -0.0829205056 2.879708086
| 42> H 0.8950426608 -0.7415200023 2.2543773466
| 43> H -0.3149600505 -1.838325803 2.9974115717
| 44> *
| 45>
| 46>                          ****END OF INPUT****

CARTESIAN COORDINATES (ANGSTROEM)
---------------------------------
  C      2.040731   -4.366857   -0.952795
  C      1.680537   -3.100854   -0.198636
  O      1.621791   -2.012622   -1.139161
  C      1.978728   -0.808624   -0.762795
  O      2.370827   -0.512551    0.349289
  C      1.812885    0.199439   -1.885301
  C      0.587803    1.079654   -1.591007
  H      0.496876    1.861732   -2.346199
  C      0.736111    1.692210   -0.216870
  O      0.165007    1.239855    0.760402
  O      1.531305    2.717417   -0.216890
  C      1.869296    3.338443    1.045059
  C      3.138006    2.716745    1.604178
  S     -0.949015    0.095277   -1.648568
  P     -1.679729   -0.159639    0.337047
  S     -2.619886    1.268816    1.319646
  O     -2.751088   -1.289300   -0.085332
  C     -3.957000   -0.976976   -0.782411
  O     -0.769493   -1.199371    1.131204
  C     -0.166918   -0.940985    2.400478
  H      3.021983   -4.268676   -1.408360
  H      2.049766   -5.203048   -0.261649
  H      1.307339   -4.553065   -1.731520
  H      2.418965   -2.855915    0.571216
  H      0.693084   -3.179551    0.266663
  H      1.661484   -0.327124   -2.825877
  H      2.698307    0.834853   -1.930963
  H      2.009450    4.391455    0.801114
  H      1.028949    3.213140    1.732706
  H      3.973407    2.898455    0.934439
  H      3.354064    3.151206    2.574236
  H      3.007415    1.641905    1.716819
  H     -3.749356   -0.820561   -1.841167
  H     -4.415160   -0.081439   -0.356635
  H     -4.608633   -1.836180   -0.643174
  H     -0.640508   -0.082921    2.879708
  H      0.895043   -0.741520    2.254377
  H     -0.314960   -1.838326    2.997412

 Total Charge           Charge          ....    0
 Multiplicity           Mult            ....    1
 Number of Electrons    NEL             ....  174
 Basis Dimension        Dim             ....  316

ORBITAL ENERGIES
----------------

  NO   OCC          E(Eh)            E(eV)
   0   2.0000     -88.032669     -2395.4907
   1   2.0000     -87.958482     -2393.4720
   2   2.0000     -76.415169     -2079.3625
   3   2.0000     -18.826917      -512.3064
   4   2.0000     -18.811193      -511.8786
   5   2.0000     -18.774820      -510.8888
   6   2.0000     -18.770087      -510.7600
   7   2.0000     -18.763581      -510.5830
   8   2.0000     -18.750415      -510.2247
   9   2.0000     -10.035135      -273.0699
  10   2.0000     -10.022136      -272.7162
  11   2.0000      -9.959910      -271.0229
  12   2.0000      -9.959183      -271.0031
  13   2.0000      -9.947988      -270.6985
  14   2.0000      -9.924766      -270.0666
  15   2.0000      -9.924434      -270.0576
  16   2.0000      -9.923994      -270.0456
  17   2.0000      -9.891111      -269.1508
  18   2.0000      -9.890869      -269.1442
  19   2.0000      -7.677715      -208.9212
  20   2.0000      -7.603769      -206.9091
  21   2.0000      -6.409896      -174.4221
  22   2.0000      -5.706113      -155.2712
  23   2.0000      -5.701770      -155.1530
  24   2.0000      -5.694579      -154.9574
  25   2.0000      -5.633090      -153.2842
  26   2.0000      -5.624560      -153.0520
  27   2.0000      -5.623349      -153.0191
  28   2.0000      -4.632590      -126.0592
  29   2.0000      -4.632165      -126.0476
  30   2.0000      -4.630324      -125.9975
  31   2.0000      -1.039334       -28.2817
  32   2.0000      -1.019750       -27.7488
  33   2.0000      -0.965793       -26.2806
  34   2.0000      -0.945831       -25.7374
  35   2.0000      -0.925953       -25.1965
  36   2.0000      -0.918976       -25.0066
  37   2.0000      -0.773699       -21.0534
  38   2.0000      -0.719580       -19.5808
  39   2.0000      -0.711177       -19.3521
  40   2.0000      -0.686441       -18.6790
  41   2.0000      -0.655055       -17.8250
  42   2.0000      -0.628746       -17.1091
  43   2.0000      -0.611195       -16.6315
  44   2.0000      -0.603565       -16.4238
  45   2.0000      -0.596463       -16.2306
  46   2.0000      -0.567408       -15.4399
  47   2.0000      -0.515989       -14.0408
  48   2.0000      -0.511078       -13.9071
  49   2.0000      -0.504976       -13.7411
  50   2.0000      -0.491650       -13.3785
  51   2.0000      -0.471008       -12.8168
  52   2.0000      -0.463065       -12.6006
  53   2.0000      -0.449899       -12.2424
  54   2.0000      -0.447686       -12.1821
  55   2.0000      -0.430353       -11.7105
  56   2.0000      -0.425170       -11.5695
  57   2.0000      -0.422766       -11.5040
  58   2.0000      -0.416242       -11.3265
  59   2.0000      -0.404188       -10.9985
  60   2.0000      -0.398683       -10.8487
  61   2.0000      -0.393230       -10.7003
  62   2.0000      -0.385886       -10.5005
  63   2.0000      -0.380153       -10.3445
  64   2.0000      -0.376859       -10.2548
  65   2.0000      -0.372624       -10.1396
  66   2.0000      -0.366189        -9.9645
  67   2.0000      -0.360582        -9.8119
  68   2.0000      -0.351709        -9.5705
  69   2.0000      -0.345760        -9.4086
  70   2.0000      -0.341669        -9.2973
  71   2.0000      -0.334139        -9.0924
  72   2.0000      -0.325619        -8.8605
  73   2.0000      -0.311718        -8.4823
  74   2.0000      -0.302489        -8.2312
  75   2.0000      -0.298693        -8.1279
  76   2.0000      -0.287336        -7.8188
  77   2.0000      -0.285190        -7.7604
  78   2.0000      -0.274195        -7.4612
  79   2.0000      -0.264428        -7.1955
  80   2.0000      -0.260177        -7.0798
  81   2.0000      -0.242594        -6.6013
  82   2.0000      -0.238333        -6.4854
  83   2.0000      -0.235352        -6.4043
  84   2.0000      -0.221027        -6.0144
  85   2.0000      -0.179435        -4.8827
  86   2.0000      -0.169875        -4.6225
  87   0.0000      -0.053174        -1.4469
  88   0.0000      -0.037182        -1.0118
  89   0.0000      -0.027171        -0.7394
  90   0.0000      -0.001407        -0.0383
  91   0.0000       0.035410         0.9636

MULLIKEN ATOMIC CHARGES
-----------------------
   0 C :   -0.280243
   1 C :   -0.047836
   2 O :   -0.210249
   3 C :    0.099573
   4 O :   -0.204285
   5 C :   -0.034420
   6 C :   -0.289400
   7 H :    0.148174
   8 C :    0.224308
   9 O :   -0.199888
  10 O :   -0.214131
  11 C :   -0.022649
  12 C :   -0.318118
  13 S :   -0.115223
  14 P :    0.640619
  15 S :   -0.348970
  16 O :   -0.387054
  17 C :   -0.102521
  18 O :   -0.381241
  19 C :   -0.112122
  20 H :    0.110282
  21 H :    0.113560
  22 H :    0.120780
  23 H :    0.111054
  24 H :    0.134120
  25 H :    0.120977
  26 H :    0.122668
  27 H :    0.111270
  28 H :    0.129369
  29 H :    0.112424
  30 H :    0.116128
  31 H :    0.151212
  32 H :    0.107549
  33 H :    0.112154
  34 H :    0.116844
  35 H :    0.118950
  36 H :    0.134868
  37 H :    0.111466
Sum of atomic charges:    0.0000000

LOEWDIN ATOMIC CHARGES
----------------------
   0 C :   -0.350323
   1 C :   -0.112841
   2 O :   -0.038298
   3 C :    0.028909
   4 O :   -0.165187
   5 C :   -0.240634
   6 C :   -0.256980
   7 H :    0.145356
   8 C :    0.033330
   9 O :   -0.135401
  10 O :   -0.030115
  11 C :   -0.104997
  12 C :   -0.358598
  13 S :    0.089784
  14 P :    0.585843
  15 S :   -0.350274
  16 O :   -0.267534
  17 C :   -0.222651
  18 O :   -0.244922
  19 C :   -0.221147
  20 H :    0.124231
  21 H :    0.131556
  22 H :    0.129061
  23 H :    0.117580
  24 H :    0.126038
  25 H :    0.137644
  26 H :    0.143429
  27 H :    0.121751
  28 H :    0.128788
  29 H :    0.124747
  30 H :    0.132626
  31 H :    0.137138
  32 H :    0.103056
  33 H :    0.105511
  34 H :    0.118112
  35 H :    0.109982
  36 H :    0.111991
  37 H :    0.113440

  Mayer bond orders larger than 0.100000
B(  0-C ,  1-C ) :   1.1591 B(  0-C , 20-H ) :   0.9517 B(  0-C , 21-H ) :   0.9443
B(  0-C , 22-H ) :   0.9485 B(  1-C ,  2-O ) :   0.8955 B(  1-C , 23-H ) :   0.9163
B(  1-C , 24-H ) :   0.9202 B(  2-O ,  3-C ) :   1.2692 B(  2-O ,  4-O ) :   0.1045
B(  3-C ,  4-O ) :   1.9592 B(  3-C ,  5-C ) :   0.9918 B(  5-C ,  6-C ) :   1.0336
B(  5-C , 25-H ) :   0.9027 B(  5-C , 26-H ) :   0.8851 B(  6-C ,  7-H ) :   0.8818
B(  6-C ,  8-C ) :   0.9140 B(  6-C , 13-S ) :   1.0398 B(  8-C ,  9-O ) :   1.8347
B(  8-C , 10-O ) :   1.2938 B(  9-O , 14-P ) :   0.1788 B( 10-O , 11-C ) :   0.8877
B( 11-C , 12-C ) :   1.1763 B( 11-C , 27-H ) :   0.9364 B( 11-C , 28-H ) :   0.9122
B( 12-C , 29-H ) :   0.9491 B( 12-C , 30-H ) :   0.9415 B( 12-C , 31-H ) :   0.9316
B( 13-S , 14-P ) :   0.9298 B( 13-S , 15-S ) :   0.1061 B( 14-P , 15-S ) :   1.5675
B( 14-P , 16-O ) :   1.0473 B( 14-P , 18-O ) :   1.0922 B( 16-O , 17-C ) :   0.9506
B( 17-C , 32-H ) :   0.9482 B( 17-C , 33-H ) :   0.9263 B( 17-C , 34-H ) :   0.9600
B( 18-O , 19-C ) :   0.9211 B( 19-C , 35-H ) :   0.9314 B( 19-C , 36-H ) :   0.9357
B( 19-C , 37-H ) :   0.9542

Dispersion correction           -0.054247108
FINAL SINGLE POINT ENERGY     -1979.005458181277

DIPOLE MOMENT
-------------

Method             : SCF
Type of density    : Electron Density
Multiplicity       :   1
Irrep              :   0
Energy             : -1979.1377175426828217 Eh
Relativity type    :
Basis              : AO
                                X                 Y                 Z
Electronic contribution:    -13.862069426       7.094826060      -3.593546357
Nuclear contribution   :     15.603315972      -7.226087137       2.894178097
                        -----------------------------------------
Total Dipole Moment    :      1.741246546      -0.131261077      -0.699368260
                        -----------------------------------------
Magnitude (a.u.)       :      1.881032952
Magnitude (Debye)      :      4.781205796

Rotational constants in cm-1:             0.010725             0.009821             0.006816
Rotational constants in MHz :           321.534465           294.431230           204.328087

                             ****ORCA TERMINATED NORMALLY****
TOTAL RUN TIME: 0 days 0 hours 0 minutes 37 seconds 464 msec
