                         Program Version 6.0.0  -   RELEASE  -
|  1> ! r2scan-3c def2/J RI DEFGRID2 scfconv6 printgap
|  2> %output
|  3>     printlevel normal
|  4> end
|  5> * xyz 0 1
|  6> C 4.0836110273 1.9433380181 -1.6023953238
|  7> C 4.4195434311 0.5407383144 -1.1384201218
|  8> O 3.2425059548 -0.2694648634 -0.9650696327
|  9> P 2.1820456674 0.0004465555 0.1846855229
| 10> S 2.938846426 0.5244670343 1.918866164
| 11> O 1.3334030103 -1.3368305593 0.1632992614
| 12> C 1.6188567204 -2.452689874 1.0264644614
| 13> C 2.9499312424 -3.0942423931 0.6978664922
| 14> S 0.788606871 1.3133711113 -0.688279627
| 15> C -0.0490186994 1.7895961979 0.8491036996
| 16> S -0.8973473252 0.4047828796 1.6706225223
| 17> P -2.1410772033 -0.2258530733 0.0876855257
| 18> S -1.5434364902 -1.44951524 -1.326202364
| 19> O -2.7565622136 1.1471792459 -0.4303229439
| 20> C -2.8737168153 1.5495131602 -1.8108997762
| 21> C -2.1549171056 2.8639908994 -2.0387811097
| 22> O -3.2324073633 -0.8521878785 1.0604736126
| 23> C -4.1971676447 -1.8202248051 0.6079110821
| 24> C -5.207971012 -1.2042193133 -0.33836117
| 25> H 3.4459930575 1.9067719826 -2.4822482474
| 26> H 3.5617007248 2.4825495731 -0.8129514809
| 27> H 5.001173599 2.4708545095 -1.8424441833
| 28> H 4.9612747311 0.5690107447 -0.18751104
| 29> H 5.0019889132 -0.0029649667 -1.883376474
| 30> H 1.5984917086 -2.0994626169 2.063212846
| 31> H 0.78398943 -3.1342265602 0.8526392675
| 32> H 3.0793720211 -3.9851735132 1.3042869878
| 33> H 2.9855740782 -3.3613485607 -0.3552722609
| 34> H 3.7587761628 -2.3967454778 0.9139337834
| 35> H -0.7689094147 2.5636106209 0.5955689577
| 36> H 0.6878694595 2.1516105233 1.5665388165
| 37> H -2.4634613931 0.7565691824 -2.4456577622
| 38> H -3.9445847782 1.6515790501 -2.0001510203
| 39> H -2.520793771 3.6151737723 -1.3443337646
| 40> H -1.0815115085 2.7414269857 -1.9065799504
| 41> H -2.347556846 3.194882122 -3.0541290733
| 42> H -3.6634073302 -2.6416589604 0.1184558098
| 43> H -4.6645771173 -2.1755216016 1.5272275797
| 44> H -5.9809393445 -1.9320191769 -0.5642854414
| 45> H -5.6590346684 -0.32581384 0.1160073127
| 46> H -4.7139253767 -0.9141521487 -1.2652428455
| 47> *
| 48>
| 49>                          ****END OF INPUT****

CARTESIAN COORDINATES (ANGSTROEM)
---------------------------------
  C      4.083611    1.943338   -1.602395
  C      4.419543    0.540738   -1.138420
  O      3.242506   -0.269465   -0.965070
  P      2.182046    0.000447    0.184686
  S      2.938846    0.524467    1.918866
  O      1.333403   -1.336831    0.163299
  C      1.618857   -2.452690    1.026464
  C      2.949931   -3.094242    0.697866
  S      0.788607    1.313371   -0.688280
  C     -0.049019    1.789596    0.849104
  S     -0.897347    0.404783    1.670623
  P     -2.141077   -0.225853    0.087686
  S     -1.543436   -1.449515   -1.326202
  O     -2.756562    1.147179   -0.430323
  C     -2.873717    1.549513   -1.810900
  C     -2.154917    2.863991   -2.038781
  O     -3.232407   -0.852188    1.060474
  C     -4.197168   -1.820225    0.607911
  C     -5.207971   -1.204219   -0.338361
  H      3.445993    1.906772   -2.482248
  H      3.561701    2.482550   -0.812951
  H      5.001174    2.470855   -1.842444
  H      4.961275    0.569011   -0.187511
  H      5.001989   -0.002965   -1.883376
  H      1.598492   -2.099463    2.063213
  H      0.783989   -3.134227    0.852639
  H      3.079372   -3.985174    1.304287
  H      2.985574   -3.361349   -0.355272
  H      3.758776   -2.396745    0.913934
  H     -0.768909    2.563611    0.595569
  H      0.687869    2.151611    1.566539
  H     -2.463461    0.756569   -2.445658
  H     -3.944585    1.651579   -2.000151
  H     -2.520794    3.615174   -1.344334
  H     -1.081512    2.741427   -1.906580
  H     -2.347557    3.194882   -3.054129
  H     -3.663407   -2.641659    0.118456
  H     -4.664577   -2.175522    1.527228
  H     -5.980939   -1.932019   -0.564285
  H     -5.659035   -0.325814    0.116007
  H     -4.713925   -0.914152   -1.265243

 Total Charge           Charge          ....    0
 Multiplicity           Mult            ....    1
 Number of Electrons    NEL             ....  202
 Basis Dimension        Dim             ....  539

ORBITAL ENERGIES
----------------

  NO   OCC          E(Eh)            E(eV)
   0   2.0000     -88.574861     -2410.2445
   1   2.0000     -88.570844     -2410.1352
   2   2.0000     -88.519249     -2408.7312
   3   2.0000     -88.513413     -2408.5724
   4   2.0000     -76.911400     -2092.8656
   5   2.0000     -76.910294     -2092.8355
   6   2.0000     -18.992422      -516.8101
   7   2.0000     -18.992067      -516.8004
   8   2.0000     -18.985885      -516.6322
   9   2.0000     -18.979718      -516.4644
  10   2.0000     -10.107549      -275.0404
  11   2.0000     -10.099355      -274.8174
  12   2.0000     -10.098458      -274.7930
  13   2.0000     -10.094588      -274.6877
  14   2.0000     -10.087729      -274.5011
  15   2.0000     -10.035837      -273.0890
  16   2.0000     -10.029827      -272.9255
  17   2.0000     -10.029087      -272.9053
  18   2.0000     -10.021581      -272.7011
  19   2.0000      -7.869650      -214.1441
  20   2.0000      -7.865039      -214.0186
  21   2.0000      -7.814039      -212.6308
  22   2.0000      -7.808199      -212.4719
  23   2.0000      -6.589970      -179.3222
  24   2.0000      -6.588480      -179.2817
  25   2.0000      -5.816497      -158.2749
  26   2.0000      -5.813536      -158.1944
  27   2.0000      -5.812303      -158.1608
  28   2.0000      -5.808795      -158.0653
  29   2.0000      -5.806662      -158.0073
  30   2.0000      -5.801870      -157.8769
  31   2.0000      -5.761589      -156.7808
  32   2.0000      -5.755898      -156.6259
  33   2.0000      -5.754408      -156.5854
  34   2.0000      -5.754050      -156.5757
  35   2.0000      -5.748403      -156.4220
  36   2.0000      -5.748223      -156.4171
  37   2.0000      -4.735295      -128.8539
  38   2.0000      -4.734829      -128.8412
  39   2.0000      -4.734107      -128.8216
  40   2.0000      -4.733936      -128.8169
  41   2.0000      -4.733399      -128.8023
  42   2.0000      -4.732093      -128.7668
  43   2.0000      -1.045939       -28.4614
  44   2.0000      -1.044646       -28.4263
  45   2.0000      -1.009368       -27.4663
  46   2.0000      -1.005908       -27.3721
  47   2.0000      -0.801197       -21.8017
  48   2.0000      -0.759113       -20.6565
  49   2.0000      -0.746621       -20.3166
  50   2.0000      -0.733579       -19.9617
  51   2.0000      -0.727143       -19.7866
  52   2.0000      -0.706094       -19.2138
  53   2.0000      -0.683843       -18.6083
  54   2.0000      -0.668300       -18.1854
  55   2.0000      -0.632575       -17.2132
  56   2.0000      -0.624088       -16.9823
  57   2.0000      -0.607490       -16.5306
  58   2.0000      -0.601275       -16.3615
  59   2.0000      -0.590013       -16.0551
  60   2.0000      -0.522582       -14.2202
  61   2.0000      -0.514075       -13.9887
  62   2.0000      -0.496214       -13.5027
  63   2.0000      -0.488319       -13.2878
  64   2.0000      -0.474851       -12.9213
  65   2.0000      -0.457675       -12.4540
  66   2.0000      -0.456770       -12.4293
  67   2.0000      -0.453630       -12.3439
  68   2.0000      -0.443895       -12.0790
  69   2.0000      -0.428456       -11.6589
  70   2.0000      -0.416120       -11.3232
  71   2.0000      -0.414155       -11.2697
  72   2.0000      -0.408604       -11.1187
  73   2.0000      -0.405376       -11.0308
  74   2.0000      -0.398913       -10.8550
  75   2.0000      -0.390934       -10.6378
  76   2.0000      -0.385957       -10.5024
  77   2.0000      -0.376455       -10.2439
  78   2.0000      -0.370950       -10.0941
  79   2.0000      -0.367641       -10.0040
  80   2.0000      -0.360445        -9.8082
  81   2.0000      -0.358526        -9.7560
  82   2.0000      -0.354424        -9.6444
  83   2.0000      -0.351689        -9.5699
  84   2.0000      -0.345653        -9.4057
  85   2.0000      -0.334557        -9.1038
  86   2.0000      -0.322402        -8.7730
  87   2.0000      -0.309759        -8.4290
  88   2.0000      -0.307661        -8.3719
  89   2.0000      -0.295340        -8.0366
  90   2.0000      -0.293135        -7.9766
  91   2.0000      -0.289810        -7.8861
  92   2.0000      -0.282701        -7.6927
  93   2.0000      -0.278588        -7.5808
  94   2.0000      -0.275074        -7.4851
  95   2.0000      -0.247403        -6.7322
  96   2.0000      -0.226898        -6.1742
  97   2.0000      -0.221107        -6.0166
  98   2.0000      -0.217920        -5.9299
  99   2.0000      -0.207351        -5.6423
 100   2.0000      -0.204669        -5.5693
 101   0.0000      -0.050102        -1.3633
 102   0.0000      -0.023994        -0.6529
 103   0.0000      -0.002114        -0.0575
 104   0.0000       0.006812         0.1854
 105   0.0000       0.018803         0.5116

MULLIKEN ATOMIC CHARGES
-----------------------
   0 C :   -0.457275
   1 C :   -0.149689
   2 O :   -0.300855
   3 P :    0.698387
   4 S :   -0.486008
   5 O :   -0.253129
   6 C :   -0.160266
   7 C :   -0.448659
   8 S :   -0.136193
   9 C :   -0.228861
  10 S :   -0.123285
  11 P :    0.720600
  12 S :   -0.471565
  13 O :   -0.307955
  14 C :   -0.118438
  15 C :   -0.484422
  16 O :   -0.303368
  17 C :   -0.150848
  18 C :   -0.451849
  19 H :    0.156606
  20 H :    0.177137
  21 H :    0.148093
  22 H :    0.172573
  23 H :    0.149327
  24 H :    0.170941
  25 H :    0.162161
  26 H :    0.145712
  27 H :    0.158856
  28 H :    0.165762
  29 H :    0.190959
  30 H :    0.213207
  31 H :    0.185407
  32 H :    0.147718
  33 H :    0.159614
  34 H :    0.162962
  35 H :    0.150458
  36 H :    0.174399
  37 H :    0.149086
  38 H :    0.148353
  39 H :    0.159259
  40 H :    0.165087
Sum of atomic charges:    0.0000000

LOEWDIN ATOMIC CHARGES
----------------------
   0 C :   -0.407708
   1 C :    0.020503
   2 O :   -0.656652
   3 P :    0.376611
   4 S :   -0.132641
   5 O :   -0.681242
   6 C :    0.018583
   7 C :   -0.400425
   8 S :    0.160822
   9 C :   -0.411171
  10 S :    0.202643
  11 P :    0.387930
  12 S :   -0.106306
  13 O :   -0.676742
  14 C :    0.013785
  15 C :   -0.398108
  16 O :   -0.681528
  17 C :    0.017930
  18 C :   -0.400497
  19 H :    0.160401
  20 H :    0.165189
  21 H :    0.159302
  22 H :    0.179668
  23 H :    0.180034
  24 H :    0.179787
  25 H :    0.184966
  26 H :    0.158665
  27 H :    0.161539
  28 H :    0.163327
  29 H :    0.183103
  30 H :    0.191806
  31 H :    0.186486
  32 H :    0.174410
  33 H :    0.158797
  34 H :    0.162155
  35 H :    0.162367
  36 H :    0.179989
  37 H :    0.179375
  38 H :    0.159854
  39 H :    0.160499
  40 H :    0.162492

  Mayer bond orders larger than 0.100000
B(  0-C ,  1-C ) :   0.9206 B(  0-C , 19-H ) :   0.9689 B(  0-C , 20-H ) :   0.9633
B(  0-C , 21-H ) :   0.9581 B(  1-C ,  2-O ) :   0.8130 B(  1-C , 22-H ) :   0.9678
B(  1-C , 23-H ) :   0.9578 B(  2-O ,  3-P ) :   1.0677 B(  3-P ,  4-S ) :   1.7414
B(  3-P ,  5-O ) :   1.1643 B(  3-P ,  8-S ) :   1.0650 B(  5-O ,  6-C ) :   0.7930
B(  6-C ,  7-C ) :   0.9162 B(  6-C , 24-H ) :   0.9669 B(  6-C , 25-H ) :   0.9591
B(  7-C , 26-H ) :   0.9621 B(  7-C , 27-H ) :   0.9722 B(  7-C , 28-H ) :   0.9616
B(  8-S ,  9-C ) :   0.9125 B(  9-C , 10-S ) :   0.9024 B(  9-C , 29-H ) :   0.9101
B(  9-C , 30-H ) :   0.9111 B( 10-S , 11-P ) :   1.0858 B( 11-P , 12-S ) :   1.7529
B( 11-P , 13-O ) :   1.0886 B( 11-P , 16-O ) :   1.1535 B( 13-O , 14-C ) :   0.7515
B( 14-C , 15-C ) :   0.9365 B( 14-C , 31-H ) :   0.9516 B( 14-C , 32-H ) :   0.9561
B( 15-C , 33-H ) :   0.9750 B( 15-C , 34-H ) :   0.9626 B( 15-C , 35-H ) :   0.9604
B( 16-O , 17-C ) :   0.8095 B( 17-C , 18-C ) :   0.9127 B( 17-C , 36-H ) :   0.9657
B( 17-C , 37-H ) :   0.9598 B( 18-C , 38-H ) :   0.9622 B( 18-C , 39-H ) :   0.9715
B( 18-C , 40-H ) :   0.9618

Dispersion correction           -0.022022248
FINAL SINGLE POINT ENERGY     -2932.456820134849

DIPOLE MOMENT
-------------

Method             : SCF
Type of density    : Electron Density
Multiplicity       :   1
Irrep              :   0
Energy             : -2932.4815823531439491 Eh
Relativity type    :
Basis              : AO
                                X                 Y                 Z
Electronic contribution:      2.354447319      -0.847683891       9.907192327
Nuclear contribution   :     -2.855347021       1.223802562     -10.692364263
                        -----------------------------------------
Total Dipole Moment    :     -0.500899702       0.376118671      -0.785171936
                        -----------------------------------------
Magnitude (a.u.)       :      1.004420596
Magnitude (Debye)      :      2.553034263

Rotational constants in cm-1:             0.012846             0.005296             0.004650
Rotational constants in MHz :           385.109728           158.773118           139.398272

                             ****ORCA TERMINATED NORMALLY****
TOTAL RUN TIME: 0 days 0 hours 1 minutes 20 seconds 671 msec
