                         Program Version 6.0.0  -   RELEASE  -
|  1> ! r2scan-3c def2/J RI DEFGRID2 scfconv6 printgap
|  2> %output
|  3>     printlevel normal
|  4> end
|  5> %cpcm
|  6>     smd true
|  7>     smdsolvent "water"
|  8> end
|  9> * xyz 0 1
| 10> C 4.0836110273 1.9433380181 -1.6023953238
| 11> C 4.4195434311 0.5407383144 -1.1384201218
| 12> O 3.2425059548 -0.2694648634 -0.9650696327
| 13> P 2.1820456674 0.0004465555 0.1846855229
| 14> S 2.938846426 0.5244670343 1.918866164
| 15> O 1.3334030103 -1.3368305593 0.1632992614
| 16> C 1.6188567204 -2.452689874 1.0264644614
| 17> C 2.9499312424 -3.0942423931 0.6978664922
| 18> S 0.788606871 1.3133711113 -0.688279627
| 19> C -0.0490186994 1.7895961979 0.8491036996
| 20> S -0.8973473252 0.4047828796 1.6706225223
| 21> P -2.1410772033 -0.2258530733 0.0876855257
| 22> S -1.5434364902 -1.44951524 -1.326202364
| 23> O -2.7565622136 1.1471792459 -0.4303229439
| 24> C -2.8737168153 1.5495131602 -1.8108997762
| 25> C -2.1549171056 2.8639908994 -2.0387811097
| 26> O -3.2324073633 -0.8521878785 1.0604736126
| 27> C -4.1971676447 -1.8202248051 0.6079110821
| 28> C -5.207971012 -1.2042193133 -0.33836117
| 29> H 3.4459930575 1.9067719826 -2.4822482474
| 30> H 3.5617007248 2.4825495731 -0.8129514809
| 31> H 5.001173599 2.4708545095 -1.8424441833
| 32> H 4.9612747311 0.5690107447 -0.18751104
| 33> H 5.0019889132 -0.0029649667 -1.883376474
| 34> H 1.5984917086 -2.0994626169 2.063212846
| 35> H 0.78398943 -3.1342265602 0.8526392675
| 36> H 3.0793720211 -3.9851735132 1.3042869878
| 37> H 2.9855740782 -3.3613485607 -0.3552722609
| 38> H 3.7587761628 -2.3967454778 0.9139337834
| 39> H -0.7689094147 2.5636106209 0.5955689577
| 40> H 0.6878694595 2.1516105233 1.5665388165
| 41> H -2.4634613931 0.7565691824 -2.4456577622
| 42> H -3.9445847782 1.6515790501 -2.0001510203
| 43> H -2.520793771 3.6151737723 -1.3443337646
| 44> H -1.0815115085 2.7414269857 -1.9065799504
| 45> H -2.347556846 3.194882122 -3.0541290733
| 46> H -3.6634073302 -2.6416589604 0.1184558098
| 47> H -4.6645771173 -2.1755216016 1.5272275797
| 48> H -5.9809393445 -1.9320191769 -0.5642854414
| 49> H -5.6590346684 -0.32581384 0.1160073127
| 50> H -4.7139253767 -0.9141521487 -1.2652428455
| 51> *
| 52>
| 53>                          ****END OF INPUT****

CARTESIAN COORDINATES (ANGSTROEM)
---------------------------------
  C      4.083611    1.943338   -1.602395
  C      4.419543    0.540738   -1.138420
  O      3.242506   -0.269465   -0.965070
  P      2.182046    0.000447    0.184686
  S      2.938846    0.524467    1.918866
  O      1.333403   -1.336831    0.163299
  C      1.618857   -2.452690    1.026464
  C      2.949931   -3.094242    0.697866
  S      0.788607    1.313371   -0.688280
  C     -0.049019    1.789596    0.849104
  S     -0.897347    0.404783    1.670623
  P     -2.141077   -0.225853    0.087686
  S     -1.543436   -1.449515   -1.326202
  O     -2.756562    1.147179   -0.430323
  C     -2.873717    1.549513   -1.810900
  C     -2.154917    2.863991   -2.038781
  O     -3.232407   -0.852188    1.060474
  C     -4.197168   -1.820225    0.607911
  C     -5.207971   -1.204219   -0.338361
  H      3.445993    1.906772   -2.482248
  H      3.561701    2.482550   -0.812951
  H      5.001174    2.470855   -1.842444
  H      4.961275    0.569011   -0.187511
  H      5.001989   -0.002965   -1.883376
  H      1.598492   -2.099463    2.063213
  H      0.783989   -3.134227    0.852639
  H      3.079372   -3.985174    1.304287
  H      2.985574   -3.361349   -0.355272
  H      3.758776   -2.396745    0.913934
  H     -0.768909    2.563611    0.595569
  H      0.687869    2.151611    1.566539
  H     -2.463461    0.756569   -2.445658
  H     -3.944585    1.651579   -2.000151
  H     -2.520794    3.615174   -1.344334
  H     -1.081512    2.741427   -1.906580
  H     -2.347557    3.194882   -3.054129
  H     -3.663407   -2.641659    0.118456
  H     -4.664577   -2.175522    1.527228
  H     -5.980939   -1.932019   -0.564285
  H     -5.659035   -0.325814    0.116007
  H     -4.713925   -0.914152   -1.265243

 Total Charge           Charge          ....    0
 Multiplicity           Mult            ....    1
 Number of Electrons    NEL             ....  202
 Basis Dimension        Dim             ....  539

ORBITAL ENERGIES
----------------

  NO   OCC          E(Eh)            E(eV)
   0   2.0000     -88.578304     -2410.3382
   1   2.0000     -88.576794     -2410.2971
   2   2.0000     -88.527180     -2408.9470
   3   2.0000     -88.521696     -2408.7978
   4   2.0000     -76.917364     -2093.0279
   5   2.0000     -76.916520     -2093.0049
   6   2.0000     -18.995898      -516.9047
   7   2.0000     -18.993836      -516.8486
   8   2.0000     -18.990988      -516.7711
   9   2.0000     -18.986439      -516.6473
  10   2.0000     -10.105643      -274.9885
  11   2.0000     -10.089958      -274.5617
  12   2.0000     -10.088414      -274.5197
  13   2.0000     -10.087225      -274.4874
  14   2.0000     -10.087017      -274.4817
  15   2.0000     -10.020130      -272.6616
  16   2.0000     -10.018785      -272.6250
  17   2.0000     -10.018330      -272.6126
  18   2.0000     -10.017733      -272.5964
  19   2.0000      -7.873011      -214.2355
  20   2.0000      -7.871095      -214.1834
  21   2.0000      -7.822246      -212.8541
  22   2.0000      -7.816776      -212.7053
  23   2.0000      -6.596047      -179.4876
  24   2.0000      -6.594731      -179.4518
  25   2.0000      -5.819867      -158.3666
  26   2.0000      -5.818279      -158.3234
  27   2.0000      -5.816893      -158.2857
  28   2.0000      -5.814785      -158.2283
  29   2.0000      -5.810036      -158.0991
  30   2.0000      -5.808080      -158.0459
  31   2.0000      -5.769738      -157.0026
  32   2.0000      -5.764423      -156.8579
  33   2.0000      -5.762580      -156.8078
  34   2.0000      -5.762298      -156.8001
  35   2.0000      -5.756942      -156.6544
  36   2.0000      -5.756836      -156.6515
  37   2.0000      -4.741360      -129.0190
  38   2.0000      -4.740910      -129.0067
  39   2.0000      -4.740266      -128.9892
  40   2.0000      -4.740033      -128.9828
  41   2.0000      -4.739667      -128.9729
  42   2.0000      -4.738452      -128.9398
  43   2.0000      -1.050717       -28.5915
  44   2.0000      -1.047457       -28.5028
  45   2.0000      -1.011504       -27.5244
  46   2.0000      -1.010804       -27.5054
  47   2.0000      -0.803175       -21.8555
  48   2.0000      -0.756373       -20.5819
  49   2.0000      -0.742213       -20.1967
  50   2.0000      -0.723979       -19.7005
  51   2.0000      -0.722651       -19.6643
  52   2.0000      -0.706352       -19.2208
  53   2.0000      -0.687466       -18.7069
  54   2.0000      -0.675034       -18.3686
  55   2.0000      -0.632701       -17.2167
  56   2.0000      -0.620968       -16.8974
  57   2.0000      -0.599365       -16.3096
  58   2.0000      -0.598483       -16.2855
  59   2.0000      -0.588938       -16.0258
  60   2.0000      -0.518721       -14.1151
  61   2.0000      -0.512603       -13.9486
  62   2.0000      -0.493750       -13.4356
  63   2.0000      -0.488153       -13.2833
  64   2.0000      -0.474835       -12.9209
  65   2.0000      -0.455121       -12.3845
  66   2.0000      -0.453535       -12.3413
  67   2.0000      -0.449747       -12.2382
  68   2.0000      -0.441175       -12.0050
  69   2.0000      -0.425428       -11.5765
  70   2.0000      -0.416888       -11.3441
  71   2.0000      -0.410931       -11.1820
  72   2.0000      -0.406323       -11.0566
  73   2.0000      -0.403741       -10.9864
  74   2.0000      -0.398221       -10.8361
  75   2.0000      -0.389193       -10.5905
  76   2.0000      -0.383473       -10.4348
  77   2.0000      -0.368273       -10.0212
  78   2.0000      -0.365568        -9.9476
  79   2.0000      -0.361500        -9.8369
  80   2.0000      -0.354007        -9.6330
  81   2.0000      -0.352218        -9.5843
  82   2.0000      -0.347903        -9.4669
  83   2.0000      -0.345287        -9.3957
  84   2.0000      -0.342933        -9.3317
  85   2.0000      -0.331643        -9.0245
  86   2.0000      -0.321170        -8.7395
  87   2.0000      -0.305314        -8.3080
  88   2.0000      -0.302969        -8.2442
  89   2.0000      -0.298334        -8.1181
  90   2.0000      -0.296445        -8.0667
  91   2.0000      -0.288902        -7.8614
  92   2.0000      -0.285774        -7.7763
  93   2.0000      -0.279813        -7.6141
  94   2.0000      -0.275187        -7.4882
  95   2.0000      -0.252596        -6.8735
  96   2.0000      -0.233485        -6.3534
  97   2.0000      -0.229512        -6.2453
  98   2.0000      -0.227035        -6.1779
  99   2.0000      -0.215479        -5.8635
 100   2.0000      -0.212553        -5.7839
 101   0.0000      -0.055427        -1.5082
 102   0.0000      -0.029730        -0.8090
 103   0.0000      -0.006948        -0.1891
 104   0.0000       0.002659         0.0724
 105   0.0000       0.015565         0.4235

MULLIKEN ATOMIC CHARGES
-----------------------
   0 C :   -0.490423
   1 C :   -0.151154
   2 O :   -0.327577
   3 P :    0.726637
   4 S :   -0.535309
   5 O :   -0.276125
   6 C :   -0.162964
   7 C :   -0.485043
   8 S :   -0.136033
   9 C :   -0.240365
  10 S :   -0.159147
  11 P :    0.749283
  12 S :   -0.520982
  13 O :   -0.322953
  14 C :   -0.123445
  15 C :   -0.489868
  16 O :   -0.334860
  17 C :   -0.151139
  18 C :   -0.481817
  19 H :    0.169922
  20 H :    0.173753
  21 H :    0.173136
  22 H :    0.178601
  23 H :    0.175677
  24 H :    0.175528
  25 H :    0.177503
  26 H :    0.171483
  27 H :    0.169474
  28 H :    0.168629
  29 H :    0.230906
  30 H :    0.232471
  31 H :    0.180210
  32 H :    0.174579
  33 H :    0.171811
  34 H :    0.155792
  35 H :    0.172533
  36 H :    0.176343
  37 H :    0.173741
  38 H :    0.172266
  39 H :    0.169683
  40 H :    0.169242
Sum of atomic charges:    0.0000000

LOEWDIN ATOMIC CHARGES
----------------------
   0 C :   -0.409950
   1 C :    0.026040
   2 O :   -0.671399
   3 P :    0.379744
   4 S :   -0.162458
   5 O :   -0.697749
   6 C :    0.019798
   7 C :   -0.403519
   8 S :    0.163868
   9 C :   -0.401062
  10 S :    0.181885
  11 P :    0.390819
  12 S :   -0.138191
  13 O :   -0.682214
  14 C :    0.020703
  15 C :   -0.396545
  16 O :   -0.699187
  17 C :    0.021763
  18 C :   -0.402344
  19 H :    0.163840
  20 H :    0.161706
  21 H :    0.168604
  22 H :    0.181700
  23 H :    0.191148
  24 H :    0.181105
  25 H :    0.190309
  26 H :    0.168087
  27 H :    0.163912
  28 H :    0.162471
  29 H :    0.197718
  30 H :    0.197848
  31 H :    0.185091
  32 H :    0.185903
  33 H :    0.164528
  34 H :    0.159947
  35 H :    0.170325
  36 H :    0.180777
  37 H :    0.189421
  38 H :    0.168620
  39 H :    0.164111
  40 H :    0.162827

  Mayer bond orders larger than 0.100000
B(  0-C ,  1-C ) :   0.9080 B(  0-C , 19-H ) :   0.9657 B(  0-C , 20-H ) :   0.9638
B(  0-C , 21-H ) :   0.9528 B(  1-C ,  2-O ) :   0.8007 B(  1-C , 22-H ) :   0.9658
B(  1-C , 23-H ) :   0.9482 B(  2-O ,  3-P ) :   1.0742 B(  3-P ,  4-S ) :   1.6960
B(  3-P ,  5-O ) :   1.1674 B(  3-P ,  8-S ) :   1.0860 B(  5-O ,  6-C ) :   0.7835
B(  6-C ,  7-C ) :   0.9082 B(  6-C , 24-H ) :   0.9621 B(  6-C , 25-H ) :   0.9530
B(  7-C , 26-H ) :   0.9562 B(  7-C , 27-H ) :   0.9708 B(  7-C , 28-H ) :   0.9602
B(  8-S ,  9-C ) :   0.9116 B(  9-C , 10-S ) :   0.8895 B(  9-C , 29-H ) :   0.9002
B(  9-C , 30-H ) :   0.9061 B( 10-S , 11-P ) :   1.0986 B( 11-P , 12-S ) :   1.7158
B( 11-P , 13-O ) :   1.1045 B( 11-P , 16-O ) :   1.1572 B( 13-O , 14-C ) :   0.7416
B( 14-C , 15-C ) :   0.9427 B( 14-C , 31-H ) :   0.9526 B( 14-C , 32-H ) :   0.9466
B( 15-C , 33-H ) :   0.9692 B( 15-C , 34-H ) :   0.9598 B( 15-C , 35-H ) :   0.9563
B( 16-O , 17-C ) :   0.7979 B( 17-C , 18-C ) :   0.9063 B( 17-C , 36-H ) :   0.9619
B( 17-C , 37-H ) :   0.9511 B( 18-C , 38-H ) :   0.9568 B( 18-C , 39-H ) :   0.9689
B( 18-C , 40-H ) :   0.9594

Dispersion correction           -0.022022248
FINAL SINGLE POINT ENERGY     -2932.465508159099

DIPOLE MOMENT
-------------

Method             : SCF
Type of density    : Electron Density
Multiplicity       :   1
Irrep              :   0
Energy             : -2932.4902703773936992 Eh
Relativity type    :
Basis              : AO
                                X                 Y                 Z
Electronic contribution:      2.134612395      -0.517209601       9.618248590
Nuclear contribution   :     -2.855347021       1.223802562     -10.692364263
                        -----------------------------------------
Total Dipole Moment    :     -0.720734626       0.706592961      -1.074115673
                        -----------------------------------------
Magnitude (a.u.)       :      1.473925538
Magnitude (Debye)      :      3.746420985

Rotational constants in cm-1:             0.012846             0.005296             0.004650
Rotational constants in MHz :           385.109728           158.773118           139.398272

                             ****ORCA TERMINATED NORMALLY****
TOTAL RUN TIME: 0 days 0 hours 1 minutes 50 seconds 232 msec
