                         Program Version 6.0.0  -   RELEASE  -
|  1> ! pbe def2-sv(p) def2/J RI DEFGRID1 loosescf d4 GCP(DFT/SV(P)) printgap
|  2> %output
|  3>     printlevel normal
|  4> end
|  5> * xyz 0 1
|  6> C 2.9383173501 -2.4838151402 2.2030067409
|  7> C 1.6170105258 -2.2827771161 1.4919536288
|  8> O 1.3879889282 -0.894537851 1.1721084884
|  9> P 2.2543608058 -0.1243402028 0.0899962625
| 10> S 2.9201333813 -1.2006649937 -1.4127709745
| 11> O 3.3722233943 0.5476349797 0.99551004
| 12> C 4.575369984 1.1124314356 0.4475431347
| 13> C 4.3008820873 2.3613073414 -0.3652892819
| 14> S 0.9242549661 1.4525869121 -0.3691561154
| 15> C 0.0195402954 0.5691488379 -1.6703963549
| 16> S -0.9537016567 -0.8174636662 -1.0452348735
| 17> P -2.6618754087 0.2767333951 -0.3560502815
| 18> S -2.8682540468 2.0770174554 -1.0959657137
| 19> O -2.6617473922 0.1376298727 1.2303158097
| 20> C -1.6537841985 0.6100501357 2.137771766
| 21> C -1.6256419068 2.121407476 2.2477270302
| 22> O -3.9042059411 -0.602948718 -0.7453802786
| 23> C -3.9836278391 -2.0496024091 -0.7704977238
| 24> C -3.5456807047 -2.6960267629 0.5255910099
| 25> H 3.0257524775 -3.5197537981 2.5151366824
| 26> H 3.7607385874 -2.2471723636 1.528935934
| 27> H 2.9993824675 -1.8351935588 3.0728878468
| 28> H 0.7707193403 -2.5493201966 2.1264078433
| 29> H 1.5812893191 -2.8609327397 0.5631189364
| 30> H 5.1865529342 1.3290052147 1.32465979
| 31> H 5.0646145336 0.3524115847 -0.1703065926
| 32> H 3.7172456496 3.0706403673 0.2162850206
| 33> H 5.242376442 2.8182395065 -0.652906232
| 34> H 3.7438406357 2.1060846804 -1.2660656178
| 35> H 0.7293293956 0.1550787249 -2.3858539848
| 36> H -0.6460846403 1.2980826364 -2.1349192433
| 37> H -1.9338546335 0.1533308953 3.089302628
| 38> H -0.6789489934 0.22539499 1.8229434095
| 39> H -0.9263880651 2.4084286572 3.0265457718
| 40> H -1.3072784536 2.5697236385 1.3084694827
| 41> H -2.6152633318 2.4982685241 2.4931878309
| 42> H -5.0392018587 -2.2341331177 -0.9759280777
| 43> H -3.3755904259 -2.4042433747 -1.606648683
| 44> H -3.7371857485 -3.7632137388 0.4689853917
| 45> H -2.4804071162 -2.5377246589 0.6833099278
| 46> H -4.0964730146 -2.2742065121 1.3620682978
| 47> *
| 48>
| 49>                          ****END OF INPUT****

CARTESIAN COORDINATES (ANGSTROEM)
---------------------------------
  C      2.938317   -2.483815    2.203007
  C      1.617011   -2.282777    1.491954
  O      1.387989   -0.894538    1.172108
  P      2.254361   -0.124340    0.089996
  S      2.920133   -1.200665   -1.412771
  O      3.372223    0.547635    0.995510
  C      4.575370    1.112431    0.447543
  C      4.300882    2.361307   -0.365289
  S      0.924255    1.452587   -0.369156
  C      0.019540    0.569149   -1.670396
  S     -0.953702   -0.817464   -1.045235
  P     -2.661875    0.276733   -0.356050
  S     -2.868254    2.077017   -1.095966
  O     -2.661747    0.137630    1.230316
  C     -1.653784    0.610050    2.137772
  C     -1.625642    2.121407    2.247727
  O     -3.904206   -0.602949   -0.745380
  C     -3.983628   -2.049602   -0.770498
  C     -3.545681   -2.696027    0.525591
  H      3.025752   -3.519754    2.515137
  H      3.760739   -2.247172    1.528936
  H      2.999382   -1.835194    3.072888
  H      0.770719   -2.549320    2.126408
  H      1.581289   -2.860933    0.563119
  H      5.186553    1.329005    1.324660
  H      5.064615    0.352412   -0.170307
  H      3.717246    3.070640    0.216285
  H      5.242376    2.818240   -0.652906
  H      3.743841    2.106085   -1.266066
  H      0.729329    0.155079   -2.385854
  H     -0.646085    1.298083   -2.134919
  H     -1.933855    0.153331    3.089303
  H     -0.678949    0.225395    1.822943
  H     -0.926388    2.408429    3.026546
  H     -1.307278    2.569724    1.308469
  H     -2.615263    2.498269    2.493188
  H     -5.039202   -2.234133   -0.975928
  H     -3.375590   -2.404243   -1.606649
  H     -3.737186   -3.763214    0.468985
  H     -2.480407   -2.537725    0.683310
  H     -4.096473   -2.274207    1.362068

 Total Charge           Charge          ....    0
 Multiplicity           Mult            ....    1
 Number of Electrons    NEL             ....  202
 Basis Dimension        Dim             ....  334

ORBITAL ENERGIES
----------------

  NO   OCC          E(Eh)            E(eV)
   0   2.0000     -88.047542     -2395.8954
   1   2.0000     -88.043574     -2395.7874
   2   2.0000     -87.996774     -2394.5140
   3   2.0000     -87.981842     -2394.1076
   4   2.0000     -76.433091     -2079.8501
   5   2.0000     -76.425191     -2079.6352
   6   2.0000     -18.800575      -511.5897
   7   2.0000     -18.797278      -511.4999
   8   2.0000     -18.790665      -511.3200
   9   2.0000     -18.787041      -511.2214
  10   2.0000      -9.959403      -271.0091
  11   2.0000      -9.958621      -270.9879
  12   2.0000      -9.957348      -270.9532
  13   2.0000      -9.954089      -270.8645
  14   2.0000      -9.946090      -270.6469
  15   2.0000      -9.891909      -269.1725
  16   2.0000      -9.889532      -269.1078
  17   2.0000      -9.888586      -269.0821
  18   2.0000      -9.872569      -268.6462
  19   2.0000      -7.692345      -209.3193
  20   2.0000      -7.688194      -209.2064
  21   2.0000      -7.641595      -207.9384
  22   2.0000      -7.627064      -207.5430
  23   2.0000      -6.430717      -174.9887
  24   2.0000      -6.422309      -174.7599
  25   2.0000      -5.720133      -155.6527
  26   2.0000      -5.717001      -155.5675
  27   2.0000      -5.716009      -155.5405
  28   2.0000      -5.712648      -155.4491
  29   2.0000      -5.709272      -155.3572
  30   2.0000      -5.705384      -155.2514
  31   2.0000      -5.670343      -154.2979
  32   2.0000      -5.662261      -154.0779
  33   2.0000      -5.661934      -154.0691
  34   2.0000      -5.656120      -153.9109
  35   2.0000      -5.647771      -153.6837
  36   2.0000      -5.646938      -153.6610
  37   2.0000      -4.653133      -126.6182
  38   2.0000      -4.652466      -126.6000
  39   2.0000      -4.651303      -126.5684
  40   2.0000      -4.645010      -126.3972
  41   2.0000      -4.644293      -126.3776
  42   2.0000      -4.642522      -126.3294
  43   2.0000      -0.994357       -27.0578
  44   2.0000      -0.984140       -26.7798
  45   2.0000      -0.953479       -25.9455
  46   2.0000      -0.941327       -25.6148
  47   2.0000      -0.766533       -20.8584
  48   2.0000      -0.724123       -19.7044
  49   2.0000      -0.713272       -19.4091
  50   2.0000      -0.692921       -18.8553
  51   2.0000      -0.688057       -18.7230
  52   2.0000      -0.677228       -18.4283
  53   2.0000      -0.653759       -17.7897
  54   2.0000      -0.640679       -17.4338
  55   2.0000      -0.607158       -16.5216
  56   2.0000      -0.592553       -16.1242
  57   2.0000      -0.578383       -15.7386
  58   2.0000      -0.573140       -15.5959
  59   2.0000      -0.565185       -15.3795
  60   2.0000      -0.501646       -13.6505
  61   2.0000      -0.491555       -13.3759
  62   2.0000      -0.479364       -13.0441
  63   2.0000      -0.471564       -12.8319
  64   2.0000      -0.462011       -12.5720
  65   2.0000      -0.447295       -12.1715
  66   2.0000      -0.445976       -12.1356
  67   2.0000      -0.439063       -11.9475
  68   2.0000      -0.429964       -11.6999
  69   2.0000      -0.419854       -11.4248
  70   2.0000      -0.403070       -10.9681
  71   2.0000      -0.400801       -10.9063
  72   2.0000      -0.398128       -10.8336
  73   2.0000      -0.396409       -10.7868
  74   2.0000      -0.391158       -10.6439
  75   2.0000      -0.378292       -10.2938
  76   2.0000      -0.366227        -9.9656
  77   2.0000      -0.359399        -9.7797
  78   2.0000      -0.356450        -9.6995
  79   2.0000      -0.353938        -9.6311
  80   2.0000      -0.352017        -9.5789
  81   2.0000      -0.349275        -9.5043
  82   2.0000      -0.342913        -9.3311
  83   2.0000      -0.339676        -9.2430
  84   2.0000      -0.330691        -8.9986
  85   2.0000      -0.323997        -8.8164
  86   2.0000      -0.314244        -8.5510
  87   2.0000      -0.301469        -8.2034
  88   2.0000      -0.293742        -7.9931
  89   2.0000      -0.287577        -7.8254
  90   2.0000      -0.285138        -7.7590
  91   2.0000      -0.279558        -7.6072
  92   2.0000      -0.274754        -7.4764
  93   2.0000      -0.270161        -7.3515
  94   2.0000      -0.257820        -7.0156
  95   2.0000      -0.238359        -6.4861
  96   2.0000      -0.219950        -5.9851
  97   2.0000      -0.217921        -5.9299
  98   2.0000      -0.210337        -5.7235
  99   2.0000      -0.202336        -5.5058
 100   2.0000      -0.194437        -5.2909
 101   0.0000      -0.048635        -1.3234
 102   0.0000      -0.029769        -0.8101
 103   0.0000      -0.006017        -0.1637
 104   0.0000      -0.000176        -0.0048
 105   0.0000       0.008006         0.2179

MULLIKEN ATOMIC CHARGES
-----------------------
   0 C :   -0.307751
   1 C :   -0.002149
   2 O :   -0.356428
   3 P :    0.612266
   4 S :   -0.332046
   5 O :   -0.369541
   6 C :   -0.006679
   7 C :   -0.317115
   8 S :   -0.074053
   9 C :   -0.352861
  10 S :   -0.120578
  11 P :    0.607566
  12 S :   -0.311284
  13 O :   -0.372149
  14 C :   -0.040654
  15 C :   -0.302504
  16 O :   -0.360353
  17 C :   -0.003524
  18 C :   -0.318523
  19 H :    0.113997
  20 H :    0.123588
  21 H :    0.117521
  22 H :    0.105206
  23 H :    0.113928
  24 H :    0.107746
  25 H :    0.112447
  26 H :    0.120901
  27 H :    0.115978
  28 H :    0.128752
  29 H :    0.193093
  30 H :    0.196245
  31 H :    0.097002
  32 H :    0.136353
  33 H :    0.102739
  34 H :    0.132988
  35 H :    0.113724
  36 H :    0.114240
  37 H :    0.115229
  38 H :    0.115331
  39 H :    0.123829
  40 H :    0.127522
Sum of atomic charges:   -0.0000000

LOEWDIN ATOMIC CHARGES
----------------------
   0 C :   -0.364834
   1 C :   -0.117224
   2 O :   -0.236127
   3 P :    0.573324
   4 S :   -0.320341
   5 O :   -0.241693
   6 C :   -0.118846
   7 C :   -0.369286
   8 S :    0.107784
   9 C :   -0.485916
  10 S :    0.067527
  11 P :    0.568340
  12 S :   -0.301575
  13 O :   -0.242390
  14 C :   -0.124717
  15 C :   -0.368112
  16 O :   -0.234847
  17 C :   -0.111367
  18 C :   -0.367876
  19 H :    0.131368
  20 H :    0.122819
  21 H :    0.126887
  22 H :    0.117588
  23 H :    0.111479
  24 H :    0.119972
  25 H :    0.111224
  26 H :    0.125806
  27 H :    0.132616
  28 H :    0.122132
  29 H :    0.130130
  30 H :    0.129412
  31 H :    0.115465
  32 H :    0.105806
  33 H :    0.127051
  34 H :    0.115657
  35 H :    0.125582
  36 H :    0.124676
  37 H :    0.112195
  38 H :    0.132061
  39 H :    0.117098
  40 H :    0.131150

  Mayer bond orders larger than 0.100000
B(  0-C ,  1-C ) :   1.1643 B(  0-C , 19-H ) :   0.9389 B(  0-C , 20-H ) :   0.9363
B(  0-C , 21-H ) :   0.9456 B(  1-C ,  2-O ) :   0.9004 B(  1-C , 22-H ) :   0.9332
B(  1-C , 23-H ) :   0.9173 B(  2-O ,  3-P ) :   1.1147 B(  3-P ,  4-S ) :   1.5904
B(  3-P ,  5-O ) :   1.1143 B(  3-P ,  8-S ) :   0.9630 B(  4-S ,  8-S ) :   0.1079
B(  5-O ,  6-C ) :   0.9054 B(  6-C ,  7-C ) :   1.1664 B(  6-C , 24-H ) :   0.9336
B(  6-C , 25-H ) :   0.9167 B(  7-C , 26-H ) :   0.9444 B(  7-C , 27-H ) :   0.9375
B(  7-C , 28-H ) :   0.9356 B(  8-S ,  9-C ) :   1.0001 B(  9-C , 10-S ) :   1.0173
B(  9-C , 29-H ) :   0.8767 B(  9-C , 30-H ) :   0.8618 B( 10-S , 11-P ) :   0.9248
B( 10-S , 12-S ) :   0.1110 B( 11-P , 12-S ) :   1.6438 B( 11-P , 13-O ) :   1.0927
B( 11-P , 16-O ) :   1.1472 B( 13-O , 14-C ) :   0.9090 B( 14-C , 15-C ) :   1.1678
B( 14-C , 31-H ) :   0.9344 B( 14-C , 32-H ) :   0.8986 B( 15-C , 33-H ) :   0.9379
B( 15-C , 34-H ) :   0.9283 B( 15-C , 35-H ) :   0.9451 B( 16-O , 17-C ) :   0.9049
B( 17-C , 18-C ) :   1.1673 B( 17-C , 36-H ) :   0.9347 B( 17-C , 37-H ) :   0.9244
B( 18-C , 38-H ) :   0.9346 B( 18-C , 39-H ) :   0.9388 B( 18-C , 40-H ) :   0.9417

Dispersion correction           -0.066384765
FINAL SINGLE POINT ENERGY     -2929.522029555988

DIPOLE MOMENT
-------------

Method             : SCF
Type of density    : Electron Density
Multiplicity       :   1
Irrep              :   0
Energy             : -2929.6415053663145045 Eh
Relativity type    :
Basis              : AO
                                X                 Y                 Z
Electronic contribution:     -7.909541075       5.912358223     -14.552455302
Nuclear contribution   :      8.766352654      -6.985440367      15.785608543
                        -----------------------------------------
Total Dipole Moment    :      0.856811579      -1.073082144       1.233153241
                        -----------------------------------------
Magnitude (a.u.)       :      1.845615964
Magnitude (Debye)      :      4.691182965

Rotational constants in cm-1:             0.012346             0.005090             0.004618
Rotational constants in MHz :           370.135253           152.584758           138.439210

                             ****ORCA TERMINATED NORMALLY****
TOTAL RUN TIME: 0 days 0 hours 0 minutes 21 seconds 634 msec
