                         Program Version 6.0.0  -   RELEASE  -
|  1> ! pbe def2-sv(p) def2/J RI DEFGRID1 loosescf d4 GCP(DFT/SV(P)) printgap
|  2> %output
|  3>     printlevel normal
|  4> end
|  5> * xyz 0 1
|  6> C -0.6678461257 1.2508647728 3.20375e-05
|  7> C 0.6680565911 1.2507907461 0.0002780242
|  8> C 1.4470558586 -3.90482e-05 -0.0001207701
|  9> O 2.6688847629 3.78679e-05 -0.0001419988
| 10> C 0.6679992566 -1.250921097 5.4325e-05
| 11> C -0.6681249376 -1.2509633382 0.0001776538
| 12> C -1.4470386802 3.72783e-05 -0.0001923269
| 13> O -2.6689764998 0.0001435422 -0.0001159678
| 14> H -1.2421366976 2.165893287 0.0004116637
| 15> H 1.2425214244 2.1656963748 3.1979e-06
| 16> H 1.2424579028 -2.1658054182 0.0002344198
| 17> H -1.2426014578 -2.1659149482 0.0007174004
| 18> *
| 19>
| 20>                          ****END OF INPUT****

CARTESIAN COORDINATES (ANGSTROEM)
---------------------------------
  C     -0.667846    1.250865    0.000032
  C      0.668057    1.250791    0.000278
  C      1.447056   -0.000039   -0.000121
  O      2.668885    0.000038   -0.000142
  C      0.667999   -1.250921    0.000054
  C     -0.668125   -1.250963    0.000178
  C     -1.447039    0.000037   -0.000192
  O     -2.668976    0.000144   -0.000116
  H     -1.242137    2.165893    0.000412
  H      1.242521    2.165696    0.000003
  H      1.242458   -2.165805    0.000234
  H     -1.242601   -2.165915    0.000717

 Total Charge           Charge          ....    0
 Multiplicity           Mult            ....    1
 Number of Electrons    NEL             ....   56
 Basis Dimension        Dim             ....  120

ORBITAL ENERGIES
----------------

  NO   OCC          E(Eh)            E(eV)
   0   2.0000     -18.769383      -510.7409
   1   2.0000     -18.769346      -510.7399
   2   2.0000      -9.997730      -272.0521
   3   2.0000      -9.997648      -272.0498
   4   2.0000      -9.931901      -270.2608
   5   2.0000      -9.931836      -270.2590
   6   2.0000      -9.931390      -270.2469
   7   2.0000      -9.931330      -270.2452
   8   2.0000      -0.962810       -26.1994
   9   2.0000      -0.960647       -26.1405
  10   2.0000      -0.785780       -21.3821
  11   2.0000      -0.717050       -19.5119
  12   2.0000      -0.640245       -17.4219
  13   2.0000      -0.580320       -15.7913
  14   2.0000      -0.549404       -14.9501
  15   2.0000      -0.467134       -12.7114
  16   2.0000      -0.453177       -12.3316
  17   2.0000      -0.430126       -11.7043
  18   2.0000      -0.417531       -11.3616
  19   2.0000      -0.408725       -11.1220
  20   2.0000      -0.387702       -10.5499
  21   2.0000      -0.376883       -10.2555
  22   2.0000      -0.370860       -10.0916
  23   2.0000      -0.354162        -9.6372
  24   2.0000      -0.283006        -7.7010
  25   2.0000      -0.279908        -7.6167
  26   2.0000      -0.230363        -6.2685
  27   2.0000      -0.223072        -6.0701
  28   0.0000      -0.162483        -4.4214
  29   0.0000      -0.065338        -1.7779
  30   0.0000      -0.028706        -0.7811
  31   0.0000       0.040966         1.1147
  32   0.0000       0.059016         1.6059

MULLIKEN ATOMIC CHARGES
-----------------------
   0 C :   -0.095240
   1 C :   -0.095336
   2 C :    0.170519
   3 O :   -0.139040
   4 C :   -0.095363
   5 C :   -0.095232
   6 C :    0.170494
   7 O :   -0.139115
   8 H :    0.079573
   9 H :    0.079562
  10 H :    0.079573
  11 H :    0.079606
Sum of atomic charges:   -0.0000000

LOEWDIN ATOMIC CHARGES
----------------------
   0 C :   -0.110123
   1 C :   -0.110156
   2 C :    0.031215
   3 O :   -0.093463
   4 C :   -0.110142
   5 C :   -0.110106
   6 C :    0.031285
   7 O :   -0.093515
   8 H :    0.141252
   9 H :    0.141251
  10 H :    0.141247
  11 H :    0.141256

  Mayer bond orders larger than 0.100000
B(  0-C ,  1-C ) :   1.6309 B(  0-C ,  6-C ) :   1.0122 B(  0-C ,  8-H ) :   0.9560
B(  1-C ,  2-C ) :   1.0122 B(  1-C ,  9-H ) :   0.9560 B(  2-C ,  3-O ) :   2.0357
B(  2-C ,  4-C ) :   1.0123 B(  4-C ,  5-C ) :   1.6308 B(  4-C , 10-H ) :   0.9560
B(  5-C ,  6-C ) :   1.0122 B(  5-C , 11-H ) :   0.9560 B(  6-C ,  7-O ) :   2.0356

Dispersion correction           -0.012051902
FINAL SINGLE POINT ENERGY      -380.691223833708

DIPOLE MOMENT
-------------

Method             : SCF
Type of density    : Electron Density
Multiplicity       :   1
Irrep              :   0
Energy             :  -380.7228120391612265 Eh
Relativity type    :
Basis              : AO
                                X                 Y                 Z
Electronic contribution:     -0.000270522      -0.000018589      -0.001087984
Nuclear contribution   :      0.000224902      -0.000119936       0.001278365
                        -----------------------------------------
Total Dipole Moment    :     -0.000045620      -0.000138525       0.000190381
                        -----------------------------------------
Magnitude (a.u.)       :      0.000239823
Magnitude (Debye)      :      0.000609582

Rotational constants in cm-1:             0.179168             0.055110             0.042146
Rotational constants in MHz :          5371.324483          1652.153478          1263.512553

                             ****ORCA TERMINATED NORMALLY****
TOTAL RUN TIME: 0 days 0 hours 0 minutes 8 seconds 641 msec
