                         Program Version 6.0.0  -   RELEASE  -
|  1> ! r2scan-3c def2/J RI DEFGRID2 scfconv6 printgap
|  2> %output
|  3>     printlevel normal
|  4> end
|  5> * xyz 0 1
|  6> C -0.738674201 -1.1914777207 -0.2310857295
|  7> C 0.7272479847 -1.1715226996 0.220252113
|  8> O 1.3861941511 0.0013885751 -0.2327425281
|  9> C 0.724732205 1.1729027869 0.2202723576
| 10> C -0.7412240911 1.1900649065 -0.2310807811
| 11> N -1.4567710278 -0.0014571057 0.2028218462
| 12> H -1.2400717806 -2.074848529 0.1644759036
| 13> H -0.7763999559 -1.2174179146 -1.3236204754
| 14> H 0.781575066 -1.215962612 1.3199071515
| 15> H 1.2864759791 -2.0060860439 -0.2030524546
| 16> H 0.7789856507 1.2175188354 1.3199275852
| 17> H 1.2821803462 2.0086336172 -0.2030351531
| 18> H -1.2445052017 2.0723853173 0.164461434
| 19> H -0.779017626 1.2158817988 -1.3236096302
| 20> H -1.5162955814 -0.0015073842 1.2183557088
| 21> *
| 22>
| 23>                          ****END OF INPUT****

CARTESIAN COORDINATES (ANGSTROEM)
---------------------------------
  C     -0.738674   -1.191478   -0.231086
  C      0.727248   -1.171523    0.220252
  O      1.386194    0.001389   -0.232743
  C      0.724732    1.172903    0.220272
  C     -0.741224    1.190065   -0.231081
  N     -1.456771   -0.001457    0.202822
  H     -1.240072   -2.074849    0.164476
  H     -0.776400   -1.217418   -1.323620
  H      0.781575   -1.215963    1.319907
  H      1.286476   -2.006086   -0.203052
  H      0.778986    1.217519    1.319928
  H      1.282180    2.008634   -0.203035
  H     -1.244505    2.072385    0.164461
  H     -0.779018    1.215882   -1.323610
  H     -1.516296   -0.001507    1.218356

 Total Charge           Charge          ....    0
 Multiplicity           Mult            ....    1
 Number of Electrons    NEL             ....   48
 Basis Dimension        Dim             ....  169

ORBITAL ENERGIES
----------------

  NO   OCC          E(Eh)            E(eV)
   0   2.0000     -18.951115      -515.6861
   1   2.0000     -14.147492      -384.9728
   2   2.0000     -10.073616      -274.1170
   3   2.0000     -10.073609      -274.1168
   4   2.0000     -10.053342      -273.5653
   5   2.0000     -10.053337      -273.5652
   6   2.0000      -1.000256       -27.2184
   7   2.0000      -0.874560       -23.7980
   8   2.0000      -0.733957       -19.9720
   9   2.0000      -0.641415       -17.4538
  10   2.0000      -0.617274       -16.7969
  11   2.0000      -0.553477       -15.0609
  12   2.0000      -0.468071       -12.7368
  13   2.0000      -0.442599       -12.0437
  14   2.0000      -0.436194       -11.8694
  15   2.0000      -0.424427       -11.5492
  16   2.0000      -0.416668       -11.3381
  17   2.0000      -0.359115        -9.7720
  18   2.0000      -0.342249        -9.3131
  19   2.0000      -0.328492        -8.9387
  20   2.0000      -0.321067        -8.7367
  21   2.0000      -0.291954        -7.9445
  22   2.0000      -0.240395        -6.5415
  23   2.0000      -0.182465        -4.9651
  24   0.0000       0.069188         1.8827
  25   0.0000       0.088089         2.3970
  26   0.0000       0.105935         2.8826
  27   0.0000       0.114127         3.1056
  28   0.0000       0.120299         3.2735

MULLIKEN ATOMIC CHARGES
-----------------------
   0 C :   -0.234313
   1 C :   -0.177938
   2 O :   -0.225611
   3 C :   -0.178044
   4 C :   -0.234207
   5 N :   -0.357981
   6 H :    0.148767
   7 H :    0.158994
   8 H :    0.136270
   9 H :    0.141843
  10 H :    0.136285
  11 H :    0.141838
  12 H :    0.148771
  13 H :    0.158987
  14 H :    0.236338
Sum of atomic charges:   -0.0000000

LOEWDIN ATOMIC CHARGES
----------------------
   0 C :   -0.055502
   1 C :    0.019030
   2 O :   -0.754418
   3 C :    0.019039
   4 C :   -0.055509
   5 N :   -0.817327
   6 H :    0.177601
   7 H :    0.181745
   8 H :    0.160898
   9 H :    0.179317
  10 H :    0.160897
  11 H :    0.179309
  12 H :    0.177609
  13 H :    0.181746
  14 H :    0.245567

  Mayer bond orders larger than 0.100000
B(  0-C ,  1-C ) :   0.8655 B(  0-C ,  5-N ) :   0.9568 B(  0-C ,  6-H ) :   0.9726
B(  0-C ,  7-H ) :   0.9853 B(  1-C ,  2-O ) :   0.9123 B(  1-C ,  8-H ) :   0.9766
B(  1-C ,  9-H ) :   0.9557 B(  2-O ,  3-C ) :   0.9123 B(  3-C ,  4-C ) :   0.8655
B(  3-C , 10-H ) :   0.9767 B(  3-C , 11-H ) :   0.9557 B(  4-C ,  5-N ) :   0.9568
B(  4-C , 12-H ) :   0.9725 B(  4-C , 13-H ) :   0.9853 B(  5-N , 14-H ) :   0.8985

Dispersion correction           -0.003733482
FINAL SINGLE POINT ENERGY      -287.715495544488

DIPOLE MOMENT
-------------

Method             : SCF
Type of density    : Electron Density
Multiplicity       :   1
Irrep              :   0
Energy             :  -287.7253414604462023 Eh
Relativity type    :
Basis              : AO
                                X                 Y                 Z
Electronic contribution:      1.212952764       0.001214849      -0.619047638
Nuclear contribution   :     -1.326261961      -0.001303564       1.061367664
                        -----------------------------------------
Total Dipole Moment    :     -0.113309197      -0.000088715       0.442320026
                        -----------------------------------------
Magnitude (a.u.)       :      0.456602658
Magnitude (Debye)      :      1.160591724

Rotational constants in cm-1:             0.164626             0.153179             0.089997
Rotational constants in MHz :          4935.350483          4592.190707          2698.040062

                             ****ORCA TERMINATED NORMALLY****
TOTAL RUN TIME: 0 days 0 hours 0 minutes 20 seconds 42 msec
