                         Program Version 6.0.0  -   RELEASE  -
|  1> ! r2scan-3c def2/J RI DEFGRID2 scfconv6 printgap
|  2> %output
|  3>     printlevel normal
|  4> end
|  5> %cpcm
|  6>     smd true
|  7>     smdsolvent "water"
|  8> end
|  9> * xyz 0 1
| 10> C -0.738674201 -1.1914777207 -0.2310857295
| 11> C 0.7272479847 -1.1715226996 0.220252113
| 12> O 1.3861941511 0.0013885751 -0.2327425281
| 13> C 0.724732205 1.1729027869 0.2202723576
| 14> C -0.7412240911 1.1900649065 -0.2310807811
| 15> N -1.4567710278 -0.0014571057 0.2028218462
| 16> H -1.2400717806 -2.074848529 0.1644759036
| 17> H -0.7763999559 -1.2174179146 -1.3236204754
| 18> H 0.781575066 -1.215962612 1.3199071515
| 19> H 1.2864759791 -2.0060860439 -0.2030524546
| 20> H 0.7789856507 1.2175188354 1.3199275852
| 21> H 1.2821803462 2.0086336172 -0.2030351531
| 22> H -1.2445052017 2.0723853173 0.164461434
| 23> H -0.779017626 1.2158817988 -1.3236096302
| 24> H -1.5162955814 -0.0015073842 1.2183557088
| 25> *
| 26>
| 27>                          ****END OF INPUT****

CARTESIAN COORDINATES (ANGSTROEM)
---------------------------------
  C     -0.738674   -1.191478   -0.231086
  C      0.727248   -1.171523    0.220252
  O      1.386194    0.001389   -0.232743
  C      0.724732    1.172903    0.220272
  C     -0.741224    1.190065   -0.231081
  N     -1.456771   -0.001457    0.202822
  H     -1.240072   -2.074849    0.164476
  H     -0.776400   -1.217418   -1.323620
  H      0.781575   -1.215963    1.319907
  H      1.286476   -2.006086   -0.203052
  H      0.778986    1.217519    1.319928
  H      1.282180    2.008634   -0.203035
  H     -1.244505    2.072385    0.164461
  H     -0.779018    1.215882   -1.323610
  H     -1.516296   -0.001507    1.218356

 Total Charge           Charge          ....    0
 Multiplicity           Mult            ....    1
 Number of Electrons    NEL             ....   48
 Basis Dimension        Dim             ....  169

ORBITAL ENERGIES
----------------

  NO   OCC          E(Eh)            E(eV)
   0   2.0000     -18.955868      -515.8154
   1   2.0000     -14.141226      -384.8023
   2   2.0000     -10.066356      -273.9195
   3   2.0000     -10.066349      -273.9193
   4   2.0000     -10.044356      -273.3208
   5   2.0000     -10.044352      -273.3207
   6   2.0000      -1.003062       -27.2947
   7   2.0000      -0.867724       -23.6120
   8   2.0000      -0.726923       -19.7806
   9   2.0000      -0.634007       -17.2522
  10   2.0000      -0.611856       -16.6494
  11   2.0000      -0.545265       -14.8374
  12   2.0000      -0.462743       -12.5919
  13   2.0000      -0.437103       -11.8942
  14   2.0000      -0.428636       -11.6638
  15   2.0000      -0.419987       -11.4284
  16   2.0000      -0.409562       -11.1447
  17   2.0000      -0.350732        -9.5439
  18   2.0000      -0.337832        -9.1929
  19   2.0000      -0.319385        -8.6909
  20   2.0000      -0.312720        -8.5095
  21   2.0000      -0.292495        -7.9592
  22   2.0000      -0.243077        -6.6145
  23   2.0000      -0.181363        -4.9351
  24   0.0000       0.074164         2.0181
  25   0.0000       0.101839         2.7712
  26   0.0000       0.114517         3.1162
  27   0.0000       0.124241         3.3808
  28   0.0000       0.134010         3.6466

MULLIKEN ATOMIC CHARGES
-----------------------
   0 C :   -0.245111
   1 C :   -0.181550
   2 O :   -0.304343
   3 C :   -0.181641
   4 C :   -0.245016
   5 N :   -0.425554
   6 H :    0.165212
   7 H :    0.170179
   8 H :    0.155671
   9 H :    0.157282
  10 H :    0.155686
  11 H :    0.157269
  12 H :    0.165226
  13 H :    0.170172
  14 H :    0.286518
Sum of atomic charges:   -0.0000000

LOEWDIN ATOMIC CHARGES
----------------------
   0 C :   -0.056461
   1 C :    0.021257
   2 O :   -0.798633
   3 C :    0.021265
   4 C :   -0.056464
   5 N :   -0.837343
   6 H :    0.185370
   7 H :    0.182946
   8 H :    0.171157
   9 H :    0.184871
  10 H :    0.171157
  11 H :    0.184860
  12 H :    0.185381
  13 H :    0.182948
  14 H :    0.257689

  Mayer bond orders larger than 0.100000
B(  0-C ,  1-C ) :   0.8743 B(  0-C ,  5-N ) :   0.9567 B(  0-C ,  6-H ) :   0.9606
B(  0-C ,  7-H ) :   0.9859 B(  1-C ,  2-O ) :   0.9045 B(  1-C ,  8-H ) :   0.9682
B(  1-C ,  9-H ) :   0.9534 B(  2-O ,  3-C ) :   0.9046 B(  3-C ,  4-C ) :   0.8743
B(  3-C , 10-H ) :   0.9682 B(  3-C , 11-H ) :   0.9534 B(  4-C ,  5-N ) :   0.9567
B(  4-C , 12-H ) :   0.9606 B(  4-C , 13-H ) :   0.9859 B(  5-N , 14-H ) :   0.8831

Dispersion correction           -0.003733482
FINAL SINGLE POINT ENERGY      -287.728555612215

DIPOLE MOMENT
-------------

Method             : SCF
Type of density    : Electron Density
Multiplicity       :   1
Irrep              :   0
Energy             :  -287.7384015281738243 Eh
Relativity type    :
Basis              : AO
                                X                 Y                 Z
Electronic contribution:      1.142333850       0.001159568      -0.355613806
Nuclear contribution   :     -1.326261961      -0.001303564       1.061367664
                        -----------------------------------------
Total Dipole Moment    :     -0.183928112      -0.000143996       0.705753858
                        -----------------------------------------
Magnitude (a.u.)       :      0.729327142
Magnitude (Debye)      :      1.853802270

Rotational constants in cm-1:             0.164626             0.153179             0.089997
Rotational constants in MHz :          4935.350483          4592.190707          2698.040062

                             ****ORCA TERMINATED NORMALLY****
TOTAL RUN TIME: 0 days 0 hours 0 minutes 23 seconds 543 msec
