                         Program Version 6.0.0  -   RELEASE  -
|  1> ! r2scan-3c def2/J RI DEFGRID2 scfconv6 printgap
|  2> %output
|  3>     printlevel normal
|  4> end
|  5> * xyz 0 1
|  6> C 3.4766628481 -2.3267497446 1.9298091535
|  7> C 3.5459909516 -0.8230981857 1.7571650831
|  8> O 3.6048136051 -0.4674684582 0.3511466812
|  9> P 2.3475655043 0.0050740067 -0.4857171823
| 10> S 2.8461317125 0.5334022174 -2.2982853266
| 11> O 1.6253147272 1.1341700477 0.404500214
| 12> C 1.7942820054 2.5349196303 0.132034872
| 13> C 3.1600857999 3.0186014078 0.574337001
| 14> S 0.9347976383 -1.5490211572 -0.2867191852
| 15> C -0.1462576598 -1.0485585847 -1.650133549
| 16> S -0.8161757325 0.6379583235 -1.4968354554
| 17> P -2.3747046696 0.2590738955 -0.1183257044
| 18> S -3.3050838052 1.8444759558 0.5549018061
| 19> O -1.751910468 -0.6816532496 1.0025982611
| 20> C -1.0949828449 -0.159832263 2.1725245048
| 21> C -0.8099818772 -1.3298914452 3.091605553
| 22> O -3.2208624589 -0.7767137767 -0.9671988086
| 23> C -4.6124537244 -1.0314461225 -0.6779163132
| 24> C -4.7931627136 -1.7203476204 0.6578444484
| 25> H 3.5154998694 -2.5632188705 2.988446938
| 26> H 2.5533279233 -2.7183859774 1.5085556442
| 27> H 4.316459269 -2.7968490467 1.4259540506
| 28> H 4.4704179972 -0.4204839527 2.1747589202
| 29> H 2.6861241193 -0.3284715572 2.2149188602
| 30> H 1.6494600697 2.7009582622 -0.9404882282
| 31> H 0.9873719121 3.0194066958 0.685254797
| 32> H 3.2439252339 4.0834108708 0.3817559788
| 33> H 3.3044459481 2.831402771 1.6352098712
| 34> H 3.9325415236 2.494801266 0.0113461104
| 35> H -0.9628658881 -1.7642035203 -1.6889837186
| 36> H 0.4298273419 -1.0466187217 -2.5747577104
| 37> H -0.1709974115 0.3379376259 1.8643488474
| 38> H -1.7534729038 0.5808009123 2.6378245449
| 39> H -0.2969151034 -0.9714104529 3.977713143
| 40> H -1.7390930837 -1.8096527017 3.3843470972
| 41> H -0.1852832997 -2.0545094762 2.5764194253
| 42> H -5.1485836465 -0.0775621764 -0.6970913921
| 43> H -4.939232025 -1.6582351558 -1.5086444516
| 44> H -5.837804251 -1.9860102739 0.7864378314
| 45> H -4.1816019964 -2.6174558974 0.7051907957
| 46> H -4.4982759975 -1.0469374134 1.4614448353
| 47> *
| 48>
| 49>                          ****END OF INPUT****

CARTESIAN COORDINATES (ANGSTROEM)
---------------------------------
  C      3.476663   -2.326750    1.929809
  C      3.545991   -0.823098    1.757165
  O      3.604814   -0.467468    0.351147
  P      2.347566    0.005074   -0.485717
  S      2.846132    0.533402   -2.298285
  O      1.625315    1.134170    0.404500
  C      1.794282    2.534920    0.132035
  C      3.160086    3.018601    0.574337
  S      0.934798   -1.549021   -0.286719
  C     -0.146258   -1.048559   -1.650134
  S     -0.816176    0.637958   -1.496835
  P     -2.374705    0.259074   -0.118326
  S     -3.305084    1.844476    0.554902
  O     -1.751910   -0.681653    1.002598
  C     -1.094983   -0.159832    2.172525
  C     -0.809982   -1.329891    3.091606
  O     -3.220862   -0.776714   -0.967199
  C     -4.612454   -1.031446   -0.677916
  C     -4.793163   -1.720348    0.657844
  H      3.515500   -2.563219    2.988447
  H      2.553328   -2.718386    1.508556
  H      4.316459   -2.796849    1.425954
  H      4.470418   -0.420484    2.174759
  H      2.686124   -0.328472    2.214919
  H      1.649460    2.700958   -0.940488
  H      0.987372    3.019407    0.685255
  H      3.243925    4.083411    0.381756
  H      3.304446    2.831403    1.635210
  H      3.932542    2.494801    0.011346
  H     -0.962866   -1.764204   -1.688984
  H      0.429827   -1.046619   -2.574758
  H     -0.170997    0.337938    1.864349
  H     -1.753473    0.580801    2.637825
  H     -0.296915   -0.971410    3.977713
  H     -1.739093   -1.809653    3.384347
  H     -0.185283   -2.054509    2.576419
  H     -5.148584   -0.077562   -0.697091
  H     -4.939232   -1.658235   -1.508644
  H     -5.837804   -1.986010    0.786438
  H     -4.181602   -2.617456    0.705191
  H     -4.498276   -1.046937    1.461445

 Total Charge           Charge          ....    0
 Multiplicity           Mult            ....    1
 Number of Electrons    NEL             ....  202
 Basis Dimension        Dim             ....  539

ORBITAL ENERGIES
----------------

  NO   OCC          E(Eh)            E(eV)
   0   2.0000     -88.578916     -2410.3549
   1   2.0000     -88.574209     -2410.2268
   2   2.0000     -88.523933     -2408.8587
   3   2.0000     -88.521644     -2408.7964
   4   2.0000     -76.918298     -2093.0533
   5   2.0000     -76.914295     -2092.9444
   6   2.0000     -18.998904      -516.9865
   7   2.0000     -18.992524      -516.8129
   8   2.0000     -18.992010      -516.7989
   9   2.0000     -18.990314      -516.7527
  10   2.0000     -10.112180      -275.1664
  11   2.0000     -10.111343      -275.1436
  12   2.0000     -10.100732      -274.8549
  13   2.0000     -10.095916      -274.7239
  14   2.0000     -10.094660      -274.6897
  15   2.0000     -10.040904      -273.2269
  16   2.0000     -10.034769      -273.0600
  17   2.0000     -10.031744      -272.9776
  18   2.0000     -10.029731      -272.9229
  19   2.0000      -7.873753      -214.2557
  20   2.0000      -7.868198      -214.1046
  21   2.0000      -7.818599      -212.7549
  22   2.0000      -7.816258      -212.6912
  23   2.0000      -6.596555      -179.5014
  24   2.0000      -6.592715      -179.3969
  25   2.0000      -5.820583      -158.3861
  26   2.0000      -5.817558      -158.3038
  27   2.0000      -5.815561      -158.2495
  28   2.0000      -5.811766      -158.1462
  29   2.0000      -5.810852      -158.1213
  30   2.0000      -5.805162      -157.9665
  31   2.0000      -5.766416      -156.9121
  32   2.0000      -5.763877      -156.8431
  33   2.0000      -5.758864      -156.7067
  34   2.0000      -5.758460      -156.6957
  35   2.0000      -5.756622      -156.6457
  36   2.0000      -5.756229      -156.6350
  37   2.0000      -4.742442      -129.0484
  38   2.0000      -4.741179      -129.0140
  39   2.0000      -4.740255      -128.9889
  40   2.0000      -4.738035      -128.9285
  41   2.0000      -4.737823      -128.9227
  42   2.0000      -4.736462      -128.8857
  43   2.0000      -1.051636       -28.6165
  44   2.0000      -1.051178       -28.6040
  45   2.0000      -1.012352       -27.5475
  46   2.0000      -1.011864       -27.5342
  47   2.0000      -0.804013       -21.8783
  48   2.0000      -0.763782       -20.7836
  49   2.0000      -0.754958       -20.5434
  50   2.0000      -0.736563       -20.0429
  51   2.0000      -0.735167       -20.0049
  52   2.0000      -0.712159       -19.3788
  53   2.0000      -0.691273       -18.8105
  54   2.0000      -0.671211       -18.2646
  55   2.0000      -0.631296       -17.1784
  56   2.0000      -0.623799       -16.9744
  57   2.0000      -0.616771       -16.7832
  58   2.0000      -0.601108       -16.3570
  59   2.0000      -0.596568       -16.2334
  60   2.0000      -0.532530       -14.4909
  61   2.0000      -0.526866       -14.3368
  62   2.0000      -0.501335       -13.6420
  63   2.0000      -0.497504       -13.5378
  64   2.0000      -0.480493       -13.0749
  65   2.0000      -0.472480       -12.8568
  66   2.0000      -0.458095       -12.4654
  67   2.0000      -0.455059       -12.3828
  68   2.0000      -0.445172       -12.1137
  69   2.0000      -0.435229       -11.8432
  70   2.0000      -0.430264       -11.7081
  71   2.0000      -0.418931       -11.3997
  72   2.0000      -0.417913       -11.3720
  73   2.0000      -0.398281       -10.8378
  74   2.0000      -0.395414       -10.7598
  75   2.0000      -0.394188       -10.7264
  76   2.0000      -0.381985       -10.3943
  77   2.0000      -0.381205       -10.3731
  78   2.0000      -0.378664       -10.3040
  79   2.0000      -0.375530       -10.2187
  80   2.0000      -0.368581       -10.0296
  81   2.0000      -0.363032        -9.8786
  82   2.0000      -0.362561        -9.8658
  83   2.0000      -0.358545        -9.7565
  84   2.0000      -0.349372        -9.5069
  85   2.0000      -0.334105        -9.0915
  86   2.0000      -0.331705        -9.0262
  87   2.0000      -0.321963        -8.7610
  88   2.0000      -0.315345        -8.5810
  89   2.0000      -0.305447        -8.3116
  90   2.0000      -0.297897        -8.1062
  91   2.0000      -0.293257        -7.9799
  92   2.0000      -0.291518        -7.9326
  93   2.0000      -0.285562        -7.7705
  94   2.0000      -0.272753        -7.4220
  95   2.0000      -0.244690        -6.6584
  96   2.0000      -0.231306        -6.2941
  97   2.0000      -0.224131        -6.0989
  98   2.0000      -0.221560        -6.0290
  99   2.0000      -0.217819        -5.9272
 100   2.0000      -0.216270        -5.8850
 101   0.0000      -0.046466        -1.2644
 102   0.0000      -0.018737        -0.5099
 103   0.0000      -0.011738        -0.3194
 104   0.0000       0.000126         0.0034
 105   0.0000       0.005261         0.1432

MULLIKEN ATOMIC CHARGES
-----------------------
   0 C :   -0.423198
   1 C :   -0.164174
   2 O :   -0.286103
   3 P :    0.650992
   4 S :   -0.435368
   5 O :   -0.274750
   6 C :   -0.159009
   7 C :   -0.444657
   8 S :   -0.131694
   9 C :   -0.261103
  10 S :   -0.118563
  11 P :    0.661451
  12 S :   -0.469350
  13 O :   -0.258014
  14 C :   -0.130435
  15 C :   -0.473709
  16 O :   -0.300450
  17 C :   -0.151999
  18 C :   -0.438538
  19 H :    0.149437
  20 H :    0.154805
  21 H :    0.163031
  22 H :    0.157196
  23 H :    0.162563
  24 H :    0.179744
  25 H :    0.160340
  26 H :    0.150058
  27 H :    0.145472
  28 H :    0.175427
  29 H :    0.201229
  30 H :    0.216141
  31 H :    0.170789
  32 H :    0.167234
  33 H :    0.148026
  34 H :    0.151805
  35 H :    0.161491
  36 H :    0.173351
  37 H :    0.149372
  38 H :    0.148231
  39 H :    0.154056
  40 H :    0.168871
Sum of atomic charges:   -0.0000000

LOEWDIN ATOMIC CHARGES
----------------------
   0 C :   -0.396676
   1 C :    0.022048
   2 O :   -0.653323
   3 P :    0.373914
   4 S :   -0.090191
   5 O :   -0.724637
   6 C :    0.009000
   7 C :   -0.398698
   8 S :    0.167013
   9 C :   -0.407008
  10 S :    0.199398
  11 P :    0.367155
  12 S :   -0.115057
  13 O :   -0.687031
  14 C :    0.009004
  15 C :   -0.391596
  16 O :   -0.678471
  17 C :    0.024474
  18 C :   -0.400475
  19 H :    0.160405
  20 H :    0.162364
  21 H :    0.164442
  22 H :    0.182095
  23 H :    0.176579
  24 H :    0.183577
  25 H :    0.182033
  26 H :    0.161237
  27 H :    0.154904
  28 H :    0.166757
  29 H :    0.190901
  30 H :    0.193589
  31 H :    0.187501
  32 H :    0.179469
  33 H :    0.158752
  34 H :    0.159455
  35 H :    0.160558
  36 H :    0.180817
  37 H :    0.179971
  38 H :    0.159877
  39 H :    0.160399
  40 H :    0.165473

  Mayer bond orders larger than 0.100000
B(  0-C ,  1-C ) :   0.9581 B(  0-C , 19-H ) :   0.9660 B(  0-C , 20-H ) :   0.9535
B(  0-C , 21-H ) :   0.9704 B(  1-C ,  2-O ) :   0.7484 B(  1-C , 22-H ) :   0.9595
B(  1-C , 23-H ) :   0.9684 B(  2-O ,  3-P ) :   1.1218 B(  3-P ,  4-S ) :   1.8476
B(  3-P ,  5-O ) :   1.0182 B(  3-P ,  8-S ) :   1.0560 B(  5-O ,  6-C ) :   0.7914
B(  6-C ,  7-C ) :   0.9168 B(  6-C , 24-H ) :   0.9591 B(  6-C , 25-H ) :   0.9616
B(  7-C , 26-H ) :   0.9622 B(  7-C , 27-H ) :   0.9732 B(  7-C , 28-H ) :   0.9611
B(  8-S ,  9-C ) :   0.9099 B(  9-C , 10-S ) :   0.9013 B(  9-C , 29-H ) :   0.9195
B(  9-C , 30-H ) :   0.9156 B( 10-S , 11-P ) :   1.0829 B( 11-P , 12-S ) :   1.7937
B( 11-P , 13-O ) :   1.0644 B( 11-P , 16-O ) :   1.1485 B( 13-O , 14-C ) :   0.7504
B( 14-C , 15-C ) :   0.9189 B( 14-C , 31-H ) :   0.9398 B( 14-C , 32-H ) :   0.9379
B( 15-C , 33-H ) :   0.9701 B( 15-C , 34-H ) :   0.9705 B( 15-C , 35-H ) :   0.9755
B( 16-O , 17-C ) :   0.8069 B( 17-C , 18-C ) :   0.9274 B( 17-C , 36-H ) :   0.9661
B( 17-C , 37-H ) :   0.9616 B( 18-C , 38-H ) :   0.9607 B( 18-C , 39-H ) :   0.9708
B( 18-C , 40-H ) :   0.9592

Dispersion correction           -0.021987352
FINAL SINGLE POINT ENERGY     -2932.461852867005

DIPOLE MOMENT
-------------

Method             : SCF
Type of density    : Electron Density
Multiplicity       :   1
Irrep              :   0
Energy             : -2932.4864630466217932 Eh
Relativity type    :
Basis              : AO
                                X                 Y                 Z
Electronic contribution:     -1.311713038       6.555737700     -20.592822894
Nuclear contribution   :      1.328156854      -7.618531368      22.240823821
                        -----------------------------------------
Total Dipole Moment    :      0.016443816      -1.062793667       1.648000926
                        -----------------------------------------
Magnitude (a.u.)       :      1.961047636
Magnitude (Debye)      :      4.984586960

Rotational constants in cm-1:             0.012293             0.005129             0.004777
Rotational constants in MHz :           368.524256           153.758535           143.196289

                             ****ORCA TERMINATED NORMALLY****
TOTAL RUN TIME: 0 days 0 hours 1 minutes 22 seconds 295 msec
