                         Program Version 6.0.0  -   RELEASE  -
|  1> ! r2scan-3c def2/J RI DEFGRID2 scfconv6 printgap
|  2> %output
|  3>     printlevel normal
|  4> end
|  5> %cpcm
|  6>     smd true
|  7>     smdsolvent "water"
|  8> end
|  9> * xyz 0 1
| 10> C 3.4766628481 -2.3267497446 1.9298091535
| 11> C 3.5459909516 -0.8230981857 1.7571650831
| 12> O 3.6048136051 -0.4674684582 0.3511466812
| 13> P 2.3475655043 0.0050740067 -0.4857171823
| 14> S 2.8461317125 0.5334022174 -2.2982853266
| 15> O 1.6253147272 1.1341700477 0.404500214
| 16> C 1.7942820054 2.5349196303 0.132034872
| 17> C 3.1600857999 3.0186014078 0.574337001
| 18> S 0.9347976383 -1.5490211572 -0.2867191852
| 19> C -0.1462576598 -1.0485585847 -1.650133549
| 20> S -0.8161757325 0.6379583235 -1.4968354554
| 21> P -2.3747046696 0.2590738955 -0.1183257044
| 22> S -3.3050838052 1.8444759558 0.5549018061
| 23> O -1.751910468 -0.6816532496 1.0025982611
| 24> C -1.0949828449 -0.159832263 2.1725245048
| 25> C -0.8099818772 -1.3298914452 3.091605553
| 26> O -3.2208624589 -0.7767137767 -0.9671988086
| 27> C -4.6124537244 -1.0314461225 -0.6779163132
| 28> C -4.7931627136 -1.7203476204 0.6578444484
| 29> H 3.5154998694 -2.5632188705 2.988446938
| 30> H 2.5533279233 -2.7183859774 1.5085556442
| 31> H 4.316459269 -2.7968490467 1.4259540506
| 32> H 4.4704179972 -0.4204839527 2.1747589202
| 33> H 2.6861241193 -0.3284715572 2.2149188602
| 34> H 1.6494600697 2.7009582622 -0.9404882282
| 35> H 0.9873719121 3.0194066958 0.685254797
| 36> H 3.2439252339 4.0834108708 0.3817559788
| 37> H 3.3044459481 2.831402771 1.6352098712
| 38> H 3.9325415236 2.494801266 0.0113461104
| 39> H -0.9628658881 -1.7642035203 -1.6889837186
| 40> H 0.4298273419 -1.0466187217 -2.5747577104
| 41> H -0.1709974115 0.3379376259 1.8643488474
| 42> H -1.7534729038 0.5808009123 2.6378245449
| 43> H -0.2969151034 -0.9714104529 3.977713143
| 44> H -1.7390930837 -1.8096527017 3.3843470972
| 45> H -0.1852832997 -2.0545094762 2.5764194253
| 46> H -5.1485836465 -0.0775621764 -0.6970913921
| 47> H -4.939232025 -1.6582351558 -1.5086444516
| 48> H -5.837804251 -1.9860102739 0.7864378314
| 49> H -4.1816019964 -2.6174558974 0.7051907957
| 50> H -4.4982759975 -1.0469374134 1.4614448353
| 51> *
| 52>
| 53>                          ****END OF INPUT****

CARTESIAN COORDINATES (ANGSTROEM)
---------------------------------
  C      3.476663   -2.326750    1.929809
  C      3.545991   -0.823098    1.757165
  O      3.604814   -0.467468    0.351147
  P      2.347566    0.005074   -0.485717
  S      2.846132    0.533402   -2.298285
  O      1.625315    1.134170    0.404500
  C      1.794282    2.534920    0.132035
  C      3.160086    3.018601    0.574337
  S      0.934798   -1.549021   -0.286719
  C     -0.146258   -1.048559   -1.650134
  S     -0.816176    0.637958   -1.496835
  P     -2.374705    0.259074   -0.118326
  S     -3.305084    1.844476    0.554902
  O     -1.751910   -0.681653    1.002598
  C     -1.094983   -0.159832    2.172525
  C     -0.809982   -1.329891    3.091606
  O     -3.220862   -0.776714   -0.967199
  C     -4.612454   -1.031446   -0.677916
  C     -4.793163   -1.720348    0.657844
  H      3.515500   -2.563219    2.988447
  H      2.553328   -2.718386    1.508556
  H      4.316459   -2.796849    1.425954
  H      4.470418   -0.420484    2.174759
  H      2.686124   -0.328472    2.214919
  H      1.649460    2.700958   -0.940488
  H      0.987372    3.019407    0.685255
  H      3.243925    4.083411    0.381756
  H      3.304446    2.831403    1.635210
  H      3.932542    2.494801    0.011346
  H     -0.962866   -1.764204   -1.688984
  H      0.429827   -1.046619   -2.574758
  H     -0.170997    0.337938    1.864349
  H     -1.753473    0.580801    2.637825
  H     -0.296915   -0.971410    3.977713
  H     -1.739093   -1.809653    3.384347
  H     -0.185283   -2.054509    2.576419
  H     -5.148584   -0.077562   -0.697091
  H     -4.939232   -1.658235   -1.508644
  H     -5.837804   -1.986010    0.786438
  H     -4.181602   -2.617456    0.705191
  H     -4.498276   -1.046937    1.461445

 Total Charge           Charge          ....    0
 Multiplicity           Mult            ....    1
 Number of Electrons    NEL             ....  202
 Basis Dimension        Dim             ....  539

ORBITAL ENERGIES
----------------

  NO   OCC          E(Eh)            E(eV)
   0   2.0000     -88.578788     -2410.3514
   1   2.0000     -88.578056     -2410.3314
   2   2.0000     -88.531176     -2409.0558
   3   2.0000     -88.530078     -2409.0259
   4   2.0000     -76.920583     -2093.1155
   5   2.0000     -76.919163     -2093.0768
   6   2.0000     -18.996881      -516.9314
   7   2.0000     -18.993398      -516.8366
   8   2.0000     -18.992862      -516.8220
   9   2.0000     -18.988184      -516.6947
  10   2.0000     -10.107534      -275.0400
  11   2.0000     -10.093859      -274.6679
  12   2.0000     -10.090043      -274.5640
  13   2.0000     -10.086667      -274.4722
  14   2.0000     -10.086343      -274.4633
  15   2.0000     -10.021404      -272.6963
  16   2.0000     -10.018845      -272.6266
  17   2.0000     -10.018653      -272.6214
  18   2.0000     -10.017785      -272.5978
  19   2.0000      -7.873498      -214.2488
  20   2.0000      -7.872196      -214.2133
  21   2.0000      -7.826251      -212.9631
  22   2.0000      -7.825055      -212.9306
  23   2.0000      -6.598872      -179.5644
  24   2.0000      -6.597619      -179.5304
  25   2.0000      -5.820336      -158.3794
  26   2.0000      -5.819479      -158.3561
  27   2.0000      -5.817302      -158.2968
  28   2.0000      -5.815700      -158.2532
  29   2.0000      -5.810609      -158.1147
  30   2.0000      -5.809291      -158.0788
  31   2.0000      -5.773933      -157.1167
  32   2.0000      -5.772573      -157.0797
  33   2.0000      -5.766470      -156.9136
  34   2.0000      -5.766214      -156.9067
  35   2.0000      -5.765399      -156.8845
  36   2.0000      -5.765079      -156.8758
  37   2.0000      -4.744704      -129.1100
  38   2.0000      -4.743441      -129.0756
  39   2.0000      -4.742889      -129.0606
  40   2.0000      -4.742733      -129.0563
  41   2.0000      -4.742689      -129.0551
  42   2.0000      -4.741495      -129.0226
  43   2.0000      -1.052001       -28.6264
  44   2.0000      -1.048880       -28.5415
  45   2.0000      -1.012100       -27.5406
  46   2.0000      -1.009052       -27.4577
  47   2.0000      -0.803305       -21.8590
  48   2.0000      -0.758132       -20.6298
  49   2.0000      -0.744815       -20.2674
  50   2.0000      -0.725798       -19.7500
  51   2.0000      -0.724211       -19.7068
  52   2.0000      -0.708768       -19.2865
  53   2.0000      -0.692911       -18.8551
  54   2.0000      -0.675913       -18.3925
  55   2.0000      -0.627275       -17.0690
  56   2.0000      -0.618097       -16.8193
  57   2.0000      -0.604652       -16.4534
  58   2.0000      -0.593214       -16.1422
  59   2.0000      -0.590698       -16.0737
  60   2.0000      -0.527347       -14.3498
  61   2.0000      -0.519424       -14.1342
  62   2.0000      -0.495508       -13.4835
  63   2.0000      -0.491711       -13.3801
  64   2.0000      -0.476964       -12.9789
  65   2.0000      -0.463489       -12.6122
  66   2.0000      -0.449109       -12.2209
  67   2.0000      -0.447104       -12.1663
  68   2.0000      -0.438446       -11.9307
  69   2.0000      -0.434575       -11.8254
  70   2.0000      -0.422541       -11.4979
  71   2.0000      -0.412044       -11.2123
  72   2.0000      -0.409906       -11.1541
  73   2.0000      -0.394431       -10.7330
  74   2.0000      -0.390654       -10.6302
  75   2.0000      -0.386384       -10.5141
  76   2.0000      -0.377971       -10.2851
  77   2.0000      -0.373738       -10.1699
  78   2.0000      -0.364602        -9.9213
  79   2.0000      -0.360823        -9.8185
  80   2.0000      -0.357856        -9.7378
  81   2.0000      -0.352936        -9.6039
  82   2.0000      -0.351773        -9.5722
  83   2.0000      -0.349602        -9.5132
  84   2.0000      -0.345360        -9.3977
  85   2.0000      -0.327942        -8.9237
  86   2.0000      -0.323019        -8.7898
  87   2.0000      -0.311899        -8.4872
  88   2.0000      -0.309920        -8.4334
  89   2.0000      -0.301893        -8.2149
  90   2.0000      -0.293898        -7.9974
  91   2.0000      -0.289435        -7.8759
  92   2.0000      -0.287480        -7.8227
  93   2.0000      -0.281540        -7.6611
  94   2.0000      -0.271427        -7.3859
  95   2.0000      -0.246846        -6.7170
  96   2.0000      -0.237068        -6.4509
  97   2.0000      -0.233430        -6.3519
  98   2.0000      -0.231033        -6.2867
  99   2.0000      -0.224636        -6.1127
 100   2.0000      -0.222760        -6.0616
 101   0.0000      -0.047879        -1.3028
 102   0.0000      -0.024199        -0.6585
 103   0.0000      -0.014959        -0.4070
 104   0.0000       0.001423         0.0387
 105   0.0000       0.003707         0.1009

MULLIKEN ATOMIC CHARGES
-----------------------
   0 C :   -0.462017
   1 C :   -0.155645
   2 O :   -0.319139
   3 P :    0.664895
   4 S :   -0.500835
   5 O :   -0.279623
   6 C :   -0.149230
   7 C :   -0.481578
   8 S :   -0.128443
   9 C :   -0.267311
  10 S :   -0.153815
  11 P :    0.685018
  12 S :   -0.525506
  13 O :   -0.276175
  14 C :   -0.117115
  15 C :   -0.504462
  16 O :   -0.322495
  17 C :   -0.143193
  18 C :   -0.478312
  19 H :    0.175079
  20 H :    0.156008
  21 H :    0.171886
  22 H :    0.180819
  23 H :    0.183407
  24 H :    0.176349
  25 H :    0.178171
  26 H :    0.170369
  27 H :    0.167791
  28 H :    0.168758
  29 H :    0.235502
  30 H :    0.235725
  31 H :    0.178425
  32 H :    0.169412
  33 H :    0.172549
  34 H :    0.164491
  35 H :    0.167980
  36 H :    0.175918
  37 H :    0.175706
  38 H :    0.172660
  39 H :    0.169610
  40 H :    0.168365
Sum of atomic charges:   -0.0000000

LOEWDIN ATOMIC CHARGES
----------------------
   0 C :   -0.399065
   1 C :    0.030766
   2 O :   -0.672759
   3 P :    0.376061
   4 S :   -0.138632
   5 O :   -0.722307
   6 C :    0.011828
   7 C :   -0.401362
   8 S :    0.175687
   9 C :   -0.399744
  10 S :    0.178373
  11 P :    0.370658
  12 S :   -0.154861
  13 O :   -0.692696
  14 C :    0.015107
  15 C :   -0.392485
  16 O :   -0.687097
  17 C :    0.029179
  18 C :   -0.403099
  19 H :    0.171101
  20 H :    0.160824
  21 H :    0.165357
  22 H :    0.192505
  23 H :    0.185573
  24 H :    0.181210
  25 H :    0.189027
  26 H :    0.167892
  27 H :    0.162864
  28 H :    0.162730
  29 H :    0.203305
  30 H :    0.199616
  31 H :    0.190017
  32 H :    0.181201
  33 H :    0.168963
  34 H :    0.162625
  35 H :    0.162601
  36 H :    0.181433
  37 H :    0.191137
  38 H :    0.169051
  39 H :    0.164490
  40 H :    0.162926

  Mayer bond orders larger than 0.100000
B(  0-C ,  1-C ) :   0.9458 B(  0-C , 19-H ) :   0.9592 B(  0-C , 20-H ) :   0.9532
B(  0-C , 21-H ) :   0.9700 B(  1-C ,  2-O ) :   0.7385 B(  1-C , 22-H ) :   0.9495
B(  1-C , 23-H ) :   0.9576 B(  2-O ,  3-P ) :   1.1299 B(  3-P ,  4-S ) :   1.8113
B(  3-P ,  5-O ) :   1.0298 B(  3-P ,  8-S ) :   1.0738 B(  5-O ,  6-C ) :   0.7765
B(  6-C ,  7-C ) :   0.9170 B(  6-C , 24-H ) :   0.9574 B(  6-C , 25-H ) :   0.9529
B(  7-C , 26-H ) :   0.9580 B(  7-C , 27-H ) :   0.9686 B(  7-C , 28-H ) :   0.9628
B(  8-S ,  9-C ) :   0.9012 B(  9-C , 10-S ) :   0.8936 B(  9-C , 29-H ) :   0.9084
B(  9-C , 30-H ) :   0.9078 B( 10-S , 11-P ) :   1.0971 B( 11-P , 12-S ) :   1.7603
B( 11-P , 13-O ) :   1.0743 B( 11-P , 16-O ) :   1.1553 B( 13-O , 14-C ) :   0.7450
B( 14-C , 15-C ) :   0.9222 B( 14-C , 31-H ) :   0.9329 B( 14-C , 32-H ) :   0.9346
B( 15-C , 33-H ) :   0.9620 B( 15-C , 34-H ) :   0.9693 B( 15-C , 35-H ) :   0.9710
B( 16-O , 17-C ) :   0.7950 B( 17-C , 18-C ) :   0.9165 B( 17-C , 36-H ) :   0.9622
B( 17-C , 37-H ) :   0.9509 B( 18-C , 38-H ) :   0.9548 B( 18-C , 39-H ) :   0.9696
B( 18-C , 40-H ) :   0.9583

Dispersion correction           -0.021987352
FINAL SINGLE POINT ENERGY     -2932.472665382199

DIPOLE MOMENT
-------------

Method             : SCF
Type of density    : Electron Density
Multiplicity       :   1
Irrep              :   0
Energy             : -2932.4972755618164229 Eh
Relativity type    :
Basis              : AO
                                X                 Y                 Z
Electronic contribution:     -1.424016962       6.112974179     -19.840076410
Nuclear contribution   :      1.328156854      -7.618531368      22.240823821
                        -----------------------------------------
Total Dipole Moment    :     -0.095860108      -1.505557189       2.400747411
                        -----------------------------------------
Magnitude (a.u.)       :      2.835397633
Magnitude (Debye)      :      7.207008034

Rotational constants in cm-1:             0.012293             0.005129             0.004777
Rotational constants in MHz :           368.524256           153.758535           143.196289

                             ****ORCA TERMINATED NORMALLY****
TOTAL RUN TIME: 0 days 0 hours 1 minutes 52 seconds 598 msec
