                         Program Version 6.0.0  -   RELEASE  -
|  1> ! pbe def2-sv(p) def2/J RI DEFGRID1 loosescf d4 GCP(DFT/SV(P)) printgap
|  2> %output
|  3>     printlevel normal
|  4> end
|  5> * xyz 0 1
|  6> C 4.4465337639 -1.5359911096 -0.9712596652
|  7> C 4.6088561855 -0.0417855058 -0.7814636724
|  8> O 3.5480557455 0.5354065404 0.0006242965
|  9> P 2.0325535177 0.5822138131 -0.4939565594
| 10> S 1.8049685668 0.9270753479 -2.4039919318
| 11> O 1.4584718751 1.7109988706 0.4455101179
| 12> C 1.6972348407 1.7083146652 1.8767598834
| 13> C 0.6895362988 2.6396510011 2.5158023157
| 14> S 1.250039435 -1.2548790798 0.2451827624
| 15> C 0.0871860469 -1.6873001364 -1.0879265016
| 16> S -1.5870006676 -1.9967913609 -0.4872435966
| 17> P -2.0264814674 -0.0296001834 0.1932253687
| 18> S -1.4467129377 1.4470784249 -0.9549161274
| 19> O -1.4192339905 0.0559707875 1.6469081604
| 20> C -1.8094217881 -0.8731637655 2.6973561829
| 21> C -0.5975105318 -1.1740161833 3.5540999177
| 22> O -3.5848483886 -0.0890754317 0.506580089
| 23> C -4.5952516852 0.1866473022 -0.4792990058
| 24> C -4.6046237579 -0.8340141865 -1.5985965112
| 25> H 3.5889662246 -1.7366286056 -1.6117053932
| 26> H 5.3380047519 -1.9322600342 -1.4466064363
| 27> H 4.297586015 -2.027292574 -0.0131257729
| 28> H 4.635820573 0.4668535988 -1.7499467091
| 29> H 5.5071081769 0.1970992469 -0.2102741456
| 30> H 1.586454721 0.6831863716 2.2433154463
| 31> H 2.7228505674 2.0438475127 2.042523341
| 32> H 0.7903675627 3.6381805941 2.0997032221
| 33> H -0.3191499494 2.2844392507 2.319445843
| 34> H 0.862235842 2.6737025236 3.5867093673
| 35> H 0.4176495341 -2.6180402049 -1.5419983033
| 36> H 0.0818303437 -0.8721233124 -1.8170856906
| 37> H -2.6000913654 -0.3863778867 3.2702454398
| 38> H -2.2044078217 -1.7814531593 2.233899732
| 39> H 0.1773362176 -1.6487251917 2.9567644599
| 40> H -0.2044145138 -0.2568990425 3.983300375
| 41> H -0.8919924483 -1.8460387509 4.3536877354
| 42> H -5.5241830674 0.1669527034 0.0924628522
| 43> H -4.4225958871 1.1914899522 -0.8767831063
| 44> H -3.7002312365 -0.7377885138 -2.1977385387
| 45> H -4.6531643072 -1.8416367914 -1.1934536333
| 46> H -5.4656558796 -0.6582043156 -2.2354344635
| 47> *
| 48>
| 49>                          ****END OF INPUT****

CARTESIAN COORDINATES (ANGSTROEM)
---------------------------------
  C      4.446534   -1.535991   -0.971260
  C      4.608856   -0.041786   -0.781464
  O      3.548056    0.535407    0.000624
  P      2.032554    0.582214   -0.493957
  S      1.804969    0.927075   -2.403992
  O      1.458472    1.710999    0.445510
  C      1.697235    1.708315    1.876760
  C      0.689536    2.639651    2.515802
  S      1.250039   -1.254879    0.245183
  C      0.087186   -1.687300   -1.087927
  S     -1.587001   -1.996791   -0.487244
  P     -2.026481   -0.029600    0.193225
  S     -1.446713    1.447078   -0.954916
  O     -1.419234    0.055971    1.646908
  C     -1.809422   -0.873164    2.697356
  C     -0.597511   -1.174016    3.554100
  O     -3.584848   -0.089075    0.506580
  C     -4.595252    0.186647   -0.479299
  C     -4.604624   -0.834014   -1.598597
  H      3.588966   -1.736629   -1.611705
  H      5.338005   -1.932260   -1.446606
  H      4.297586   -2.027293   -0.013126
  H      4.635821    0.466854   -1.749947
  H      5.507108    0.197099   -0.210274
  H      1.586455    0.683186    2.243315
  H      2.722851    2.043848    2.042523
  H      0.790368    3.638181    2.099703
  H     -0.319150    2.284439    2.319446
  H      0.862236    2.673703    3.586709
  H      0.417650   -2.618040   -1.541998
  H      0.081830   -0.872123   -1.817086
  H     -2.600091   -0.386378    3.270245
  H     -2.204408   -1.781453    2.233900
  H      0.177336   -1.648725    2.956764
  H     -0.204415   -0.256899    3.983300
  H     -0.891992   -1.846039    4.353688
  H     -5.524183    0.166953    0.092463
  H     -4.422596    1.191490   -0.876783
  H     -3.700231   -0.737789   -2.197739
  H     -4.653164   -1.841637   -1.193454
  H     -5.465656   -0.658204   -2.235434

 Total Charge           Charge          ....    0
 Multiplicity           Mult            ....    1
 Number of Electrons    NEL             ....  202
 Basis Dimension        Dim             ....  334

ORBITAL ENERGIES
----------------

  NO   OCC          E(Eh)            E(eV)
   0   2.0000     -88.043933     -2395.7972
   1   2.0000     -88.039305     -2395.6713
   2   2.0000     -87.981155     -2394.0889
   3   2.0000     -87.981038     -2394.0858
   4   2.0000     -76.423550     -2079.5905
   5   2.0000     -76.420388     -2079.5045
   6   2.0000     -18.792494      -511.3697
   7   2.0000     -18.791500      -511.3427
   8   2.0000     -18.786634      -511.2103
   9   2.0000     -18.781404      -511.0680
  10   2.0000      -9.957043      -270.9449
  11   2.0000      -9.953359      -270.8447
  12   2.0000      -9.953264      -270.8421
  13   2.0000      -9.949103      -270.7289
  14   2.0000      -9.947786      -270.6930
  15   2.0000      -9.889998      -269.1205
  16   2.0000      -9.884050      -268.9587
  17   2.0000      -9.881407      -268.8867
  18   2.0000      -9.876506      -268.7534
  19   2.0000      -7.688906      -209.2258
  20   2.0000      -7.683864      -209.0886
  21   2.0000      -7.626211      -207.5197
  22   2.0000      -7.625995      -207.5139
  23   2.0000      -6.421015      -174.7247
  24   2.0000      -6.417783      -174.6368
  25   2.0000      -5.716755      -155.5608
  26   2.0000      -5.713235      -155.4650
  27   2.0000      -5.711710      -155.4235
  28   2.0000      -5.708357      -155.3323
  29   2.0000      -5.706105      -155.2710
  30   2.0000      -5.700896      -155.1293
  31   2.0000      -5.655282      -153.8880
  32   2.0000      -5.655039      -153.8814
  33   2.0000      -5.646715      -153.6549
  34   2.0000      -5.646467      -153.6482
  35   2.0000      -5.646296      -153.6435
  36   2.0000      -5.646217      -153.6414
  37   2.0000      -4.643897      -126.3668
  38   2.0000      -4.642760      -126.3359
  39   2.0000      -4.641190      -126.2932
  40   2.0000      -4.640553      -126.2759
  41   2.0000      -4.639369      -126.2437
  42   2.0000      -4.638283      -126.2141
  43   2.0000      -0.988259       -26.8919
  44   2.0000      -0.981203       -26.6999
  45   2.0000      -0.944235       -25.6939
  46   2.0000      -0.935838       -25.4655
  47   2.0000      -0.760786       -20.7020
  48   2.0000      -0.718439       -19.5497
  49   2.0000      -0.709007       -19.2931
  50   2.0000      -0.690144       -18.7798
  51   2.0000      -0.683829       -18.6079
  52   2.0000      -0.675632       -18.3849
  53   2.0000      -0.648403       -17.6439
  54   2.0000      -0.631629       -17.1875
  55   2.0000      -0.595786       -16.2121
  56   2.0000      -0.585530       -15.9331
  57   2.0000      -0.573946       -15.6179
  58   2.0000      -0.563515       -15.3340
  59   2.0000      -0.560063       -15.2401
  60   2.0000      -0.506812       -13.7911
  61   2.0000      -0.498743       -13.5715
  62   2.0000      -0.473474       -12.8839
  63   2.0000      -0.467831       -12.7303
  64   2.0000      -0.451349       -12.2818
  65   2.0000      -0.448564       -12.2061
  66   2.0000      -0.438648       -11.9362
  67   2.0000      -0.434841       -11.8326
  68   2.0000      -0.431503       -11.7418
  69   2.0000      -0.421124       -11.4594
  70   2.0000      -0.412133       -11.2147
  71   2.0000      -0.392300       -10.6750
  72   2.0000      -0.385274       -10.4838
  73   2.0000      -0.384587       -10.4651
  74   2.0000      -0.379498       -10.3267
  75   2.0000      -0.364543        -9.9197
  76   2.0000      -0.360899        -9.8205
  77   2.0000      -0.358966        -9.7680
  78   2.0000      -0.354066        -9.6346
  79   2.0000      -0.348771        -9.4905
  80   2.0000      -0.348375        -9.4798
  81   2.0000      -0.343109        -9.3365
  82   2.0000      -0.340348        -9.2613
  83   2.0000      -0.334615        -9.1053
  84   2.0000      -0.328303        -8.9336
  85   2.0000      -0.314984        -8.5712
  86   2.0000      -0.306995        -8.3538
  87   2.0000      -0.304303        -8.2805
  88   2.0000      -0.294743        -8.0204
  89   2.0000      -0.292947        -7.9715
  90   2.0000      -0.290703        -7.9104
  91   2.0000      -0.271330        -7.3833
  92   2.0000      -0.262310        -7.1378
  93   2.0000      -0.261578        -7.1179
  94   2.0000      -0.255460        -6.9514
  95   2.0000      -0.234107        -6.3704
  96   2.0000      -0.218331        -5.9411
  97   2.0000      -0.212581        -5.7846
  98   2.0000      -0.200572        -5.4578
  99   2.0000      -0.191813        -5.2195
 100   2.0000      -0.184300        -5.0151
 101   0.0000      -0.039761        -1.0820
 102   0.0000      -0.031782        -0.8648
 103   0.0000      -0.008881        -0.2417
 104   0.0000       0.010367         0.2821
 105   0.0000       0.019406         0.5281

MULLIKEN ATOMIC CHARGES
-----------------------
   0 C :   -0.310964
   1 C :    0.003382
   2 O :   -0.390314
   3 P :    0.612769
   4 S :   -0.289815
   5 O :   -0.347507
   6 C :   -0.021612
   7 C :   -0.286783
   8 S :   -0.125986
   9 C :   -0.344791
  10 S :   -0.107514
  11 P :    0.583110
  12 S :   -0.272072
  13 O :   -0.356084
  14 C :   -0.010691
  15 C :   -0.295964
  16 O :   -0.384787
  17 C :    0.002825
  18 C :   -0.321944
  19 H :    0.119340
  20 H :    0.110858
  21 H :    0.115409
  22 H :    0.110793
  23 H :    0.101534
  24 H :    0.102987
  25 H :    0.105025
  26 H :    0.119063
  27 H :    0.135701
  28 H :    0.100174
  29 H :    0.179885
  30 H :    0.206424
  31 H :    0.109862
  32 H :    0.103558
  33 H :    0.131892
  34 H :    0.122506
  35 H :    0.110219
  36 H :    0.103549
  37 H :    0.112329
  38 H :    0.132611
  39 H :    0.116356
  40 H :    0.114670
Sum of atomic charges:   -0.0000000

LOEWDIN ATOMIC CHARGES
----------------------
   0 C :   -0.370837
   1 C :   -0.116611
   2 O :   -0.253237
   3 P :    0.573956
   4 S :   -0.292343
   5 O :   -0.229665
   6 C :   -0.113284
   7 C :   -0.355799
   8 S :    0.067408
   9 C :   -0.480734
  10 S :    0.072058
  11 P :    0.559161
  12 S :   -0.281339
  13 O :   -0.236075
  14 C :   -0.114382
  15 C :   -0.356627
  16 O :   -0.251884
  17 C :   -0.116028
  18 C :   -0.371851
  19 H :    0.118984
  20 H :    0.129541
  21 H :    0.122038
  22 H :    0.111763
  23 H :    0.117070
  24 H :    0.102188
  25 H :    0.112620
  26 H :    0.129835
  27 H :    0.129182
  28 H :    0.124489
  29 H :    0.135317
  30 H :    0.125439
  31 H :    0.117307
  32 H :    0.103894
  33 H :    0.122673
  34 H :    0.126508
  35 H :    0.130182
  36 H :    0.118072
  37 H :    0.113415
  38 H :    0.123367
  39 H :    0.122337
  40 H :    0.131891

  Mayer bond orders larger than 0.100000
B(  0-C ,  1-C ) :   1.1666 B(  0-C , 19-H ) :   0.9371 B(  0-C , 20-H ) :   0.9372
B(  0-C , 21-H ) :   0.9426 B(  1-C ,  2-O ) :   0.9148 B(  1-C , 22-H ) :   0.9180
B(  1-C , 23-H ) :   0.9347 B(  2-O ,  3-P ) :   1.0700 B(  3-P ,  4-S ) :   1.6321
B(  3-P ,  5-O ) :   1.1413 B(  3-P ,  8-S ) :   0.9438 B(  4-S ,  8-S ) :   0.1130
B(  5-O ,  6-C ) :   0.8953 B(  6-C ,  7-C ) :   1.1673 B(  6-C , 24-H ) :   0.9108
B(  6-C , 25-H ) :   0.9293 B(  7-C , 26-H ) :   0.9471 B(  7-C , 27-H ) :   0.9345
B(  7-C , 28-H ) :   0.9385 B(  8-S ,  9-C ) :   0.9962 B(  9-C , 10-S ) :   1.0000
B(  9-C , 29-H ) :   0.9105 B(  9-C , 30-H ) :   0.8460 B( 10-S , 11-P ) :   0.9362
B( 10-S , 12-S ) :   0.1074 B( 11-P , 12-S ) :   1.6756 B( 11-P , 13-O ) :   1.1134
B( 11-P , 16-O ) :   1.0801 B( 13-O , 14-C ) :   0.8833 B( 14-C , 15-C ) :   1.1680
B( 14-C , 31-H ) :   0.9337 B( 14-C , 32-H ) :   0.9093 B( 15-C , 33-H ) :   0.9365
B( 15-C , 34-H ) :   0.9431 B( 15-C , 35-H ) :   0.9383 B( 16-O , 17-C ) :   0.9077
B( 17-C , 18-C ) :   1.1663 B( 17-C , 36-H ) :   0.9346 B( 17-C , 37-H ) :   0.9180
B( 18-C , 38-H ) :   0.9343 B( 18-C , 39-H ) :   0.9434 B( 18-C , 40-H ) :   0.9371

Dispersion correction           -0.068179503
FINAL SINGLE POINT ENERGY     -2929.518124597228

DIPOLE MOMENT
-------------

Method             : SCF
Type of density    : Electron Density
Multiplicity       :   1
Irrep              :   0
Energy             : -2929.6362919615025930 Eh
Relativity type    :
Basis              : AO
                                X                 Y                 Z
Electronic contribution:     -0.209968425       3.980782891     -12.385474304
Nuclear contribution   :      0.013061792      -5.124298901      13.815954070
                        -----------------------------------------
Total Dipole Moment    :     -0.196906633      -1.143516010       1.430479766
                        -----------------------------------------
Magnitude (a.u.)       :      1.841921130
Magnitude (Debye)      :      4.681791444

Rotational constants in cm-1:             0.012004             0.005635             0.005231
Rotational constants in MHz :           359.872277           168.934390           156.822249

                             ****ORCA TERMINATED NORMALLY****
TOTAL RUN TIME: 0 days 0 hours 0 minutes 22 seconds 43 msec
