                         Program Version 6.0.0  -   RELEASE  -
|  1> ! pbe def2-sv(p) def2/J RI DEFGRID1 loosescf d4 GCP(DFT/SV(P)) printgap
|  2> %output
|  3>     printlevel normal
|  4> end
|  5> * xyz 0 1
|  6> C 4.6519737772 1.5946785687 -0.218806443
|  7> C 3.9085563786 1.0209057778 -1.4072386433
|  8> O 3.1181892623 -0.1349714414 -1.0713509947
|  9> P 2.0656121775 -0.227254728 0.1123524116
| 10> S 2.7587378706 -0.5160349264 1.9278386322
| 11> O 1.1244393375 -1.3878773262 -0.4143397729
| 12> C 1.2490005308 -2.7498321242 0.0312848667
| 13> C 2.5191704941 -3.384817408 -0.4925567391
| 14> S 0.8539718379 1.4779853575 -0.1634112648
| 15> C 0.0023351143 1.3813009797 1.4311602368
| 16> S -1.0676300316 -0.0784469842 1.5966116564
| 17> P -2.2569999256 0.1604304225 -0.1444698058
| 18> S -1.6566598041 -0.4949199706 -1.8967066408
| 19> O -2.563570695 1.7059899116 -0.0336368986
| 20> C -2.8109569518 2.5683378718 -1.1678941243
| 21> C -1.9375820586 3.8012176449 -1.0495058347
| 22> O -3.6522453501 -0.470497 0.2960911721
| 23> C -3.9674239608 -1.8546744696 0.0821753464
| 24> C -3.1404362835 -2.7585080069 0.9742231342
| 25> H 3.946418832 1.9788981901 0.5168762514
| 26> H 5.2603934505 0.8279317812 0.255081515
| 27> H 5.2913916648 2.4054581312 -0.5528011838
| 28> H 4.5967997099 0.6470253825 -2.167507029
| 29> H 3.2431685506 1.7692416298 -1.847508782
| 30> H 1.226787319 -2.762450423 1.1265554681
| 31> H 0.3572211474 -3.2384826745 -0.365271617
| 32> H 2.5577082974 -4.4253768881 -0.186357624
| 33> H 2.5490572382 -3.3206353819 -1.5770993848
| 34> H 3.3831005583 -2.859524792 -0.0856352137
| 35> H -0.5927875934 2.2852212905 1.5304531235
| 36> H 0.7396538973 1.2966081065 2.2309392785
| 37> H -2.594315969 2.0143449568 -2.0876139131
| 38> H -3.8719528977 2.8230813195 -1.1379435314
| 39> H -2.1476881881 4.4640651254 -1.8824116472
| 40> H -2.1462176408 4.3196618163 -0.1180125958
| 41> H -0.8862053128 3.5206286435 -1.0728992536
| 42> H -5.0319047531 -1.9243785367 0.3089529705
| 43> H -3.794008933 -2.0895662933 -0.9736171748
| 44> H -3.2711635673 -2.4838686804 2.0178097585
| 45> H -3.4426803393 -3.790577463 0.82907339
| 46> H -2.0845457097 -2.6575985967 0.7198751573
| 47> *
| 48>
| 49>                          ****END OF INPUT****

CARTESIAN COORDINATES (ANGSTROEM)
---------------------------------
  C      4.651974    1.594679   -0.218806
  C      3.908556    1.020906   -1.407239
  O      3.118189   -0.134971   -1.071351
  P      2.065612   -0.227255    0.112352
  S      2.758738   -0.516035    1.927839
  O      1.124439   -1.387877   -0.414340
  C      1.249001   -2.749832    0.031285
  C      2.519170   -3.384817   -0.492557
  S      0.853972    1.477985   -0.163411
  C      0.002335    1.381301    1.431160
  S     -1.067630   -0.078447    1.596612
  P     -2.257000    0.160430   -0.144470
  S     -1.656660   -0.494920   -1.896707
  O     -2.563571    1.705990   -0.033637
  C     -2.810957    2.568338   -1.167894
  C     -1.937582    3.801218   -1.049506
  O     -3.652245   -0.470497    0.296091
  C     -3.967424   -1.854674    0.082175
  C     -3.140436   -2.758508    0.974223
  H      3.946419    1.978898    0.516876
  H      5.260393    0.827932    0.255082
  H      5.291392    2.405458   -0.552801
  H      4.596800    0.647025   -2.167507
  H      3.243169    1.769242   -1.847509
  H      1.226787   -2.762450    1.126555
  H      0.357221   -3.238483   -0.365272
  H      2.557708   -4.425377   -0.186358
  H      2.549057   -3.320635   -1.577099
  H      3.383101   -2.859525   -0.085635
  H     -0.592788    2.285221    1.530453
  H      0.739654    1.296608    2.230939
  H     -2.594316    2.014345   -2.087614
  H     -3.871953    2.823081   -1.137944
  H     -2.147688    4.464065   -1.882412
  H     -2.146218    4.319662   -0.118013
  H     -0.886205    3.520629   -1.072899
  H     -5.031905   -1.924379    0.308953
  H     -3.794009   -2.089566   -0.973617
  H     -3.271164   -2.483869    2.017810
  H     -3.442680   -3.790577    0.829073
  H     -2.084546   -2.657599    0.719875

 Total Charge           Charge          ....    0
 Multiplicity           Mult            ....    1
 Number of Electrons    NEL             ....  202
 Basis Dimension        Dim             ....  334

ORBITAL ENERGIES
----------------

  NO   OCC          E(Eh)            E(eV)
   0   2.0000     -88.045825     -2395.8487
   1   2.0000     -88.038957     -2395.6618
   2   2.0000     -87.984915     -2394.1913
   3   2.0000     -87.980572     -2394.0731
   4   2.0000     -76.425656     -2079.6478
   5   2.0000     -76.423348     -2079.5850
   6   2.0000     -18.793016      -511.3840
   7   2.0000     -18.792602      -511.3727
   8   2.0000     -18.785877      -511.1897
   9   2.0000     -18.780699      -511.0488
  10   2.0000      -9.958621      -270.9879
  11   2.0000      -9.957354      -270.9534
  12   2.0000      -9.952697      -270.8267
  13   2.0000      -9.949116      -270.7292
  14   2.0000      -9.942431      -270.5473
  15   2.0000      -9.889239      -269.0999
  16   2.0000      -9.885666      -269.0027
  17   2.0000      -9.883949      -268.9559
  18   2.0000      -9.876374      -268.7498
  19   2.0000      -7.690553      -209.2706
  20   2.0000      -7.684008      -209.0925
  21   2.0000      -7.629887      -207.6198
  22   2.0000      -7.625581      -207.5026
  23   2.0000      -6.422836      -174.7742
  24   2.0000      -6.420776      -174.7182
  25   2.0000      -5.718324      -155.6035
  26   2.0000      -5.715114      -155.5162
  27   2.0000      -5.712180      -155.4363
  28   2.0000      -5.708521      -155.3367
  29   2.0000      -5.707580      -155.3112
  30   2.0000      -5.700677      -155.1233
  31   2.0000      -5.658699      -153.9810
  32   2.0000      -5.654432      -153.8649
  33   2.0000      -5.650698      -153.7633
  34   2.0000      -5.649978      -153.7437
  35   2.0000      -5.646424      -153.6470
  36   2.0000      -5.645601      -153.6246
  37   2.0000      -4.645332      -126.4059
  38   2.0000      -4.644712      -126.3890
  39   2.0000      -4.643467      -126.3552
  40   2.0000      -4.643324      -126.3513
  41   2.0000      -4.642572      -126.3308
  42   2.0000      -4.641077      -126.2901
  43   2.0000      -0.984554       -26.7911
  44   2.0000      -0.983288       -26.7566
  45   2.0000      -0.944355       -25.6972
  46   2.0000      -0.941078       -25.6080
  47   2.0000      -0.765028       -20.8175
  48   2.0000      -0.720753       -19.6127
  49   2.0000      -0.708204       -19.2712
  50   2.0000      -0.686657       -18.6849
  51   2.0000      -0.684500       -18.6262
  52   2.0000      -0.671905       -18.2835
  53   2.0000      -0.649854       -17.6834
  54   2.0000      -0.638341       -17.3701
  55   2.0000      -0.598408       -16.2835
  56   2.0000      -0.592588       -16.1251
  57   2.0000      -0.572367       -15.5749
  58   2.0000      -0.571736       -15.5577
  59   2.0000      -0.560720       -15.2580
  60   2.0000      -0.501601       -13.6492
  61   2.0000      -0.492318       -13.3966
  62   2.0000      -0.471319       -12.8253
  63   2.0000      -0.466482       -12.6936
  64   2.0000      -0.460071       -12.5192
  65   2.0000      -0.441202       -12.0057
  66   2.0000      -0.438801       -11.9404
  67   2.0000      -0.431498       -11.7417
  68   2.0000      -0.427901       -11.6438
  69   2.0000      -0.417528       -11.3615
  70   2.0000      -0.412746       -11.2314
  71   2.0000      -0.394289       -10.7292
  72   2.0000      -0.390549       -10.6274
  73   2.0000      -0.386350       -10.5131
  74   2.0000      -0.383257       -10.4290
  75   2.0000      -0.375605       -10.2207
  76   2.0000      -0.370360       -10.0780
  77   2.0000      -0.358613        -9.7584
  78   2.0000      -0.354943        -9.6585
  79   2.0000      -0.347429        -9.4540
  80   2.0000      -0.346096        -9.4178
  81   2.0000      -0.343597        -9.3497
  82   2.0000      -0.342034        -9.3072
  83   2.0000      -0.339011        -9.2249
  84   2.0000      -0.331513        -9.0209
  85   2.0000      -0.319772        -8.7014
  86   2.0000      -0.307790        -8.3754
  87   2.0000      -0.296740        -8.0747
  88   2.0000      -0.294810        -8.0222
  89   2.0000      -0.284555        -7.7431
  90   2.0000      -0.282627        -7.6907
  91   2.0000      -0.273318        -7.4374
  92   2.0000      -0.268920        -7.3177
  93   2.0000      -0.260974        -7.1015
  94   2.0000      -0.258563        -7.0359
  95   2.0000      -0.235754        -6.4152
  96   2.0000      -0.218652        -5.9498
  97   2.0000      -0.206904        -5.6301
  98   2.0000      -0.200051        -5.4437
  99   2.0000      -0.195765        -5.3270
 100   2.0000      -0.189430        -5.1547
 101   0.0000      -0.049381        -1.3437
 102   0.0000      -0.025070        -0.6822
 103   0.0000      -0.015577        -0.4239
 104   0.0000      -0.000005        -0.0001
 105   0.0000       0.017178         0.4674

MULLIKEN ATOMIC CHARGES
-----------------------
   0 C :   -0.309554
   1 C :   -0.010917
   2 O :   -0.370759
   3 P :    0.627710
   4 S :   -0.337710
   5 O :   -0.343316
   6 C :   -0.020397
   7 C :   -0.297212
   8 S :   -0.107134
   9 C :   -0.344402
  10 S :   -0.091566
  11 P :    0.608087
  12 S :   -0.315884
  13 O :   -0.377047
  14 C :   -0.003117
  15 C :   -0.307387
  16 O :   -0.367057
  17 C :    0.000918
  18 C :   -0.343431
  19 H :    0.123184
  20 H :    0.126911
  21 H :    0.111206
  22 H :    0.110868
  23 H :    0.114224
  24 H :    0.110980
  25 H :    0.114647
  26 H :    0.107628
  27 H :    0.116193
  28 H :    0.120885
  29 H :    0.188463
  30 H :    0.192167
  31 H :    0.112234
  32 H :    0.106571
  33 H :    0.113764
  34 H :    0.116772
  35 H :    0.129117
  36 H :    0.104980
  37 H :    0.108341
  38 H :    0.123190
  39 H :    0.114751
  40 H :    0.143098
Sum of atomic charges:   -0.0000000

LOEWDIN ATOMIC CHARGES
----------------------
   0 C :   -0.369930
   1 C :   -0.112819
   2 O :   -0.241466
   3 P :    0.577560
   4 S :   -0.322361
   5 O :   -0.227697
   6 C :   -0.121232
   7 C :   -0.364291
   8 S :    0.089713
   9 C :   -0.476028
  10 S :    0.086323
  11 P :    0.566174
  12 S :   -0.310160
  13 O :   -0.243929
  14 C :   -0.115635
  15 C :   -0.358221
  16 O :   -0.247189
  17 C :   -0.121752
  18 C :   -0.371322
  19 H :    0.119948
  20 H :    0.130032
  21 H :    0.129891
  22 H :    0.122505
  23 H :    0.109948
  24 H :    0.107703
  25 H :    0.117183
  26 H :    0.128540
  27 H :    0.126422
  28 H :    0.121269
  29 H :    0.132878
  30 H :    0.130213
  31 H :    0.108538
  32 H :    0.117114
  33 H :    0.132275
  34 H :    0.124750
  35 H :    0.119190
  36 H :    0.118678
  37 H :    0.107888
  38 H :    0.126767
  39 H :    0.131866
  40 H :    0.120662

  Mayer bond orders larger than 0.100000
B(  0-C ,  1-C ) :   1.1633 B(  0-C , 19-H ) :   0.9329 B(  0-C , 20-H ) :   0.9425
B(  0-C , 21-H ) :   0.9349 B(  1-C ,  2-O ) :   0.9146 B(  1-C , 22-H ) :   0.9343
B(  1-C , 23-H ) :   0.9284 B(  2-O ,  3-P ) :   1.1156 B(  3-P ,  4-S ) :   1.5901
B(  3-P ,  5-O ) :   1.1438 B(  3-P ,  8-S ) :   0.9368 B(  4-S ,  8-S ) :   0.1061
B(  5-O ,  6-C ) :   0.9066 B(  6-C ,  7-C ) :   1.1626 B(  6-C , 24-H ) :   0.9146
B(  6-C , 25-H ) :   0.9233 B(  7-C , 26-H ) :   0.9400 B(  7-C , 27-H ) :   0.9456
B(  7-C , 28-H ) :   0.9344 B(  8-S ,  9-C ) :   1.0156 B(  9-C , 10-S ) :   1.0025
B(  9-C , 29-H ) :   0.8998 B(  9-C , 30-H ) :   0.8779 B( 10-S , 11-P ) :   0.9520
B( 10-S , 12-S ) :   0.1080 B( 11-P , 12-S ) :   1.6308 B( 11-P , 13-O ) :   1.1146
B( 11-P , 16-O ) :   1.1066 B( 13-O , 14-C ) :   0.8965 B( 14-C , 15-C ) :   1.1645
B( 14-C , 31-H ) :   0.9000 B( 14-C , 32-H ) :   0.9334 B( 15-C , 33-H ) :   0.9398
B( 15-C , 34-H ) :   0.9479 B( 15-C , 35-H ) :   0.9384 B( 16-O , 17-C ) :   0.9165
B( 17-C , 18-C ) :   1.1601 B( 17-C , 36-H ) :   0.9327 B( 17-C , 37-H ) :   0.9113
B( 18-C , 38-H ) :   0.9431 B( 18-C , 39-H ) :   0.9389 B( 18-C , 40-H ) :   0.9277

Dispersion correction           -0.067485944
FINAL SINGLE POINT ENERGY     -2929.516926397322

DIPOLE MOMENT
-------------

Method             : SCF
Type of density    : Electron Density
Multiplicity       :   1
Irrep              :   0
Energy             : -2929.6338732069243633 Eh
Relativity type    :
Basis              : AO
                                X                 Y                 Z
Electronic contribution:     -3.471597057       1.576830787       3.854989273
Nuclear contribution   :      3.200989814      -1.081877777      -4.271464338
                        -----------------------------------------
Total Dipole Moment    :     -0.270607243       0.494953009      -0.416475065
                        -----------------------------------------
Magnitude (a.u.)       :      0.701183458
Magnitude (Debye)      :      1.782266710

Rotational constants in cm-1:             0.011292             0.005937             0.004888
Rotational constants in MHz :           338.526413           177.983673           146.524971

                             ****ORCA TERMINATED NORMALLY****
TOTAL RUN TIME: 0 days 0 hours 0 minutes 21 seconds 575 msec
