                         Program Version 6.0.1  -  RELEASE   -
|  1> ! r2scan-3c def2/J RI DEFGRID2 scfconv6 printgap
|  2> %output
|  3>     printlevel normal
|  4> end
|  5> * xyz 0 1
|  6> C 5.8411033327 -2.9468808733 -0.7407302765
|  7> C 4.7616228578 -2.0907577569 -1.374160115
|  8> O 3.5571552796 -2.2403532454 -0.5950736235
|  9> C 2.6301128015 -1.3139442612 -0.6854665552
| 10> O 2.7045603408 -0.3345831796 -1.4011520804
| 11> C 1.4561818936 -1.6024666508 0.2264164143
| 12> C 0.33107217 -0.6439820234 -0.1130956943
| 13> H -0.0716159739 -0.8211652766 -1.1161546599
| 14> C 0.7263421414 0.8146812821 -0.0189373347
| 15> O 0.1646373716 1.6764628763 -0.6634108631
| 16> O 1.6477685269 1.0339756764 0.8912305076
| 17> C 2.0597636587 2.395976013 1.1248447774
| 18> C 1.0623716519 3.1304499431 2.0058853507
| 19> S -1.0573822892 -0.7929437443 1.060749425
| 20> P -2.4713025167 0.3508827871 -0.0511585125
| 21> S -2.4072261379 0.1587063549 -1.9954278932
| 22> O -3.8437429383 -0.1351483668 0.607821884
| 23> C -4.3639681656 -1.4451389422 0.3495612848
| 24> O -2.4156616777 1.8374539871 0.484852664
| 25> C -2.6956206491 2.14803061 1.8668428429
| 26> H 6.7507902201 -2.8661801555 -1.3262664556
| 27> H 6.0373567459 -2.6136066682 0.2738663354
| 28> H 5.5218524128 -3.9840998957 -0.7141154178
| 29> H 4.5424707887 -2.4112228716 -2.3970226725
| 30> H 5.0325982284 -1.0306607827 -1.3939084347
| 31> H 1.7806622028 -1.4611554791 1.2592984758
| 32> H 1.1403786787 -2.6381386581 0.1048643584
| 33> H 3.0303452657 2.297299567 1.6106858183
| 34> H 2.1663623588 2.8936100923 0.1567535687
| 35> H 0.1136099392 3.2293008929 1.4833104035
| 36> H 0.9088254541 2.585358799 2.9332860495
| 37> H 1.445380583 4.1205841135 2.2290005594
| 38> H -3.7959078679 -2.1835736966 0.914076577
| 39> H -4.3092796142 -1.6655080024 -0.7175464461
| 40> H -5.3988269576 -1.4189605186 0.6807121882
| 41> H -3.7498932836 1.9764671941 2.0731709938
| 42> H -2.4459825934 3.2000052858 1.9795449351
| 43> H -2.0815886558 1.5287791688 2.5217378262
| 44> *
| 45>
| 46>                          ****END OF INPUT****

CARTESIAN COORDINATES (ANGSTROEM)
---------------------------------
  C      5.841103   -2.946881   -0.740730
  C      4.761623   -2.090758   -1.374160
  O      3.557155   -2.240353   -0.595074
  C      2.630113   -1.313944   -0.685467
  O      2.704560   -0.334583   -1.401152
  C      1.456182   -1.602467    0.226416
  C      0.331072   -0.643982   -0.113096
  H     -0.071616   -0.821165   -1.116155
  C      0.726342    0.814681   -0.018937
  O      0.164637    1.676463   -0.663411
  O      1.647769    1.033976    0.891231
  C      2.059764    2.395976    1.124845
  C      1.062372    3.130450    2.005885
  S     -1.057382   -0.792944    1.060749
  P     -2.471303    0.350883   -0.051159
  S     -2.407226    0.158706   -1.995428
  O     -3.843743   -0.135148    0.607822
  C     -4.363968   -1.445139    0.349561
  O     -2.415662    1.837454    0.484853
  C     -2.695621    2.148031    1.866843
  H      6.750790   -2.866180   -1.326266
  H      6.037357   -2.613607    0.273866
  H      5.521852   -3.984100   -0.714115
  H      4.542471   -2.411223   -2.397023
  H      5.032598   -1.030661   -1.393908
  H      1.780662   -1.461155    1.259298
  H      1.140379   -2.638139    0.104864
  H      3.030345    2.297300    1.610686
  H      2.166362    2.893610    0.156754
  H      0.113610    3.229301    1.483310
  H      0.908825    2.585359    2.933286
  H      1.445381    4.120584    2.229001
  H     -3.795908   -2.183574    0.914077
  H     -4.309280   -1.665508   -0.717546
  H     -5.398827   -1.418961    0.680712
  H     -3.749893    1.976467    2.073171
  H     -2.445983    3.200005    1.979545
  H     -2.081589    1.528779    2.521738

 Total Charge           Charge          ....    0
 Multiplicity           Mult            ....    1
 Number of Electrons    NEL             ....  174
 Basis Dimension        Dim             ....  510

ORBITAL ENERGIES
----------------

  NO   OCC          E(Eh)            E(eV)
   0   2.0000     -88.576576     -2410.2912
   1   2.0000     -88.510358     -2408.4893
   2   2.0000     -76.908858     -2092.7964
   3   2.0000     -19.010071      -517.2903
   4   2.0000     -18.996082      -516.9097
   5   2.0000     -18.989774      -516.7380
   6   2.0000     -18.988771      -516.7107
   7   2.0000     -18.941354      -515.4205
   8   2.0000     -18.919995      -514.8392
   9   2.0000     -10.167300      -276.6663
  10   2.0000     -10.151870      -276.2464
  11   2.0000     -10.101056      -274.8637
  12   2.0000     -10.093961      -274.6706
  13   2.0000     -10.091761      -274.6108
  14   2.0000     -10.089936      -274.5611
  15   2.0000     -10.087373      -274.4914
  16   2.0000     -10.063812      -273.8502
  17   2.0000     -10.039126      -273.1785
  18   2.0000     -10.027768      -272.8695
  19   2.0000      -7.870734      -214.1736
  20   2.0000      -7.804893      -212.3819
  21   2.0000      -6.587078      -179.2435
  22   2.0000      -5.817331      -158.2976
  23   2.0000      -5.814633      -158.2242
  24   2.0000      -5.808135      -158.0474
  25   2.0000      -5.752823      -156.5423
  26   2.0000      -5.745181      -156.3343
  27   2.0000      -5.744651      -156.3199
  28   2.0000      -4.732941      -128.7899
  29   2.0000      -4.732178      -128.7691
  30   2.0000      -4.730340      -128.7191
  31   2.0000      -1.087178       -29.5836
  32   2.0000      -1.073117       -29.2010
  33   2.0000      -1.047780       -28.5115
  34   2.0000      -1.005073       -27.3494
  35   2.0000      -0.989441       -26.9241
  36   2.0000      -0.972306       -26.4578
  37   2.0000      -0.810740       -22.0613
  38   2.0000      -0.762608       -20.7516
  39   2.0000      -0.741779       -20.1848
  40   2.0000      -0.730421       -19.8758
  41   2.0000      -0.700457       -19.0604
  42   2.0000      -0.675051       -18.3691
  43   2.0000      -0.654791       -17.8178
  44   2.0000      -0.644591       -17.5402
  45   2.0000      -0.627803       -17.0834
  46   2.0000      -0.595935       -16.2162
  47   2.0000      -0.545285       -14.8380
  48   2.0000      -0.537964       -14.6387
  49   2.0000      -0.519634       -14.1400
  50   2.0000      -0.493006       -13.4154
  51   2.0000      -0.492305       -13.3963
  52   2.0000      -0.487427       -13.2636
  53   2.0000      -0.468343       -12.7443
  54   2.0000      -0.456276       -12.4159
  55   2.0000      -0.450140       -12.2489
  56   2.0000      -0.448022       -12.1913
  57   2.0000      -0.445045       -12.1103
  58   2.0000      -0.430947       -11.7267
  59   2.0000      -0.429573       -11.6893
  60   2.0000      -0.421263       -11.4632
  61   2.0000      -0.416827       -11.3424
  62   2.0000      -0.407399       -11.0859
  63   2.0000      -0.401681       -10.9303
  64   2.0000      -0.396629       -10.7928
  65   2.0000      -0.381166       -10.3721
  66   2.0000      -0.372181       -10.1276
  67   2.0000      -0.367745       -10.0068
  68   2.0000      -0.364823        -9.9273
  69   2.0000      -0.358070        -9.7436
  70   2.0000      -0.349935        -9.5222
  71   2.0000      -0.343042        -9.3346
  72   2.0000      -0.336566        -9.1584
  73   2.0000      -0.327347        -8.9076
  74   2.0000      -0.322952        -8.7880
  75   2.0000      -0.317986        -8.6528
  76   2.0000      -0.311242        -8.4693
  77   2.0000      -0.307480        -8.3670
  78   2.0000      -0.286286        -7.7902
  79   2.0000      -0.283868        -7.7244
  80   2.0000      -0.274725        -7.4756
  81   2.0000      -0.265097        -7.2137
  82   2.0000      -0.249751        -6.7961
  83   2.0000      -0.246852        -6.7172
  84   2.0000      -0.232436        -6.3249
  85   2.0000      -0.208668        -5.6781
  86   2.0000      -0.198994        -5.4149
  87   0.0000      -0.047136        -1.2826
  88   0.0000      -0.025180        -0.6852
  89   0.0000      -0.009110        -0.2479
  90   0.0000       0.016521         0.4495
  91   0.0000       0.020777         0.5654

MULLIKEN ATOMIC CHARGES
-----------------------
   0 C :   -0.439712
   1 C :   -0.152134
   2 O :   -0.150901
   3 C :    0.362114
   4 O :   -0.410055
   5 C :   -0.366105
   6 C :   -0.095720
   7 H :    0.251825
   8 C :    0.340639
   9 O :   -0.392699
  10 O :   -0.142287
  11 C :   -0.116351
  12 C :   -0.497978
  13 S :   -0.242451
  14 P :    0.741055
  15 S :   -0.418931
  16 O :   -0.331637
  17 C :   -0.298739
  18 O :   -0.290385
  19 C :   -0.287956
  20 H :    0.150300
  21 H :    0.152789
  22 H :    0.153814
  23 H :    0.151955
  24 H :    0.171284
  25 H :    0.194586
  26 H :    0.179079
  27 H :    0.147420
  28 H :    0.172330
  29 H :    0.184354
  30 H :    0.152985
  31 H :    0.148144
  32 H :    0.154392
  33 H :    0.179657
  34 H :    0.151000
  35 H :    0.166147
  36 H :    0.159060
  37 H :    0.169111
Sum of atomic charges:    0.0000000

LOEWDIN ATOMIC CHARGES
----------------------
   0 C :   -0.384465
   1 C :    0.037448
   2 O :   -0.579831
   3 C :    0.372391
   4 O :   -0.414815
   5 C :   -0.210189
   6 C :   -0.195220
   7 H :    0.211677
   8 C :    0.338410
   9 O :   -0.418928
  10 O :   -0.590246
  11 C :    0.036711
  12 C :   -0.392418
  13 S :    0.177530
  14 P :    0.392302
  15 S :   -0.073366
  16 O :   -0.688371
  17 C :   -0.059713
  18 O :   -0.641853
  19 C :   -0.055626
  20 H :    0.160920
  21 H :    0.159445
  22 H :    0.160223
  23 H :    0.177856
  24 H :    0.187305
  25 H :    0.200387
  26 H :    0.188136
  27 H :    0.178199
  28 H :    0.190310
  29 H :    0.171559
  30 H :    0.157174
  31 H :    0.158992
  32 H :    0.167508
  33 H :    0.178830
  34 H :    0.176514
  35 H :    0.174480
  36 H :    0.179165
  37 H :    0.171568

  Mayer bond orders larger than 0.100000
B(  0-C ,  1-C ) :   0.9493 B(  0-C , 20-H ) :   0.9676 B(  0-C , 21-H ) :   0.9740
B(  0-C , 22-H ) :   0.9686 B(  1-C ,  2-O ) :   0.7707 B(  1-C , 23-H ) :   0.9437
B(  1-C , 24-H ) :   0.9609 B(  2-O ,  3-C ) :   1.1702 B(  3-C ,  4-O ) :   1.7681
B(  3-C ,  5-C ) :   1.0031 B(  5-C ,  6-C ) :   0.9664 B(  5-C , 10-O ) :   0.1292
B(  5-C , 25-H ) :   0.9494 B(  5-C , 26-H ) :   0.9363 B(  6-C ,  7-H ) :   0.9587
B(  6-C ,  8-C ) :   0.8542 B(  6-C , 13-S ) :   0.8248 B(  8-C ,  9-O ) :   1.8466
B(  8-C , 10-O ) :   1.1062 B( 10-O , 11-C ) :   0.8103 B( 11-C , 12-C ) :   0.9223
B( 11-C , 27-H ) :   0.9625 B( 11-C , 28-H ) :   0.9742 B( 12-C , 29-H ) :   0.9687
B( 12-C , 30-H ) :   0.9718 B( 12-C , 31-H ) :   0.9636 B( 13-S , 14-P ) :   0.9531
B( 14-P , 15-S ) :   1.8583 B( 14-P , 16-O ) :   1.0372 B( 14-P , 18-O ) :   1.1420
B( 16-O , 17-C ) :   0.8307 B( 17-C , 32-H ) :   0.9576 B( 17-C , 33-H ) :   0.9575
B( 17-C , 34-H ) :   0.9681 B( 18-O , 19-C ) :   0.7924 B( 19-C , 35-H ) :   0.9588
B( 19-C , 36-H ) :   0.9642 B( 19-C , 37-H ) :   0.9574

Dispersion correction           -0.016950427
FINAL SINGLE POINT ENERGY     -1981.451016762953

DIPOLE MOMENT
-------------

Method             : SCF
Type of density    : Electron Density
Multiplicity       :   1
Irrep              :   0
Energy             : -1981.4710888640915982 Eh
Relativity type    :
Basis              : AO
                                X                 Y                 Z
Electronic contribution:    -16.866411010       0.533959925      -8.053632749
Nuclear contribution   :     17.925394455      -1.452723050       9.965434929
                        -----------------------------------------
Total Dipole Moment    :      1.058983445      -0.918763126       1.911802180
                        -----------------------------------------
Magnitude (a.u.)       :      2.370771856
Magnitude (Debye)      :      6.026023161

Rotational constants in cm-1:             0.015714             0.005581             0.004791
Rotational constants in MHz :           471.104258           167.310967           143.623254

                             ****ORCA TERMINATED NORMALLY****
TOTAL RUN TIME: 0 days 0 hours 1 minutes 21 seconds 654 msec
