                         Program Version 6.0.1  -  RELEASE   -
|  1> ! r2scan-3c def2/J RI DEFGRID2 scfconv6 printgap
|  2> %output
|  3>     printlevel normal
|  4> end
|  5> %cpcm
|  6>     smd true
|  7>     smdsolvent "water"
|  8> end
|  9> * xyz 0 1
| 10> C 5.8411033327 -2.9468808733 -0.7407302765
| 11> C 4.7616228578 -2.0907577569 -1.374160115
| 12> O 3.5571552796 -2.2403532454 -0.5950736235
| 13> C 2.6301128015 -1.3139442612 -0.6854665552
| 14> O 2.7045603408 -0.3345831796 -1.4011520804
| 15> C 1.4561818936 -1.6024666508 0.2264164143
| 16> C 0.33107217 -0.6439820234 -0.1130956943
| 17> H -0.0716159739 -0.8211652766 -1.1161546599
| 18> C 0.7263421414 0.8146812821 -0.0189373347
| 19> O 0.1646373716 1.6764628763 -0.6634108631
| 20> O 1.6477685269 1.0339756764 0.8912305076
| 21> C 2.0597636587 2.395976013 1.1248447774
| 22> C 1.0623716519 3.1304499431 2.0058853507
| 23> S -1.0573822892 -0.7929437443 1.060749425
| 24> P -2.4713025167 0.3508827871 -0.0511585125
| 25> S -2.4072261379 0.1587063549 -1.9954278932
| 26> O -3.8437429383 -0.1351483668 0.607821884
| 27> C -4.3639681656 -1.4451389422 0.3495612848
| 28> O -2.4156616777 1.8374539871 0.484852664
| 29> C -2.6956206491 2.14803061 1.8668428429
| 30> H 6.7507902201 -2.8661801555 -1.3262664556
| 31> H 6.0373567459 -2.6136066682 0.2738663354
| 32> H 5.5218524128 -3.9840998957 -0.7141154178
| 33> H 4.5424707887 -2.4112228716 -2.3970226725
| 34> H 5.0325982284 -1.0306607827 -1.3939084347
| 35> H 1.7806622028 -1.4611554791 1.2592984758
| 36> H 1.1403786787 -2.6381386581 0.1048643584
| 37> H 3.0303452657 2.297299567 1.6106858183
| 38> H 2.1663623588 2.8936100923 0.1567535687
| 39> H 0.1136099392 3.2293008929 1.4833104035
| 40> H 0.9088254541 2.585358799 2.9332860495
| 41> H 1.445380583 4.1205841135 2.2290005594
| 42> H -3.7959078679 -2.1835736966 0.914076577
| 43> H -4.3092796142 -1.6655080024 -0.7175464461
| 44> H -5.3988269576 -1.4189605186 0.6807121882
| 45> H -3.7498932836 1.9764671941 2.0731709938
| 46> H -2.4459825934 3.2000052858 1.9795449351
| 47> H -2.0815886558 1.5287791688 2.5217378262
| 48> *
| 49>
| 50>                          ****END OF INPUT****

CARTESIAN COORDINATES (ANGSTROEM)
---------------------------------
  C      5.841103   -2.946881   -0.740730
  C      4.761623   -2.090758   -1.374160
  O      3.557155   -2.240353   -0.595074
  C      2.630113   -1.313944   -0.685467
  O      2.704560   -0.334583   -1.401152
  C      1.456182   -1.602467    0.226416
  C      0.331072   -0.643982   -0.113096
  H     -0.071616   -0.821165   -1.116155
  C      0.726342    0.814681   -0.018937
  O      0.164637    1.676463   -0.663411
  O      1.647769    1.033976    0.891231
  C      2.059764    2.395976    1.124845
  C      1.062372    3.130450    2.005885
  S     -1.057382   -0.792944    1.060749
  P     -2.471303    0.350883   -0.051159
  S     -2.407226    0.158706   -1.995428
  O     -3.843743   -0.135148    0.607822
  C     -4.363968   -1.445139    0.349561
  O     -2.415662    1.837454    0.484853
  C     -2.695621    2.148031    1.866843
  H      6.750790   -2.866180   -1.326266
  H      6.037357   -2.613607    0.273866
  H      5.521852   -3.984100   -0.714115
  H      4.542471   -2.411223   -2.397023
  H      5.032598   -1.030661   -1.393908
  H      1.780662   -1.461155    1.259298
  H      1.140379   -2.638139    0.104864
  H      3.030345    2.297300    1.610686
  H      2.166362    2.893610    0.156754
  H      0.113610    3.229301    1.483310
  H      0.908825    2.585359    2.933286
  H      1.445381    4.120584    2.229001
  H     -3.795908   -2.183574    0.914077
  H     -4.309280   -1.665508   -0.717546
  H     -5.398827   -1.418961    0.680712
  H     -3.749893    1.976467    2.073171
  H     -2.445983    3.200005    1.979545
  H     -2.081589    1.528779    2.521738

 Total Charge           Charge          ....    0
 Multiplicity           Mult            ....    1
 Number of Electrons    NEL             ....  174
 Basis Dimension        Dim             ....  510

ORBITAL ENERGIES
----------------

  NO   OCC          E(Eh)            E(eV)
   0   2.0000     -88.585350     -2410.5299
   1   2.0000     -88.529942     -2409.0222
   2   2.0000     -76.922350     -2093.1636
   3   2.0000     -19.010230      -517.2947
   4   2.0000     -19.007306      -517.2151
   5   2.0000     -18.999676      -517.0075
   6   2.0000     -18.996706      -516.9267
   7   2.0000     -18.952482      -515.7233
   8   2.0000     -18.944200      -515.4979
   9   2.0000     -10.174461      -276.8612
  10   2.0000     -10.171039      -276.7680
  11   2.0000     -10.094273      -274.6791
  12   2.0000     -10.087355      -274.4909
  13   2.0000     -10.086890      -274.4782
  14   2.0000     -10.085383      -274.4372
  15   2.0000     -10.082540      -274.3599
  16   2.0000     -10.058998      -273.7192
  17   2.0000     -10.019910      -272.6556
  18   2.0000     -10.018800      -272.6254
  19   2.0000      -7.879363      -214.4084
  20   2.0000      -7.824934      -212.9273
  21   2.0000      -6.600686      -179.6138
  22   2.0000      -5.826015      -158.5339
  23   2.0000      -5.823344      -158.4612
  24   2.0000      -5.816642      -158.2789
  25   2.0000      -5.772704      -157.0833
  26   2.0000      -5.765249      -156.8804
  27   2.0000      -5.764736      -156.8664
  28   2.0000      -4.746501      -129.1589
  29   2.0000      -4.745697      -129.1370
  30   2.0000      -4.744130      -129.0943
  31   2.0000      -1.090431       -29.6721
  32   2.0000      -1.085696       -29.5433
  33   2.0000      -1.056368       -28.7452
  34   2.0000      -1.012790       -27.5594
  35   2.0000      -0.998228       -27.1632
  36   2.0000      -0.994014       -27.0485
  37   2.0000      -0.815792       -22.1988
  38   2.0000      -0.755306       -20.5529
  39   2.0000      -0.742553       -20.2059
  40   2.0000      -0.729618       -19.8539
  41   2.0000      -0.700242       -19.0545
  42   2.0000      -0.672662       -18.3041
  43   2.0000      -0.661293       -17.9947
  44   2.0000      -0.649316       -17.6688
  45   2.0000      -0.621831       -16.9209
  46   2.0000      -0.594570       -16.1791
  47   2.0000      -0.542248       -14.7553
  48   2.0000      -0.538203       -14.6452
  49   2.0000      -0.521589       -14.1932
  50   2.0000      -0.496432       -13.5086
  51   2.0000      -0.495174       -13.4744
  52   2.0000      -0.488633       -13.2964
  53   2.0000      -0.468204       -12.7405
  54   2.0000      -0.463025       -12.5995
  55   2.0000      -0.459544       -12.5048
  56   2.0000      -0.455596       -12.3974
  57   2.0000      -0.448720       -12.2103
  58   2.0000      -0.434543       -11.8245
  59   2.0000      -0.428248       -11.6532
  60   2.0000      -0.424084       -11.5399
  61   2.0000      -0.414212       -11.2713
  62   2.0000      -0.409371       -11.1396
  63   2.0000      -0.399916       -10.8823
  64   2.0000      -0.395314       -10.7570
  65   2.0000      -0.377491       -10.2721
  66   2.0000      -0.367246        -9.9933
  67   2.0000      -0.364631        -9.9221
  68   2.0000      -0.360301        -9.8043
  69   2.0000      -0.356273        -9.6947
  70   2.0000      -0.353500        -9.6192
  71   2.0000      -0.342011        -9.3066
  72   2.0000      -0.334393        -9.0993
  73   2.0000      -0.329992        -8.9795
  74   2.0000      -0.322668        -8.7802
  75   2.0000      -0.317597        -8.6423
  76   2.0000      -0.315295        -8.5796
  77   2.0000      -0.308983        -8.4079
  78   2.0000      -0.292750        -7.9661
  79   2.0000      -0.285266        -7.7625
  80   2.0000      -0.281832        -7.6690
  81   2.0000      -0.278164        -7.5692
  82   2.0000      -0.263636        -7.1739
  83   2.0000      -0.261142        -7.1060
  84   2.0000      -0.248959        -6.7745
  85   2.0000      -0.228793        -6.2258
  86   2.0000      -0.220130        -5.9900
  87   0.0000      -0.059148        -1.6095
  88   0.0000      -0.029976        -0.8157
  89   0.0000      -0.023923        -0.6510
  90   0.0000       0.004392         0.1195
  91   0.0000       0.012882         0.3505

MULLIKEN ATOMIC CHARGES
-----------------------
   0 C :   -0.487861
   1 C :   -0.150590
   2 O :   -0.160061
   3 C :    0.397029
   4 O :   -0.483478
   5 C :   -0.363287
   6 C :   -0.107461
   7 H :    0.266368
   8 C :    0.318234
   9 O :   -0.454763
  10 O :   -0.156574
  11 C :   -0.115620
  12 C :   -0.519630
  13 S :   -0.214997
  14 P :    0.758013
  15 S :   -0.490527
  16 O :   -0.354696
  17 C :   -0.307395
  18 O :   -0.334827
  19 C :   -0.292220
  20 H :    0.170883
  21 H :    0.166620
  22 H :    0.165501
  23 H :    0.175914
  24 H :    0.176371
  25 H :    0.226562
  26 H :    0.210624
  27 H :    0.177659
  28 H :    0.174188
  29 H :    0.176083
  30 H :    0.171874
  31 H :    0.173048
  32 H :    0.176438
  33 H :    0.178869
  34 H :    0.180611
  35 H :    0.182840
  36 H :    0.186203
  37 H :    0.184053
Sum of atomic charges:    0.0000000

LOEWDIN ATOMIC CHARGES
----------------------
   0 C :   -0.387646
   1 C :    0.041620
   2 O :   -0.576193
   3 C :    0.384749
   4 O :   -0.468635
   5 C :   -0.201574
   6 C :   -0.193784
   7 H :    0.212377
   8 C :    0.336550
   9 O :   -0.480254
  10 O :   -0.588031
  11 C :    0.041490
  12 C :   -0.391544
  13 S :    0.202456
  14 P :    0.392623
  15 S :   -0.129607
  16 O :   -0.693613
  17 C :   -0.052779
  18 O :   -0.670501
  19 C :   -0.045031
  20 H :    0.169147
  21 H :    0.162861
  22 H :    0.163249
  23 H :    0.186095
  24 H :    0.189800
  25 H :    0.212144
  26 H :    0.203528
  27 H :    0.191551
  28 H :    0.190376
  29 H :    0.167394
  30 H :    0.164256
  31 H :    0.168760
  32 H :    0.176811
  33 H :    0.178634
  34 H :    0.189366
  35 H :    0.182539
  36 H :    0.191176
  37 H :    0.179641

  Mayer bond orders larger than 0.100000
B(  0-C ,  1-C ) :   0.9441 B(  0-C , 20-H ) :   0.9614 B(  0-C , 21-H ) :   0.9726
B(  0-C , 22-H ) :   0.9663 B(  1-C ,  2-O ) :   0.7593 B(  1-C , 23-H ) :   0.9353
B(  1-C , 24-H ) :   0.9556 B(  2-O ,  3-C ) :   1.1960 B(  3-C ,  4-O ) :   1.7159
B(  3-C ,  5-C ) :   1.0100 B(  4-O ,  8-C ) :   0.1016 B(  5-C ,  6-C ) :   0.9726
B(  5-C , 10-O ) :   0.1152 B(  5-C , 25-H ) :   0.9438 B(  5-C , 26-H ) :   0.9151
B(  6-C ,  7-H ) :   0.9509 B(  6-C ,  8-C ) :   0.8530 B(  6-C , 13-S ) :   0.8151
B(  8-C ,  9-O ) :   1.7995 B(  8-C , 10-O ) :   1.1180 B( 10-O , 11-C ) :   0.7906
B( 11-C , 12-C ) :   0.9190 B( 11-C , 27-H ) :   0.9501 B( 11-C , 28-H ) :   0.9659
B( 12-C , 29-H ) :   0.9665 B( 12-C , 30-H ) :   0.9679 B( 12-C , 31-H ) :   0.9581
B( 13-S , 14-P ) :   0.9783 B( 14-P , 15-S ) :   1.8188 B( 14-P , 16-O ) :   1.0507
B( 14-P , 18-O ) :   1.1441 B( 16-O , 17-C ) :   0.8205 B( 17-C , 32-H ) :   0.9496
B( 17-C , 33-H ) :   0.9547 B( 17-C , 34-H ) :   0.9574 B( 18-O , 19-C ) :   0.7825
B( 19-C , 35-H ) :   0.9502 B( 19-C , 36-H ) :   0.9530 B( 19-C , 37-H ) :   0.9469

Dispersion correction           -0.016950427
FINAL SINGLE POINT ENERGY     -1981.470454223880

DIPOLE MOMENT
-------------

Method             : SCF
Type of density    : Electron Density
Multiplicity       :   1
Irrep              :   0
Energy             : -1981.4905263250186636 Eh
Relativity type    :
Basis              : AO
                                X                 Y                 Z
Electronic contribution:    -16.600229723      -0.135674352      -6.947212854
Nuclear contribution   :     17.925394455      -1.452723050       9.965434929
                        -----------------------------------------
Total Dipole Moment    :      1.325164732      -1.588397402       3.018222075
                        -----------------------------------------
Magnitude (a.u.)       :      3.659061678
Magnitude (Debye)      :      9.300595656

Rotational constants in cm-1:             0.015714             0.005581             0.004791
Rotational constants in MHz :           471.104258           167.310967           143.623254

                             ****ORCA TERMINATED NORMALLY****
TOTAL RUN TIME: 0 days 0 hours 1 minutes 49 seconds 941 msec
