                         Program Version 6.0.0  -   RELEASE  -
|  1> ! r2scan-3c def2/J RI DEFGRID2 scfconv6 printgap
|  2> %output
|  3>     printlevel normal
|  4> end
|  5> * xyz 0 1
|  6> C 5.5208825501 0.3999649623 -1.0830168764
|  7> C 4.6188432868 -0.5990930632 -0.385277139
|  8> O 3.534296095 0.0830397927 0.2781230734
|  9> P 2.063758159 0.1269373324 -0.3322518383
| 10> S 1.9951373912 0.5078604883 -2.2578759923
| 11> O 1.3783495878 1.1439149817 0.6641558647
| 12> C 1.5317122853 2.5716901232 0.4966254187
| 13> C 0.6889765205 3.2487884207 1.5554787448
| 14> S 1.2596636047 -1.7066026439 0.2924923614
| 15> C -0.016463926 -1.9786586191 -0.9894908544
| 16> S -1.674744931 -2.105439217 -0.2948962489
| 17> P -1.9456409771 -0.0598849441 0.2361465611
| 18> S -1.322527205 1.2264112466 -1.1042511811
| 19> O -1.2647779505 0.1881693676 1.6300614426
| 20> C -1.2160054532 -0.718329803 2.7615782119
| 21> C -2.576942527 -1.2274917457 3.1817781428
| 22> O -3.4923356138 0.0017925344 0.5868190654
| 23> C -4.5269211738 -0.1471070253 -0.405654099
| 24> C -4.9895226687 1.2046336023 -0.9137749186
| 25> H 5.8886983311 1.1335851049 -0.3712524433
| 26> H 6.3606462406 -0.1251864581 -1.5261819939
| 27> H 4.969519933 0.9139056649 -1.8677815218
| 28> H 5.1460510985 -1.1311011713 0.4083709554
| 29> H 4.2101368809 -1.3174267096 -1.1012651348
| 30> H 2.5912318364 2.819029372 0.6002391907
| 31> H 1.1955070626 2.834841834 -0.512303522
| 32> H -0.3508914696 2.952770207 1.4380986896
| 33> H 1.0294391166 2.9574597275 2.5446788311
| 34> H 0.7711790993 4.3247335436 1.4419360261
| 35> H 0.1880645184 -2.9321997168 -1.4690900699
| 36> H 0.0312921646 -1.1551343946 -1.7081741987
| 37> H -0.5492417459 -1.5462318368 2.5033646494
| 38> H -0.7548013766 -0.1090668553 3.540390266
| 39> H -2.4691762685 -1.7881569845 4.1053380439
| 40> H -3.2577238666 -0.3957520202 3.3425770353
| 41> H -2.9911841101 -1.8821700874 2.4180620744
| 42> H -4.156195818 -0.7686211255 -1.2250219624
| 43> H -5.3315760499 -0.671235128 0.1134595281
| 44> H -4.1737966715 1.7152949515 -1.4213387276
| 45> H -5.8084666521 1.0642622905 -1.611844515
| 46> H -5.3241234478 1.8211218838 -0.0841783788
| 47> *
| 48>
| 49>                          ****END OF INPUT****

CARTESIAN COORDINATES (ANGSTROEM)
---------------------------------
  C      5.520883    0.399965   -1.083017
  C      4.618843   -0.599093   -0.385277
  O      3.534296    0.083040    0.278123
  P      2.063758    0.126937   -0.332252
  S      1.995137    0.507860   -2.257876
  O      1.378350    1.143915    0.664156
  C      1.531712    2.571690    0.496625
  C      0.688977    3.248788    1.555479
  S      1.259664   -1.706603    0.292492
  C     -0.016464   -1.978659   -0.989491
  S     -1.674745   -2.105439   -0.294896
  P     -1.945641   -0.059885    0.236147
  S     -1.322527    1.226411   -1.104251
  O     -1.264778    0.188169    1.630061
  C     -1.216005   -0.718330    2.761578
  C     -2.576943   -1.227492    3.181778
  O     -3.492336    0.001793    0.586819
  C     -4.526921   -0.147107   -0.405654
  C     -4.989523    1.204634   -0.913775
  H      5.888698    1.133585   -0.371252
  H      6.360646   -0.125186   -1.526182
  H      4.969520    0.913906   -1.867782
  H      5.146051   -1.131101    0.408371
  H      4.210137   -1.317427   -1.101265
  H      2.591232    2.819029    0.600239
  H      1.195507    2.834842   -0.512304
  H     -0.350891    2.952770    1.438099
  H      1.029439    2.957460    2.544679
  H      0.771179    4.324734    1.441936
  H      0.188065   -2.932200   -1.469090
  H      0.031292   -1.155134   -1.708174
  H     -0.549242   -1.546232    2.503365
  H     -0.754801   -0.109067    3.540390
  H     -2.469176   -1.788157    4.105338
  H     -3.257724   -0.395752    3.342577
  H     -2.991184   -1.882170    2.418062
  H     -4.156196   -0.768621   -1.225022
  H     -5.331576   -0.671235    0.113460
  H     -4.173797    1.715295   -1.421339
  H     -5.808467    1.064262   -1.611845
  H     -5.324123    1.821122   -0.084178

 Total Charge           Charge          ....    0
 Multiplicity           Mult            ....    1
 Number of Electrons    NEL             ....  202
 Basis Dimension        Dim             ....  539

ORBITAL ENERGIES
----------------

  NO   OCC          E(Eh)            E(eV)
   0   2.0000     -88.578051     -2410.3313
   1   2.0000     -88.575439     -2410.2602
   2   2.0000     -88.512226     -2408.5401
   3   2.0000     -88.511578     -2408.5225
   4   2.0000     -76.912570     -2092.8974
   5   2.0000     -76.907680     -2092.7644
   6   2.0000     -18.991321      -516.7801
   7   2.0000     -18.989638      -516.7343
   8   2.0000     -18.984978      -516.6075
   9   2.0000     -18.979084      -516.4471
  10   2.0000     -10.106621      -275.0151
  11   2.0000     -10.100972      -274.8614
  12   2.0000     -10.099988      -274.8346
  13   2.0000     -10.094615      -274.6884
  14   2.0000     -10.086558      -274.4692
  15   2.0000     -10.031772      -272.9784
  16   2.0000     -10.023993      -272.7667
  17   2.0000     -10.022881      -272.7365
  18   2.0000     -10.018749      -272.6240
  19   2.0000      -7.872490      -214.2214
  20   2.0000      -7.870048      -214.1549
  21   2.0000      -7.807010      -212.4396
  22   2.0000      -7.806509      -212.4259
  23   2.0000      -6.590677      -179.3414
  24   2.0000      -6.586132      -179.2178
  25   2.0000      -5.819356      -158.3527
  26   2.0000      -5.816837      -158.2842
  27   2.0000      -5.816043      -158.2626
  28   2.0000      -5.813804      -158.2016
  29   2.0000      -5.809899      -158.0954
  30   2.0000      -5.807284      -158.0242
  31   2.0000      -5.754678      -156.5927
  32   2.0000      -5.754272      -156.5817
  33   2.0000      -5.747450      -156.3961
  34   2.0000      -5.746836      -156.3793
  35   2.0000      -5.746756      -156.3772
  36   2.0000      -5.746410      -156.3678
  37   2.0000      -4.736375      -128.8833
  38   2.0000      -4.735952      -128.8718
  39   2.0000      -4.733956      -128.8175
  40   2.0000      -4.731577      -128.7528
  41   2.0000      -4.730984      -128.7366
  42   2.0000      -4.729989      -128.7096
  43   2.0000      -1.049297       -28.5528
  44   2.0000      -1.041843       -28.3500
  45   2.0000      -1.009633       -27.4735
  46   2.0000      -1.000608       -27.2279
  47   2.0000      -0.800357       -21.7788
  48   2.0000      -0.756883       -20.5958
  49   2.0000      -0.747280       -20.3345
  50   2.0000      -0.733923       -19.9711
  51   2.0000      -0.723990       -19.7008
  52   2.0000      -0.708965       -19.2919
  53   2.0000      -0.682493       -18.5716
  54   2.0000      -0.661495       -18.0002
  55   2.0000      -0.622868       -16.9491
  56   2.0000      -0.617629       -16.8065
  57   2.0000      -0.605494       -16.4763
  58   2.0000      -0.600359       -16.3366
  59   2.0000      -0.588469       -16.0131
  60   2.0000      -0.527639       -14.3578
  61   2.0000      -0.520196       -14.1552
  62   2.0000      -0.494425       -13.4540
  63   2.0000      -0.491958       -13.3869
  64   2.0000      -0.464416       -12.6374
  65   2.0000      -0.461196       -12.5498
  66   2.0000      -0.456786       -12.4298
  67   2.0000      -0.452015       -12.3000
  68   2.0000      -0.442059       -12.0290
  69   2.0000      -0.433379       -11.7928
  70   2.0000      -0.419630       -11.4187
  71   2.0000      -0.416069       -11.3218
  72   2.0000      -0.409769       -11.1504
  73   2.0000      -0.405048       -11.0219
  74   2.0000      -0.392303       -10.6751
  75   2.0000      -0.382043       -10.3959
  76   2.0000      -0.371791       -10.1169
  77   2.0000      -0.370654       -10.0860
  78   2.0000      -0.366768        -9.9803
  79   2.0000      -0.364344        -9.9143
  80   2.0000      -0.360544        -9.8109
  81   2.0000      -0.357846        -9.7375
  82   2.0000      -0.345211        -9.3937
  83   2.0000      -0.344069        -9.3626
  84   2.0000      -0.339366        -9.2346
  85   2.0000      -0.329107        -8.9555
  86   2.0000      -0.324388        -8.8270
  87   2.0000      -0.310498        -8.4491
  88   2.0000      -0.308763        -8.4019
  89   2.0000      -0.305312        -8.3080
  90   2.0000      -0.296740        -8.0747
  91   2.0000      -0.287855        -7.8329
  92   2.0000      -0.277726        -7.5573
  93   2.0000      -0.275660        -7.5011
  94   2.0000      -0.272015        -7.4019
  95   2.0000      -0.251729        -6.8499
  96   2.0000      -0.235039        -6.3957
  97   2.0000      -0.223885        -6.0922
  98   2.0000      -0.214107        -5.8261
  99   2.0000      -0.204708        -5.5704
 100   2.0000      -0.193841        -5.2747
 101   0.0000      -0.043085        -1.1724
 102   0.0000      -0.030834        -0.8390
 103   0.0000      -0.009040        -0.2460
 104   0.0000       0.016050         0.4367
 105   0.0000       0.020768         0.5651

MULLIKEN ATOMIC CHARGES
-----------------------
   0 C :   -0.462372
   1 C :   -0.115610
   2 O :   -0.307950
   3 P :    0.642916
   4 S :   -0.459472
   5 O :   -0.250636
   6 C :   -0.124410
   7 C :   -0.466898
   8 S :   -0.145762
   9 C :   -0.213569
  10 S :   -0.170810
  11 P :    0.657993
  12 S :   -0.423713
  13 O :   -0.250286
  14 C :   -0.140931
  15 C :   -0.439358
  16 O :   -0.290347
  17 C :   -0.146130
  18 C :   -0.444282
  19 H :    0.149752
  20 H :    0.143987
  21 H :    0.180488
  22 H :    0.147923
  23 H :    0.153986
  24 H :    0.145905
  25 H :    0.175356
  26 H :    0.180216
  27 H :    0.145056
  28 H :    0.142417
  29 H :    0.195889
  30 H :    0.220395
  31 H :    0.168173
  32 H :    0.153810
  33 H :    0.149381
  34 H :    0.160930
  35 H :    0.159841
  36 H :    0.152015
  37 H :    0.149321
  38 H :    0.183033
  39 H :    0.143983
  40 H :    0.149772
Sum of atomic charges:    0.0000000

LOEWDIN ATOMIC CHARGES
----------------------
   0 C :   -0.400130
   1 C :    0.018204
   2 O :   -0.667112
   3 P :    0.363845
   4 S :   -0.126334
   5 O :   -0.670958
   6 C :    0.017883
   7 C :   -0.390067
   8 S :    0.163319
   9 C :   -0.412993
  10 S :    0.123133
  11 P :    0.379798
  12 S :   -0.068170
  13 O :   -0.649722
  14 C :    0.022519
  15 C :   -0.400630
  16 O :   -0.671662
  17 C :    0.021637
  18 C :   -0.400137
  19 H :    0.156971
  20 H :    0.157921
  21 H :    0.168148
  22 H :    0.175783
  23 H :    0.177210
  24 H :    0.170045
  25 H :    0.183331
  26 H :    0.170376
  27 H :    0.156582
  28 H :    0.157954
  29 H :    0.180461
  30 H :    0.203835
  31 H :    0.178849
  32 H :    0.183517
  33 H :    0.159672
  34 H :    0.164358
  35 H :    0.162532
  36 H :    0.176307
  37 H :    0.177401
  38 H :    0.170411
  39 H :    0.157517
  40 H :    0.158395

  Mayer bond orders larger than 0.100000
B(  0-C ,  1-C ) :   0.9551 B(  0-C , 19-H ) :   0.9754 B(  0-C , 20-H ) :   0.9657
B(  0-C , 21-H ) :   0.9610 B(  1-C ,  2-O ) :   0.7716 B(  1-C , 22-H ) :   0.9628
B(  1-C , 23-H ) :   0.9626 B(  2-O ,  3-P ) :   1.0498 B(  3-P ,  4-S ) :   1.7646
B(  3-P ,  5-O ) :   1.2086 B(  3-P ,  8-S ) :   1.1276 B(  5-O ,  6-C ) :   0.7556
B(  6-C ,  7-C ) :   0.9359 B(  6-C , 24-H ) :   0.9443 B(  6-C , 25-H ) :   0.9506
B(  7-C , 26-H ) :   0.9683 B(  7-C , 27-H ) :   0.9729 B(  7-C , 28-H ) :   0.9666
B(  8-S ,  9-C ) :   0.8900 B(  9-C , 10-S ) :   0.9108 B(  9-C , 29-H ) :   0.9132
B(  9-C , 30-H ) :   0.9034 B( 10-S , 11-P ) :   1.0114 B( 11-P , 12-S ) :   1.8210
B( 11-P , 13-O ) :   1.1525 B( 11-P , 16-O ) :   1.0443 B( 13-O , 14-C ) :   0.7996
B( 14-C , 15-C ) :   0.9158 B( 14-C , 31-H ) :   0.9609 B( 14-C , 32-H ) :   0.9599
B( 15-C , 33-H ) :   0.9570 B( 15-C , 34-H ) :   0.9699 B( 15-C , 35-H ) :   0.9631
B( 16-O , 17-C ) :   0.7730 B( 17-C , 18-C ) :   0.9630 B( 17-C , 36-H ) :   0.9568
B( 17-C , 37-H ) :   0.9655 B( 18-C , 38-H ) :   0.9541 B( 18-C , 39-H ) :   0.9656
B( 18-C , 40-H ) :   0.9742

Dispersion correction           -0.022108040
FINAL SINGLE POINT ENERGY     -2932.458710694788

DIPOLE MOMENT
-------------

Method             : SCF
Type of density    : Electron Density
Multiplicity       :   1
Irrep              :   0
Energy             : -2932.4830363428245619 Eh
Relativity type    :
Basis              : AO
                                X                 Y                 Z
Electronic contribution:      2.436303008      -8.848352323      -8.005418882
Nuclear contribution   :     -2.723883856       8.197125279       9.197175990
                        -----------------------------------------
Total Dipole Moment    :     -0.287580848      -0.651227044       1.191757108
                        -----------------------------------------
Magnitude (a.u.)       :      1.388194659
Magnitude (Debye)      :      3.528510409

Rotational constants in cm-1:             0.013125             0.005152             0.004981
Rotational constants in MHz :           393.486331           154.457745           149.312758

                             ****ORCA TERMINATED NORMALLY****
TOTAL RUN TIME: 0 days 0 hours 1 minutes 21 seconds 411 msec
