                         Program Version 6.0.0  -   RELEASE  -
|  1> ! r2scan-3c def2/J RI DEFGRID2 scfconv6 printgap
|  2> %output
|  3>     printlevel normal
|  4> end
|  5> %cpcm
|  6>     smd true
|  7>     smdsolvent "water"
|  8> end
|  9> * xyz 0 1
| 10> C 5.5208825501 0.3999649623 -1.0830168764
| 11> C 4.6188432868 -0.5990930632 -0.385277139
| 12> O 3.534296095 0.0830397927 0.2781230734
| 13> P 2.063758159 0.1269373324 -0.3322518383
| 14> S 1.9951373912 0.5078604883 -2.2578759923
| 15> O 1.3783495878 1.1439149817 0.6641558647
| 16> C 1.5317122853 2.5716901232 0.4966254187
| 17> C 0.6889765205 3.2487884207 1.5554787448
| 18> S 1.2596636047 -1.7066026439 0.2924923614
| 19> C -0.016463926 -1.9786586191 -0.9894908544
| 20> S -1.674744931 -2.105439217 -0.2948962489
| 21> P -1.9456409771 -0.0598849441 0.2361465611
| 22> S -1.322527205 1.2264112466 -1.1042511811
| 23> O -1.2647779505 0.1881693676 1.6300614426
| 24> C -1.2160054532 -0.718329803 2.7615782119
| 25> C -2.576942527 -1.2274917457 3.1817781428
| 26> O -3.4923356138 0.0017925344 0.5868190654
| 27> C -4.5269211738 -0.1471070253 -0.405654099
| 28> C -4.9895226687 1.2046336023 -0.9137749186
| 29> H 5.8886983311 1.1335851049 -0.3712524433
| 30> H 6.3606462406 -0.1251864581 -1.5261819939
| 31> H 4.969519933 0.9139056649 -1.8677815218
| 32> H 5.1460510985 -1.1311011713 0.4083709554
| 33> H 4.2101368809 -1.3174267096 -1.1012651348
| 34> H 2.5912318364 2.819029372 0.6002391907
| 35> H 1.1955070626 2.834841834 -0.512303522
| 36> H -0.3508914696 2.952770207 1.4380986896
| 37> H 1.0294391166 2.9574597275 2.5446788311
| 38> H 0.7711790993 4.3247335436 1.4419360261
| 39> H 0.1880645184 -2.9321997168 -1.4690900699
| 40> H 0.0312921646 -1.1551343946 -1.7081741987
| 41> H -0.5492417459 -1.5462318368 2.5033646494
| 42> H -0.7548013766 -0.1090668553 3.540390266
| 43> H -2.4691762685 -1.7881569845 4.1053380439
| 44> H -3.2577238666 -0.3957520202 3.3425770353
| 45> H -2.9911841101 -1.8821700874 2.4180620744
| 46> H -4.156195818 -0.7686211255 -1.2250219624
| 47> H -5.3315760499 -0.671235128 0.1134595281
| 48> H -4.1737966715 1.7152949515 -1.4213387276
| 49> H -5.8084666521 1.0642622905 -1.611844515
| 50> H -5.3241234478 1.8211218838 -0.0841783788
| 51> *
| 52>
| 53>                          ****END OF INPUT****

CARTESIAN COORDINATES (ANGSTROEM)
---------------------------------
  C      5.520883    0.399965   -1.083017
  C      4.618843   -0.599093   -0.385277
  O      3.534296    0.083040    0.278123
  P      2.063758    0.126937   -0.332252
  S      1.995137    0.507860   -2.257876
  O      1.378350    1.143915    0.664156
  C      1.531712    2.571690    0.496625
  C      0.688977    3.248788    1.555479
  S      1.259664   -1.706603    0.292492
  C     -0.016464   -1.978659   -0.989491
  S     -1.674745   -2.105439   -0.294896
  P     -1.945641   -0.059885    0.236147
  S     -1.322527    1.226411   -1.104251
  O     -1.264778    0.188169    1.630061
  C     -1.216005   -0.718330    2.761578
  C     -2.576943   -1.227492    3.181778
  O     -3.492336    0.001793    0.586819
  C     -4.526921   -0.147107   -0.405654
  C     -4.989523    1.204634   -0.913775
  H      5.888698    1.133585   -0.371252
  H      6.360646   -0.125186   -1.526182
  H      4.969520    0.913906   -1.867782
  H      5.146051   -1.131101    0.408371
  H      4.210137   -1.317427   -1.101265
  H      2.591232    2.819029    0.600239
  H      1.195507    2.834842   -0.512304
  H     -0.350891    2.952770    1.438099
  H      1.029439    2.957460    2.544679
  H      0.771179    4.324734    1.441936
  H      0.188065   -2.932200   -1.469090
  H      0.031292   -1.155134   -1.708174
  H     -0.549242   -1.546232    2.503365
  H     -0.754801   -0.109067    3.540390
  H     -2.469176   -1.788157    4.105338
  H     -3.257724   -0.395752    3.342577
  H     -2.991184   -1.882170    2.418062
  H     -4.156196   -0.768621   -1.225022
  H     -5.331576   -0.671235    0.113460
  H     -4.173797    1.715295   -1.421339
  H     -5.808467    1.064262   -1.611845
  H     -5.324123    1.821122   -0.084178

 Total Charge           Charge          ....    0
 Multiplicity           Mult            ....    1
 Number of Electrons    NEL             ....  202
 Basis Dimension        Dim             ....  539

ORBITAL ENERGIES
----------------

  NO   OCC          E(Eh)            E(eV)
   0   2.0000     -88.580748     -2410.4047
   1   2.0000     -88.580561     -2410.3996
   2   2.0000     -88.523718     -2408.8528
   3   2.0000     -88.521045     -2408.7801
   4   2.0000     -76.918617     -2093.0620
   5   2.0000     -76.917089     -2093.0204
   6   2.0000     -18.994652      -516.8708
   7   2.0000     -18.993258      -516.8328
   8   2.0000     -18.991459      -516.7839
   9   2.0000     -18.989025      -516.7176
  10   2.0000     -10.105985      -274.9978
  11   2.0000     -10.092015      -274.6177
  12   2.0000     -10.091361      -274.5999
  13   2.0000     -10.089079      -274.5378
  14   2.0000     -10.087402      -274.4922
  15   2.0000     -10.019742      -272.6510
  16   2.0000     -10.017437      -272.5883
  17   2.0000     -10.016565      -272.5646
  18   2.0000     -10.016188      -272.5543
  19   2.0000      -7.875111      -214.2927
  20   2.0000      -7.875098      -214.2923
  21   2.0000      -7.818826      -212.7611
  22   2.0000      -7.816309      -212.6926
  23   2.0000      -6.596780      -179.5075
  24   2.0000      -6.595575      -179.4747
  25   2.0000      -5.821989      -158.4244
  26   2.0000      -5.821909      -158.4222
  27   2.0000      -5.818867      -158.3394
  28   2.0000      -5.818671      -158.3341
  29   2.0000      -5.812475      -158.1655
  30   2.0000      -5.812354      -158.1622
  31   2.0000      -5.766421      -156.9123
  32   2.0000      -5.763971      -156.8456
  33   2.0000      -5.759274      -156.7178
  34   2.0000      -5.758654      -156.7009
  35   2.0000      -5.756626      -156.6458
  36   2.0000      -5.756177      -156.6335
  37   2.0000      -4.742454      -129.0487
  38   2.0000      -4.741991      -129.0361
  39   2.0000      -4.740990      -129.0089
  40   2.0000      -4.740416      -128.9933
  41   2.0000      -4.740177      -128.9868
  42   2.0000      -4.739503      -128.9684
  43   2.0000      -1.052621       -28.6433
  44   2.0000      -1.049656       -28.5626
  45   2.0000      -1.012374       -27.5481
  46   2.0000      -1.008053       -27.4305
  47   2.0000      -0.802592       -21.8396
  48   2.0000      -0.756647       -20.5894
  49   2.0000      -0.745536       -20.2871
  50   2.0000      -0.726266       -19.7627
  51   2.0000      -0.721739       -19.6395
  52   2.0000      -0.710565       -19.3355
  53   2.0000      -0.687638       -18.7116
  54   2.0000      -0.669245       -18.2111
  55   2.0000      -0.624190       -16.9851
  56   2.0000      -0.617975       -16.8159
  57   2.0000      -0.600027       -16.3276
  58   2.0000      -0.598692       -16.2912
  59   2.0000      -0.589557       -16.0427
  60   2.0000      -0.528652       -14.3854
  61   2.0000      -0.518321       -14.1042
  62   2.0000      -0.495756       -13.4902
  63   2.0000      -0.490918       -13.3586
  64   2.0000      -0.465602       -12.6697
  65   2.0000      -0.459731       -12.5099
  66   2.0000      -0.455850       -12.4043
  67   2.0000      -0.451166       -12.2769
  68   2.0000      -0.440591       -11.9891
  69   2.0000      -0.434065       -11.8115
  70   2.0000      -0.418253       -11.3813
  71   2.0000      -0.414118       -11.2687
  72   2.0000      -0.411195       -11.1892
  73   2.0000      -0.402697       -10.9580
  74   2.0000      -0.392565       -10.6822
  75   2.0000      -0.383834       -10.4447
  76   2.0000      -0.371620       -10.1123
  77   2.0000      -0.367571       -10.0021
  78   2.0000      -0.363158        -9.8820
  79   2.0000      -0.359957        -9.7949
  80   2.0000      -0.355600        -9.6764
  81   2.0000      -0.352369        -9.5885
  82   2.0000      -0.344512        -9.3747
  83   2.0000      -0.341330        -9.2880
  84   2.0000      -0.340452        -9.2642
  85   2.0000      -0.327782        -8.9194
  86   2.0000      -0.326099        -8.8736
  87   2.0000      -0.311933        -8.4881
  88   2.0000      -0.305552        -8.3145
  89   2.0000      -0.304430        -8.2840
  90   2.0000      -0.299974        -8.1627
  91   2.0000      -0.288992        -7.8639
  92   2.0000      -0.280931        -7.6445
  93   2.0000      -0.279368        -7.6020
  94   2.0000      -0.275932        -7.5085
  95   2.0000      -0.255425        -6.9505
  96   2.0000      -0.241865        -6.5815
  97   2.0000      -0.234367        -6.3775
  98   2.0000      -0.225137        -6.1263
  99   2.0000      -0.214292        -5.8312
 100   2.0000      -0.204769        -5.5721
 101   0.0000      -0.047366        -1.2889
 102   0.0000      -0.037252        -1.0137
 103   0.0000      -0.012918        -0.3515
 104   0.0000       0.008989         0.2446
 105   0.0000       0.015168         0.4127

MULLIKEN ATOMIC CHARGES
-----------------------
   0 C :   -0.498685
   1 C :   -0.114157
   2 O :   -0.333779
   3 P :    0.673908
   4 S :   -0.514732
   5 O :   -0.279554
   6 C :   -0.121777
   7 C :   -0.508321
   8 S :   -0.144474
   9 C :   -0.213707
  10 S :   -0.165966
  11 P :    0.669224
  12 S :   -0.474625
  13 O :   -0.286359
  14 C :   -0.135033
  15 C :   -0.477453
  16 O :   -0.312292
  17 C :   -0.131841
  18 C :   -0.489829
  19 H :    0.165860
  20 H :    0.169446
  21 H :    0.170685
  22 H :    0.174592
  23 H :    0.164285
  24 H :    0.171035
  25 H :    0.174095
  26 H :    0.170487
  27 H :    0.166252
  28 H :    0.169621
  29 H :    0.237980
  30 H :    0.213283
  31 H :    0.174778
  32 H :    0.179277
  33 H :    0.175228
  34 H :    0.170008
  35 H :    0.166153
  36 H :    0.161683
  37 H :    0.177805
  38 H :    0.171429
  39 H :    0.169405
  40 H :    0.166062
Sum of atomic charges:   -0.0000000

LOEWDIN ATOMIC CHARGES
----------------------
   0 C :   -0.404158
   1 C :    0.023347
   2 O :   -0.679755
   3 P :    0.368029
   4 S :   -0.161475
   5 O :   -0.689954
   6 C :    0.019961
   7 C :   -0.394062
   8 S :    0.167648
   9 C :   -0.407238
  10 S :    0.134690
  11 P :    0.381256
  12 S :   -0.105166
  13 O :   -0.671552
  14 C :    0.027568
  15 C :   -0.401473
  16 O :   -0.681127
  17 C :    0.027972
  18 C :   -0.405918
  19 H :    0.161936
  20 H :    0.167406
  21 H :    0.162217
  22 H :    0.187213
  23 H :    0.180418
  24 H :    0.179773
  25 H :    0.182594
  26 H :    0.164425
  27 H :    0.162818
  28 H :    0.168223
  29 H :    0.197241
  30 H :    0.200737
  31 H :    0.181715
  32 H :    0.193631
  33 H :    0.169868
  34 H :    0.166140
  35 H :    0.162916
  36 H :    0.180128
  37 H :    0.189802
  38 H :    0.162873
  39 H :    0.167079
  40 H :    0.162256

  Mayer bond orders larger than 0.100000
B(  0-C ,  1-C ) :   0.9451 B(  0-C , 19-H ) :   0.9714 B(  0-C , 20-H ) :   0.9604
B(  0-C , 21-H ) :   0.9654 B(  1-C ,  2-O ) :   0.7570 B(  1-C , 22-H ) :   0.9523
B(  1-C , 23-H ) :   0.9575 B(  2-O ,  3-P ) :   1.0564 B(  3-P ,  4-S ) :   1.7144
B(  3-P ,  5-O ) :   1.2067 B(  3-P ,  8-S ) :   1.1517 B(  5-O ,  6-C ) :   0.7484
B(  6-C ,  7-C ) :   0.9261 B(  6-C , 24-H ) :   0.9359 B(  6-C , 25-H ) :   0.9478
B(  7-C , 26-H ) :   0.9710 B(  7-C , 27-H ) :   0.9692 B(  7-C , 28-H ) :   0.9607
B(  8-S ,  9-C ) :   0.8840 B(  9-C , 10-S ) :   0.9053 B(  9-C , 29-H ) :   0.8969
B(  9-C , 30-H ) :   0.9078 B( 10-S , 11-P ) :   1.0334 B( 11-P , 12-S ) :   1.7959
B( 11-P , 13-O ) :   1.1522 B( 11-P , 16-O ) :   1.0510 B( 13-O , 14-C ) :   0.7884
B( 14-C , 15-C ) :   0.9110 B( 14-C , 31-H ) :   0.9536 B( 14-C , 32-H ) :   0.9477
B( 15-C , 33-H ) :   0.9503 B( 15-C , 34-H ) :   0.9690 B( 15-C , 35-H ) :   0.9606
B( 16-O , 17-C ) :   0.7620 B( 17-C , 18-C ) :   0.9466 B( 17-C , 36-H ) :   0.9513
B( 17-C , 37-H ) :   0.9552 B( 18-C , 38-H ) :   0.9603 B( 18-C , 39-H ) :   0.9601
B( 18-C , 40-H ) :   0.9726

Dispersion correction           -0.022108040
FINAL SINGLE POINT ENERGY     -2932.467686649312

DIPOLE MOMENT
-------------

Method             : SCF
Type of density    : Electron Density
Multiplicity       :   1
Irrep              :   0
Energy             : -2932.4920122973485377 Eh
Relativity type    :
Basis              : AO
                                X                 Y                 Z
Electronic contribution:      2.400509345      -9.428741459      -7.611616114
Nuclear contribution   :     -2.723883856       8.197125279       9.197175990
                        -----------------------------------------
Total Dipole Moment    :     -0.323374511      -1.231616181       1.585559876
                        -----------------------------------------
Magnitude (a.u.)       :      2.033580491
Magnitude (Debye)      :      5.168950824

Rotational constants in cm-1:             0.013125             0.005152             0.004981
Rotational constants in MHz :           393.486331           154.457745           149.312758

                             ****ORCA TERMINATED NORMALLY****
TOTAL RUN TIME: 0 days 0 hours 1 minutes 52 seconds 35 msec
