                         Program Version 6.0.0  -   RELEASE  -
|  1> ! pbe def2-sv(p) def2/J RI DEFGRID1 loosescf d4 GCP(DFT/SV(P)) printgap
|  2> %output
|  3>     printlevel normal
|  4> end
|  5> * xyz 0 1
|  6> C 4.5822875413 -0.8410372008 -2.1411789653
|  7> C 4.0025250165 -1.8223410447 -1.1442573343
|  8> O 3.5358131144 -1.1884973666 0.0610143831
|  9> P 2.4916668524 0.0041517565 0.1323846597
| 10> S 3.1579240864 1.8012971503 -0.2697753097
| 11> O 2.0292006002 -0.0319523821 1.6369265621
| 12> C 1.2216909583 -1.0334382231 2.3009576761
| 13> C 1.7816124115 -2.434666237 2.1778292144
| 14> S 0.8670652349 -0.6718800541 -1.0804964244
| 15> C 0.1040375891 0.9487485252 -1.2847217915
| 16> S -0.6983771996 1.546679627 0.2304058215
| 17> P -2.4312755416 0.3592769054 0.0344634992
| 18> S -3.2020883735 0.1835968668 -1.7640220165
| 19> O -3.439101728 0.9001138569 1.1389114623
| 20> C -4.4006506433 1.9340577378 0.8651402261
| 21> C -3.738923476 3.2735262812 0.6140440374
| 22> O -1.92449509 -0.9835989926 0.7022592182
| 23> C -2.6041174126 -2.2495120496 0.5134759042
| 24> C -1.5649312027 -3.3363967309 0.3303624954
| 25> H 3.8069880186 -0.1667330481 -2.5020200453
| 26> H 5.3635163 -0.2443216423 -1.6762559324
| 27> H 4.9977271312 -1.3853440683 -2.9831588177
| 28> H 4.7606369809 -2.5219257381 -0.7879805366
| 29> H 3.1666620469 -2.3717195748 -1.5864287223
| 30> H 1.2167002986 -0.6931318069 3.3379392113
| 31> H 0.2075397623 -0.977155102 1.8948638391
| 32> H 2.8279106657 -2.4460383548 2.4721878257
| 33> H 1.2211296315 -3.0958229119 2.8323201312
| 34> H 1.6982227584 -2.7918301718 1.1537559085
| 35> H -0.6391975779 0.8611712265 -2.077958152
| 36> H 0.8762988742 1.6778179925 -1.5347604821
| 37> H -4.9958389816 1.6306223506 -0.0020973864
| 38> H -5.0264837764 1.9535693913 1.7582284025
| 39> H -3.0674873256 3.5236832105 1.431888008
| 40> H -3.1642537401 3.2381020933 -0.3109885289
| 41> H -4.5008043824 4.0412469318 0.5248863768
| 42> H -3.2165835949 -2.4198490348 1.4009469979
| 43> H -3.2519408068 -2.1708874798 -0.3659978285
| 44> H -0.941354281 -3.1127844644 -0.5319161552
| 45> H -0.9371606501 -3.4078869243 1.2131560604
| 46> H -2.0699672599 -4.2834715404 0.1706269659
| 47> *
| 48>
| 49>                          ****END OF INPUT****

CARTESIAN COORDINATES (ANGSTROEM)
---------------------------------
  C      4.582288   -0.841037   -2.141179
  C      4.002525   -1.822341   -1.144257
  O      3.535813   -1.188497    0.061014
  P      2.491667    0.004152    0.132385
  S      3.157924    1.801297   -0.269775
  O      2.029201   -0.031952    1.636927
  C      1.221691   -1.033438    2.300958
  C      1.781612   -2.434666    2.177829
  S      0.867065   -0.671880   -1.080496
  C      0.104038    0.948749   -1.284722
  S     -0.698377    1.546680    0.230406
  P     -2.431276    0.359277    0.034463
  S     -3.202088    0.183597   -1.764022
  O     -3.439102    0.900114    1.138911
  C     -4.400651    1.934058    0.865140
  C     -3.738923    3.273526    0.614044
  O     -1.924495   -0.983599    0.702259
  C     -2.604117   -2.249512    0.513476
  C     -1.564931   -3.336397    0.330362
  H      3.806988   -0.166733   -2.502020
  H      5.363516   -0.244322   -1.676256
  H      4.997727   -1.385344   -2.983159
  H      4.760637   -2.521926   -0.787981
  H      3.166662   -2.371720   -1.586429
  H      1.216700   -0.693132    3.337939
  H      0.207540   -0.977155    1.894864
  H      2.827911   -2.446038    2.472188
  H      1.221130   -3.095823    2.832320
  H      1.698223   -2.791830    1.153756
  H     -0.639198    0.861171   -2.077958
  H      0.876299    1.677818   -1.534760
  H     -4.995839    1.630622   -0.002097
  H     -5.026484    1.953569    1.758228
  H     -3.067487    3.523683    1.431888
  H     -3.164254    3.238102   -0.310989
  H     -4.500804    4.041247    0.524886
  H     -3.216584   -2.419849    1.400947
  H     -3.251941   -2.170887   -0.365998
  H     -0.941354   -3.112784   -0.531916
  H     -0.937161   -3.407887    1.213156
  H     -2.069967   -4.283472    0.170627

 Total Charge           Charge          ....    0
 Multiplicity           Mult            ....    1
 Number of Electrons    NEL             ....  202
 Basis Dimension        Dim             ....  334

ORBITAL ENERGIES
----------------

  NO   OCC          E(Eh)            E(eV)
   0   2.0000     -88.046223     -2395.8595
   1   2.0000     -88.045607     -2395.8428
   2   2.0000     -87.993386     -2394.4218
   3   2.0000     -87.979658     -2394.0482
   4   2.0000     -76.430479     -2079.7791
   5   2.0000     -76.426091     -2079.6597
   6   2.0000     -18.797249      -511.4991
   7   2.0000     -18.796572      -511.4807
   8   2.0000     -18.794928      -511.4360
   9   2.0000     -18.786963      -511.2193
  10   2.0000      -9.959767      -271.0190
  11   2.0000      -9.956660      -270.9345
  12   2.0000      -9.955352      -270.8989
  13   2.0000      -9.953504      -270.8486
  14   2.0000      -9.949803      -270.7479
  15   2.0000      -9.890964      -269.1468
  16   2.0000      -9.887989      -269.0659
  17   2.0000      -9.885942      -269.0102
  18   2.0000      -9.882875      -268.9267
  19   2.0000      -7.691235      -209.2892
  20   2.0000      -7.690276      -209.2630
  21   2.0000      -7.638278      -207.8481
  22   2.0000      -7.625026      -207.4875
  23   2.0000      -6.428363      -174.9247
  24   2.0000      -6.423049      -174.7800
  25   2.0000      -5.719063      -155.6236
  26   2.0000      -5.717886      -155.5916
  27   2.0000      -5.715882      -155.5370
  28   2.0000      -5.714785      -155.5072
  29   2.0000      -5.708110      -155.3256
  30   2.0000      -5.707587      -155.3113
  31   2.0000      -5.666987      -154.2066
  32   2.0000      -5.658988      -153.9889
  33   2.0000      -5.658576      -153.9777
  34   2.0000      -5.654111      -153.8562
  35   2.0000      -5.645661      -153.6262
  36   2.0000      -5.644943      -153.6067
  37   2.0000      -4.650871      -126.5566
  38   2.0000      -4.650065      -126.5347
  39   2.0000      -4.648851      -126.5017
  40   2.0000      -4.645773      -126.4179
  41   2.0000      -4.645284      -126.4046
  42   2.0000      -4.643020      -126.3430
  43   2.0000      -0.991524       -26.9807
  44   2.0000      -0.986103       -26.8332
  45   2.0000      -0.950351       -25.8604
  46   2.0000      -0.943594       -25.6765
  47   2.0000      -0.767540       -20.8858
  48   2.0000      -0.724675       -19.7194
  49   2.0000      -0.712925       -19.3997
  50   2.0000      -0.691114       -18.8062
  51   2.0000      -0.690494       -18.7893
  52   2.0000      -0.679520       -18.4907
  53   2.0000      -0.652258       -17.7489
  54   2.0000      -0.639635       -17.4053
  55   2.0000      -0.602816       -16.4034
  56   2.0000      -0.590755       -16.0753
  57   2.0000      -0.578023       -15.7288
  58   2.0000      -0.576757       -15.6943
  59   2.0000      -0.562501       -15.3064
  60   2.0000      -0.508693       -13.8422
  61   2.0000      -0.493483       -13.4283
  62   2.0000      -0.477151       -12.9839
  63   2.0000      -0.470704       -12.8085
  64   2.0000      -0.461701       -12.5635
  65   2.0000      -0.446184       -12.1413
  66   2.0000      -0.443762       -12.0754
  67   2.0000      -0.438165       -11.9231
  68   2.0000      -0.433524       -11.7968
  69   2.0000      -0.419597       -11.4178
  70   2.0000      -0.412073       -11.2131
  71   2.0000      -0.400950       -10.9104
  72   2.0000      -0.396188       -10.7808
  73   2.0000      -0.393553       -10.7091
  74   2.0000      -0.388001       -10.5580
  75   2.0000      -0.378378       -10.2962
  76   2.0000      -0.364152        -9.9091
  77   2.0000      -0.359609        -9.7854
  78   2.0000      -0.354862        -9.6563
  79   2.0000      -0.351902        -9.5757
  80   2.0000      -0.347553        -9.4574
  81   2.0000      -0.346961        -9.4413
  82   2.0000      -0.344646        -9.3783
  83   2.0000      -0.340909        -9.2766
  84   2.0000      -0.340277        -9.2594
  85   2.0000      -0.324600        -8.8328
  86   2.0000      -0.314293        -8.5524
  87   2.0000      -0.300132        -8.1670
  88   2.0000      -0.296193        -8.0598
  89   2.0000      -0.291588        -7.9345
  90   2.0000      -0.284378        -7.7383
  91   2.0000      -0.281857        -7.6697
  92   2.0000      -0.271714        -7.3937
  93   2.0000      -0.267734        -7.2854
  94   2.0000      -0.260699        -7.0940
  95   2.0000      -0.238635        -6.4936
  96   2.0000      -0.222592        -6.0570
  97   2.0000      -0.214138        -5.8270
  98   2.0000      -0.207727        -5.6526
  99   2.0000      -0.199398        -5.4259
 100   2.0000      -0.194099        -5.2817
 101   0.0000      -0.045973        -1.2510
 102   0.0000      -0.028518        -0.7760
 103   0.0000      -0.009686        -0.2636
 104   0.0000      -0.001034        -0.0281
 105   0.0000       0.012963         0.3527

MULLIKEN ATOMIC CHARGES
-----------------------
   0 C :   -0.305129
   1 C :   -0.011046
   2 O :   -0.374811
   3 P :    0.602757
   4 S :   -0.313483
   5 O :   -0.352139
   6 C :   -0.029470
   7 C :   -0.313949
   8 S :   -0.114102
   9 C :   -0.371974
  10 S :   -0.053928
  11 P :    0.609511
  12 S :   -0.336155
  13 O :   -0.373623
  14 C :   -0.003673
  15 C :   -0.319820
  16 O :   -0.361316
  17 C :   -0.009526
  18 C :   -0.300811
  19 H :    0.124171
  20 H :    0.128140
  21 H :    0.110452
  22 H :    0.108978
  23 H :    0.109366
  24 H :    0.106770
  25 H :    0.138983
  26 H :    0.123418
  27 H :    0.115981
  28 H :    0.115717
  29 H :    0.192002
  30 H :    0.198435
  31 H :    0.112219
  32 H :    0.106364
  33 H :    0.121243
  34 H :    0.129234
  35 H :    0.115266
  36 H :    0.105702
  37 H :    0.109003
  38 H :    0.128767
  39 H :    0.120788
  40 H :    0.111688
Sum of atomic charges:    0.0000000

LOEWDIN ATOMIC CHARGES
----------------------
   0 C :   -0.368446
   1 C :   -0.114436
   2 O :   -0.241056
   3 P :    0.569547
   4 S :   -0.309031
   5 O :   -0.230811
   6 C :   -0.118992
   7 C :   -0.366380
   8 S :    0.067979
   9 C :   -0.488893
  10 S :    0.109587
  11 P :    0.572303
  12 S :   -0.322863
  13 O :   -0.245755
  14 C :   -0.118880
  15 C :   -0.369386
  16 O :   -0.240508
  17 C :   -0.116220
  18 C :   -0.355246
  19 H :    0.121166
  20 H :    0.131141
  21 H :    0.129705
  22 H :    0.121240
  23 H :    0.106397
  24 H :    0.122155
  25 H :    0.109770
  26 H :    0.128689
  27 H :    0.128599
  28 H :    0.117097
  29 H :    0.127825
  30 H :    0.129405
  31 H :    0.111062
  32 H :    0.119299
  33 H :    0.126030
  34 H :    0.122206
  35 H :    0.132305
  36 H :    0.115379
  37 H :    0.107819
  38 H :    0.125248
  39 H :    0.124088
  40 H :    0.130861

  Mayer bond orders larger than 0.100000
B(  0-C ,  1-C ) :   1.1675 B(  0-C , 19-H ) :   0.9330 B(  0-C , 20-H ) :   0.9427
B(  0-C , 21-H ) :   0.9348 B(  1-C ,  2-O ) :   0.9118 B(  1-C , 22-H ) :   0.9336
B(  1-C , 23-H ) :   0.9258 B(  2-O ,  3-P ) :   1.0950 B(  3-P ,  4-S ) :   1.6345
B(  3-P ,  5-O ) :   1.1519 B(  3-P ,  8-S ) :   0.9248 B(  4-S ,  8-S ) :   0.1100
B(  5-O ,  6-C ) :   0.8973 B(  6-C ,  7-C ) :   1.1711 B(  6-C , 24-H ) :   0.9342
B(  6-C , 25-H ) :   0.9017 B(  7-C , 26-H ) :   0.9405 B(  7-C , 27-H ) :   0.9311
B(  7-C , 28-H ) :   0.9386 B(  8-S ,  9-C ) :   1.0088 B(  9-C , 10-S ) :   1.0038
B(  9-C , 29-H ) :   0.8676 B(  9-C , 30-H ) :   0.8643 B( 10-S , 11-P ) :   0.9734
B( 10-S , 12-S ) :   0.1078 B( 11-P , 12-S ) :   1.5920 B( 11-P , 13-O ) :   1.1171
B( 11-P , 16-O ) :   1.1186 B( 13-O , 14-C ) :   0.9068 B( 14-C , 15-C ) :   1.1644
B( 14-C , 31-H ) :   0.9162 B( 14-C , 32-H ) :   0.9335 B( 15-C , 33-H ) :   0.9448
B( 15-C , 34-H ) :   0.9351 B( 15-C , 35-H ) :   0.9378 B( 16-O , 17-C ) :   0.8924
B( 17-C , 18-C ) :   1.1655 B( 17-C , 36-H ) :   0.9330 B( 17-C , 37-H ) :   0.9024
B( 18-C , 38-H ) :   0.9434 B( 18-C , 39-H ) :   0.9430 B( 18-C , 40-H ) :   0.9391

Dispersion correction           -0.066160930
FINAL SINGLE POINT ENERGY     -2929.520387601698

DIPOLE MOMENT
-------------

Method             : SCF
Type of density    : Electron Density
Multiplicity       :   1
Irrep              :   0
Energy             : -2929.6399876803916413 Eh
Relativity type    :
Basis              : AO
                                X                 Y                 Z
Electronic contribution:      0.947163856      13.174280267      -3.055906734
Nuclear contribution   :     -1.619208188     -14.652024131       3.581174456
                        -----------------------------------------
Total Dipole Moment    :     -0.672044333      -1.477743864       0.525267722
                        -----------------------------------------
Magnitude (a.u.)       :      1.706246375
Magnitude (Debye)      :      4.336933624

Rotational constants in cm-1:             0.012683             0.004960             0.004499
Rotational constants in MHz :           380.238128           148.710835           134.867765

                             ****ORCA TERMINATED NORMALLY****
TOTAL RUN TIME: 0 days 0 hours 0 minutes 21 seconds 663 msec
