                         Program Version 6.0.0  -   RELEASE  -
|  1> ! wb97x-v def2-tzvp def2/J RIJCOSX DEFGRID2 scfconv7 GCP(DFT/TZ) printgap
|  2> %output
|  3>     printlevel normal
|  4> end
|  5> %cpcm
|  6>     smd true
|  7>     smdsolvent "water"
|  8> end
|  9> * xyz 0 1
| 10> C -1.70841447897383 -0.815735493864315 -0.4679714369146691
| 11> C -0.8974033954599128 -0.07246532343470319 0.5590634859998324
| 12> N 0.5075769669561175 0.24240467200046795 0.09080082993488214
| 13> O 1.1987860089911981 0.928501103099586 0.838042236786667
| 14> O 0.8922404817617617 -0.19852191548829387 -0.9839438446205917
| 15> H -1.2722291827816783 -1.7897153133274473 -0.6999678340557762
| 16> H -2.705807113769174 -0.9774445760426836 -0.0490654967282502
| 17> H -1.8134109413146147 -0.23830232676965743 -1.3894667792704263
| 18> H -0.752923339411165 -0.6409896663940584 1.482902565174049
| 19> H -1.3221757382132135 0.8989758157787195 0.8250081769923396
| 20> *
| 21>
| 22>                          ****END OF INPUT****

CARTESIAN COORDINATES (ANGSTROEM)
---------------------------------
  C     -1.708414   -0.815735   -0.467971
  C     -0.897403   -0.072465    0.559063
  N      0.507577    0.242405    0.090801
  O      1.198786    0.928501    0.838042
  O      0.892240   -0.198522   -0.983944
  H     -1.272229   -1.789715   -0.699968
  H     -2.705807   -0.977445   -0.049065
  H     -1.813411   -0.238302   -1.389467
  H     -0.752923   -0.640990    1.482903
  H     -1.322176    0.898976    0.825008

 Total Charge           Charge          ....    0
 Multiplicity           Mult            ....    1
 Number of Electrons    NEL             ....   40
 Basis Dimension        Dim             ....  185

ORBITAL ENERGIES
----------------

  NO   OCC          E(Eh)            E(eV)
   0   2.0000     -21.723065      -591.1147
   1   2.0000     -21.718643      -590.9943
   2   2.0000     -16.776635      -456.5154
   3   2.0000     -12.102526      -329.3265
   4   2.0000     -12.042144      -327.6834
   5   2.0000      -1.913698       -52.0744
   6   2.0000      -1.761008       -47.9195
   7   2.0000      -1.384872       -37.6843
   8   2.0000      -1.254394       -34.1338
   9   2.0000      -1.176060       -32.0022
  10   2.0000      -1.153760       -31.3954
  11   2.0000      -1.086301       -29.5598
  12   2.0000      -1.047868       -28.5139
  13   2.0000      -0.935402       -25.4536
  14   2.0000      -0.910942       -24.7880
  15   2.0000      -0.899039       -24.4641
  16   2.0000      -0.889991       -24.2179
  17   2.0000      -0.856439       -23.3049
  18   2.0000      -0.815231       -22.1836
  19   2.0000      -0.791009       -21.5245
  20   0.0000      -0.481619       -13.1055
  21   0.0000      -0.227419        -6.1884
  22   0.0000      -0.121177        -3.2974
  23   0.0000      -0.094042        -2.5590
  24   0.0000       0.002045         0.0556

MULLIKEN ATOMIC CHARGES
-----------------------
   0 C :   -0.368778
   1 C :   -0.144620
   2 N :    0.472749
   3 O :   -0.380936
   4 O :   -0.366164
   5 H :    0.141142
   6 H :    0.147133
   7 H :    0.142835
   8 H :    0.178935
   9 H :    0.177704
Sum of atomic charges:    0.0000000

LOEWDIN ATOMIC CHARGES
----------------------
   0 C :   -0.302150
   1 C :   -0.232523
   2 N :   -0.026013
   3 O :   -0.086086
   4 O :   -0.062939
   5 H :    0.127359
   6 H :    0.138073
   7 H :    0.128185
   8 H :    0.159232
   9 H :    0.156862

  Mayer bond orders larger than 0.100000
B(  0-C ,  1-C ) :   1.0064 B(  0-C ,  5-H ) :   0.9674 B(  0-C ,  6-H ) :   0.9574
B(  0-C ,  7-H ) :   0.9689 B(  1-C ,  2-N ) :   0.8790 B(  1-C ,  8-H ) :   0.9388
B(  1-C ,  9-H ) :   0.9441 B(  2-N ,  3-O ) :   1.6107 B(  2-N ,  4-O ) :   1.6337
B(  3-O ,  4-O ) :   0.2038

FINAL SINGLE POINT ENERGY      -284.357469690387

DIPOLE MOMENT
-------------

Method             : SCF
Type of density    : Electron Density
Multiplicity       :   1
Irrep              :   0
Energy             :  -284.3640542796873092 Eh
Relativity type    :
Basis              : AO
                                X                 Y                 Z
Electronic contribution:      5.556863077       2.192668061       0.356952745
Nuclear contribution   :     -7.430598852      -2.668525386       0.144534346
                        -----------------------------------------
Total Dipole Moment    :     -1.873735775      -0.475857324       0.501487091
                        -----------------------------------------
Magnitude (a.u.)       :      1.997201855
Magnitude (Debye)      :      5.076483682

Rotational constants in cm-1:             0.359722             0.137725             0.103568
Rotational constants in MHz :         10784.187336          4128.881194          3104.880589

                             ****ORCA TERMINATED NORMALLY****
TOTAL RUN TIME: 0 days 0 hours 0 minutes 53 seconds 205 msec
