                         Program Version 6.0.0  -   RELEASE  -
|  1> ! pbe def2-sv(p) def2/J RI DEFGRID1 loosescf d4 GCP(DFT/SV(P)) printgap
|  2> %output
|  3>     printlevel normal
|  4> end
|  5> * xyz 0 1
|  6> C 4.4921888402 1.8142631698 -0.7162050742
|  7> C 4.5356706148 0.3120574065 -0.9085037164
|  8> O 3.2234306844 -0.2485821869 -1.0933249436
|  9> P 2.1478714677 -0.3006855262 0.0727633469
| 10> S 2.8638876709 -0.7001774027 1.8561560831
| 11> O 1.0850774267 -1.3196295707 -0.5033779781
| 12> C 1.1129648159 -2.7312529827 -0.2171463238
| 13> C 2.3402640438 -3.4016930066 -0.7958269174
| 14> S 1.0578912179 1.4942643902 -0.1400595487
| 15> C 0.240355968 1.4255643388 1.4765803603
| 16> S -0.9161681405 0.0363790424 1.6518531475
| 17> P -2.1474888636 0.3518483028 -0.05254053
| 18> S -1.6787092862 -0.4171201426 -1.7983312286
| 19> O -2.2585871939 1.9280989473 0.0192489741
| 20> C -2.6239928904 2.717555909 -1.132729539
| 21> C -4.0803500083 2.5267189737 -1.499091963
| 22> O -3.580144408 -0.1145678883 0.4626247344
| 23> C -4.0361596635 -1.4677144702 0.3173172422
| 24> C -3.272077728 -2.4128249182 1.2225333751
| 25> H 3.9325429329 2.2819469034 -1.5225809608
| 26> H 4.0098532909 2.0551592596 0.230311553
| 27> H 5.504822807 2.2043894512 -0.7051479531
| 28> H 4.998907092 -0.1728343371 -0.0431101863
| 29> H 5.0680352822 0.0364730192 -1.8197486229
| 30> H 1.0699185236 -2.8623381041 0.8693755688
| 31> H 0.1942645697 -3.1030789799 -0.6750406444
| 32> H 2.2694567292 -4.4741713749 -0.6440676741
| 33> H 2.4153049486 -3.1883833704 -1.8591560442
| 34> H 3.2344996736 -3.0302063498 -0.2960855912
| 35> H -0.2909216536 2.3646195108 1.604284614
| 36> H 0.9891179993 1.2813133426 2.2566369609
| 37> H -2.411460002 3.7422685195 -0.8256776253
| 38> H -1.9725918277 2.4369766469 -1.9666797767
| 39> H -4.3422255322 3.2085838533 -2.301967427
| 40> H -4.2447426837 1.5036880177 -1.834931948
| 41> H -4.7128302531 2.7193794433 -0.6366847027
| 42> H -5.0941053641 -1.4230026365 0.578180311
| 43> H -3.921105308 -1.7612722993 -0.7318367094
| 44> H -3.3410439589 -2.085802941 2.2568108955
| 45> H -3.6773720642 -3.4151648578 1.1300979415
| 46> H -2.2200647156 -2.4263280109 0.9343478145
| 47> *
| 48>
| 49>                          ****END OF INPUT****

CARTESIAN COORDINATES (ANGSTROEM)
---------------------------------
  C      4.492189    1.814263   -0.716205
  C      4.535671    0.312057   -0.908504
  O      3.223431   -0.248582   -1.093325
  P      2.147871   -0.300686    0.072763
  S      2.863888   -0.700177    1.856156
  O      1.085077   -1.319630   -0.503378
  C      1.112965   -2.731253   -0.217146
  C      2.340264   -3.401693   -0.795827
  S      1.057891    1.494264   -0.140060
  C      0.240356    1.425564    1.476580
  S     -0.916168    0.036379    1.651853
  P     -2.147489    0.351848   -0.052541
  S     -1.678709   -0.417120   -1.798331
  O     -2.258587    1.928099    0.019249
  C     -2.623993    2.717556   -1.132730
  C     -4.080350    2.526719   -1.499092
  O     -3.580144   -0.114568    0.462625
  C     -4.036160   -1.467714    0.317317
  C     -3.272078   -2.412825    1.222533
  H      3.932543    2.281947   -1.522581
  H      4.009853    2.055159    0.230312
  H      5.504823    2.204389   -0.705148
  H      4.998907   -0.172834   -0.043110
  H      5.068035    0.036473   -1.819749
  H      1.069919   -2.862338    0.869376
  H      0.194265   -3.103079   -0.675041
  H      2.269457   -4.474171   -0.644068
  H      2.415305   -3.188383   -1.859156
  H      3.234500   -3.030206   -0.296086
  H     -0.290922    2.364620    1.604285
  H      0.989118    1.281313    2.256637
  H     -2.411460    3.742269   -0.825678
  H     -1.972592    2.436977   -1.966680
  H     -4.342226    3.208584   -2.301967
  H     -4.244743    1.503688   -1.834932
  H     -4.712830    2.719379   -0.636685
  H     -5.094105   -1.423003    0.578180
  H     -3.921105   -1.761272   -0.731837
  H     -3.341044   -2.085803    2.256811
  H     -3.677372   -3.415165    1.130098
  H     -2.220065   -2.426328    0.934348

 Total Charge           Charge          ....    0
 Multiplicity           Mult            ....    1
 Number of Electrons    NEL             ....  202
 Basis Dimension        Dim             ....  334

ORBITAL ENERGIES
----------------

  NO   OCC          E(Eh)            E(eV)
   0   2.0000     -88.041080     -2395.7196
   1   2.0000     -88.037198     -2395.6139
   2   2.0000     -87.987327     -2394.2569
   3   2.0000     -87.981716     -2394.1042
   4   2.0000     -76.424233     -2079.6091
   5   2.0000     -76.423516     -2079.5896
   6   2.0000     -18.793614      -511.4002
   7   2.0000     -18.792853      -511.3795
   8   2.0000     -18.788851      -511.2706
   9   2.0000     -18.782054      -511.0857
  10   2.0000      -9.954500      -270.8757
  11   2.0000      -9.952266      -270.8149
  12   2.0000      -9.952173      -270.8124
  13   2.0000      -9.950846      -270.7763
  14   2.0000      -9.944009      -270.5902
  15   2.0000      -9.886614      -269.0284
  16   2.0000      -9.883939      -268.9556
  17   2.0000      -9.883272      -268.9375
  18   2.0000      -9.878529      -268.8084
  19   2.0000      -7.686177      -209.1515
  20   2.0000      -7.682205      -209.0434
  21   2.0000      -7.632283      -207.6850
  22   2.0000      -7.626654      -207.5318
  23   2.0000      -6.421767      -174.7452
  24   2.0000      -6.421032      -174.7252
  25   2.0000      -5.714029      -155.4866
  26   2.0000      -5.710821      -155.3993
  27   2.0000      -5.710391      -155.3876
  28   2.0000      -5.706729      -155.2880
  29   2.0000      -5.702976      -155.1859
  30   2.0000      -5.698855      -155.0737
  31   2.0000      -5.660986      -154.0433
  32   2.0000      -5.655467      -153.8931
  33   2.0000      -5.653047      -153.8272
  34   2.0000      -5.652540      -153.8134
  35   2.0000      -5.647481      -153.6758
  36   2.0000      -5.646746      -153.6558
  37   2.0000      -4.644129      -126.3732
  38   2.0000      -4.643704      -126.3616
  39   2.0000      -4.643473      -126.3553
  40   2.0000      -4.642822      -126.3376
  41   2.0000      -4.642482      -126.3284
  42   2.0000      -4.641358      -126.2978
  43   2.0000      -0.986575       -26.8461
  44   2.0000      -0.983794       -26.7704
  45   2.0000      -0.946790       -25.7635
  46   2.0000      -0.942135       -25.6368
  47   2.0000      -0.762256       -20.7420
  48   2.0000      -0.718436       -19.5496
  49   2.0000      -0.705342       -19.1933
  50   2.0000      -0.687468       -18.7070
  51   2.0000      -0.684077       -18.6147
  52   2.0000      -0.670755       -18.2522
  53   2.0000      -0.650721       -17.7070
  54   2.0000      -0.637310       -17.3421
  55   2.0000      -0.601473       -16.3669
  56   2.0000      -0.593783       -16.1576
  57   2.0000      -0.572770       -15.5859
  58   2.0000      -0.569390       -15.4939
  59   2.0000      -0.559145       -15.2151
  60   2.0000      -0.494723       -13.4621
  61   2.0000      -0.488640       -13.2966
  62   2.0000      -0.474357       -12.9079
  63   2.0000      -0.469272       -12.7695
  64   2.0000      -0.456198       -12.4138
  65   2.0000      -0.440762       -11.9938
  66   2.0000      -0.438708       -11.9379
  67   2.0000      -0.436854       -11.8874
  68   2.0000      -0.423191       -11.5156
  69   2.0000      -0.414436       -11.2774
  70   2.0000      -0.409209       -11.1351
  71   2.0000      -0.393284       -10.7018
  72   2.0000      -0.389893       -10.6095
  73   2.0000      -0.388527       -10.5724
  74   2.0000      -0.383056       -10.4235
  75   2.0000      -0.376133       -10.2351
  76   2.0000      -0.369958       -10.0671
  77   2.0000      -0.357584        -9.7303
  78   2.0000      -0.354701        -9.6519
  79   2.0000      -0.350135        -9.5277
  80   2.0000      -0.346878        -9.4390
  81   2.0000      -0.345380        -9.3983
  82   2.0000      -0.342257        -9.3133
  83   2.0000      -0.337248        -9.1770
  84   2.0000      -0.329834        -8.9752
  85   2.0000      -0.319151        -8.6845
  86   2.0000      -0.306105        -8.3295
  87   2.0000      -0.294753        -8.0206
  88   2.0000      -0.294055        -8.0016
  89   2.0000      -0.284713        -7.7474
  90   2.0000      -0.279148        -7.5960
  91   2.0000      -0.273305        -7.4370
  92   2.0000      -0.269209        -7.3255
  93   2.0000      -0.262686        -7.1481
  94   2.0000      -0.259950        -7.0736
  95   2.0000      -0.233218        -6.3462
  96   2.0000      -0.216407        -5.8887
  97   2.0000      -0.208973        -5.6864
  98   2.0000      -0.204466        -5.5638
  99   2.0000      -0.196026        -5.3341
 100   2.0000      -0.190697        -5.1891
 101   0.0000      -0.046175        -1.2565
 102   0.0000      -0.021050        -0.5728
 103   0.0000      -0.016679        -0.4539
 104   0.0000       0.006387         0.1738
 105   0.0000       0.020871         0.5679

MULLIKEN ATOMIC CHARGES
-----------------------
   0 C :   -0.315663
   1 C :   -0.003896
   2 O :   -0.368839
   3 P :    0.620651
   4 S :   -0.342878
   5 O :   -0.343954
   6 C :   -0.009678
   7 C :   -0.304026
   8 S :   -0.082629
   9 C :   -0.341130
  10 S :   -0.098064
  11 P :    0.615847
  12 S :   -0.313329
  13 O :   -0.376830
  14 C :   -0.006132
  15 C :   -0.303545
  16 O :   -0.368669
  17 C :   -0.001836
  18 C :   -0.336503
  19 H :    0.119337
  20 H :    0.125311
  21 H :    0.113181
  22 H :    0.110983
  23 H :    0.106523
  24 H :    0.110125
  25 H :    0.110728
  26 H :    0.109271
  27 H :    0.118691
  28 H :    0.119325
  29 H :    0.186705
  30 H :    0.190252
  31 H :    0.102224
  32 H :    0.116254
  33 H :    0.111870
  34 H :    0.122838
  35 H :    0.116866
  36 H :    0.105376
  37 H :    0.107531
  38 H :    0.124283
  39 H :    0.115422
  40 H :    0.138010
Sum of atomic charges:   -0.0000000

LOEWDIN ATOMIC CHARGES
----------------------
   0 C :   -0.369546
   1 C :   -0.118647
   2 O :   -0.240734
   3 P :    0.576545
   4 S :   -0.328870
   5 O :   -0.227107
   6 C :   -0.117577
   7 C :   -0.365565
   8 S :    0.094785
   9 C :   -0.477234
  10 S :    0.082992
  11 P :    0.571195
  12 S :   -0.308301
  13 O :   -0.241311
  14 C :   -0.117811
  15 C :   -0.364332
  16 O :   -0.245039
  17 C :   -0.122589
  18 C :   -0.370698
  19 H :    0.125029
  20 H :    0.120602
  21 H :    0.131118
  22 H :    0.110450
  23 H :    0.119406
  24 H :    0.109549
  25 H :    0.117182
  26 H :    0.129195
  27 H :    0.127403
  28 H :    0.120329
  29 H :    0.133901
  30 H :    0.129663
  31 H :    0.117018
  32 H :    0.112490
  33 H :    0.130489
  34 H :    0.123167
  35 H :    0.126738
  36 H :    0.118895
  37 H :    0.107449
  38 H :    0.127277
  39 H :    0.132219
  40 H :    0.120271

  Mayer bond orders larger than 0.100000
B(  0-C ,  1-C ) :   1.1665 B(  0-C , 19-H ) :   0.9447 B(  0-C , 20-H ) :   0.9353
B(  0-C , 21-H ) :   0.9378 B(  1-C ,  2-O ) :   0.9078 B(  1-C , 22-H ) :   0.9158
B(  1-C , 23-H ) :   0.9337 B(  2-O ,  3-P ) :   1.1130 B(  3-P ,  4-S ) :   1.5815
B(  3-P ,  5-O ) :   1.1484 B(  3-P ,  8-S ) :   0.9509 B(  4-S ,  8-S ) :   0.1092
B(  5-O ,  6-C ) :   0.9073 B(  6-C ,  7-C ) :   1.1627 B(  6-C , 24-H ) :   0.9198
B(  6-C , 25-H ) :   0.9256 B(  7-C , 26-H ) :   0.9394 B(  7-C , 27-H ) :   0.9449
B(  7-C , 28-H ) :   0.9356 B(  8-S ,  9-C ) :   1.0101 B(  9-C , 10-S ) :   1.0019
B(  9-C , 29-H ) :   0.9023 B(  9-C , 30-H ) :   0.8803 B( 10-S , 11-P ) :   0.9488
B( 10-S , 12-S ) :   0.1072 B( 11-P , 12-S ) :   1.6241 B( 11-P , 13-O ) :   1.1115
B( 11-P , 16-O ) :   1.0953 B( 13-O , 14-C ) :   0.9001 B( 14-C , 15-C ) :   1.1657
B( 14-C , 31-H ) :   0.9343 B( 14-C , 32-H ) :   0.9150 B( 15-C , 33-H ) :   0.9390
B( 15-C , 34-H ) :   0.9352 B( 15-C , 35-H ) :   0.9459 B( 16-O , 17-C ) :   0.9154
B( 17-C , 18-C ) :   1.1624 B( 17-C , 36-H ) :   0.9323 B( 17-C , 37-H ) :   0.9108
B( 18-C , 38-H ) :   0.9433 B( 18-C , 39-H ) :   0.9387 B( 18-C , 40-H ) :   0.9297

Dispersion correction           -0.067605887
FINAL SINGLE POINT ENERGY     -2929.521405644981

DIPOLE MOMENT
-------------

Method             : SCF
Type of density    : Electron Density
Multiplicity       :   1
Irrep              :   0
Energy             : -2929.6385464722170582 Eh
Relativity type    :
Basis              : AO
                                X                 Y                 Z
Electronic contribution:      2.127122646       4.176531218       5.429706214
Nuclear contribution   :     -2.446003178      -3.907854592      -5.711552118
                        -----------------------------------------
Total Dipole Moment    :     -0.318880532       0.268676626      -0.281845904
                        -----------------------------------------
Magnitude (a.u.)       :      0.503298159
Magnitude (Debye)      :      1.279282254

Rotational constants in cm-1:             0.012516             0.005419             0.004755
Rotational constants in MHz :           375.218635           162.443827           142.562506

                             ****ORCA TERMINATED NORMALLY****
TOTAL RUN TIME: 0 days 0 hours 0 minutes 21 seconds 114 msec
