                         Program Version 6.0.0  -   RELEASE  -
|  1> ! pbe def2-sv(p) def2/J RI DEFGRID1 loosescf d4 GCP(DFT/SV(P)) printgap
|  2> %output
|  3>     printlevel normal
|  4> end
|  5> * xyz 0 1
|  6> C -3.0752134958 0.3669646191 0.0042877249
|  7> C -1.616217804 0.0232113598 -0.0020603743
|  8> C -1.1797795106 -1.293155142 -0.0021439738
|  9> C 0.1737218769 -1.5805647055 -0.0019266607
| 10> C 1.1314376718 -0.5787001568 -0.0008462817
| 11> C 0.6924893856 0.7492328738 -0.0008696952
| 12> C -0.6653578246 1.0353338644 -0.0020572849
| 13> O 1.6268280383 1.7464444652 -0.0008956287
| 14> C 2.5942769379 -0.9105941127 0.0039359671
| 15> H -3.6831061772 -0.5299631805 -0.0744571123
| 16> H -3.3363636194 0.8834813251 0.9268537814
| 17> H -3.3146047557 1.026990159 -0.8274811233
| 18> H -1.8990950593 -2.0986338398 -0.0029593064
| 19> H 0.5019117868 -2.6098738482 -0.0023302816
| 20> H -0.9919162817 2.0666679109 -0.0029741521
| 21> H 1.1895448817 2.6103249497 -0.0028394263
| 22> H 3.1860998002 -0.0021525431 -0.0582816835
| 23> H 2.8577749312 -1.43961468 0.9186916691
| 24> H 2.8395230298 -1.5529607442 -0.8399779451
| 25> *
| 26>
| 27>                          ****END OF INPUT****

CARTESIAN COORDINATES (ANGSTROEM)
---------------------------------
  C     -3.075213    0.366965    0.004288
  C     -1.616218    0.023211   -0.002060
  C     -1.179780   -1.293155   -0.002144
  C      0.173722   -1.580565   -0.001927
  C      1.131438   -0.578700   -0.000846
  C      0.692489    0.749233   -0.000870
  C     -0.665358    1.035334   -0.002057
  O      1.626828    1.746444   -0.000896
  C      2.594277   -0.910594    0.003936
  H     -3.683106   -0.529963   -0.074457
  H     -3.336364    0.883481    0.926854
  H     -3.314605    1.026990   -0.827481
  H     -1.899095   -2.098634   -0.002959
  H      0.501912   -2.609874   -0.002330
  H     -0.991916    2.066668   -0.002974
  H      1.189545    2.610325   -0.002839
  H      3.186100   -0.002153   -0.058282
  H      2.857775   -1.439615    0.918692
  H      2.839523   -1.552961   -0.839978

 Total Charge           Charge          ....    0
 Multiplicity           Mult            ....    1
 Number of Electrons    NEL             ....   66
 Basis Dimension        Dim             ....  146

ORBITAL ENERGIES
----------------

  NO   OCC          E(Eh)            E(eV)
   0   2.0000     -18.777861      -510.9716
   1   2.0000      -9.944312      -270.5985
   2   2.0000      -9.896734      -269.3038
   3   2.0000      -9.889521      -269.1076
   4   2.0000      -9.882568      -268.9183
   5   2.0000      -9.882496      -268.9164
   6   2.0000      -9.881384      -268.8861
   7   2.0000      -9.877247      -268.7736
   8   2.0000      -9.872599      -268.6471
   9   2.0000      -0.958221       -26.0745
  10   2.0000      -0.770665       -20.9709
  11   2.0000      -0.705171       -19.1887
  12   2.0000      -0.656914       -17.8755
  13   2.0000      -0.643099       -17.4996
  14   2.0000      -0.582770       -15.8580
  15   2.0000      -0.558561       -15.1992
  16   2.0000      -0.511374       -13.9152
  17   2.0000      -0.478626       -13.0241
  18   2.0000      -0.430553       -11.7159
  19   2.0000      -0.420179       -11.4336
  20   2.0000      -0.382443       -10.4068
  21   2.0000      -0.377714       -10.2781
  22   2.0000      -0.368874       -10.0376
  23   2.0000      -0.355785        -9.6814
  24   2.0000      -0.348451        -9.4818
  25   2.0000      -0.338446        -9.2096
  26   2.0000      -0.337278        -9.1778
  27   2.0000      -0.321000        -8.7348
  28   2.0000      -0.297815        -8.1040
  29   2.0000      -0.285184        -7.7603
  30   2.0000      -0.281701        -7.6655
  31   2.0000      -0.210133        -5.7180
  32   2.0000      -0.186664        -5.0794
  33   0.0000      -0.030086        -0.8187
  34   0.0000      -0.008503        -0.2314
  35   0.0000       0.024156         0.6573
  36   0.0000       0.052570         1.4305
  37   0.0000       0.065163         1.7732

MULLIKEN ATOMIC CHARGES
-----------------------
   0 C :   -0.225324
   1 C :    0.064885
   2 C :   -0.116156
   3 C :   -0.131150
   4 C :   -0.030813
   5 C :    0.200873
   6 C :   -0.240560
   7 O :   -0.342276
   8 C :   -0.214577
   9 H :    0.100832
  10 H :    0.113663
  11 H :    0.110600
  12 H :    0.028194
  13 H :    0.030079
  14 H :    0.002487
  15 H :    0.316404
  16 H :    0.113750
  17 H :    0.110804
  18 H :    0.108283
Sum of atomic charges:    0.0000000

LOEWDIN ATOMIC CHARGES
----------------------
   0 C :   -0.322432
   1 C :   -0.046745
   2 C :   -0.149127
   3 C :   -0.113812
   4 C :   -0.076755
   5 C :    0.025818
   6 C :   -0.176750
   7 O :   -0.239237
   8 C :   -0.326397
   9 H :    0.124164
  10 H :    0.130909
  11 H :    0.129215
  12 H :    0.118608
  13 H :    0.121060
  14 H :    0.114957
  15 H :    0.297244
  16 H :    0.129546
  17 H :    0.130427
  18 H :    0.129307

  Mayer bond orders larger than 0.100000
B(  0-C ,  1-C ) :   1.0909 B(  0-C ,  9-H ) :   0.9460 B(  0-C , 10-H ) :   0.9362
B(  0-C , 11-H ) :   0.9382 B(  1-C ,  2-C ) :   1.3971 B(  1-C ,  6-C ) :   1.3563
B(  2-C ,  3-C ) :   1.3342 B(  2-C , 12-H ) :   0.9623 B(  3-C ,  4-C ) :   1.4034
B(  3-C , 13-H ) :   0.9676 B(  4-C ,  5-C ) :   1.3919 B(  4-C ,  8-C ) :   1.1156
B(  5-C ,  6-C ) :   1.3049 B(  5-C ,  7-O ) :   1.1773 B(  6-C , 14-H ) :   0.9553
B(  7-O , 15-H ) :   0.8412 B(  8-C , 16-H ) :   0.9349 B(  8-C , 17-H ) :   0.9360
B(  8-C , 18-H ) :   0.9369

Dispersion correction           -0.018910296
FINAL SINGLE POINT ENERGY      -385.239832986210

DIPOLE MOMENT
-------------

Method             : SCF
Type of density    : Electron Density
Multiplicity       :   1
Irrep              :   0
Energy             :  -385.2987823836737107 Eh
Relativity type    :
Basis              : AO
                                X                 Y                 Z
Electronic contribution:      2.164287137       1.979385718      -0.023252573
Nuclear contribution   :     -2.462254577      -1.518094210       0.032113771
                        -----------------------------------------
Total Dipole Moment    :     -0.297967440       0.461291508       0.008861198
                        -----------------------------------------
Magnitude (a.u.)       :      0.549229434
Magnitude (Debye)      :      1.396030278

Rotational constants in cm-1:             0.101328             0.043937             0.031000
Rotational constants in MHz :          3037.748436          1317.202842           929.369928

                             ****ORCA TERMINATED NORMALLY****
TOTAL RUN TIME: 0 days 0 hours 0 minutes 9 seconds 80 msec
