                         Program Version 6.0.0  -   RELEASE  -
|  1> ! pbe def2-sv(p) def2/J RI DEFGRID1 loosescf d4 GCP(DFT/SV(P)) printgap
|  2> %output
|  3>     printlevel normal
|  4> end
|  5> * xyz 0 1
|  6> C 4.3953586951 -1.430044708 -1.3135161953
|  7> C 4.5718778139 0.0458103315 -1.0209399085
|  8> O 3.6093879668 0.5375824136 -0.0728882559
|  9> P 2.0499429805 0.5878034969 -0.3905898093
| 10> S 1.6378787856 1.0562853038 -2.2475237555
| 11> O 1.5488499148 1.642719408 0.6750449764
| 12> C 2.1940826335 1.906763248 1.9468921332
| 13> C 2.3075951341 0.6737560132 2.8190125662
| 14> S 1.3129436191 -1.3035984059 0.2797532625
| 15> C 0.1985495844 -1.7368123541 -1.0876086269
| 16> S -1.4741124631 -2.158127049 -0.5313031076
| 17> P -2.0845768961 -0.2993045912 0.2359759406
| 18> S -1.4883778847 1.3503683223 -0.6588972134
| 19> O -1.6166870535 -0.4626410321 1.7412224311
| 20> C -1.5428832119 0.6565707129 2.6471698111
| 21> C -2.9080901406 1.2298381098 2.9640935414
| 22> O -3.6620129469 -0.4518401758 0.3626938728
| 23> C -4.56375121 -0.0763337606 -0.6912360874
| 24> C -4.4348245347 -0.9768025043 -1.902928148
| 25> H 4.3677224573 -2.0019934174 -0.3896259999
| 26> H 3.4653590419 -1.588640515 -1.8576104883
| 27> H 5.2223323741 -1.7731723164 -1.9267304213
| 28> H 4.4787422312 0.6310694212 -1.9409161589
| 29> H 5.5313259026 0.2510206277 -0.543984627
| 30> H 3.1791542809 2.3313129187 1.7439499616
| 31> H 1.5506016341 2.6646653961 2.3974125899
| 32> H 2.9734323132 -0.0534365825 2.3586910632
| 33> H 2.7100379794 0.9621725431 3.7850612679
| 34> H 1.334523421 0.2106315683 2.959226482
| 35> H 0.5744685372 -2.6328050986 -1.575207211
| 36> H 0.1648451388 -0.8934528603 -1.7842340593
| 37> H -1.0681432153 0.2390293634 3.5365586338
| 38> H -0.9005683463 1.420995177 2.1966472027
| 39> H -3.5759302136 0.4411595976 3.3002351861
| 40> H -2.8101204315 1.9800291534 3.7427470737
| 41> H -3.3313996134 1.6954354496 2.0750492952
| 42> H -5.5501130336 -0.1566425994 -0.2323648655
| 43> H -4.3617566716 0.9646948925 -0.9643224003
| 44> H -5.2187237572 -0.7372361384 -2.6142871674
| 45> H -3.4675648686 -0.8224055328 -2.3799980733
| 46> H -4.5173924988 -2.0200435275 -1.6087568028
| 47> *
| 48>
| 49>                          ****END OF INPUT****

CARTESIAN COORDINATES (ANGSTROEM)
---------------------------------
  C      4.395359   -1.430045   -1.313516
  C      4.571878    0.045810   -1.020940
  O      3.609388    0.537582   -0.072888
  P      2.049943    0.587803   -0.390590
  S      1.637879    1.056285   -2.247524
  O      1.548850    1.642719    0.675045
  C      2.194083    1.906763    1.946892
  C      2.307595    0.673756    2.819013
  S      1.312944   -1.303598    0.279753
  C      0.198550   -1.736812   -1.087609
  S     -1.474112   -2.158127   -0.531303
  P     -2.084577   -0.299305    0.235976
  S     -1.488378    1.350368   -0.658897
  O     -1.616687   -0.462641    1.741222
  C     -1.542883    0.656571    2.647170
  C     -2.908090    1.229838    2.964094
  O     -3.662013   -0.451840    0.362694
  C     -4.563751   -0.076334   -0.691236
  C     -4.434825   -0.976803   -1.902928
  H      4.367722   -2.001993   -0.389626
  H      3.465359   -1.588641   -1.857610
  H      5.222332   -1.773172   -1.926730
  H      4.478742    0.631069   -1.940916
  H      5.531326    0.251021   -0.543985
  H      3.179154    2.331313    1.743950
  H      1.550602    2.664665    2.397413
  H      2.973432   -0.053437    2.358691
  H      2.710038    0.962173    3.785061
  H      1.334523    0.210632    2.959226
  H      0.574469   -2.632805   -1.575207
  H      0.164845   -0.893453   -1.784234
  H     -1.068143    0.239029    3.536559
  H     -0.900568    1.420995    2.196647
  H     -3.575930    0.441160    3.300235
  H     -2.810120    1.980029    3.742747
  H     -3.331400    1.695435    2.075049
  H     -5.550113   -0.156643   -0.232365
  H     -4.361757    0.964695   -0.964322
  H     -5.218724   -0.737236   -2.614287
  H     -3.467565   -0.822406   -2.379998
  H     -4.517392   -2.020044   -1.608757

 Total Charge           Charge          ....    0
 Multiplicity           Mult            ....    1
 Number of Electrons    NEL             ....  202
 Basis Dimension        Dim             ....  334

ORBITAL ENERGIES
----------------

  NO   OCC          E(Eh)            E(eV)
   0   2.0000     -88.040285     -2395.6980
   1   2.0000     -88.038016     -2395.6362
   2   2.0000     -87.981848     -2394.1078
   3   2.0000     -87.980018     -2394.0580
   4   2.0000     -76.424460     -2079.6153
   5   2.0000     -76.420438     -2079.5058
   6   2.0000     -18.792762      -511.3770
   7   2.0000     -18.788725      -511.2672
   8   2.0000     -18.787446      -511.2324
   9   2.0000     -18.783459      -511.1239
  10   2.0000      -9.956953      -270.9425
  11   2.0000      -9.952504      -270.8214
  12   2.0000      -9.950941      -270.7789
  13   2.0000      -9.949317      -270.7347
  14   2.0000      -9.949136      -270.7298
  15   2.0000      -9.889871      -269.1171
  16   2.0000      -9.883756      -268.9507
  17   2.0000      -9.881792      -268.8972
  18   2.0000      -9.880991      -268.8754
  19   2.0000      -7.685826      -209.1420
  20   2.0000      -7.682501      -209.0515
  21   2.0000      -7.626940      -207.5396
  22   2.0000      -7.624549      -207.4745
  23   2.0000      -6.421602      -174.7407
  24   2.0000      -6.417989      -174.6423
  25   2.0000      -5.713803      -155.4805
  26   2.0000      -5.710391      -155.3876
  27   2.0000      -5.710215      -155.3829
  28   2.0000      -5.707111      -155.2984
  29   2.0000      -5.702730      -155.1792
  30   2.0000      -5.699440      -155.0896
  31   2.0000      -5.655986      -153.9072
  32   2.0000      -5.653345      -153.8354
  33   2.0000      -5.647418      -153.6741
  34   2.0000      -5.647068      -153.6645
  35   2.0000      -5.645221      -153.6143
  36   2.0000      -5.644872      -153.6048
  37   2.0000      -4.644645      -126.3872
  38   2.0000      -4.642981      -126.3419
  39   2.0000      -4.642054      -126.3167
  40   2.0000      -4.640412      -126.2720
  41   2.0000      -4.639745      -126.2539
  42   2.0000      -4.638568      -126.2219
  43   2.0000      -0.986626       -26.8475
  44   2.0000      -0.982042       -26.7227
  45   2.0000      -0.941420       -25.6173
  46   2.0000      -0.941063       -25.6076
  47   2.0000      -0.758881       -20.6502
  48   2.0000      -0.717654       -19.5284
  49   2.0000      -0.707024       -19.2391
  50   2.0000      -0.691192       -18.8083
  51   2.0000      -0.684659       -18.6305
  52   2.0000      -0.674670       -18.3587
  53   2.0000      -0.649422       -17.6717
  54   2.0000      -0.630076       -17.1453
  55   2.0000      -0.600714       -16.3463
  56   2.0000      -0.592037       -16.1101
  57   2.0000      -0.579528       -15.7697
  58   2.0000      -0.569811       -15.5053
  59   2.0000      -0.556435       -15.1414
  60   2.0000      -0.495048       -13.4709
  61   2.0000      -0.487969       -13.2783
  62   2.0000      -0.468690       -12.7537
  63   2.0000      -0.468619       -12.7518
  64   2.0000      -0.452141       -12.3034
  65   2.0000      -0.446298       -12.1444
  66   2.0000      -0.443759       -12.0753
  67   2.0000      -0.435834       -11.8597
  68   2.0000      -0.425436       -11.5767
  69   2.0000      -0.421919       -11.4810
  70   2.0000      -0.407867       -11.0986
  71   2.0000      -0.401030       -10.9126
  72   2.0000      -0.390699       -10.6315
  73   2.0000      -0.386597       -10.5198
  74   2.0000      -0.379051       -10.3145
  75   2.0000      -0.372133       -10.1263
  76   2.0000      -0.368410       -10.0249
  77   2.0000      -0.357110        -9.7175
  78   2.0000      -0.353075        -9.6077
  79   2.0000      -0.350352        -9.5336
  80   2.0000      -0.345851        -9.4111
  81   2.0000      -0.341697        -9.2980
  82   2.0000      -0.340229        -9.2581
  83   2.0000      -0.339382        -9.2351
  84   2.0000      -0.332351        -9.0437
  85   2.0000      -0.311370        -8.4728
  86   2.0000      -0.309547        -8.4232
  87   2.0000      -0.295105        -8.0302
  88   2.0000      -0.294841        -8.0230
  89   2.0000      -0.291780        -7.9397
  90   2.0000      -0.278614        -7.5815
  91   2.0000      -0.273732        -7.4486
  92   2.0000      -0.268974        -7.3192
  93   2.0000      -0.259987        -7.0746
  94   2.0000      -0.255683        -6.9575
  95   2.0000      -0.229176        -6.2362
  96   2.0000      -0.220675        -6.0049
  97   2.0000      -0.212040        -5.7699
  98   2.0000      -0.198714        -5.4073
  99   2.0000      -0.191898        -5.2218
 100   2.0000      -0.182588        -4.9685
 101   0.0000      -0.037920        -1.0319
 102   0.0000      -0.034049        -0.9265
 103   0.0000      -0.008813        -0.2398
 104   0.0000       0.013694         0.3726
 105   0.0000       0.014606         0.3975

MULLIKEN ATOMIC CHARGES
-----------------------
   0 C :   -0.312921
   1 C :    0.002419
   2 O :   -0.388470
   3 P :    0.620299
   4 S :   -0.289413
   5 O :   -0.362888
   6 C :    0.011870
   7 C :   -0.358898
   8 S :   -0.112912
   9 C :   -0.349822
  10 S :   -0.085314
  11 P :    0.599794
  12 S :   -0.304800
  13 O :   -0.363393
  14 C :   -0.047755
  15 C :   -0.285130
  16 O :   -0.374238
  17 C :   -0.002805
  18 C :   -0.316471
  19 H :    0.117842
  20 H :    0.120007
  21 H :    0.112213
  22 H :    0.113130
  23 H :    0.101754
  24 H :    0.110380
  25 H :    0.110842
  26 H :    0.128462
  27 H :    0.115131
  28 H :    0.148785
  29 H :    0.179317
  30 H :    0.204725
  31 H :    0.111814
  32 H :    0.128562
  33 H :    0.116068
  34 H :    0.107074
  35 H :    0.121707
  36 H :    0.103678
  37 H :    0.109623
  38 H :    0.112588
  39 H :    0.129415
  40 H :    0.117733
Sum of atomic charges:   -0.0000000

LOEWDIN ATOMIC CHARGES
----------------------
   0 C :   -0.370463
   1 C :   -0.118029
   2 O :   -0.249123
   3 P :    0.579614
   4 S :   -0.288016
   5 O :   -0.237082
   6 C :   -0.107688
   7 C :   -0.375645
   8 S :    0.070423
   9 C :   -0.482021
  10 S :    0.092691
  11 P :    0.560924
  12 S :   -0.302431
  13 O :   -0.241298
  14 C :   -0.122100
  15 C :   -0.363917
  16 O :   -0.245431
  17 C :   -0.119853
  18 C :   -0.369949
  19 H :    0.123189
  20 H :    0.119290
  21 H :    0.130415
  22 H :    0.111891
  23 H :    0.117010
  24 H :    0.115330
  25 H :    0.120107
  26 H :    0.120225
  27 H :    0.132853
  28 H :    0.128201
  29 H :    0.134380
  30 H :    0.124440
  31 H :    0.116167
  32 H :    0.112678
  33 H :    0.126673
  34 H :    0.128382
  35 H :    0.123259
  36 H :    0.117930
  37 H :    0.110014
  38 H :    0.130800
  39 H :    0.122400
  40 H :    0.123758

  Mayer bond orders larger than 0.100000
B(  0-C ,  1-C ) :   1.1664 B(  0-C , 19-H ) :   0.9432 B(  0-C , 20-H ) :   0.9356
B(  0-C , 21-H ) :   0.9370 B(  1-C ,  2-O ) :   0.9089 B(  1-C , 22-H ) :   0.9156
B(  1-C , 23-H ) :   0.9341 B(  2-O ,  3-P ) :   1.0613 B(  3-P ,  4-S ) :   1.6245
B(  3-P ,  5-O ) :   1.1237 B(  3-P ,  8-S ) :   0.9447 B(  4-S ,  8-S ) :   0.1219
B(  4-S , 30-H ) :   0.1050 B(  5-O ,  6-C ) :   0.8997 B(  6-C ,  7-C ) :   1.1717
B(  6-C , 24-H ) :   0.9285 B(  6-C , 25-H ) :   0.9288 B(  7-C , 26-H ) :   0.9319
B(  7-C , 27-H ) :   0.9347 B(  7-C , 28-H ) :   0.9303 B(  8-S ,  9-C ) :   1.0008
B(  9-C , 10-S ) :   1.0022 B(  9-C , 29-H ) :   0.9095 B(  9-C , 30-H ) :   0.8460
B( 10-S , 11-P ) :   0.9573 B( 10-S , 12-S ) :   0.1135 B( 11-P , 12-S ) :   1.6262
B( 11-P , 13-O ) :   1.1238 B( 11-P , 16-O ) :   1.0953 B( 13-O , 14-C ) :   0.9106
B( 14-C , 15-C ) :   1.1596 B( 14-C , 31-H ) :   0.9252 B( 14-C , 32-H ) :   0.9088
B( 15-C , 33-H ) :   0.9441 B( 15-C , 34-H ) :   0.9387 B( 15-C , 35-H ) :   0.9350
B( 16-O , 17-C ) :   0.9097 B( 17-C , 18-C ) :   1.1670 B( 17-C , 36-H ) :   0.9339
B( 17-C , 37-H ) :   0.9144 B( 18-C , 38-H ) :   0.9378 B( 18-C , 39-H ) :   0.9355
B( 18-C , 40-H ) :   0.9442

Dispersion correction           -0.068258897
FINAL SINGLE POINT ENERGY     -2929.514810974220

DIPOLE MOMENT
-------------

Method             : SCF
Type of density    : Electron Density
Multiplicity       :   1
Irrep              :   0
Energy             : -2929.6330049430898725 Eh
Relativity type    :
Basis              : AO
                                X                 Y                 Z
Electronic contribution:     -0.347040356      -1.178176316      -8.821600980
Nuclear contribution   :      0.733909295       0.835123819       9.911738977
                        -----------------------------------------
Total Dipole Moment    :      0.386868939      -0.343052497       1.090137997
                        -----------------------------------------
Magnitude (a.u.)       :      1.206546080
Magnitude (Debye)      :      3.066796413

Rotational constants in cm-1:             0.012711             0.005554             0.004868
Rotational constants in MHz :           381.068385           166.501291           145.935462

                             ****ORCA TERMINATED NORMALLY****
TOTAL RUN TIME: 0 days 0 hours 0 minutes 22 seconds 56 msec
