                         Program Version 6.0.1  -  RELEASE   -
|  1> ! pbe def2-sv(p) def2/J RI DEFGRID1 loosescf d4 GCP(DFT/SV(P)) printgap
|  2> %output
|  3>     printlevel normal
|  4> end
|  5> * xyz 0 1
|  6> C 5.6574795931 -1.4256488411 -0.2451652801
|  7> C 4.8132356273 -1.6773446171 -1.4841351083
|  8> O 3.4783225754 -2.0852760608 -1.1215766437
|  9> C 2.5845079227 -1.1567555582 -0.8622983987
| 10> O 2.7826591074 0.0386667812 -0.9476709712
| 11> C 1.2626483214 -1.7533836237 -0.429371071
| 12> C 0.1944331 -0.6754267779 -0.4956116183
| 13> H -0.0647273625 -0.4076970742 -1.5244744831
| 14> C 0.603282623 0.5917916078 0.2312660601
| 15> O 0.3414448864 1.698837901 -0.1879403105
| 16> O 1.1367470268 0.3318437402 1.4065686126
| 17> C 1.5781450878 1.43546364 2.2207118952
| 18> C 3.0751229974 1.639494664 2.0557021376
| 19> S -1.3318817838 -1.2305489095 0.3368964596
| 20> P -2.512633335 0.4805072281 -0.1093840523
| 21> S -2.3850683805 1.1630188843 -1.9354492202
| 22> O -3.9678622654 -0.0200332213 0.3157564714
| 23> C -4.672207488 -0.9910433097 -0.469755506
| 24> O -2.234343713 1.5538035177 1.0196469921
| 25> C -2.4584951135 1.265578195 2.4168450233
| 26> H 5.6606580079 -2.3067249037 0.3902793264
| 27> H 6.6744192464 -1.1958173351 -0.5451665177
| 28> H 5.2573619103 -0.5832182984 0.3146615285
| 29> H 5.2010277992 -2.5113707185 -2.068656182
| 30> H 4.7482199345 -0.7759883485 -2.1002678185
| 31> H 1.3728368658 -2.1071275787 0.5985265158
| 32> H 1.0100747194 -2.6045648652 -1.0600400864
| 33> H 1.0249397793 2.3299780184 1.9201718953
| 34> H 1.3240547211 1.150339101 3.2425603275
| 35> H 3.3070270401 1.81029798 1.0058974859
| 36> H 3.3895659013 2.5007984782 2.6354212721
| 37> H 3.6131356495 0.758982991 2.3961341845
| 38> H -5.7034206376 -0.9498615714 -0.1289236671
| 39> H -4.2468973238 -1.9791243385 -0.2985111129
| 40> H -4.6078641252 -0.7336278839 -1.5279003228
| 41> H -1.9658537647 0.3318746551 2.6911189346
| 42> H -3.5273287802 1.1930863245 2.6061776976
| 43> H -2.0250103946 2.1059988235 2.9529450572
| 44> *
| 45>
| 46>                          ****END OF INPUT****

CARTESIAN COORDINATES (ANGSTROEM)
---------------------------------
  C      5.657480   -1.425649   -0.245165
  C      4.813236   -1.677345   -1.484135
  O      3.478323   -2.085276   -1.121577
  C      2.584508   -1.156756   -0.862298
  O      2.782659    0.038667   -0.947671
  C      1.262648   -1.753384   -0.429371
  C      0.194433   -0.675427   -0.495612
  H     -0.064727   -0.407697   -1.524474
  C      0.603283    0.591792    0.231266
  O      0.341445    1.698838   -0.187940
  O      1.136747    0.331844    1.406569
  C      1.578145    1.435464    2.220712
  C      3.075123    1.639495    2.055702
  S     -1.331882   -1.230549    0.336896
  P     -2.512633    0.480507   -0.109384
  S     -2.385068    1.163019   -1.935449
  O     -3.967862   -0.020033    0.315756
  C     -4.672207   -0.991043   -0.469756
  O     -2.234344    1.553804    1.019647
  C     -2.458495    1.265578    2.416845
  H      5.660658   -2.306725    0.390279
  H      6.674419   -1.195817   -0.545167
  H      5.257362   -0.583218    0.314662
  H      5.201028   -2.511371   -2.068656
  H      4.748220   -0.775988   -2.100268
  H      1.372837   -2.107128    0.598527
  H      1.010075   -2.604565   -1.060040
  H      1.024940    2.329978    1.920172
  H      1.324055    1.150339    3.242560
  H      3.307027    1.810298    1.005897
  H      3.389566    2.500798    2.635421
  H      3.613136    0.758983    2.396134
  H     -5.703421   -0.949862   -0.128924
  H     -4.246897   -1.979124   -0.298511
  H     -4.607864   -0.733628   -1.527900
  H     -1.965854    0.331875    2.691119
  H     -3.527329    1.193086    2.606178
  H     -2.025010    2.105999    2.952945

 Total Charge           Charge          ....    0
 Multiplicity           Mult            ....    1
 Number of Electrons    NEL             ....  174
 Basis Dimension        Dim             ....  316

ORBITAL ENERGIES
----------------

  NO   OCC          E(Eh)            E(eV)
   0   2.0000     -88.039950     -2395.6888
   1   2.0000     -87.973540     -2393.8817
   2   2.0000     -76.419705     -2079.4859
   3   2.0000     -18.815014      -511.9826
   4   2.0000     -18.796477      -511.4781
   5   2.0000     -18.791925      -511.3543
   6   2.0000     -18.788673      -511.2658
   7   2.0000     -18.752649      -510.2855
   8   2.0000     -18.718361      -509.3525
   9   2.0000     -10.023598      -272.7560
  10   2.0000     -10.002328      -272.1772
  11   2.0000      -9.957597      -270.9600
  12   2.0000      -9.946399      -270.6553
  13   2.0000      -9.944336      -270.5991
  14   2.0000      -9.942943      -270.5612
  15   2.0000      -9.939039      -270.4550
  16   2.0000      -9.918449      -269.8947
  17   2.0000      -9.895805      -269.2785
  18   2.0000      -9.881923      -268.9008
  19   2.0000      -7.684615      -209.1090
  20   2.0000      -7.618949      -207.3221
  21   2.0000      -6.416985      -174.6150
  22   2.0000      -5.712089      -155.4338
  23   2.0000      -5.709291      -155.3577
  24   2.0000      -5.701903      -155.1567
  25   2.0000      -5.648116      -153.6930
  26   2.0000      -5.639256      -153.4520
  27   2.0000      -5.639121      -153.4483
  28   2.0000      -4.639889      -126.2578
  29   2.0000      -4.638868      -126.2300
  30   2.0000      -4.637059      -126.1808
  31   2.0000      -1.023788       -27.8587
  32   2.0000      -1.002789       -27.2873
  33   2.0000      -0.984349       -26.7855
  34   2.0000      -0.940039       -25.5798
  35   2.0000      -0.929537       -25.2940
  36   2.0000      -0.901550       -24.5324
  37   2.0000      -0.765906       -20.8413
  38   2.0000      -0.720611       -19.6088
  39   2.0000      -0.700581       -19.0638
  40   2.0000      -0.690676       -18.7942
  41   2.0000      -0.662814       -18.0361
  42   2.0000      -0.636331       -17.3154
  43   2.0000      -0.620029       -16.8718
  44   2.0000      -0.610425       -16.6105
  45   2.0000      -0.598168       -16.2770
  46   2.0000      -0.562086       -15.2951
  47   2.0000      -0.512852       -13.9554
  48   2.0000      -0.508861       -13.8468
  49   2.0000      -0.495916       -13.4946
  50   2.0000      -0.478714       -13.0265
  51   2.0000      -0.473517       -12.8851
  52   2.0000      -0.463339       -12.6081
  53   2.0000      -0.443127       -12.0581
  54   2.0000      -0.439254       -11.9527
  55   2.0000      -0.429832       -11.6963
  56   2.0000      -0.429213       -11.6795
  57   2.0000      -0.418842       -11.3973
  58   2.0000      -0.413489       -11.2516
  59   2.0000      -0.410826       -11.1792
  60   2.0000      -0.402849       -10.9621
  61   2.0000      -0.399055       -10.8588
  62   2.0000      -0.391559       -10.6549
  63   2.0000      -0.383471       -10.4348
  64   2.0000      -0.375218       -10.2102
  65   2.0000      -0.367466        -9.9993
  66   2.0000      -0.360892        -9.8204
  67   2.0000      -0.358616        -9.7584
  68   2.0000      -0.345063        -9.3896
  69   2.0000      -0.339186        -9.2297
  70   2.0000      -0.333294        -9.0694
  71   2.0000      -0.329509        -8.9664
  72   2.0000      -0.320646        -8.7252
  73   2.0000      -0.314521        -8.5585
  74   2.0000      -0.305373        -8.3096
  75   2.0000      -0.300308        -8.1718
  76   2.0000      -0.295649        -8.0450
  77   2.0000      -0.286688        -7.8012
  78   2.0000      -0.272258        -7.4085
  79   2.0000      -0.269472        -7.3327
  80   2.0000      -0.259243        -7.0544
  81   2.0000      -0.247634        -6.7385
  82   2.0000      -0.237023        -6.4497
  83   2.0000      -0.230531        -6.2731
  84   2.0000      -0.211976        -5.7682
  85   2.0000      -0.190927        -5.1954
  86   2.0000      -0.184026        -5.0076
  87   0.0000      -0.042364        -1.1528
  88   0.0000      -0.033230        -0.9042
  89   0.0000      -0.010457        -0.2846
  90   0.0000       0.013496         0.3672
  91   0.0000       0.026180         0.7124

MULLIKEN ATOMIC CHARGES
-----------------------
   0 C :   -0.315330
   1 C :   -0.014363
   2 O :   -0.224550
   3 C :    0.127095
   4 O :   -0.195612
   5 C :   -0.054395
   6 C :   -0.297615
   7 H :    0.148215
   8 C :    0.173770
   9 O :   -0.170694
  10 O :   -0.247031
  11 C :   -0.021671
  12 C :   -0.309924
  13 S :   -0.116358
  14 P :    0.605859
  15 S :   -0.283450
  16 O :   -0.392422
  17 C :   -0.100709
  18 O :   -0.355214
  19 C :   -0.106816
  20 H :    0.116302
  21 H :    0.117724
  22 H :    0.134130
  23 H :    0.107954
  24 H :    0.116289
  25 H :    0.126575
  26 H :    0.123733
  27 H :    0.118219
  28 H :    0.094711
  29 H :    0.144862
  30 H :    0.108317
  31 H :    0.108857
  32 H :    0.125461
  33 H :    0.115610
  34 H :    0.119932
  35 H :    0.116429
  36 H :    0.125508
  37 H :    0.130600
Sum of atomic charges:   -0.0000000

LOEWDIN ATOMIC CHARGES
----------------------
   0 C :   -0.356939
   1 C :   -0.108760
   2 O :   -0.053522
   3 C :    0.045685
   4 O :   -0.146117
   5 C :   -0.254290
   6 C :   -0.260089
   7 H :    0.138958
   8 C :   -0.009275
   9 O :   -0.147637
  10 O :   -0.065616
  11 C :   -0.111247
  12 C :   -0.357613
  13 S :    0.087072
  14 P :    0.571604
  15 S :   -0.290336
  16 O :   -0.260251
  17 C :   -0.215183
  18 O :   -0.233339
  19 C :   -0.211307
  20 H :    0.126122
  21 H :    0.133374
  22 H :    0.131067
  23 H :    0.120465
  24 H :    0.123292
  25 H :    0.148081
  26 H :    0.144170
  27 H :    0.122726
  28 H :    0.112336
  29 H :    0.136007
  30 H :    0.128079
  31 H :    0.119324
  32 H :    0.122530
  33 H :    0.109799
  34 H :    0.112706
  35 H :    0.106905
  36 H :    0.116859
  37 H :    0.124363

  Mayer bond orders larger than 0.100000
B(  0-C ,  1-C ) :   1.1746 B(  0-C , 20-H ) :   0.9483 B(  0-C , 21-H ) :   0.9427
B(  0-C , 22-H ) :   0.9421 B(  1-C ,  2-O ) :   0.9083 B(  1-C , 23-H ) :   0.9369
B(  1-C , 24-H ) :   0.9150 B(  2-O ,  3-C ) :   1.2560 B(  3-C ,  4-O ) :   1.9814
B(  3-C ,  5-C ) :   1.0176 B(  5-C ,  6-C ) :   1.0344 B(  5-C , 25-H ) :   0.8691
B(  5-C , 26-H ) :   0.8946 B(  6-C ,  7-H ) :   0.8666 B(  6-C ,  8-C ) :   0.9022
B(  6-C , 13-S ) :   1.0175 B(  8-C ,  9-O ) :   2.0543 B(  8-C , 10-O ) :   1.2017
B( 10-O , 11-C ) :   0.9192 B( 11-C , 12-C ) :   1.1784 B( 11-C , 27-H ) :   0.9054
B( 11-C , 28-H ) :   0.9363 B( 12-C , 29-H ) :   0.9383 B( 12-C , 30-H ) :   0.9426
B( 12-C , 31-H ) :   0.9470 B( 13-S , 14-P ) :   0.9475 B( 13-S , 15-S ) :   0.1138
B( 14-P , 15-S ) :   1.6919 B( 14-P , 16-O ) :   1.0652 B( 14-P , 18-O ) :   1.1134
B( 16-O , 17-C ) :   0.9299 B( 17-C , 32-H ) :   0.9587 B( 17-C , 33-H ) :   0.9503
B( 17-C , 34-H ) :   0.9319 B( 18-O , 19-C ) :   0.9193 B( 19-C , 35-H ) :   0.9338
B( 19-C , 36-H ) :   0.9495 B( 19-C , 37-H ) :   0.9574

Dispersion correction           -0.051682779
FINAL SINGLE POINT ENERGY     -1979.015186653664

DIPOLE MOMENT
-------------

Method             : SCF
Type of density    : Electron Density
Multiplicity       :   1
Irrep              :   0
Energy             : -1979.1468807209180341 Eh
Relativity type    :
Basis              : AO
                                X                 Y                 Z
Electronic contribution:    -20.663995001       2.531129904      -9.541552467
Nuclear contribution   :     21.553721597      -4.132975883      10.940118442
                        -----------------------------------------
Total Dipole Moment    :      0.889726595      -1.601845979       1.398565975
                        -----------------------------------------
Magnitude (a.u.)       :      2.305105364
Magnitude (Debye)      :      5.859112204

Rotational constants in cm-1:             0.017850             0.005616             0.004997
Rotational constants in MHz :           535.128186           168.367378           149.800297

                             ****ORCA TERMINATED NORMALLY****
TOTAL RUN TIME: 0 days 0 hours 0 minutes 41 seconds 363 msec
