                         Program Version 6.0.0  -   RELEASE  -
|  1> ! pbe def2-sv(p) def2/J RI DEFGRID1 loosescf d4 GCP(DFT/SV(P)) printgap
|  2> %output
|  3>     printlevel normal
|  4> end
|  5> * xyz 0 1
|  6> C 5.5695780348 0.809072431 -0.2401301311
|  7> C 4.2912338318 1.3094115169 -0.8845361866
|  8> O 3.3214908342 0.2478343916 -1.0088604492
|  9> P 2.2329271779 -0.0544407385 0.1053920655
| 10> S 2.8784062137 -0.4196507286 1.9232240141
| 11> O 1.4084949804 -1.2165262475 -0.5767148937
| 12> C 1.6194694881 -2.6054764324 -0.260393953
| 13> C 2.9525217297 -3.0925085834 -0.7854852753
| 14> S 0.911329727 1.5819387923 -0.0785354565
| 15> C 0.0319873066 1.3120042657 1.4831201031
| 16> S -0.8884558764 -0.2549962531 1.5328175373
| 17> P -2.0710708283 -0.0530702521 -0.2207905301
| 18> S -1.3977517884 -0.5233343743 -1.9919905936
| 19> O -2.5211512372 1.4680775064 -0.0230213978
| 20> C -2.9192053352 2.2865295731 -1.1404260128
| 21> C -4.3055412099 1.9129791168 -1.6233543744
| 22> O -3.3125041463 -0.977647285 0.120706274
| 23> C -4.1306073139 -0.7991443569 1.305220621
| 24> C -5.5480442024 -1.2089476039 0.9609091301
| 25> H 6.2948290621 1.6158825089 -0.2144710413
| 26> H 5.3751829982 0.4747313601 0.7765638341
| 27> H 5.975799711 -0.021192165 -0.811180007
| 28> H 4.4648275302 1.6378247392 -1.9110026985
| 29> H 3.8547299472 2.1305161963 -0.3083935231
| 30> H 1.5571446291 -2.7274863259 0.8266067637
| 31> H 0.7790045032 -3.1116052878 -0.7387031288
| 32> H 3.7593496676 -2.5647959179 -0.2774586787
| 33> H 3.0487674193 -4.1570045675 -0.596724302
| 34> H 3.0244716073 -2.9023563191 -1.8531989764
| 35> H -0.6528993403 2.1456500264 1.6101871885
| 36> H 0.7507237074 1.2551145658 2.3016758093
| 37> H -2.8808500013 3.3055144311 -0.7532005943
| 38> H -2.1839037689 2.1648209156 -1.9418426875
| 39> H -4.5906305 2.5664474824 -2.4416931304
| 40> H -4.3021010743 0.8825130109 -1.9783837706
| 41> H -5.0275197691 2.0106452364 -0.8165898071
| 42> H -3.7101562505 -1.4321182463 2.089797499
| 43> H -4.0793637746 0.2466543418 1.6179217
| 44> H -5.9492852766 -0.567496626 0.1810860774
| 45> H -5.5600161309 -2.2356409208 0.6065587743
| 46> H -6.1672224902 -1.1273326324 1.848439236
| 47> *
| 48>
| 49>                          ****END OF INPUT****

CARTESIAN COORDINATES (ANGSTROEM)
---------------------------------
  C      5.569578    0.809072   -0.240130
  C      4.291234    1.309412   -0.884536
  O      3.321491    0.247834   -1.008860
  P      2.232927   -0.054441    0.105392
  S      2.878406   -0.419651    1.923224
  O      1.408495   -1.216526   -0.576715
  C      1.619469   -2.605476   -0.260394
  C      2.952522   -3.092509   -0.785485
  S      0.911330    1.581939   -0.078535
  C      0.031987    1.312004    1.483120
  S     -0.888456   -0.254996    1.532818
  P     -2.071071   -0.053070   -0.220791
  S     -1.397752   -0.523334   -1.991991
  O     -2.521151    1.468078   -0.023021
  C     -2.919205    2.286530   -1.140426
  C     -4.305541    1.912979   -1.623354
  O     -3.312504   -0.977647    0.120706
  C     -4.130607   -0.799144    1.305221
  C     -5.548044   -1.208948    0.960909
  H      6.294829    1.615883   -0.214471
  H      5.375183    0.474731    0.776564
  H      5.975800   -0.021192   -0.811180
  H      4.464828    1.637825   -1.911003
  H      3.854730    2.130516   -0.308394
  H      1.557145   -2.727486    0.826607
  H      0.779005   -3.111605   -0.738703
  H      3.759350   -2.564796   -0.277459
  H      3.048767   -4.157005   -0.596724
  H      3.024472   -2.902356   -1.853199
  H     -0.652899    2.145650    1.610187
  H      0.750724    1.255115    2.301676
  H     -2.880850    3.305514   -0.753201
  H     -2.183904    2.164821   -1.941843
  H     -4.590630    2.566447   -2.441693
  H     -4.302101    0.882513   -1.978384
  H     -5.027520    2.010645   -0.816590
  H     -3.710156   -1.432118    2.089797
  H     -4.079364    0.246654    1.617922
  H     -5.949285   -0.567497    0.181086
  H     -5.560016   -2.235641    0.606559
  H     -6.167222   -1.127333    1.848439

 Total Charge           Charge          ....    0
 Multiplicity           Mult            ....    1
 Number of Electrons    NEL             ....  202
 Basis Dimension        Dim             ....  334

ORBITAL ENERGIES
----------------

  NO   OCC          E(Eh)            E(eV)
   0   2.0000     -88.040939     -2395.7157
   1   2.0000     -88.038712     -2395.6551
   2   2.0000     -87.985502     -2394.2072
   3   2.0000     -87.976696     -2393.9676
   4   2.0000     -76.423596     -2079.5918
   5   2.0000     -76.421342     -2079.5304
   6   2.0000     -18.795251      -511.4448
   7   2.0000     -18.791090      -511.3316
   8   2.0000     -18.790694      -511.3208
   9   2.0000     -18.780537      -511.0444
  10   2.0000      -9.955824      -270.9118
  11   2.0000      -9.955561      -270.9046
  12   2.0000      -9.954174      -270.8668
  13   2.0000      -9.952458      -270.8202
  14   2.0000      -9.940383      -270.4916
  15   2.0000      -9.891095      -269.1504
  16   2.0000      -9.887224      -269.0450
  17   2.0000      -9.880156      -268.8527
  18   2.0000      -9.875587      -268.7284
  19   2.0000      -7.686143      -209.1506
  20   2.0000      -7.683664      -209.0831
  21   2.0000      -7.630456      -207.6353
  22   2.0000      -7.622066      -207.4069
  23   2.0000      -6.421067      -174.7261
  24   2.0000      -6.418966      -174.6689
  25   2.0000      -5.713951      -155.4845
  26   2.0000      -5.711768      -155.4251
  27   2.0000      -5.710695      -155.3959
  28   2.0000      -5.708062      -155.3243
  29   2.0000      -5.703074      -155.1885
  30   2.0000      -5.700531      -155.1193
  31   2.0000      -5.659168      -153.9938
  32   2.0000      -5.651198      -153.7769
  33   2.0000      -5.651153      -153.7757
  34   2.0000      -5.650753      -153.7648
  35   2.0000      -5.642518      -153.5407
  36   2.0000      -5.642121      -153.5299
  37   2.0000      -4.643447      -126.3546
  38   2.0000      -4.642853      -126.3385
  39   2.0000      -4.642137      -126.3190
  40   2.0000      -4.641717      -126.3075
  41   2.0000      -4.640492      -126.2742
  42   2.0000      -4.639106      -126.2365
  43   2.0000      -0.984777       -26.7972
  44   2.0000      -0.982583       -26.7375
  45   2.0000      -0.945413       -25.7260
  46   2.0000      -0.940549       -25.5937
  47   2.0000      -0.762652       -20.7528
  48   2.0000      -0.720202       -19.5977
  49   2.0000      -0.706802       -19.2330
  50   2.0000      -0.692803       -18.8521
  51   2.0000      -0.681344       -18.5403
  52   2.0000      -0.668738       -18.1973
  53   2.0000      -0.648007       -17.6332
  54   2.0000      -0.637780       -17.3549
  55   2.0000      -0.594278       -16.1711
  56   2.0000      -0.587638       -15.9904
  57   2.0000      -0.572347       -15.5744
  58   2.0000      -0.568186       -15.4611
  59   2.0000      -0.559989       -15.2381
  60   2.0000      -0.505658       -13.7597
  61   2.0000      -0.495211       -13.4754
  62   2.0000      -0.481851       -13.1118
  63   2.0000      -0.469101       -12.7649
  64   2.0000      -0.455688       -12.3999
  65   2.0000      -0.442758       -12.0480
  66   2.0000      -0.438050       -11.9199
  67   2.0000      -0.434945       -11.8355
  68   2.0000      -0.423130       -11.5140
  69   2.0000      -0.403724       -10.9859
  70   2.0000      -0.401549       -10.9267
  71   2.0000      -0.397620       -10.8198
  72   2.0000      -0.393389       -10.7047
  73   2.0000      -0.390351       -10.6220
  74   2.0000      -0.383103       -10.4248
  75   2.0000      -0.372047       -10.1239
  76   2.0000      -0.364539        -9.9196
  77   2.0000      -0.358398        -9.7525
  78   2.0000      -0.351576        -9.5669
  79   2.0000      -0.348793        -9.4911
  80   2.0000      -0.347161        -9.4467
  81   2.0000      -0.343800        -9.3553
  82   2.0000      -0.342616        -9.3231
  83   2.0000      -0.332569        -9.0497
  84   2.0000      -0.330302        -8.9880
  85   2.0000      -0.320168        -8.7122
  86   2.0000      -0.310802        -8.4573
  87   2.0000      -0.307691        -8.3727
  88   2.0000      -0.295531        -8.0418
  89   2.0000      -0.281283        -7.6541
  90   2.0000      -0.279435        -7.6038
  91   2.0000      -0.269252        -7.3267
  92   2.0000      -0.267812        -7.2875
  93   2.0000      -0.266425        -7.2498
  94   2.0000      -0.261806        -7.1241
  95   2.0000      -0.234511        -6.3814
  96   2.0000      -0.217066        -5.9067
  97   2.0000      -0.205989        -5.6052
  98   2.0000      -0.201492        -5.4829
  99   2.0000      -0.192757        -5.2452
 100   2.0000      -0.187366        -5.0985
 101   0.0000      -0.045740        -1.2446
 102   0.0000      -0.018913        -0.5147
 103   0.0000      -0.008588        -0.2337
 104   0.0000       0.003960         0.1077
 105   0.0000       0.023359         0.6356

MULLIKEN ATOMIC CHARGES
-----------------------
   0 C :   -0.295809
   1 C :   -0.011582
   2 O :   -0.366470
   3 P :    0.620165
   4 S :   -0.342978
   5 O :   -0.341168
   6 C :   -0.000046
   7 C :   -0.308953
   8 S :   -0.085702
   9 C :   -0.347379
  10 S :   -0.099115
  11 P :    0.613235
  12 S :   -0.289578
  13 O :   -0.395476
  14 C :   -0.009325
  15 C :   -0.317392
  16 O :   -0.370687
  17 C :   -0.023767
  18 C :   -0.282538
  19 H :    0.107032
  20 H :    0.130527
  21 H :    0.115248
  22 H :    0.109542
  23 H :    0.101255
  24 H :    0.109863
  25 H :    0.107423
  26 H :    0.120183
  27 H :    0.109320
  28 H :    0.118268
  29 H :    0.183902
  30 H :    0.191943
  31 H :    0.100667
  32 H :    0.117959
  33 H :    0.114484
  34 H :    0.133324
  35 H :    0.113107
  36 H :    0.112568
  37 H :    0.105636
  38 H :    0.117986
  39 H :    0.123323
  40 H :    0.111005
Sum of atomic charges:    0.0000000

LOEWDIN ATOMIC CHARGES
----------------------
   0 C :   -0.364417
   1 C :   -0.115347
   2 O :   -0.241337
   3 P :    0.573439
   4 S :   -0.324781
   5 O :   -0.223497
   6 C :   -0.117116
   7 C :   -0.365014
   8 S :    0.087026
   9 C :   -0.477293
  10 S :    0.077550
  11 P :    0.560885
  12 S :   -0.294802
  13 O :   -0.255797
  14 C :   -0.122315
  15 C :   -0.365770
  16 O :   -0.247313
  17 C :   -0.121463
  18 C :   -0.350928
  19 H :    0.128549
  20 H :    0.124446
  21 H :    0.125997
  22 H :    0.119963
  23 H :    0.106217
  24 H :    0.108391
  25 H :    0.119662
  26 H :    0.120276
  27 H :    0.129079
  28 H :    0.126995
  29 H :    0.131904
  30 H :    0.129448
  31 H :    0.115461
  32 H :    0.112291
  33 H :    0.132134
  34 H :    0.126636
  35 H :    0.121253
  36 H :    0.114643
  37 H :    0.107607
  38 H :    0.126219
  39 H :    0.130979
  40 H :    0.130142

  Mayer bond orders larger than 0.100000
B(  0-C ,  1-C ) :   1.1672 B(  0-C , 19-H ) :   0.9393 B(  0-C , 20-H ) :   0.9311
B(  0-C , 21-H ) :   0.9465 B(  1-C ,  2-O ) :   0.9056 B(  1-C , 22-H ) :   0.9358
B(  1-C , 23-H ) :   0.9159 B(  2-O ,  3-P ) :   1.1171 B(  3-P ,  4-S ) :   1.5877
B(  3-P ,  5-O ) :   1.1531 B(  3-P ,  8-S ) :   0.9518 B(  4-S ,  8-S ) :   0.1105
B(  5-O ,  6-C ) :   0.9026 B(  6-C ,  7-C ) :   1.1638 B(  6-C , 24-H ) :   0.9165
B(  6-C , 25-H ) :   0.9293 B(  7-C , 26-H ) :   0.9356 B(  7-C , 27-H ) :   0.9399
B(  7-C , 28-H ) :   0.9461 B(  8-S ,  9-C ) :   1.0137 B(  9-C , 10-S ) :   0.9981
B(  9-C , 29-H ) :   0.9027 B(  9-C , 30-H ) :   0.8794 B( 10-S , 11-P ) :   0.9544
B( 10-S , 12-S ) :   0.1057 B( 11-P , 12-S ) :   1.6717 B( 11-P , 13-O ) :   1.0509
B( 11-P , 16-O ) :   1.1172 B( 13-O , 14-C ) :   0.9034 B( 14-C , 15-C ) :   1.1632
B( 14-C , 31-H ) :   0.9335 B( 14-C , 32-H ) :   0.9100 B( 15-C , 33-H ) :   0.9389
B( 15-C , 34-H ) :   0.9331 B( 15-C , 35-H ) :   0.9442 B( 16-O , 17-C ) :   0.8956
B( 17-C , 18-C ) :   1.1623 B( 17-C , 36-H ) :   0.9312 B( 17-C , 37-H ) :   0.9165
B( 18-C , 38-H ) :   0.9483 B( 18-C , 39-H ) :   0.9485 B( 18-C , 40-H ) :   0.9409

Dispersion correction           -0.065840950
FINAL SINGLE POINT ENERGY     -2929.520448587629

DIPOLE MOMENT
-------------

Method             : SCF
Type of density    : Electron Density
Multiplicity       :   1
Irrep              :   0
Energy             : -2929.6385407385637336 Eh
Relativity type    :
Basis              : AO
                                X                 Y                 Z
Electronic contribution:      5.293558041       1.148296509       2.804064159
Nuclear contribution   :     -6.039088723      -0.307456483      -2.570909091
                        -----------------------------------------
Total Dipole Moment    :     -0.745530682       0.840840025       0.233155068
                        -----------------------------------------
Magnitude (a.u.)       :      1.147688648
Magnitude (Debye)      :      2.917192710

Rotational constants in cm-1:             0.014554             0.004599             0.004377
Rotational constants in MHz :           436.319846           137.870119           131.215722

                             ****ORCA TERMINATED NORMALLY****
TOTAL RUN TIME: 0 days 0 hours 0 minutes 20 seconds 983 msec
