                         Program Version 6.0.0  -   RELEASE  -
|  1> ! pbe def2-sv(p) def2/J RI DEFGRID1 loosescf d4 GCP(DFT/SV(P)) printgap
|  2> %output
|  3>     printlevel normal
|  4> end
|  5> * xyz 0 1
|  6> C -1.2548007656 -0.3047745402 0.0179024332
|  7> C -0.008896319 0.5720833546 0.0178659292
|  8> N 1.1909923376 -0.256496493 0.0178930385
|  9> H -2.1466656611 0.3117265824 0.0852926977
| 10> H -1.3044431352 -0.8927776197 -0.8958572901
| 11> H -1.2263760358 -0.9839187166 0.8647783973
| 12> H 0.013093704 1.1772066029 0.9287492512
| 13> H -0.0531919264 1.263079778 -0.842608134
| 14> H 1.208538706 -0.8270948899 -0.8211930432
| 15> H 2.0169484521 0.3308627266 0.0059702439
| 16> *
| 17>
| 18>                          ****END OF INPUT****

CARTESIAN COORDINATES (ANGSTROEM)
---------------------------------
  C     -1.254801   -0.304775    0.017902
  C     -0.008896    0.572083    0.017866
  N      1.190992   -0.256496    0.017893
  H     -2.146666    0.311727    0.085293
  H     -1.304443   -0.892778   -0.895857
  H     -1.226376   -0.983919    0.864778
  H      0.013094    1.177207    0.928749
  H     -0.053192    1.263080   -0.842608
  H      1.208539   -0.827095   -0.821193
  H      2.016948    0.330863    0.005970

 Total Charge           Charge          ....    0
 Multiplicity           Mult            ....    1
 Number of Electrons    NEL             ....   26
 Basis Dimension        Dim             ....   56

ORBITAL ENERGIES
----------------

  NO   OCC          E(Eh)            E(eV)
   0   2.0000     -13.953697      -379.6994
   1   2.0000      -9.904871      -269.5253
   2   2.0000      -9.869708      -268.5684
   3   2.0000      -0.789061       -21.4715
   4   2.0000      -0.649792       -17.6817
   5   2.0000      -0.532124       -14.4798
   6   2.0000      -0.435480       -11.8500
   7   2.0000      -0.409570       -11.1450
   8   2.0000      -0.375311       -10.2127
   9   2.0000      -0.320973        -8.7341
  10   2.0000      -0.314133        -8.5480
  11   2.0000      -0.300153        -8.1676
  12   2.0000      -0.178339        -4.8528
  13   0.0000       0.035059         0.9540
  14   0.0000       0.075882         2.0649
  15   0.0000       0.081851         2.2273
  16   0.0000       0.104659         2.8479
  17   0.0000       0.121021         3.2931

MULLIKEN ATOMIC CHARGES
-----------------------
   0 C :   -0.288522
   1 C :   -0.098657
   2 N :   -0.465057
   3 H :    0.100600
   4 H :    0.094849
   5 H :    0.109381
   6 H :    0.084425
   7 H :    0.065772
   8 H :    0.196727
   9 H :    0.200482
Sum of atomic charges:   -0.0000000

LOEWDIN ATOMIC CHARGES
----------------------
   0 C :   -0.349846
   1 C :   -0.182502
   2 N :   -0.422156
   3 H :    0.120198
   4 H :    0.113960
   5 H :    0.122664
   6 H :    0.109984
   7 H :    0.086422
   8 H :    0.199132
   9 H :    0.202144

  Mayer bond orders larger than 0.100000
B(  0-C ,  1-C ) :   1.1610 B(  0-C ,  3-H ) :   0.9511 B(  0-C ,  4-H ) :   0.9567
B(  0-C ,  5-H ) :   0.9507 B(  1-C ,  2-N ) :   1.0990 B(  1-C ,  6-H ) :   0.9344
B(  1-C ,  7-H ) :   0.9246 B(  2-N ,  8-H ) :   0.9067 B(  2-N ,  9-H ) :   0.9067

Dispersion correction           -0.004476836
FINAL SINGLE POINT ENERGY      -134.819293491810

DIPOLE MOMENT
-------------

Method             : SCF
Type of density    : Electron Density
Multiplicity       :   1
Irrep              :   0
Energy             :  -134.8587782640991861 Eh
Relativity type    :
Basis              : AO
                                X                 Y                 Z
Electronic contribution:      1.489173808      -0.078606888       0.197435223
Nuclear contribution   :     -1.393280787       0.354233198      -0.633042918
                        -----------------------------------------
Total Dipole Moment    :      0.095893021       0.275626310      -0.435607694
                        -----------------------------------------
Magnitude (a.u.)       :      0.524327567
Magnitude (Debye)      :      1.332734761

Rotational constants in cm-1:             1.093427             0.300625             0.263530
Rotational constants in MHz :         32780.102680          9012.496893          7900.419592

                             ****ORCA TERMINATED NORMALLY****
TOTAL RUN TIME: 0 days 0 hours 0 minutes 4 seconds 35 msec
