                         Program Version 6.0.0  -   RELEASE  -
|  1> ! pbe def2-sv(p) def2/J RI DEFGRID1 loosescf d4 GCP(DFT/SV(P)) printgap
|  2> %output
|  3>     printlevel normal
|  4> end
|  5> * xyz 0 1
|  6> C 2.0562809939 2.4909162685 -1.0035514438
|  7> C 2.0013496356 1.0766281778 -1.5394437222
|  8> O 1.3225268828 0.1660821114 -0.6483374333
|  9> P 1.807482164 -0.0946785707 0.8621760788
| 10> S 1.1378520801 1.1431890155 2.2167944657
| 11> O 3.3891652751 -0.0591706853 0.8705849629
| 12> C 4.2547731454 -1.0191014645 0.2104277348
| 13> C 4.7964740208 -2.0130511941 1.2174779717
| 14> S 1.3173115164 -2.145172333 1.0399526893
| 15> C -0.3057789545 -2.1929368324 0.227747853
| 16> S -1.4967448675 -0.998473027 0.8879163778
| 17> P -1.7412170998 0.2614629513 -0.8221421837
| 18> S -1.0649900335 -0.4059644327 -2.5286653631
| 19> O -1.1720626208 1.6752725001 -0.4139710606
| 20> C -1.7313379949 2.4499462841 0.6766367973
| 21> C -2.6191146029 3.5525974036 0.1399749293
| 22> O -3.3096523974 0.5480926845 -0.8121347687
| 23> C -4.2596290857 -0.2910207371 -1.4914351564
| 24> C -4.3353922653 -1.6866375563 -0.906755358
| 25> H 2.5477200675 3.1297675602 -1.730708908
| 26> H 1.050050455 2.8594072086 -0.8203233585
| 27> H 2.6125297454 2.515867473 -0.0665369337
| 28> H 3.0072116451 0.6928151113 -1.7260257324
| 29> H 1.4105120627 1.0167284548 -2.4564424944
| 30> H 3.701933584 -1.5269986184 -0.5838547441
| 31> H 5.0567483318 -0.4149406212 -0.2179956717
| 32> H 5.502433557 -2.6718555935 0.7219286352
| 33> H 5.2987542598 -1.4868411341 2.0242909513
| 34> H 3.9866927446 -2.6069796296 1.6364366147
| 35> H -0.6870604273 -3.1922750345 0.4243024789
| 36> H -0.1891315935 -2.0150466799 -0.8447692444
| 37> H -2.2811043193 1.7816995892 1.3445175322
| 38> H -0.866954597 2.8489657636 1.2124587344
| 39> H -2.9652702535 4.1591398146 0.9708074844
| 40> H -2.0609588422 4.1771761992 -0.5521413301
| 41> H -3.4751149621 3.1289680186 -0.3785907813
| 42> H -5.2040466929 0.2429672473 -1.376167691
| 43> H -3.9832360336 -0.3336371204 -2.5495628586
| 44> H -4.4904985879 -1.6408051523 0.1683057746
| 45> H -5.1603808501 -2.2201381225 -1.3678883242
| 46> H -3.4113164492 -2.2263458857 -1.1081272802
| 47> *
| 48>
| 49>                          ****END OF INPUT****

CARTESIAN COORDINATES (ANGSTROEM)
---------------------------------
  C      2.056281    2.490916   -1.003551
  C      2.001350    1.076628   -1.539444
  O      1.322527    0.166082   -0.648337
  P      1.807482   -0.094679    0.862176
  S      1.137852    1.143189    2.216794
  O      3.389165   -0.059171    0.870585
  C      4.254773   -1.019101    0.210428
  C      4.796474   -2.013051    1.217478
  S      1.317312   -2.145172    1.039953
  C     -0.305779   -2.192937    0.227748
  S     -1.496745   -0.998473    0.887916
  P     -1.741217    0.261463   -0.822142
  S     -1.064990   -0.405964   -2.528665
  O     -1.172063    1.675273   -0.413971
  C     -1.731338    2.449946    0.676637
  C     -2.619115    3.552597    0.139975
  O     -3.309652    0.548093   -0.812135
  C     -4.259629   -0.291021   -1.491435
  C     -4.335392   -1.686638   -0.906755
  H      2.547720    3.129768   -1.730709
  H      1.050050    2.859407   -0.820323
  H      2.612530    2.515867   -0.066537
  H      3.007212    0.692815   -1.726026
  H      1.410512    1.016728   -2.456442
  H      3.701934   -1.526999   -0.583855
  H      5.056748   -0.414941   -0.217996
  H      5.502434   -2.671856    0.721929
  H      5.298754   -1.486841    2.024291
  H      3.986693   -2.606980    1.636437
  H     -0.687060   -3.192275    0.424302
  H     -0.189132   -2.015047   -0.844769
  H     -2.281104    1.781700    1.344518
  H     -0.866955    2.848966    1.212459
  H     -2.965270    4.159140    0.970807
  H     -2.060959    4.177176   -0.552141
  H     -3.475115    3.128968   -0.378591
  H     -5.204047    0.242967   -1.376168
  H     -3.983236   -0.333637   -2.549563
  H     -4.490499   -1.640805    0.168306
  H     -5.160381   -2.220138   -1.367888
  H     -3.411316   -2.226346   -1.108127

 Total Charge           Charge          ....    0
 Multiplicity           Mult            ....    1
 Number of Electrons    NEL             ....  202
 Basis Dimension        Dim             ....  334

ORBITAL ENERGIES
----------------

  NO   OCC          E(Eh)            E(eV)
   0   2.0000     -88.041270     -2395.7248
   1   2.0000     -88.039426     -2395.6746
   2   2.0000     -87.990151     -2394.3337
   3   2.0000     -87.974619     -2393.9111
   4   2.0000     -76.427162     -2079.6888
   5   2.0000     -76.421934     -2079.5465
   6   2.0000     -18.794683      -511.4293
   7   2.0000     -18.792141      -511.3602
   8   2.0000     -18.787161      -511.2246
   9   2.0000     -18.781909      -511.0817
  10   2.0000      -9.960969      -271.0518
  11   2.0000      -9.955250      -270.8961
  12   2.0000      -9.953710      -270.8542
  13   2.0000      -9.946946      -270.6702
  14   2.0000      -9.945974      -270.6437
  15   2.0000      -9.890376      -269.1308
  16   2.0000      -9.884815      -268.9795
  17   2.0000      -9.881240      -268.8822
  18   2.0000      -9.873105      -268.6608
  19   2.0000      -7.685858      -209.1428
  20   2.0000      -7.684985      -209.1191
  21   2.0000      -7.635150      -207.7630
  22   2.0000      -7.619991      -207.3505
  23   2.0000      -6.424419      -174.8173
  24   2.0000      -6.419374      -174.6800
  25   2.0000      -5.713748      -155.4790
  26   2.0000      -5.713060      -155.4603
  27   2.0000      -5.710480      -155.3901
  28   2.0000      -5.709295      -155.3578
  29   2.0000      -5.702731      -155.1792
  30   2.0000      -5.701865      -155.1556
  31   2.0000      -5.664112      -154.1283
  32   2.0000      -5.655788      -153.9018
  33   2.0000      -5.655161      -153.8847
  34   2.0000      -5.649117      -153.7203
  35   2.0000      -5.640542      -153.4869
  36   2.0000      -5.639953      -153.4709
  37   2.0000      -4.647226      -126.4575
  38   2.0000      -4.645946      -126.4226
  39   2.0000      -4.644955      -126.3957
  40   2.0000      -4.643003      -126.3425
  41   2.0000      -4.641034      -126.2890
  42   2.0000      -4.639038      -126.2346
  43   2.0000      -0.987111       -26.8607
  44   2.0000      -0.982004       -26.7217
  45   2.0000      -0.942101       -25.6359
  46   2.0000      -0.937691       -25.5159
  47   2.0000      -0.760799       -20.7024
  48   2.0000      -0.719655       -19.5828
  49   2.0000      -0.709502       -19.3065
  50   2.0000      -0.689399       -18.7595
  51   2.0000      -0.687558       -18.7094
  52   2.0000      -0.671598       -18.2751
  53   2.0000      -0.649217       -17.6661
  54   2.0000      -0.638401       -17.3718
  55   2.0000      -0.595808       -16.2127
  56   2.0000      -0.579682       -15.7740
  57   2.0000      -0.575707       -15.6658
  58   2.0000      -0.570734       -15.5305
  59   2.0000      -0.561865       -15.2891
  60   2.0000      -0.507153       -13.8003
  61   2.0000      -0.498935       -13.5767
  62   2.0000      -0.472372       -12.8539
  63   2.0000      -0.468685       -12.7536
  64   2.0000      -0.452298       -12.3077
  65   2.0000      -0.449207       -12.2235
  66   2.0000      -0.441357       -12.0099
  67   2.0000      -0.437131       -11.8949
  68   2.0000      -0.422225       -11.4893
  69   2.0000      -0.415388       -11.3033
  70   2.0000      -0.406698       -11.0668
  71   2.0000      -0.397501       -10.8166
  72   2.0000      -0.391257       -10.6466
  73   2.0000      -0.385446       -10.4885
  74   2.0000      -0.383777       -10.4431
  75   2.0000      -0.366933        -9.9848
  76   2.0000      -0.361528        -9.8377
  77   2.0000      -0.356242        -9.6938
  78   2.0000      -0.354685        -9.6515
  79   2.0000      -0.352347        -9.5878
  80   2.0000      -0.343962        -9.3597
  81   2.0000      -0.341541        -9.2938
  82   2.0000      -0.340031        -9.2527
  83   2.0000      -0.335004        -9.1159
  84   2.0000      -0.330919        -9.0048
  85   2.0000      -0.312755        -8.5105
  86   2.0000      -0.311714        -8.4822
  87   2.0000      -0.307369        -8.3639
  88   2.0000      -0.296687        -8.0733
  89   2.0000      -0.293514        -7.9869
  90   2.0000      -0.284535        -7.7426
  91   2.0000      -0.272373        -7.4116
  92   2.0000      -0.264066        -7.1856
  93   2.0000      -0.260263        -7.0821
  94   2.0000      -0.256519        -6.9802
  95   2.0000      -0.234384        -6.3779
  96   2.0000      -0.220627        -6.0036
  97   2.0000      -0.206861        -5.6290
  98   2.0000      -0.205991        -5.6053
  99   2.0000      -0.187373        -5.0987
 100   2.0000      -0.185747        -5.0544
 101   0.0000      -0.046964        -1.2780
 102   0.0000      -0.034945        -0.9509
 103   0.0000      -0.010673        -0.2904
 104   0.0000       0.005122         0.1394
 105   0.0000       0.015068         0.4100

MULLIKEN ATOMIC CHARGES
-----------------------
   0 C :   -0.327234
   1 C :   -0.012943
   2 O :   -0.389970
   3 P :    0.628206
   4 S :   -0.304809
   5 O :   -0.373730
   6 C :   -0.039355
   7 C :   -0.281964
   8 S :   -0.121142
   9 C :   -0.332564
  10 S :   -0.094606
  11 P :    0.622197
  12 S :   -0.308971
  13 O :   -0.359129
  14 C :   -0.018836
  15 C :   -0.281619
  16 O :   -0.384014
  17 C :    0.002109
  18 C :   -0.311601
  19 H :    0.103138
  20 H :    0.138331
  21 H :    0.126034
  22 H :    0.097729
  23 H :    0.114949
  24 H :    0.115092
  25 H :    0.112843
  26 H :    0.111602
  27 H :    0.124283
  28 H :    0.129760
  29 H :    0.180324
  30 H :    0.197881
  31 H :    0.104685
  32 H :    0.127629
  33 H :    0.109166
  34 H :    0.115529
  35 H :    0.115409
  36 H :    0.103770
  37 H :    0.111281
  38 H :    0.120019
  39 H :    0.112199
  40 H :    0.118324
Sum of atomic charges:    0.0000000

LOEWDIN ATOMIC CHARGES
----------------------
   0 C :   -0.371191
   1 C :   -0.116820
   2 O :   -0.259225
   3 P :    0.565556
   4 S :   -0.300577
   5 O :   -0.244101
   6 C :   -0.121525
   7 C :   -0.357636
   8 S :    0.070970
   9 C :   -0.479364
  10 S :    0.085586
  11 P :    0.584389
  12 S :   -0.289268
  13 O :   -0.228795
  14 C :   -0.118188
  15 C :   -0.357785
  16 O :   -0.250056
  17 C :   -0.116966
  18 C :   -0.370816
  19 H :    0.126573
  20 H :    0.129965
  21 H :    0.121044
  22 H :    0.104140
  23 H :    0.115548
  24 H :    0.109205
  25 H :    0.120516
  26 H :    0.131434
  27 H :    0.131475
  28 H :    0.121607
  29 H :    0.137106
  30 H :    0.122412
  31 H :    0.106942
  32 H :    0.115787
  33 H :    0.129734
  34 H :    0.126436
  35 H :    0.123929
  36 H :    0.117935
  37 H :    0.111220
  38 H :    0.124060
  39 H :    0.130270
  40 H :    0.118475

  Mayer bond orders larger than 0.100000
B(  0-C ,  1-C ) :   1.1677 B(  0-C , 19-H ) :   0.9346 B(  0-C , 20-H ) :   0.9355
B(  0-C , 21-H ) :   0.9321 B(  1-C ,  2-O ) :   0.9054 B(  1-C , 22-H ) :   0.9270
B(  1-C , 23-H ) :   0.9138 B(  2-O ,  3-P ) :   1.0620 B(  3-P ,  4-S ) :   1.6835
B(  3-P ,  5-O ) :   1.0963 B(  3-P ,  8-S ) :   0.9525 B(  4-S ,  8-S ) :   0.1112
B(  5-O ,  6-C ) :   0.8910 B(  6-C ,  7-C ) :   1.1699 B(  6-C , 24-H ) :   0.9115
B(  6-C , 25-H ) :   0.9287 B(  7-C , 26-H ) :   0.9388 B(  7-C , 27-H ) :   0.9449
B(  7-C , 28-H ) :   0.9390 B(  8-S ,  9-C ) :   0.9888 B(  9-C , 10-S ) :   1.0158
B(  9-C , 29-H ) :   0.9121 B(  9-C , 30-H ) :   0.8511 B( 10-S , 11-P ) :   0.9571
B( 10-S , 12-S ) :   0.1159 B( 11-P , 12-S ) :   1.5971 B( 11-P , 13-O ) :   1.1388
B( 11-P , 16-O ) :   1.0693 B( 12-S , 30-H ) :   0.1136 B( 13-O , 14-C ) :   0.8734
B( 14-C , 15-C ) :   1.1635 B( 14-C , 31-H ) :   0.9203 B( 14-C , 32-H ) :   0.9145
B( 15-C , 33-H ) :   0.9404 B( 15-C , 34-H ) :   0.9490 B( 15-C , 35-H ) :   0.9422
B( 16-O , 17-C ) :   0.9128 B( 17-C , 18-C ) :   1.1673 B( 17-C , 36-H ) :   0.9339
B( 17-C , 37-H ) :   0.9181 B( 18-C , 38-H ) :   0.9417 B( 18-C , 39-H ) :   0.9367
B( 18-C , 40-H ) :   0.9385

Dispersion correction           -0.069568132
FINAL SINGLE POINT ENERGY     -2929.508635799951

DIPOLE MOMENT
-------------

Method             : SCF
Type of density    : Electron Density
Multiplicity       :   1
Irrep              :   0
Energy             : -2929.6281666821319050 Eh
Relativity type    :
Basis              : AO
                                X                 Y                 Z
Electronic contribution:      0.521637010      -6.177690399       6.236218987
Nuclear contribution   :     -0.616077299       5.788361794      -6.923636249
                        -----------------------------------------
Total Dipole Moment    :     -0.094440288      -0.389328605      -0.687417263
                        -----------------------------------------
Magnitude (a.u.)       :      0.795636993
Magnitude (Debye)      :      2.022348517

Rotational constants in cm-1:             0.012629             0.005785             0.005180
Rotational constants in MHz :           378.615744           173.441731           155.302953

                             ****ORCA TERMINATED NORMALLY****
TOTAL RUN TIME: 0 days 0 hours 0 minutes 22 seconds 7 msec
