                         Program Version 6.0.0  -   RELEASE  -
|  1> ! pbe def2-sv(p) def2/J RI DEFGRID1 loosescf d4 GCP(DFT/SV(P)) printgap
|  2> %output
|  3>     printlevel normal
|  4> end
|  5> * xyz 0 1
|  6> C 4.5284847197 0.6581945875 -2.0563520995
|  7> C 4.6754060903 0.150795978 -0.637635327
|  8> O 3.6134987963 0.5983549968 0.2261332439
|  9> P 2.066787021 0.3561726985 -0.0294649553
| 10> S 1.1332351051 1.5202117558 -1.3055148738
| 11> O 1.4666715352 0.5996698474 1.4099409706
| 12> C 2.0785316434 0.2310922703 2.6742055883
| 13> C 2.1104594883 -1.2673262726 2.8949276364
| 14> S 1.9705213041 -1.7159188927 -0.5111760236
| 15> C 0.2244945256 -1.7768309116 -0.9452950906
| 16> S -0.8627057032 -1.4739942904 0.4834658984
| 17> P -2.071062206 0.1115642739 -0.2607158225
| 18> S -2.1524357541 0.2569681202 -2.208175873
| 19> O -1.6138525441 1.4497468827 0.4287290772
| 20> C -1.5502917442 1.6255949776 1.8648038645
| 21> C -2.7746857974 2.3607630682 2.3685119383
| 22> O -3.4375148767 -0.1757396827 0.505989087
| 23> C -4.233796451 -1.358872052 0.3004894892
| 24> C -5.211429428 -1.1809218217 -0.8443829602
| 25> H 3.6268234402 0.2492574479 -2.5105308818
| 26> H 4.4517247444 1.7429719856 -2.0663925114
| 27> H 5.3897243269 0.352087896 -2.6412534803
| 28> H 5.5748634186 0.5473454618 -0.1633152137
| 29> H 4.6931865263 -0.9422069112 -0.6183756656
| 30> H 3.0823422376 0.6573852739 2.7039485683
| 31> H 1.4416600807 0.7274046494 3.4084022195
| 32> H 2.8154398544 -1.7429437865 2.2174530947
| 33> H 2.4183827833 -1.4625814579 3.9174058083
| 34> H 1.1240720695 -1.6960172285 2.7314679857
| 35> H 0.0369048422 -2.7835065648 -1.3102490857
| 36> H -0.0017511837 -1.0298680363 -1.7122621793
| 37> H -1.4508611871 0.6438878876 2.3370933526
| 38> H -0.6386111041 2.2051797843 2.0250137769
| 39> H -2.8712599825 3.313478989 1.8548706734
| 40> H -3.6689937277 1.7716540512 2.1844470507
| 41> H -2.6695534767 2.5354852557 3.4347060462
| 42> H -3.5708701105 -2.2100925935 0.1225309922
| 43> H -4.756178429 -1.4967804732 1.2492609222
| 44> H -5.8441727845 -0.3157817016 -0.6662884332
| 45> H -4.6759456783 -1.0318425532 -1.7794503347
| 46> H -5.8302737763 -2.0685660512 -0.9263627861
| 47> *
| 48>
| 49>                          ****END OF INPUT****

CARTESIAN COORDINATES (ANGSTROEM)
---------------------------------
  C      4.528485    0.658195   -2.056352
  C      4.675406    0.150796   -0.637635
  O      3.613499    0.598355    0.226133
  P      2.066787    0.356173   -0.029465
  S      1.133235    1.520212   -1.305515
  O      1.466672    0.599670    1.409941
  C      2.078532    0.231092    2.674206
  C      2.110459   -1.267326    2.894928
  S      1.970521   -1.715919   -0.511176
  C      0.224495   -1.776831   -0.945295
  S     -0.862706   -1.473994    0.483466
  P     -2.071062    0.111564   -0.260716
  S     -2.152436    0.256968   -2.208176
  O     -1.613853    1.449747    0.428729
  C     -1.550292    1.625595    1.864804
  C     -2.774686    2.360763    2.368512
  O     -3.437515   -0.175740    0.505989
  C     -4.233796   -1.358872    0.300489
  C     -5.211429   -1.180922   -0.844383
  H      3.626823    0.249257   -2.510531
  H      4.451725    1.742972   -2.066393
  H      5.389724    0.352088   -2.641253
  H      5.574863    0.547345   -0.163315
  H      4.693187   -0.942207   -0.618376
  H      3.082342    0.657385    2.703949
  H      1.441660    0.727405    3.408402
  H      2.815440   -1.742944    2.217453
  H      2.418383   -1.462581    3.917406
  H      1.124072   -1.696017    2.731468
  H      0.036905   -2.783507   -1.310249
  H     -0.001751   -1.029868   -1.712262
  H     -1.450861    0.643888    2.337093
  H     -0.638611    2.205180    2.025014
  H     -2.871260    3.313479    1.854871
  H     -3.668994    1.771654    2.184447
  H     -2.669553    2.535485    3.434706
  H     -3.570870   -2.210093    0.122531
  H     -4.756178   -1.496780    1.249261
  H     -5.844173   -0.315782   -0.666288
  H     -4.675946   -1.031843   -1.779450
  H     -5.830274   -2.068566   -0.926363

 Total Charge           Charge          ....    0
 Multiplicity           Mult            ....    1
 Number of Electrons    NEL             ....  202
 Basis Dimension        Dim             ....  334

ORBITAL ENERGIES
----------------

  NO   OCC          E(Eh)            E(eV)
   0   2.0000     -88.044422     -2395.8105
   1   2.0000     -88.040070     -2395.6921
   2   2.0000     -87.977149     -2393.9799
   3   2.0000     -87.973797     -2393.8887
   4   2.0000     -76.423673     -2079.5939
   5   2.0000     -76.420371     -2079.5040
   6   2.0000     -18.796624      -511.4821
   7   2.0000     -18.790323      -511.3107
   8   2.0000     -18.788971      -511.2739
   9   2.0000     -18.782012      -511.0845
  10   2.0000      -9.961615      -271.0693
  11   2.0000      -9.957370      -270.9538
  12   2.0000      -9.952973      -270.8342
  13   2.0000      -9.951840      -270.8033
  14   2.0000      -9.948183      -270.7038
  15   2.0000      -9.887757      -269.0596
  16   2.0000      -9.882810      -268.9249
  17   2.0000      -9.880680      -268.8670
  18   2.0000      -9.877188      -268.7719
  19   2.0000      -7.689373      -209.2385
  20   2.0000      -7.684631      -209.1094
  21   2.0000      -7.622395      -207.4159
  22   2.0000      -7.618727      -207.3161
  23   2.0000      -6.420651      -174.7148
  24   2.0000      -6.417679      -174.6339
  25   2.0000      -5.717134      -155.5711
  26   2.0000      -5.713749      -155.4790
  27   2.0000      -5.712435      -155.4433
  28   2.0000      -5.708995      -155.3497
  29   2.0000      -5.706618      -155.2850
  30   2.0000      -5.701855      -155.1554
  31   2.0000      -5.651492      -153.7849
  32   2.0000      -5.647900      -153.6872
  33   2.0000      -5.642870      -153.5503
  34   2.0000      -5.642447      -153.5388
  35   2.0000      -5.639314      -153.4535
  36   2.0000      -5.638711      -153.4371
  37   2.0000      -4.643709      -126.3618
  38   2.0000      -4.642638      -126.3326
  39   2.0000      -4.640474      -126.2737
  40   2.0000      -4.640434      -126.2726
  41   2.0000      -4.639540      -126.2483
  42   2.0000      -4.637932      -126.2046
  43   2.0000      -0.989164       -26.9165
  44   2.0000      -0.983037       -26.7498
  45   2.0000      -0.944417       -25.6989
  46   2.0000      -0.938024       -25.5249
  47   2.0000      -0.761740       -20.7280
  48   2.0000      -0.718750       -19.5582
  49   2.0000      -0.709729       -19.3127
  50   2.0000      -0.692477       -18.8433
  51   2.0000      -0.685464       -18.6524
  52   2.0000      -0.675699       -18.3867
  53   2.0000      -0.646850       -17.6017
  54   2.0000      -0.631343       -17.1797
  55   2.0000      -0.588665       -16.0184
  56   2.0000      -0.584087       -15.8938
  57   2.0000      -0.581172       -15.8145
  58   2.0000      -0.567813       -15.4510
  59   2.0000      -0.565598       -15.3907
  60   2.0000      -0.504280       -13.7221
  61   2.0000      -0.497167       -13.5286
  62   2.0000      -0.474133       -12.9018
  63   2.0000      -0.472340       -12.8530
  64   2.0000      -0.452615       -12.3163
  65   2.0000      -0.444720       -12.1014
  66   2.0000      -0.440185       -11.9781
  67   2.0000      -0.434132       -11.8133
  68   2.0000      -0.428475       -11.6594
  69   2.0000      -0.421444       -11.4681
  70   2.0000      -0.410550       -11.1716
  71   2.0000      -0.403868       -10.9898
  72   2.0000      -0.394171       -10.7259
  73   2.0000      -0.387236       -10.5372
  74   2.0000      -0.380368       -10.3503
  75   2.0000      -0.356515        -9.7013
  76   2.0000      -0.356241        -9.6938
  77   2.0000      -0.355497        -9.6736
  78   2.0000      -0.353326        -9.6145
  79   2.0000      -0.351057        -9.5528
  80   2.0000      -0.344077        -9.3628
  81   2.0000      -0.341995        -9.3062
  82   2.0000      -0.339968        -9.2510
  83   2.0000      -0.337122        -9.1736
  84   2.0000      -0.331079        -9.0091
  85   2.0000      -0.323414        -8.8005
  86   2.0000      -0.312984        -8.5167
  87   2.0000      -0.298538        -8.1236
  88   2.0000      -0.293380        -7.9833
  89   2.0000      -0.291800        -7.9403
  90   2.0000      -0.284250        -7.7348
  91   2.0000      -0.278091        -7.5672
  92   2.0000      -0.268733        -7.3126
  93   2.0000      -0.261057        -7.1037
  94   2.0000      -0.256371        -6.9762
  95   2.0000      -0.233624        -6.3572
  96   2.0000      -0.220415        -5.9978
  97   2.0000      -0.206329        -5.6145
  98   2.0000      -0.194729        -5.2988
  99   2.0000      -0.184967        -5.0332
 100   2.0000      -0.178988        -4.8705
 101   0.0000      -0.041373        -1.1258
 102   0.0000      -0.029723        -0.8088
 103   0.0000      -0.008582        -0.2335
 104   0.0000       0.009422         0.2564
 105   0.0000       0.019101         0.5198

MULLIKEN ATOMIC CHARGES
-----------------------
   0 C :   -0.307378
   1 C :   -0.015170
   2 O :   -0.382991
   3 P :    0.593637
   4 S :   -0.276401
   5 O :   -0.353885
   6 C :    0.000816
   7 C :   -0.319119
   8 S :   -0.128208
   9 C :   -0.339433
  10 S :   -0.127098
  11 P :    0.606543
  12 S :   -0.289690
  13 O :   -0.338652
  14 C :   -0.018482
  15 C :   -0.281624
  16 O :   -0.382817
  17 C :   -0.007851
  18 C :   -0.293655
  19 H :    0.130160
  20 H :    0.127392
  21 H :    0.110780
  22 H :    0.109015
  23 H :    0.114056
  24 H :    0.110675
  25 H :    0.102310
  26 H :    0.121019
  27 H :    0.110118
  28 H :    0.130067
  29 H :    0.178794
  30 H :    0.211913
  31 H :    0.094690
  32 H :    0.119076
  33 H :    0.121369
  34 H :    0.118069
  35 H :    0.103321
  36 H :    0.098800
  37 H :    0.101888
  38 H :    0.113061
  39 H :    0.130198
  40 H :    0.104684
Sum of atomic charges:    0.0000000

LOEWDIN ATOMIC CHARGES
----------------------
   0 C :   -0.368789
   1 C :   -0.114770
   2 O :   -0.246173
   3 P :    0.557685
   4 S :   -0.285322
   5 O :   -0.234485
   6 C :   -0.109686
   7 C :   -0.371691
   8 S :    0.066716
   9 C :   -0.479469
  10 S :    0.061040
  11 P :    0.567759
  12 S :   -0.290264
  13 O :   -0.221274
  14 C :   -0.113491
  15 C :   -0.359150
  16 O :   -0.248154
  17 C :   -0.118811
  18 C :   -0.365246
  19 H :    0.123426
  20 H :    0.131497
  21 H :    0.129951
  22 H :    0.120931
  23 H :    0.107284
  24 H :    0.114001
  25 H :    0.116764
  26 H :    0.116692
  27 H :    0.129388
  28 H :    0.122927
  29 H :    0.135790
  30 H :    0.125923
  31 H :    0.100274
  32 H :    0.121589
  33 H :    0.129861
  34 H :    0.124853
  35 H :    0.126473
  36 H :    0.102390
  37 H :    0.116054
  38 H :    0.125959
  39 H :    0.124047
  40 H :    0.127501

  Mayer bond orders larger than 0.100000
B(  0-C ,  1-C ) :   1.1665 B(  0-C , 19-H ) :   0.9307 B(  0-C , 20-H ) :   0.9434
B(  0-C , 21-H ) :   0.9347 B(  1-C ,  2-O ) :   0.9127 B(  1-C , 22-H ) :   0.9335
B(  1-C , 23-H ) :   0.9256 B(  2-O ,  3-P ) :   1.0755 B(  3-P ,  4-S ) :   1.6848
B(  3-P ,  5-O ) :   1.1163 B(  3-P ,  8-S ) :   0.9226 B(  4-S ,  8-S ) :   0.1094
B(  5-O ,  6-C ) :   0.9010 B(  6-C ,  7-C ) :   1.1709 B(  6-C , 24-H ) :   0.9269
B(  6-C , 25-H ) :   0.9324 B(  7-C , 26-H ) :   0.9391 B(  7-C , 27-H ) :   0.9357
B(  7-C , 28-H ) :   0.9384 B(  8-S ,  9-C ) :   1.0080 B(  9-C , 10-S ) :   0.9956
B(  9-C , 29-H ) :   0.9107 B(  9-C , 30-H ) :   0.8402 B( 10-S , 11-P ) :   0.9456
B( 10-S , 12-S ) :   0.1153 B( 11-P , 12-S ) :   1.6504 B( 11-P , 13-O ) :   1.1479
B( 11-P , 16-O ) :   1.0657 B( 13-O , 14-C ) :   0.8953 B( 14-C , 15-C ) :   1.1572
B( 14-C , 31-H ) :   0.9171 B( 14-C , 32-H ) :   0.9277 B( 15-C , 33-H ) :   0.9465
B( 15-C , 34-H ) :   0.9415 B( 15-C , 35-H ) :   0.9406 B( 16-O , 17-C ) :   0.9101
B( 17-C , 18-C ) :   1.1664 B( 17-C , 36-H ) :   0.9119 B( 17-C , 37-H ) :   0.9366
B( 18-C , 38-H ) :   0.9475 B( 18-C , 39-H ) :   0.9288 B( 18-C , 40-H ) :   0.9388

Dispersion correction           -0.067775719
FINAL SINGLE POINT ENERGY     -2929.511160543027

DIPOLE MOMENT
-------------

Method             : SCF
Type of density    : Electron Density
Multiplicity       :   1
Irrep              :   0
Energy             : -2929.6297217524065672 Eh
Relativity type    :
Basis              : AO
                                X                 Y                 Z
Electronic contribution:      1.975039927       1.175546778     -11.515136891
Nuclear contribution   :     -1.239845483      -2.248706602      13.339243794
                        -----------------------------------------
Total Dipole Moment    :      0.735194444      -1.073159823       1.824106903
                        -----------------------------------------
Magnitude (a.u.)       :      2.240434973
Magnitude (Debye)      :      5.694733133

Rotational constants in cm-1:             0.013007             0.005268             0.004940
Rotational constants in MHz :           389.930327           157.933203           148.106203

                             ****ORCA TERMINATED NORMALLY****
TOTAL RUN TIME: 0 days 0 hours 0 minutes 21 seconds 217 msec
