                         Program Version 6.0.0  -   RELEASE  -
|  1> ! pbe def2-sv(p) def2/J RI DEFGRID1 loosescf d4 GCP(DFT/SV(P)) printgap
|  2> %output
|  3>     printlevel normal
|  4> end
|  5> * xyz 0 1
|  6> C 3.4334490413 -1.3438364034 1.863028147
|  7> C 4.1801934767 -0.2464161976 1.1359940717
|  8> O 3.6434283094 0.0404384694 -0.1786085129
|  9> P 2.1249266165 0.3382907707 -0.5338234636
| 10> S 2.0052886441 1.2554689265 -2.256863914
| 11> O 1.5030514793 1.1016405724 0.7281092409
| 12> C 1.3809104685 2.5329912925 0.7650555474
| 13> C 2.7094033996 3.1978062759 1.0606739308
| 14> S 1.2272363721 -1.5636725391 -0.4417057426
| 15> C -0.0448605159 -1.4164101833 -1.7379093278
| 16> S -1.6991805911 -1.770003894 -1.1162502002
| 17> P -1.9002425424 -0.0361806859 0.1049589592
| 18> S -1.4619490334 1.6187395788 -0.8517330286
| 19> O -1.0471415123 -0.2021828535 1.414918671
| 20> C -1.3741268025 -1.044737696 2.5521154682
| 21> C -1.3942917341 -2.5182400756 2.2054576717
| 22> O -3.3875025994 -0.1467073863 0.6423977048
| 23> C -4.5143690333 0.0445621015 -0.2381648171
| 24> C -5.744565552 0.2490073346 0.6221618863
| 25> H 3.416649829 -2.2545127639 1.2691857557
| 26> H 3.9287278688 -1.5415385526 2.8088440422
| 27> H 2.4083396052 -1.0319212622 2.0572955336
| 28> H 5.2113562478 -0.5326852641 0.9226607786
| 29> H 4.1673371398 0.6797051395 1.7150707236
| 30> H 0.9807239925 2.8775101263 -0.1943554849
| 31> H 0.642389667 2.7196811017 1.5464078552
| 32> H 3.0933487052 2.8729968582 2.0242677271
| 33> H 3.4266638529 2.9457462079 0.2791568489
| 34> H 2.572149225 4.2745343612 1.075287142
| 35> H 0.1610024563 -2.1619432103 -2.5016444918
| 36> H -0.0054796658 -0.4059926179 -2.1555949744
| 37> H -0.5796175886 -0.8113998476 3.2627948107
| 38> H -2.3372598259 -0.7188566352 2.9477008111
| 39> H -2.2292388604 -2.7444733147 1.5461739647
| 40> H -0.4685436867 -2.8057928757 1.7116812501
| 41> H -1.5027663705 -3.0909789023 3.1212664316
| 42> H -4.3163627635 0.9144384725 -0.8729074332
| 43> H -4.6075384359 -0.8436391828 -0.8683288833
| 44> H -5.9034934177 -0.6181533567 1.2562031507
| 45> H -5.6208158908 1.1280633374 1.2484363223
| 46> H -6.6076809475 0.3870256677 -0.0205576405
| 47> *
| 48>
| 49>                          ****END OF INPUT****

CARTESIAN COORDINATES (ANGSTROEM)
---------------------------------
  C      3.433449   -1.343836    1.863028
  C      4.180193   -0.246416    1.135994
  O      3.643428    0.040438   -0.178609
  P      2.124927    0.338291   -0.533823
  S      2.005289    1.255469   -2.256864
  O      1.503051    1.101641    0.728109
  C      1.380910    2.532991    0.765056
  C      2.709403    3.197806    1.060674
  S      1.227236   -1.563673   -0.441706
  C     -0.044861   -1.416410   -1.737909
  S     -1.699181   -1.770004   -1.116250
  P     -1.900243   -0.036181    0.104959
  S     -1.461949    1.618740   -0.851733
  O     -1.047142   -0.202183    1.414919
  C     -1.374127   -1.044738    2.552115
  C     -1.394292   -2.518240    2.205458
  O     -3.387503   -0.146707    0.642398
  C     -4.514369    0.044562   -0.238165
  C     -5.744566    0.249007    0.622162
  H      3.416650   -2.254513    1.269186
  H      3.928728   -1.541539    2.808844
  H      2.408340   -1.031921    2.057296
  H      5.211356   -0.532685    0.922661
  H      4.167337    0.679705    1.715071
  H      0.980724    2.877510   -0.194355
  H      0.642390    2.719681    1.546408
  H      3.093349    2.872997    2.024268
  H      3.426664    2.945746    0.279157
  H      2.572149    4.274534    1.075287
  H      0.161002   -2.161943   -2.501644
  H     -0.005480   -0.405993   -2.155595
  H     -0.579618   -0.811400    3.262795
  H     -2.337260   -0.718857    2.947701
  H     -2.229239   -2.744473    1.546174
  H     -0.468544   -2.805793    1.711681
  H     -1.502766   -3.090979    3.121266
  H     -4.316363    0.914438   -0.872907
  H     -4.607538   -0.843639   -0.868329
  H     -5.903493   -0.618153    1.256203
  H     -5.620816    1.128063    1.248436
  H     -6.607681    0.387026   -0.020558

 Total Charge           Charge          ....    0
 Multiplicity           Mult            ....    1
 Number of Electrons    NEL             ....  202
 Basis Dimension        Dim             ....  334

ORBITAL ENERGIES
----------------

  NO   OCC          E(Eh)            E(eV)
   0   2.0000     -88.040333     -2395.6993
   1   2.0000     -88.036848     -2395.6044
   2   2.0000     -87.978258     -2394.0101
   3   2.0000     -87.974183     -2393.8992
   4   2.0000     -76.424743     -2079.6230
   5   2.0000     -76.418140     -2079.4433
   6   2.0000     -18.798463      -511.5322
   7   2.0000     -18.790553      -511.3169
   8   2.0000     -18.786739      -511.2132
   9   2.0000     -18.780379      -511.0401
  10   2.0000      -9.958249      -270.9777
  11   2.0000      -9.957468      -270.9565
  12   2.0000      -9.957375      -270.9540
  13   2.0000      -9.949746      -270.7464
  14   2.0000      -9.936973      -270.3988
  15   2.0000      -9.892567      -269.1904
  16   2.0000      -9.891519      -269.1619
  17   2.0000      -9.887002      -269.0390
  18   2.0000      -9.879305      -268.8296
  19   2.0000      -7.685534      -209.1340
  20   2.0000      -7.681857      -209.0340
  21   2.0000      -7.623163      -207.4368
  22   2.0000      -7.619463      -207.3361
  23   2.0000      -6.422127      -174.7550
  24   2.0000      -6.415802      -174.5829
  25   2.0000      -5.713314      -155.4672
  26   2.0000      -5.710054      -155.3785
  27   2.0000      -5.709847      -155.3728
  28   2.0000      -5.706372      -155.2783
  29   2.0000      -5.702593      -155.1754
  30   2.0000      -5.698660      -155.0684
  31   2.0000      -5.652148      -153.8028
  32   2.0000      -5.648578      -153.7056
  33   2.0000      -5.643902      -153.5784
  34   2.0000      -5.643113      -153.5569
  35   2.0000      -5.640089      -153.4746
  36   2.0000      -5.639341      -153.4543
  37   2.0000      -4.645248      -126.4036
  38   2.0000      -4.643825      -126.3649
  39   2.0000      -4.642122      -126.3186
  40   2.0000      -4.638752      -126.2269
  41   2.0000      -4.637084      -126.1815
  42   2.0000      -4.636408      -126.1631
  43   2.0000      -0.991027       -26.9672
  44   2.0000      -0.976378       -26.5686
  45   2.0000      -0.946705       -25.7611
  46   2.0000      -0.934824       -25.4379
  47   2.0000      -0.759829       -20.6760
  48   2.0000      -0.721283       -19.6271
  49   2.0000      -0.710464       -19.3327
  50   2.0000      -0.695503       -18.9256
  51   2.0000      -0.688906       -18.7461
  52   2.0000      -0.672204       -18.2916
  53   2.0000      -0.647066       -17.6076
  54   2.0000      -0.628222       -17.0948
  55   2.0000      -0.595145       -16.1947
  56   2.0000      -0.588444       -16.0124
  57   2.0000      -0.576366       -15.6837
  58   2.0000      -0.574458       -15.6318
  59   2.0000      -0.557255       -15.1637
  60   2.0000      -0.508925       -13.8486
  61   2.0000      -0.486393       -13.2354
  62   2.0000      -0.476007       -12.9528
  63   2.0000      -0.470333       -12.7984
  64   2.0000      -0.449462       -12.2305
  65   2.0000      -0.446722       -12.1559
  66   2.0000      -0.442353       -12.0370
  67   2.0000      -0.440423       -11.9845
  68   2.0000      -0.431815       -11.7503
  69   2.0000      -0.414277       -11.2731
  70   2.0000      -0.409382       -11.1398
  71   2.0000      -0.401293       -10.9197
  72   2.0000      -0.391416       -10.6510
  73   2.0000      -0.386745       -10.5239
  74   2.0000      -0.378153       -10.2901
  75   2.0000      -0.368371       -10.0239
  76   2.0000      -0.365235        -9.9385
  77   2.0000      -0.359069        -9.7708
  78   2.0000      -0.356283        -9.6949
  79   2.0000      -0.351419        -9.5626
  80   2.0000      -0.347495        -9.4558
  81   2.0000      -0.344661        -9.3787
  82   2.0000      -0.340551        -9.2669
  83   2.0000      -0.335955        -9.1418
  84   2.0000      -0.331493        -9.0204
  85   2.0000      -0.322603        -8.7785
  86   2.0000      -0.307371        -8.3640
  87   2.0000      -0.304793        -8.2938
  88   2.0000      -0.302401        -8.2287
  89   2.0000      -0.294666        -8.0183
  90   2.0000      -0.276111        -7.5134
  91   2.0000      -0.271504        -7.3880
  92   2.0000      -0.266569        -7.2537
  93   2.0000      -0.257794        -7.0149
  94   2.0000      -0.255941        -6.9645
  95   2.0000      -0.231091        -6.2883
  96   2.0000      -0.213408        -5.8071
  97   2.0000      -0.209431        -5.6989
  98   2.0000      -0.195987        -5.3331
  99   2.0000      -0.187334        -5.0976
 100   2.0000      -0.181984        -4.9520
 101   0.0000      -0.040912        -1.1133
 102   0.0000      -0.026657        -0.7254
 103   0.0000      -0.005795        -0.1577
 104   0.0000       0.011565         0.3147
 105   0.0000       0.021088         0.5738

MULLIKEN ATOMIC CHARGES
-----------------------
   0 C :   -0.356810
   1 C :    0.001271
   2 O :   -0.375557
   3 P :    0.623670
   4 S :   -0.306102
   5 O :   -0.379040
   6 C :   -0.010864
   7 C :   -0.310749
   8 S :   -0.118368
   9 C :   -0.345370
  10 S :   -0.117146
  11 P :    0.605518
  12 S :   -0.306407
  13 O :   -0.347162
  14 C :    0.005028
  15 C :   -0.323470
  16 O :   -0.388411
  17 C :   -0.013586
  18 C :   -0.281041
  19 H :    0.135623
  20 H :    0.117009
  21 H :    0.143165
  22 H :    0.111481
  23 H :    0.106387
  24 H :    0.130385
  25 H :    0.099754
  26 H :    0.112948
  27 H :    0.127130
  28 H :    0.112373
  29 H :    0.183039
  30 H :    0.214064
  31 H :    0.109144
  32 H :    0.109732
  33 H :    0.121351
  34 H :    0.132679
  35 H :    0.110538
  36 H :    0.109875
  37 H :    0.107150
  38 H :    0.114055
  39 H :    0.121734
  40 H :    0.114979
Sum of atomic charges:   -0.0000000

LOEWDIN ATOMIC CHARGES
----------------------
   0 C :   -0.380001
   1 C :   -0.108980
   2 O :   -0.248736
   3 P :    0.573087
   4 S :   -0.301689
   5 O :   -0.247584
   6 C :   -0.126084
   7 C :   -0.365696
   8 S :    0.083361
   9 C :   -0.479613
  10 S :    0.064958
  11 P :    0.564332
  12 S :   -0.294642
  13 O :   -0.227901
  14 C :   -0.106327
  15 C :   -0.372170
  16 O :   -0.251206
  17 C :   -0.119447
  18 C :   -0.350455
  19 H :    0.126574
  20 H :    0.133434
  21 H :    0.122494
  22 H :    0.123384
  23 H :    0.111664
  24 H :    0.108723
  25 H :    0.115830
  26 H :    0.117347
  27 H :    0.124691
  28 H :    0.131685
  29 H :    0.137814
  30 H :    0.126770
  31 H :    0.120398
  32 H :    0.114115
  33 H :    0.117490
  34 H :    0.123107
  35 H :    0.129737
  36 H :    0.111949
  37 H :    0.110011
  38 H :    0.125490
  39 H :    0.129549
  40 H :    0.132538

  Mayer bond orders larger than 0.100000
B(  0-C ,  1-C ) :   1.1687 B(  0-C , 19-H ) :   0.9351 B(  0-C , 20-H ) :   0.9331
B(  0-C , 21-H ) :   0.9296 B(  1-C ,  2-O ) :   0.9079 B(  1-C , 22-H ) :   0.9342
B(  1-C , 23-H ) :   0.9229 B(  2-O ,  3-P ) :   1.1049 B(  3-P ,  4-S ) :   1.6387
B(  3-P ,  5-O ) :   1.0760 B(  3-P ,  8-S ) :   0.9689 B(  4-S ,  8-S ) :   0.1072
B(  5-O ,  6-C ) :   0.9042 B(  6-C ,  7-C ) :   1.1528 B(  6-C , 24-H ) :   0.9049
B(  6-C , 25-H ) :   0.9341 B(  7-C , 26-H ) :   0.9368 B(  7-C , 27-H ) :   0.9368
B(  7-C , 28-H ) :   0.9386 B(  8-S ,  9-C ) :   0.9946 B(  9-C , 10-S ) :   1.0061
B(  9-C , 29-H ) :   0.9114 B(  9-C , 30-H ) :   0.8419 B( 10-S , 11-P ) :   0.9387
B( 10-S , 12-S ) :   0.1059 B( 11-P , 12-S ) :   1.6582 B( 11-P , 13-O ) :   1.1476
B( 11-P , 16-O ) :   1.0741 B( 13-O , 14-C ) :   0.8955 B( 14-C , 15-C ) :   1.1714
B( 14-C , 31-H ) :   0.9320 B( 14-C , 32-H ) :   0.9288 B( 15-C , 33-H ) :   0.9389
B( 15-C , 34-H ) :   0.9367 B( 15-C , 35-H ) :   0.9347 B( 16-O , 17-C ) :   0.9009
B( 17-C , 18-C ) :   1.1600 B( 17-C , 36-H ) :   0.9097 B( 17-C , 37-H ) :   0.9292
B( 18-C , 38-H ) :   0.9512 B( 18-C , 39-H ) :   0.9507 B( 18-C , 40-H ) :   0.9415

Dispersion correction           -0.068092223
FINAL SINGLE POINT ENERGY     -2929.510528316585

DIPOLE MOMENT
-------------

Method             : SCF
Type of density    : Electron Density
Multiplicity       :   1
Irrep              :   0
Energy             : -2929.6294018203816449 Eh
Relativity type    :
Basis              : AO
                                X                 Y                 Z
Electronic contribution:      3.479767617       0.073036290     -19.371396298
Nuclear contribution   :     -4.104559252      -0.959951260      21.364637886
                        -----------------------------------------
Total Dipole Moment    :     -0.624791635      -0.886914969       1.993241588
                        -----------------------------------------
Magnitude (a.u.)       :      2.269359993
Magnitude (Debye)      :      5.768254692

Rotational constants in cm-1:             0.012477             0.005485             0.005140
Rotational constants in MHz :           374.043559           164.445839           154.096576

                             ****ORCA TERMINATED NORMALLY****
TOTAL RUN TIME: 0 days 0 hours 0 minutes 21 seconds 818 msec
