                         Program Version 6.0.0  -   RELEASE  -
|  1> ! pbe def2-sv(p) def2/J RI DEFGRID1 loosescf d4 GCP(DFT/SV(P)) printgap
|  2> %output
|  3>     printlevel normal
|  4> end
|  5> * xyz 0 1
|  6> C -0.6082539049 -0.0085986702 -0.4690780096
|  7> C 0.608193367 0.0086129036 0.468978903
|  8> O 1.8277222404 -0.018776722 -0.2351930145
|  9> O -1.827671798 0.0187640952 0.2352625586
| 10> H -0.6239611844 -0.9393043833 -1.0425387771
| 11> H -0.5376965714 0.8319049266 -1.1716523868
| 12> H 0.5376347845 -0.8318375238 1.1716208054
| 13> H 0.6237531182 0.9393863814 1.0423606686
| 14> H 1.9027342509 -0.8530308035 -0.7189406033
| 15> H -1.902543712 0.8529122247 0.7192273593
| 16> *
| 17>
| 18>                          ****END OF INPUT****

CARTESIAN COORDINATES (ANGSTROEM)
---------------------------------
  C     -0.608254   -0.008599   -0.469078
  C      0.608193    0.008613    0.468979
  O      1.827722   -0.018777   -0.235193
  O     -1.827672    0.018764    0.235263
  H     -0.623961   -0.939304   -1.042539
  H     -0.537697    0.831905   -1.171652
  H      0.537635   -0.831838    1.171621
  H      0.623753    0.939386    1.042361
  H      1.902734   -0.853031   -0.718941
  H     -1.902544    0.852912    0.719227

 Total Charge           Charge          ....    0
 Multiplicity           Mult            ....    1
 Number of Electrons    NEL             ....   34
 Basis Dimension        Dim             ....   68

ORBITAL ENERGIES
----------------

  NO   OCC          E(Eh)            E(eV)
   0   2.0000     -18.748278      -510.1666
   1   2.0000     -18.748233      -510.1653
   2   2.0000      -9.930947      -270.2348
   3   2.0000      -9.930860      -270.2324
   4   2.0000      -0.929356       -25.2891
   5   2.0000      -0.918293       -24.9880
   6   2.0000      -0.654609       -17.8128
   7   2.0000      -0.568207       -15.4617
   8   2.0000      -0.463213       -12.6047
   9   2.0000      -0.458351       -12.4724
  10   2.0000      -0.415089       -11.2951
  11   2.0000      -0.369688       -10.0597
  12   2.0000      -0.348481        -9.4827
  13   2.0000      -0.304558        -8.2874
  14   2.0000      -0.269911        -7.3446
  15   2.0000      -0.236318        -6.4306
  16   2.0000      -0.205981        -5.6050
  17   0.0000       0.018637         0.5071
  18   0.0000       0.028435         0.7738
  19   0.0000       0.077820         2.1176
  20   0.0000       0.092231         2.5097
  21   0.0000       0.098334         2.6758

MULLIKEN ATOMIC CHARGES
-----------------------
   0 C :   -0.023158
   1 C :   -0.023216
   2 O :   -0.435911
   3 O :   -0.435913
   4 H :    0.079559
   5 H :    0.082303
   6 H :    0.082308
   7 H :    0.079553
   8 H :    0.297238
   9 H :    0.297237
Sum of atomic charges:   -0.0000000

LOEWDIN ATOMIC CHARGES
----------------------
   0 C :   -0.150492
   1 C :   -0.150495
   2 O :   -0.338333
   3 O :   -0.338322
   4 H :    0.107321
   5 H :    0.097483
   6 H :    0.097484
   7 H :    0.107318
   8 H :    0.284019
   9 H :    0.284017

  Mayer bond orders larger than 0.100000
B(  0-C ,  1-C ) :   1.0702 B(  0-C ,  3-O ) :   1.0562 B(  0-C ,  4-H ) :   0.9279
B(  0-C ,  5-H ) :   0.9234 B(  1-C ,  2-O ) :   1.0562 B(  1-C ,  6-H ) :   0.9234
B(  1-C ,  7-H ) :   0.9279 B(  2-O ,  8-H ) :   0.8543 B(  3-O ,  9-H ) :   0.8543

Dispersion correction           -0.004693392
FINAL SINGLE POINT ENERGY      -229.723533361842

DIPOLE MOMENT
-------------

Method             : SCF
Type of density    : Electron Density
Multiplicity       :   1
Irrep              :   0
Energy             :  -229.7741387462124010 Eh
Relativity type    :
Basis              : AO
                                X                 Y                 Z
Electronic contribution:      0.000115276      -0.000105317      -0.000011443
Nuclear contribution   :     -0.000073661       0.000028729       0.000073335
                        -----------------------------------------
Total Dipole Moment    :      0.000041615      -0.000076588       0.000061892
                        -----------------------------------------
Magnitude (a.u.)       :      0.000106903
Magnitude (Debye)      :      0.000271725

Rotational constants in cm-1:             0.984397             0.130316             0.122320
Rotational constants in MHz :         29511.467422          3906.771434          3667.076101

                             ****ORCA TERMINATED NORMALLY****
TOTAL RUN TIME: 0 days 0 hours 0 minutes 4 seconds 268 msec
