                         Program Version 6.0.0  -   RELEASE  -
|  1> ! pbe def2-sv(p) def2/J RI DEFGRID1 loosescf d4 GCP(DFT/SV(P)) printgap
|  2> %output
|  3>     printlevel normal
|  4> end
|  5> * xyz 0 1
|  6> C 5.4346813563 0.947870792 -1.7183273328
|  7> C 4.3166146733 1.2699396154 -0.7474920248
|  8> O 3.2214861192 0.3688277369 -1.0130900746
|  9> P 2.151238662 -0.0211842288 0.0945575624
| 10> S 2.9216358845 -0.4631895301 1.8460303489
| 11> O 1.3398173628 -1.1647275624 -0.6272663098
| 12> C 1.7558879142 -2.5501221404 -0.6096306614
| 13> C 0.5782848483 -3.4078873548 -0.1951760926
| 14> S 0.7726446862 1.5617892491 0.0443281564
| 15> C -0.0415923964 1.1970981549 1.6234570501
| 16> S -1.0301329012 -0.325440441 1.5985982226
| 17> P -2.2578799507 0.0706540179 -0.0869452361
| 18> S -1.672393102 -0.4637257993 -1.8840784189
| 19> O -2.5396587965 1.6069697454 0.1482986622
| 20> C -2.8534048334 2.5365107294 -0.9138175679
| 21> C -2.0915459937 3.8236715248 -0.6716628861
| 22> O -3.6637042577 -0.564649334 0.3104170232
| 23> C -4.0097158841 -1.9267243663 0.018402334
| 24> C -3.3366766872 -2.8851244169 0.9799005401
| 25> H 5.0755460914 1.0402637096 -2.7393035647
| 26> H 6.2538399919 1.6414399487 -1.5597191189
| 27> H 5.7880344798 -0.0672593863 -1.5601488253
| 28> H 3.951764825 2.2911330251 -0.8826013504
| 29> H 4.6357363552 1.134431846 0.2915354892
| 30> H 2.086746113 -2.7847956237 -1.6228687423
| 31> H 2.5924777245 -2.6617800336 0.0880723291
| 32> H 0.2907368202 -3.1770336927 0.8286196453
| 33> H -0.2635040924 -3.2123975752 -0.8554702683
| 34> H 0.8543556345 -4.4548941793 -0.2634291427
| 35> H -0.6805355579 2.0451859763 1.8540313581
| 36> H 0.7165223521 1.0454737401 2.3932117973
| 37> H -2.5777276205 2.0836478538 -1.8724373192
| 38> H -3.9329964996 2.6972810151 -0.8867600806
| 39> H -1.0202335456 3.6337296784 -0.6886992309
| 40> H -2.3409814879 4.5344202183 -1.4525829302
| 41> H -2.3619031319 4.2418199118 0.29362667
| 42> H -5.0959959726 -1.9546611101 0.1139718331
| 43> H -3.7224959679 -2.1432262677 -1.0165889873
| 44> H -3.5978559549 -2.6361090468 2.0048417132
| 45> H -3.6511358549 -3.9004132013 0.7613682734
| 46> H -2.2545624413 -2.8163701529 0.8720336515
| 47> *
| 48>
| 49>                          ****END OF INPUT****

CARTESIAN COORDINATES (ANGSTROEM)
---------------------------------
  C      5.434681    0.947871   -1.718327
  C      4.316615    1.269940   -0.747492
  O      3.221486    0.368828   -1.013090
  P      2.151239   -0.021184    0.094558
  S      2.921636   -0.463190    1.846030
  O      1.339817   -1.164728   -0.627266
  C      1.755888   -2.550122   -0.609631
  C      0.578285   -3.407887   -0.195176
  S      0.772645    1.561789    0.044328
  C     -0.041592    1.197098    1.623457
  S     -1.030133   -0.325440    1.598598
  P     -2.257880    0.070654   -0.086945
  S     -1.672393   -0.463726   -1.884078
  O     -2.539659    1.606970    0.148299
  C     -2.853405    2.536511   -0.913818
  C     -2.091546    3.823672   -0.671663
  O     -3.663704   -0.564649    0.310417
  C     -4.009716   -1.926724    0.018402
  C     -3.336677   -2.885124    0.979901
  H      5.075546    1.040264   -2.739304
  H      6.253840    1.641440   -1.559719
  H      5.788034   -0.067259   -1.560149
  H      3.951765    2.291133   -0.882601
  H      4.635736    1.134432    0.291535
  H      2.086746   -2.784796   -1.622869
  H      2.592478   -2.661780    0.088072
  H      0.290737   -3.177034    0.828620
  H     -0.263504   -3.212398   -0.855470
  H      0.854356   -4.454894   -0.263429
  H     -0.680536    2.045186    1.854031
  H      0.716522    1.045474    2.393212
  H     -2.577728    2.083648   -1.872437
  H     -3.932996    2.697281   -0.886760
  H     -1.020234    3.633730   -0.688699
  H     -2.340981    4.534420   -1.452583
  H     -2.361903    4.241820    0.293627
  H     -5.095996   -1.954661    0.113972
  H     -3.722496   -2.143226   -1.016589
  H     -3.597856   -2.636109    2.004842
  H     -3.651136   -3.900413    0.761368
  H     -2.254562   -2.816370    0.872034

 Total Charge           Charge          ....    0
 Multiplicity           Mult            ....    1
 Number of Electrons    NEL             ....  202
 Basis Dimension        Dim             ....  334

ORBITAL ENERGIES
----------------

  NO   OCC          E(Eh)            E(eV)
   0   2.0000     -88.043845     -2395.7948
   1   2.0000     -88.038805     -2395.6577
   2   2.0000     -87.985223     -2394.1996
   3   2.0000     -87.981268     -2394.0920
   4   2.0000     -76.424154     -2079.6070
   5   2.0000     -76.423668     -2079.5937
   6   2.0000     -18.794083      -511.4130
   7   2.0000     -18.791283      -511.3368
   8   2.0000     -18.786766      -511.2139
   9   2.0000     -18.783657      -511.1293
  10   2.0000      -9.956222      -270.9226
  11   2.0000      -9.952953      -270.8336
  12   2.0000      -9.951420      -270.7919
  13   2.0000      -9.949189      -270.7312
  14   2.0000      -9.945784      -270.6385
  15   2.0000      -9.888595      -269.0823
  16   2.0000      -9.887222      -269.0450
  17   2.0000      -9.885559      -268.9997
  18   2.0000      -9.875671      -268.7307
  19   2.0000      -7.688978      -209.2277
  20   2.0000      -7.683904      -209.0897
  21   2.0000      -7.630274      -207.6303
  22   2.0000      -7.626304      -207.5223
  23   2.0000      -6.421653      -174.7421
  24   2.0000      -6.421558      -174.7395
  25   2.0000      -5.716799      -155.5620
  26   2.0000      -5.713549      -155.4736
  27   2.0000      -5.712084      -155.4337
  28   2.0000      -5.708392      -155.3332
  29   2.0000      -5.705881      -155.2649
  30   2.0000      -5.700566      -155.1203
  31   2.0000      -5.658973      -153.9885
  32   2.0000      -5.655112      -153.8834
  33   2.0000      -5.651031      -153.7724
  34   2.0000      -5.650517      -153.7584
  35   2.0000      -5.647224      -153.6688
  36   2.0000      -5.646266      -153.6427
  37   2.0000      -4.644323      -126.3784
  38   2.0000      -4.644010      -126.3699
  39   2.0000      -4.643438      -126.3544
  40   2.0000      -4.643261      -126.3496
  41   2.0000      -4.642120      -126.3185
  42   2.0000      -4.641975      -126.3145
  43   2.0000      -0.985668       -26.8214
  44   2.0000      -0.982960       -26.7477
  45   2.0000      -0.944938       -25.7131
  46   2.0000      -0.941077       -25.6080
  47   2.0000      -0.764281       -20.7971
  48   2.0000      -0.722454       -19.6590
  49   2.0000      -0.709545       -19.3077
  50   2.0000      -0.687026       -18.6949
  51   2.0000      -0.684822       -18.6350
  52   2.0000      -0.670879       -18.2555
  53   2.0000      -0.647727       -17.6255
  54   2.0000      -0.636295       -17.3145
  55   2.0000      -0.597943       -16.2708
  56   2.0000      -0.587610       -15.9897
  57   2.0000      -0.571729       -15.5575
  58   2.0000      -0.567510       -15.4427
  59   2.0000      -0.556118       -15.1327
  60   2.0000      -0.505876       -13.7656
  61   2.0000      -0.501977       -13.6595
  62   2.0000      -0.476045       -12.9538
  63   2.0000      -0.473634       -12.8882
  64   2.0000      -0.458912       -12.4876
  65   2.0000      -0.440359       -11.9828
  66   2.0000      -0.438693       -11.9374
  67   2.0000      -0.431225       -11.7342
  68   2.0000      -0.429125       -11.6771
  69   2.0000      -0.415544       -11.3075
  70   2.0000      -0.407333       -11.0841
  71   2.0000      -0.391083       -10.6419
  72   2.0000      -0.389614       -10.6019
  73   2.0000      -0.382670       -10.4130
  74   2.0000      -0.379420       -10.3246
  75   2.0000      -0.376004       -10.2316
  76   2.0000      -0.368915       -10.0387
  77   2.0000      -0.358510        -9.7556
  78   2.0000      -0.354883        -9.6569
  79   2.0000      -0.353285        -9.6134
  80   2.0000      -0.346885        -9.4392
  81   2.0000      -0.342446        -9.3184
  82   2.0000      -0.341127        -9.2825
  83   2.0000      -0.336630        -9.1602
  84   2.0000      -0.330756        -9.0003
  85   2.0000      -0.319644        -8.6980
  86   2.0000      -0.303595        -8.2612
  87   2.0000      -0.298796        -8.1307
  88   2.0000      -0.295197        -8.0327
  89   2.0000      -0.285448        -7.7674
  90   2.0000      -0.284887        -7.7522
  91   2.0000      -0.275242        -7.4897
  92   2.0000      -0.269413        -7.3311
  93   2.0000      -0.260668        -7.0931
  94   2.0000      -0.259441        -7.0597
  95   2.0000      -0.236973        -6.4484
  96   2.0000      -0.218767        -5.9530
  97   2.0000      -0.207135        -5.6364
  98   2.0000      -0.203257        -5.5309
  99   2.0000      -0.196682        -5.3520
 100   2.0000      -0.190007        -5.1703
 101   0.0000      -0.047325        -1.2878
 102   0.0000      -0.023359        -0.6356
 103   0.0000      -0.018921        -0.5149
 104   0.0000       0.005276         0.1436
 105   0.0000       0.019379         0.5273

MULLIKEN ATOMIC CHARGES
-----------------------
   0 C :   -0.281521
   1 C :   -0.009761
   2 O :   -0.377666
   3 P :    0.629653
   4 S :   -0.345139
   5 O :   -0.346379
   6 C :    0.001552
   7 C :   -0.310628
   8 S :   -0.097522
   9 C :   -0.347173
  10 S :   -0.098000
  11 P :    0.616511
  12 S :   -0.313310
  13 O :   -0.379247
  14 C :   -0.003926
  15 C :   -0.305230
  16 O :   -0.367150
  17 C :   -0.004551
  18 C :   -0.337170
  19 H :    0.118163
  20 H :    0.111538
  21 H :    0.117854
  22 H :    0.100696
  23 H :    0.106168
  24 H :    0.104723
  25 H :    0.101356
  26 H :    0.133473
  27 H :    0.128494
  28 H :    0.102703
  29 H :    0.187573
  30 H :    0.193262
  31 H :    0.112978
  32 H :    0.106253
  33 H :    0.131537
  34 H :    0.113598
  35 H :    0.116031
  36 H :    0.104658
  37 H :    0.107068
  38 H :    0.121169
  39 H :    0.114043
  40 H :    0.143316
Sum of atomic charges:   -0.0000000

LOEWDIN ATOMIC CHARGES
----------------------
   0 C :   -0.350671
   1 C :   -0.119926
   2 O :   -0.249448
   3 P :    0.569643
   4 S :   -0.330425
   5 O :   -0.229142
   6 C :   -0.111359
   7 C :   -0.360382
   8 S :    0.092746
   9 C :   -0.476239
  10 S :    0.083705
  11 P :    0.566589
  12 S :   -0.307043
  13 O :   -0.243591
  14 C :   -0.115469
  15 C :   -0.357334
  16 O :   -0.246280
  17 C :   -0.122332
  18 C :   -0.367852
  19 H :    0.127489
  20 H :    0.130578
  21 H :    0.127895
  22 H :    0.110661
  23 H :    0.107273
  24 H :    0.116537
  25 H :    0.105463
  26 H :    0.124454
  27 H :    0.124638
  28 H :    0.126315
  29 H :    0.133249
  30 H :    0.130491
  31 H :    0.109214
  32 H :    0.116440
  33 H :    0.120505
  34 H :    0.132285
  35 H :    0.124918
  36 H :    0.118445
  37 H :    0.106308
  38 H :    0.127550
  39 H :    0.131802
  40 H :    0.122300

  Mayer bond orders larger than 0.100000
B(  0-C ,  1-C ) :   1.1619 B(  0-C , 19-H ) :   0.9506 B(  0-C , 20-H ) :   0.9419
B(  0-C , 21-H ) :   0.9510 B(  1-C ,  2-O ) :   0.9057 B(  1-C , 22-H ) :   0.9311
B(  1-C , 23-H ) :   0.9060 B(  2-O ,  3-P ) :   1.1122 B(  3-P ,  4-S ) :   1.5990
B(  3-P ,  5-O ) :   1.1620 B(  3-P ,  8-S ) :   0.9586 B(  4-S ,  8-S ) :   0.1062
B(  5-O ,  6-C ) :   0.8927 B(  6-C ,  7-C ) :   1.1685 B(  6-C , 24-H ) :   0.9325
B(  6-C , 25-H ) :   0.9060 B(  7-C , 26-H ) :   0.9374 B(  7-C , 27-H ) :   0.9365
B(  7-C , 28-H ) :   0.9365 B(  8-S ,  9-C ) :   1.0123 B(  9-C , 10-S ) :   1.0030
B(  9-C , 29-H ) :   0.9012 B(  9-C , 30-H ) :   0.8766 B( 10-S , 11-P ) :   0.9544
B( 10-S , 12-S ) :   0.1044 B( 11-P , 12-S ) :   1.6375 B( 11-P , 13-O ) :   1.1133
B( 11-P , 16-O ) :   1.1063 B( 13-O , 14-C ) :   0.8940 B( 14-C , 15-C ) :   1.1635
B( 14-C , 31-H ) :   0.9016 B( 14-C , 32-H ) :   0.9334 B( 15-C , 33-H ) :   0.9398
B( 15-C , 34-H ) :   0.9401 B( 15-C , 35-H ) :   0.9487 B( 16-O , 17-C ) :   0.9173
B( 17-C , 18-C ) :   1.1608 B( 17-C , 36-H ) :   0.9325 B( 17-C , 37-H ) :   0.9081
B( 18-C , 38-H ) :   0.9444 B( 18-C , 39-H ) :   0.9394 B( 18-C , 40-H ) :   0.9275

Dispersion correction           -0.065553670
FINAL SINGLE POINT ENERGY     -2929.521916672679

DIPOLE MOMENT
-------------

Method             : SCF
Type of density    : Electron Density
Multiplicity       :   1
Irrep              :   0
Energy             : -2929.6397128319508738 Eh
Relativity type    :
Basis              : AO
                                X                 Y                 Z
Electronic contribution:     -1.011607572       3.642073536       5.291927817
Nuclear contribution   :      0.741975593      -3.258163160      -5.605312736
                        -----------------------------------------
Total Dipole Moment    :     -0.269631978       0.383910376      -0.313384919
                        -----------------------------------------
Magnitude (a.u.)       :      0.564179659
Magnitude (Debye)      :      1.434030730

Rotational constants in cm-1:             0.011446             0.005534             0.004677
Rotational constants in MHz :           343.137264           165.914985           140.227016

                             ****ORCA TERMINATED NORMALLY****
TOTAL RUN TIME: 0 days 0 hours 0 minutes 21 seconds 860 msec
