                         Program Version 6.0.1  -  RELEASE   -
|  1> ! pbe def2-sv(p) def2/J RI DEFGRID1 loosescf d4 GCP(DFT/SV(P)) printgap
|  2> %output
|  3>     printlevel normal
|  4> end
|  5> * xyz 0 1
|  6> C 3.0393742323 -3.7862136749 0.3000107996
|  7> C 2.7539268943 -2.3352055993 0.6296932689
|  8> O 2.3739485667 -1.6697786338 -0.5906224911
|  9> C 2.0917526386 -0.3901520254 -0.5391793979
| 10> O 2.1213058975 0.2860225098 0.4701374284
| 11> C 1.7353906787 0.1813649027 -1.8978833935
| 12> C 0.4021288428 0.9313625434 -1.8238729451
| 13> H 0.2878490199 1.5697663392 -2.7025849622
| 14> C 0.3147795914 1.7852113999 -0.5739694054
| 15> O -0.5167027352 1.5659086586 0.2955590001
| 16> O 1.1424817417 2.778723997 -0.5927306866
| 17> C 1.2488690924 3.6581128548 0.5520192228
| 18> C 2.6365609629 3.5233914797 1.1528912991
| 19> S -1.0332039379 -0.2007957253 -1.8535370834
| 20> P -1.6478100163 -0.4923377324 0.1499443059
| 21> S -0.5749802151 -1.0483235853 1.7065101637
| 22> O -2.9100928641 0.4323615656 0.504156631
| 23> C -2.9592184815 1.4224176373 1.5286840598
| 24> O -2.4701795158 -1.7648768372 -0.4161461238
| 25> C -3.2600941295 -2.5937895467 0.4348854294
| 26> H 2.1495120052 -4.252996455 -0.1117187848
| 27> H 3.8424101188 -3.8519256634 -0.427941523
| 28> H 3.3288250248 -4.3070755144 1.2063590714
| 29> H 3.6327501821 -1.8257373979 1.0369945807
| 30> H 1.9337049115 -2.2307137239 1.348364556
| 31> H 1.6756960402 -0.6189382058 -2.6330005432
| 32> H 2.5207651745 0.8877631983 -2.1744898122
| 33> H 1.0764142402 4.6629448938 0.1620515008
| 34> H 0.4756320801 3.3912611182 1.27566617
| 35> H 2.8032353304 2.4929945966 1.4586767907
| 36> H 3.3903868321 3.8017634725 0.4229714607
| 37> H 2.7160862233 4.1708495239 2.0195890725
| 38> H -2.7867253751 2.4044444758 1.0923561051
| 39> H -2.202561089 1.2168517631 2.2879317024
| 40> H -3.9565457437 1.3612395713 1.9596424967
| 41> H -3.4437284839 -3.5058887058 -0.1276727693
| 42> H -4.19879796 -2.0950204701 0.675129952
| 43> H -2.7128707518 -2.816030126 1.3542494641
| 44> *
| 45>
| 46>                          ****END OF INPUT****

CARTESIAN COORDINATES (ANGSTROEM)
---------------------------------
  C      3.039374   -3.786214    0.300011
  C      2.753927   -2.335206    0.629693
  O      2.373949   -1.669779   -0.590622
  C      2.091753   -0.390152   -0.539179
  O      2.121306    0.286023    0.470137
  C      1.735391    0.181365   -1.897883
  C      0.402129    0.931363   -1.823873
  H      0.287849    1.569766   -2.702585
  C      0.314780    1.785211   -0.573969
  O     -0.516703    1.565909    0.295559
  O      1.142482    2.778724   -0.592731
  C      1.248869    3.658113    0.552019
  C      2.636561    3.523391    1.152891
  S     -1.033204   -0.200796   -1.853537
  P     -1.647810   -0.492338    0.149944
  S     -0.574980   -1.048324    1.706510
  O     -2.910093    0.432362    0.504157
  C     -2.959218    1.422418    1.528684
  O     -2.470180   -1.764877   -0.416146
  C     -3.260094   -2.593790    0.434885
  H      2.149512   -4.252996   -0.111719
  H      3.842410   -3.851926   -0.427942
  H      3.328825   -4.307076    1.206359
  H      3.632750   -1.825737    1.036995
  H      1.933705   -2.230714    1.348365
  H      1.675696   -0.618938   -2.633001
  H      2.520765    0.887763   -2.174490
  H      1.076414    4.662945    0.162052
  H      0.475632    3.391261    1.275666
  H      2.803235    2.492995    1.458677
  H      3.390387    3.801763    0.422971
  H      2.716086    4.170850    2.019589
  H     -2.786725    2.404444    1.092356
  H     -2.202561    1.216852    2.287932
  H     -3.956546    1.361240    1.959642
  H     -3.443728   -3.505889   -0.127673
  H     -4.198798   -2.095020    0.675130
  H     -2.712871   -2.816030    1.354249

 Total Charge           Charge          ....    0
 Multiplicity           Mult            ....    1
 Number of Electrons    NEL             ....  174
 Basis Dimension        Dim             ....  316

ORBITAL ENERGIES
----------------

  NO   OCC          E(Eh)            E(eV)
   0   2.0000     -88.030114     -2395.4212
   1   2.0000     -87.959239     -2393.4926
   2   2.0000     -76.412383     -2079.2867
   3   2.0000     -18.823685      -512.2185
   4   2.0000     -18.805202      -511.7156
   5   2.0000     -18.771338      -510.7941
   6   2.0000     -18.765972      -510.6481
   7   2.0000     -18.759759      -510.4790
   8   2.0000     -18.740910      -509.9661
   9   2.0000     -10.036155      -273.0977
  10   2.0000     -10.013241      -272.4741
  11   2.0000      -9.957557      -270.9589
  12   2.0000      -9.954086      -270.8644
  13   2.0000      -9.939051      -270.4553
  14   2.0000      -9.926227      -270.1064
  15   2.0000      -9.922000      -269.9913
  16   2.0000      -9.917459      -269.8678
  17   2.0000      -9.887290      -269.0468
  18   2.0000      -9.882565      -268.9183
  19   2.0000      -7.675243      -208.8540
  20   2.0000      -7.604326      -206.9242
  21   2.0000      -6.407082      -174.3456
  22   2.0000      -5.703771      -155.2075
  23   2.0000      -5.699515      -155.0917
  24   2.0000      -5.691746      -154.8803
  25   2.0000      -5.633443      -153.2938
  26   2.0000      -5.625178      -153.0689
  27   2.0000      -5.623975      -153.0361
  28   2.0000      -4.629979      -125.9881
  29   2.0000      -4.629131      -125.9651
  30   2.0000      -4.627636      -125.9244
  31   2.0000      -1.035821       -28.1861
  32   2.0000      -1.012263       -27.5451
  33   2.0000      -0.959955       -26.1217
  34   2.0000      -0.941328       -25.6148
  35   2.0000      -0.918400       -24.9909
  36   2.0000      -0.914230       -24.8775
  37   2.0000      -0.767505       -20.8849
  38   2.0000      -0.716302       -19.4916
  39   2.0000      -0.707890       -19.2627
  40   2.0000      -0.685197       -18.6452
  41   2.0000      -0.648942       -17.6586
  42   2.0000      -0.623089       -16.9551
  43   2.0000      -0.610844       -16.6219
  44   2.0000      -0.607375       -16.5275
  45   2.0000      -0.586828       -15.9684
  46   2.0000      -0.559767       -15.2320
  47   2.0000      -0.515547       -14.0288
  48   2.0000      -0.506559       -13.7842
  49   2.0000      -0.501754       -13.6534
  50   2.0000      -0.490215       -13.3394
  51   2.0000      -0.465553       -12.6683
  52   2.0000      -0.460513       -12.5312
  53   2.0000      -0.446631       -12.1534
  54   2.0000      -0.444686       -12.1005
  55   2.0000      -0.425399       -11.5757
  56   2.0000      -0.421334       -11.4651
  57   2.0000      -0.416694       -11.3388
  58   2.0000      -0.407949       -11.1009
  59   2.0000      -0.403257       -10.9732
  60   2.0000      -0.395679       -10.7670
  61   2.0000      -0.391741       -10.6598
  62   2.0000      -0.381644       -10.3851
  63   2.0000      -0.379012       -10.3135
  64   2.0000      -0.366492        -9.9728
  65   2.0000      -0.364362        -9.9148
  66   2.0000      -0.362064        -9.8523
  67   2.0000      -0.353720        -9.6252
  68   2.0000      -0.345922        -9.4130
  69   2.0000      -0.342411        -9.3175
  70   2.0000      -0.334754        -9.1091
  71   2.0000      -0.330579        -8.9955
  72   2.0000      -0.313385        -8.5276
  73   2.0000      -0.309175        -8.4131
  74   2.0000      -0.298381        -8.1194
  75   2.0000      -0.294524        -8.0144
  76   2.0000      -0.286370        -7.7925
  77   2.0000      -0.281130        -7.6499
  78   2.0000      -0.267683        -7.2840
  79   2.0000      -0.259843        -7.0707
  80   2.0000      -0.255889        -6.9631
  81   2.0000      -0.250080        -6.8050
  82   2.0000      -0.239773        -6.5246
  83   2.0000      -0.227410        -6.1881
  84   2.0000      -0.209504        -5.7009
  85   2.0000      -0.179344        -4.8802
  86   2.0000      -0.172007        -4.6806
  87   0.0000      -0.045469        -1.2373
  88   0.0000      -0.034167        -0.9297
  89   0.0000      -0.027682        -0.7533
  90   0.0000       0.010477         0.2851
  91   0.0000       0.037032         1.0077

MULLIKEN ATOMIC CHARGES
-----------------------
   0 C :   -0.273587
   1 C :   -0.042781
   2 O :   -0.214544
   3 C :    0.102448
   4 O :   -0.202349
   5 C :   -0.022480
   6 C :   -0.310187
   7 H :    0.147600
   8 C :    0.240200
   9 O :   -0.214888
  10 O :   -0.214598
  11 C :   -0.025746
  12 C :   -0.303508
  13 S :   -0.078025
  14 P :    0.666150
  15 S :   -0.347512
  16 O :   -0.395068
  17 C :   -0.085529
  18 O :   -0.409524
  19 C :   -0.091604
  20 H :    0.121898
  21 H :    0.108646
  22 H :    0.110770
  23 H :    0.097215
  24 H :    0.135562
  25 H :    0.118288
  26 H :    0.121976
  27 H :    0.108635
  28 H :    0.126648
  29 H :    0.149434
  30 H :    0.109361
  31 H :    0.112076
  32 H :    0.103400
  33 H :    0.116471
  34 H :    0.111672
  35 H :    0.114223
  36 H :    0.102978
  37 H :    0.106279
Sum of atomic charges:   -0.0000000

LOEWDIN ATOMIC CHARGES
----------------------
   0 C :   -0.350067
   1 C :   -0.111878
   2 O :   -0.042391
   3 C :    0.030286
   4 O :   -0.154732
   5 C :   -0.246074
   6 C :   -0.263027
   7 H :    0.147754
   8 C :    0.035966
   9 O :   -0.147863
  10 O :   -0.028885
  11 C :   -0.102155
  12 C :   -0.356080
  13 S :    0.119218
  14 P :    0.584399
  15 S :   -0.336587
  16 O :   -0.258020
  17 C :   -0.214992
  18 O :   -0.282015
  19 C :   -0.217796
  20 H :    0.130154
  21 H :    0.123041
  22 H :    0.130888
  23 H :    0.113415
  24 H :    0.118899
  25 H :    0.137829
  26 H :    0.146452
  27 H :    0.119325
  28 H :    0.126353
  29 H :    0.138982
  30 H :    0.123582
  31 H :    0.130517
  32 H :    0.106897
  33 H :    0.108242
  34 H :    0.113492
  35 H :    0.116699
  36 H :    0.106804
  37 H :    0.103371

  Mayer bond orders larger than 0.100000
B(  0-C ,  1-C ) :   1.1562 B(  0-C , 20-H ) :   0.9487 B(  0-C , 21-H ) :   0.9508
B(  0-C , 22-H ) :   0.9440 B(  1-C ,  2-O ) :   0.8934 B(  1-C , 23-H ) :   0.9301
B(  1-C , 24-H ) :   0.9103 B(  2-O ,  3-C ) :   1.2762 B(  2-O ,  4-O ) :   0.1018
B(  3-C ,  4-O ) :   1.9336 B(  3-C ,  5-C ) :   1.0067 B(  4-O ,  8-C ) :   0.1117
B(  5-C ,  6-C ) :   1.0177 B(  5-C , 25-H ) :   0.9039 B(  5-C , 26-H ) :   0.8762
B(  6-C ,  7-H ) :   0.8779 B(  6-C ,  8-C ) :   0.9077 B(  6-C , 13-S ) :   1.0429
B(  8-C ,  9-O ) :   1.8459 B(  8-C , 10-O ) :   1.2897 B(  9-O , 14-P ) :   0.1803
B( 10-O , 11-C ) :   0.8868 B( 11-C , 12-C ) :   1.1786 B( 11-C , 27-H ) :   0.9365
B( 11-C , 28-H ) :   0.9095 B( 12-C , 29-H ) :   0.9320 B( 12-C , 30-H ) :   0.9499
B( 12-C , 31-H ) :   0.9418 B( 13-S , 14-P ) :   0.9313 B( 13-S , 15-S ) :   0.1077
B( 14-P , 15-S ) :   1.5651 B( 14-P , 16-O ) :   1.0744 B( 14-P , 18-O ) :   1.0346
B( 16-O , 17-C ) :   0.9382 B( 17-C , 32-H ) :   0.9549 B( 17-C , 33-H ) :   0.9313
B( 17-C , 34-H ) :   0.9546 B( 18-O , 19-C ) :   0.9482 B( 19-C , 35-H ) :   0.9610
B( 19-C , 36-H ) :   0.9519 B( 19-C , 37-H ) :   0.9285

Dispersion correction           -0.053344441
FINAL SINGLE POINT ENERGY     -1979.007193727951

DIPOLE MOMENT
-------------

Method             : SCF
Type of density    : Electron Density
Multiplicity       :   1
Irrep              :   0
Energy             : -1979.1379952060942742 Eh
Relativity type    :
Basis              : AO
                                X                 Y                 Z
Electronic contribution:    -10.588249405       0.078246207      -7.846198467
Nuclear contribution   :     11.395900276       0.927570107       7.485764305
                        -----------------------------------------
Total Dipole Moment    :      0.807650871       1.005816314      -0.360434162
                        -----------------------------------------
Magnitude (a.u.)       :      1.339357746
Magnitude (Debye)      :      3.404376840

Rotational constants in cm-1:             0.010910             0.009401             0.006704
Rotational constants in MHz :           327.080951           281.838658           200.980892

                             ****ORCA TERMINATED NORMALLY****
TOTAL RUN TIME: 0 days 0 hours 0 minutes 36 seconds 475 msec
