                         Program Version 6.0.0  -   RELEASE  -
|  1> ! pbe def2-sv(p) def2/J RI DEFGRID1 loosescf d4 GCP(DFT/SV(P)) printgap
|  2> %output
|  3>     printlevel normal
|  4> end
|  5> * xyz 0 1
|  6> C 4.0549780777 -1.8622672301 -1.7894647276
|  7> C 4.6901659698 -0.580434682 -1.28757649
|  8> O 4.0126337543 -0.0641116367 -0.1320359116
|  9> P 2.5649955791 0.5747537278 -0.1943637624
| 10> S 2.153693223 1.4838406817 -1.8904373573
| 11> O 2.7550836625 1.4679625803 1.0932609187
| 12> C 1.6955694283 2.0701226587 1.8625652616
| 13> C 1.5411308396 1.3347437826 3.1805189303
| 14> S 1.2075332368 -0.9497341217 0.3945169719
| 15> C 0.3071281331 -1.1934244438 -1.1792361146
| 16> S -1.3702846481 -1.7823662966 -0.908664836
| 17> P -2.3039988109 0.0124627989 -0.2107859742
| 18> S -1.2574152236 1.6620682581 -0.3434786538
| 19> O -2.7955948409 -0.3554281213 1.2559964143
| 20> C -1.8714135605 -0.4464244031 2.3580921047
| 21> C -2.6757305424 -0.7041244412 3.6155544257
| 22> O -3.6455809039 0.1075343576 -1.0202494114
| 23> C -4.5808663162 -0.9918758632 -1.1757479863
| 24> C -5.6161417931 -0.9935564275 -0.0705630731
| 25> H 4.6858900351 -2.3022880201 -2.5551003554
| 26> H 3.9337931428 -2.5680058167 -0.9713848725
| 27> H 3.0805198663 -1.6408532179 -2.2231598847
| 28> H 4.6832133666 0.1847391721 -2.0706375054
| 29> H 5.7103904662 -0.7454863553 -0.9386457652
| 30> H 2.0085235774 3.1043543058 2.0201277929
| 31> H 0.7670435757 2.0683069524 1.2835903502
| 32> H 1.2507569322 0.3011833616 3.0054721192
| 33> H 2.4844401244 1.346862458 3.7187074318
| 34> H 0.7797948174 1.8280881281 3.7761860999
| 35> H 0.7965914968 -1.9737970406 -1.7571129289
| 36> H 0.297532793 -0.2415231239 -1.7169977246
| 37> H -1.1673384592 -1.2605472896 2.1579026406
| 38> H -1.3171589235 0.4950571936 2.4196450895
| 39> H -2.0003227003 -0.7643537178 4.4624129567
| 40> H -3.3836185598 0.1037381551 3.7769916916
| 41> H -3.2205244734 -1.6391440461 3.5246972827
| 42> H -5.0379495673 -0.8117932 -2.1502757784
| 43> H -4.0192939534 -1.929854926 -1.1978627532
| 44> H -5.1446981748 -1.1758355619 0.8907219836
| 45> H -6.1244940678 -0.0338552006 -0.0352215423
| 46> H -6.3418097943 -1.776179851 -0.2690085723
| 47> *
| 48>
| 49>                          ****END OF INPUT****

CARTESIAN COORDINATES (ANGSTROEM)
---------------------------------
  C      4.054978   -1.862267   -1.789465
  C      4.690166   -0.580435   -1.287576
  O      4.012634   -0.064112   -0.132036
  P      2.564996    0.574754   -0.194364
  S      2.153693    1.483841   -1.890437
  O      2.755084    1.467963    1.093261
  C      1.695569    2.070123    1.862565
  C      1.541131    1.334744    3.180519
  S      1.207533   -0.949734    0.394517
  C      0.307128   -1.193424   -1.179236
  S     -1.370285   -1.782366   -0.908665
  P     -2.303999    0.012463   -0.210786
  S     -1.257415    1.662068   -0.343479
  O     -2.795595   -0.355428    1.255996
  C     -1.871414   -0.446424    2.358092
  C     -2.675731   -0.704124    3.615554
  O     -3.645581    0.107534   -1.020249
  C     -4.580866   -0.991876   -1.175748
  C     -5.616142   -0.993556   -0.070563
  H      4.685890   -2.302288   -2.555100
  H      3.933793   -2.568006   -0.971385
  H      3.080520   -1.640853   -2.223160
  H      4.683213    0.184739   -2.070638
  H      5.710390   -0.745486   -0.938646
  H      2.008524    3.104354    2.020128
  H      0.767044    2.068307    1.283590
  H      1.250757    0.301183    3.005472
  H      2.484440    1.346862    3.718707
  H      0.779795    1.828088    3.776186
  H      0.796591   -1.973797   -1.757113
  H      0.297533   -0.241523   -1.716998
  H     -1.167338   -1.260547    2.157903
  H     -1.317159    0.495057    2.419645
  H     -2.000323   -0.764354    4.462413
  H     -3.383619    0.103738    3.776992
  H     -3.220524   -1.639144    3.524697
  H     -5.037950   -0.811793   -2.150276
  H     -4.019294   -1.929855   -1.197863
  H     -5.144698   -1.175836    0.890722
  H     -6.124494   -0.033855   -0.035222
  H     -6.341810   -1.776180   -0.269009

 Total Charge           Charge          ....    0
 Multiplicity           Mult            ....    1
 Number of Electrons    NEL             ....  202
 Basis Dimension        Dim             ....  334

ORBITAL ENERGIES
----------------

  NO   OCC          E(Eh)            E(eV)
   0   2.0000     -88.048543     -2395.9227
   1   2.0000     -88.042053     -2395.7461
   2   2.0000     -87.985752     -2394.2140
   3   2.0000     -87.982083     -2394.1142
   4   2.0000     -76.428228     -2079.7178
   5   2.0000     -76.422694     -2079.5672
   6   2.0000     -18.798319      -511.5283
   7   2.0000     -18.795238      -511.4444
   8   2.0000     -18.785860      -511.1892
   9   2.0000     -18.781975      -511.0835
  10   2.0000      -9.964275      -271.1417
  11   2.0000      -9.955353      -270.8989
  12   2.0000      -9.955175      -270.8941
  13   2.0000      -9.948283      -270.7065
  14   2.0000      -9.947169      -270.6762
  15   2.0000      -9.892541      -269.1897
  16   2.0000      -9.891222      -269.1538
  17   2.0000      -9.885565      -268.9999
  18   2.0000      -9.884936      -268.9828
  19   2.0000      -7.693497      -209.3507
  20   2.0000      -7.686634      -209.1640
  21   2.0000      -7.630487      -207.6361
  22   2.0000      -7.627000      -207.5412
  23   2.0000      -6.425985      -174.8599
  24   2.0000      -6.419836      -174.6926
  25   2.0000      -5.721426      -155.6879
  26   2.0000      -5.717798      -155.5892
  27   2.0000      -5.714469      -155.4986
  28   2.0000      -5.711205      -155.4098
  29   2.0000      -5.710681      -155.3955
  30   2.0000      -5.703713      -155.2059
  31   2.0000      -5.659554      -154.0043
  32   2.0000      -5.655835      -153.9031
  33   2.0000      -5.650895      -153.7687
  34   2.0000      -5.650713      -153.7637
  35   2.0000      -5.647594      -153.6788
  36   2.0000      -5.647309      -153.6711
  37   2.0000      -4.648715      -126.4980
  38   2.0000      -4.647751      -126.4717
  39   2.0000      -4.646235      -126.4305
  40   2.0000      -4.642195      -126.3206
  41   2.0000      -4.641802      -126.3099
  42   2.0000      -4.640317      -126.2694
  43   2.0000      -0.992950       -27.0195
  44   2.0000      -0.983613       -26.7655
  45   2.0000      -0.950350       -25.8603
  46   2.0000      -0.938682       -25.5428
  47   2.0000      -0.762468       -20.7478
  48   2.0000      -0.723671       -19.6921
  49   2.0000      -0.713798       -19.4234
  50   2.0000      -0.697272       -18.9737
  51   2.0000      -0.682445       -18.5703
  52   2.0000      -0.678680       -18.4678
  53   2.0000      -0.649728       -17.6800
  54   2.0000      -0.632800       -17.2194
  55   2.0000      -0.599146       -16.3036
  56   2.0000      -0.593024       -16.1370
  57   2.0000      -0.575206       -15.6522
  58   2.0000      -0.567363       -15.4387
  59   2.0000      -0.564286       -15.3550
  60   2.0000      -0.511301       -13.9132
  61   2.0000      -0.495392       -13.4803
  62   2.0000      -0.488082       -13.2814
  63   2.0000      -0.466417       -12.6918
  64   2.0000      -0.451673       -12.2906
  65   2.0000      -0.450956       -12.2711
  66   2.0000      -0.446033       -12.1372
  67   2.0000      -0.436116       -11.8673
  68   2.0000      -0.431776       -11.7492
  69   2.0000      -0.420728       -11.4486
  70   2.0000      -0.410223       -11.1627
  71   2.0000      -0.393934       -10.7195
  72   2.0000      -0.393229       -10.7003
  73   2.0000      -0.388854       -10.5813
  74   2.0000      -0.387640       -10.5482
  75   2.0000      -0.372529       -10.1370
  76   2.0000      -0.364951        -9.9308
  77   2.0000      -0.360048        -9.7974
  78   2.0000      -0.356427        -9.6989
  79   2.0000      -0.355365        -9.6700
  80   2.0000      -0.352173        -9.5831
  81   2.0000      -0.349577        -9.5125
  82   2.0000      -0.346148        -9.4192
  83   2.0000      -0.340304        -9.2601
  84   2.0000      -0.334776        -9.1097
  85   2.0000      -0.321841        -8.7577
  86   2.0000      -0.309797        -8.4300
  87   2.0000      -0.301741        -8.2108
  88   2.0000      -0.295704        -8.0465
  89   2.0000      -0.292687        -7.9644
  90   2.0000      -0.285948        -7.7811
  91   2.0000      -0.280849        -7.6423
  92   2.0000      -0.268997        -7.3198
  93   2.0000      -0.264144        -7.1877
  94   2.0000      -0.255468        -6.9517
  95   2.0000      -0.238995        -6.5034
  96   2.0000      -0.221328        -6.0226
  97   2.0000      -0.211299        -5.7497
  98   2.0000      -0.199022        -5.4157
  99   2.0000      -0.198542        -5.4026
 100   2.0000      -0.190328        -5.1791
 101   0.0000      -0.046633        -1.2690
 102   0.0000      -0.035086        -0.9547
 103   0.0000      -0.017308        -0.4710
 104   0.0000       0.004103         0.1116
 105   0.0000       0.012063         0.3282

MULLIKEN ATOMIC CHARGES
-----------------------
   0 C :   -0.326799
   1 C :    0.004003
   2 O :   -0.357950
   3 P :    0.603454
   4 S :   -0.315508
   5 O :   -0.357101
   6 C :   -0.035958
   7 C :   -0.301697
   8 S :   -0.133171
   9 C :   -0.345128
  10 S :   -0.134449
  11 P :    0.602003
  12 S :   -0.290347
  13 O :   -0.380270
  14 C :   -0.037041
  15 C :   -0.277134
  16 O :   -0.350667
  17 C :   -0.023666
  18 C :   -0.294759
  19 H :    0.112466
  20 H :    0.119952
  21 H :    0.120902
  22 H :    0.112353
  23 H :    0.105188
  24 H :    0.108533
  25 H :    0.145099
  26 H :    0.122551
  27 H :    0.118010
  28 H :    0.111245
  29 H :    0.189835
  30 H :    0.216566
  31 H :    0.111261
  32 H :    0.116302
  33 H :    0.112789
  34 H :    0.120217
  35 H :    0.116643
  36 H :    0.117319
  37 H :    0.113320
  38 H :    0.126726
  39 H :    0.123166
  40 H :    0.111743
Sum of atomic charges:    0.0000000

LOEWDIN ATOMIC CHARGES
----------------------
   0 C :   -0.368435
   1 C :   -0.118178
   2 O :   -0.237944
   3 P :    0.564945
   4 S :   -0.303093
   5 O :   -0.232020
   6 C :   -0.121130
   7 C :   -0.360569
   8 S :    0.058989
   9 C :   -0.479570
  10 S :    0.061813
  11 P :    0.564224
  12 S :   -0.279607
  13 O :   -0.248811
  14 C :   -0.124486
  15 C :   -0.350061
  16 O :   -0.231325
  17 C :   -0.111326
  18 C :   -0.361165
  19 H :    0.130777
  20 H :    0.125747
  21 H :    0.118427
  22 H :    0.110382
  23 H :    0.119136
  24 H :    0.121489
  25 H :    0.104261
  26 H :    0.117356
  27 H :    0.127360
  28 H :    0.128243
  29 H :    0.131665
  30 H :    0.125632
  31 H :    0.102827
  32 H :    0.110430
  33 H :    0.131341
  34 H :    0.128553
  35 H :    0.125829
  36 H :    0.125074
  37 H :    0.105398
  38 H :    0.126360
  39 H :    0.130940
  40 H :    0.130522

  Mayer bond orders larger than 0.100000
B(  0-C ,  1-C ) :   1.1595 B(  0-C , 19-H ) :   0.9380 B(  0-C , 20-H ) :   0.9452
B(  0-C , 21-H ) :   0.9308 B(  1-C ,  2-O ) :   0.9226 B(  1-C , 22-H ) :   0.9142
B(  1-C , 23-H ) :   0.9342 B(  2-O ,  3-P ) :   1.1131 B(  3-P ,  4-S ) :   1.6227
B(  3-P ,  5-O ) :   1.1456 B(  3-P ,  8-S ) :   0.9344 B(  4-S ,  8-S ) :   0.1251
B(  5-O ,  6-C ) :   0.8971 B(  6-C ,  7-C ) :   1.1655 B(  6-C , 24-H ) :   0.9320
B(  6-C , 25-H ) :   0.8952 B(  7-C , 26-H ) :   0.9390 B(  7-C , 27-H ) :   0.9444
B(  7-C , 28-H ) :   0.9375 B(  8-S ,  9-C ) :   0.9842 B(  9-C , 10-S ) :   1.0144
B(  9-C , 29-H ) :   0.8939 B(  9-C , 30-H ) :   0.8465 B( 10-S , 11-P ) :   0.9300
B( 10-S , 12-S ) :   0.1133 B( 11-P , 12-S ) :   1.6635 B( 11-P , 13-O ) :   1.0758
B( 11-P , 16-O ) :   1.1562 B( 13-O , 14-C ) :   0.9053 B( 14-C , 15-C ) :   1.1579
B( 14-C , 31-H ) :   0.9143 B( 14-C , 32-H ) :   0.9110 B( 15-C , 33-H ) :   0.9419
B( 15-C , 34-H ) :   0.9502 B( 15-C , 35-H ) :   0.9501 B( 16-O , 17-C ) :   0.8927
B( 17-C , 18-C ) :   1.1639 B( 17-C , 36-H ) :   0.9355 B( 17-C , 37-H ) :   0.9150
B( 18-C , 38-H ) :   0.9388 B( 18-C , 39-H ) :   0.9461 B( 18-C , 40-H ) :   0.9383

Dispersion correction           -0.064780752
FINAL SINGLE POINT ENERGY     -2929.516948692385

DIPOLE MOMENT
-------------

Method             : SCF
Type of density    : Electron Density
Multiplicity       :   1
Irrep              :   0
Energy             : -2929.6364250541287220 Eh
Relativity type    :
Basis              : AO
                                X                 Y                 Z
Electronic contribution:      6.392535057       7.889723730     -13.763925711
Nuclear contribution   :     -7.078287852      -9.367614014      14.673565378
                        -----------------------------------------
Total Dipole Moment    :     -0.685752795      -1.477890284       0.909639667
                        -----------------------------------------
Magnitude (a.u.)       :      1.865974521
Magnitude (Debye)      :      4.742930305

Rotational constants in cm-1:             0.012747             0.004830             0.004338
Rotational constants in MHz :           382.159201           144.792735           130.044677

                             ****ORCA TERMINATED NORMALLY****
TOTAL RUN TIME: 0 days 0 hours 0 minutes 21 seconds 6 msec
