                         Program Version 6.0.0  -   RELEASE  -
|  1> ! pbe def2-sv(p) def2/J RI DEFGRID1 loosescf d4 GCP(DFT/SV(P)) printgap
|  2> %output
|  3>     printlevel normal
|  4> end
|  5> * xyz 0 1
|  6> C 4.0444381822 -0.1815258523 -2.3942796972
|  7> C 4.5604720243 -0.0249256649 -0.9772419781
|  8> O 3.7068321726 -0.6646172755 -0.0152502827
|  9> P 2.2489077513 -0.1365043941 0.3071167542
| 10> S 2.0574967672 1.8175584579 0.2317426361
| 11> O 2.1640655576 -0.8694598273 1.7070144469
| 12> C 1.0523911938 -0.7957917573 2.6153754194
| 13> C 1.2051465783 0.3769901721 3.5651966947
| 14> S 0.9541926671 -1.264889567 -0.9514914332
| 15> C 0.1730218983 0.068264414 -1.9200788787
| 16> S -1.6338768803 -0.0648005383 -2.0498249834
| 17> P -2.221761867 0.0645850754 -0.0093137076
| 18> S -4.0734118174 0.6169118978 0.3127046901
| 19> O -1.1282764989 0.9758206616 0.7028735347
| 20> C -1.4088603385 2.3594171148 0.9818054222
| 21> C -1.3817740466 3.2106465535 -0.2714705189
| 22> O -1.7611370002 -1.3064203699 0.6557945984
| 23> C -2.0636999101 -2.6134642376 0.1316796436
| 24> C -3.5180734955 -2.7810492257 -0.2555168215
| 25> H 3.1300157766 0.3965947723 -2.522075879
| 26> H 4.7911258195 0.1864649235 -3.0907371216
| 27> H 3.8379861691 -1.2275854188 -2.606614675
| 28> H 4.6515440356 1.0344100333 -0.7156261681
| 29> H 5.522403494 -0.5212862823 -0.8424354973
| 30> H 0.116395062 -0.7262686988 2.0557589235
| 31> H 1.0814114714 -1.7452824918 3.1540197478
| 32> H 0.3741667763 0.384027782 4.2633347958
| 33> H 2.1392372296 0.2943802374 4.1143213085
| 34> H 1.2091457071 1.3130212983 3.0106605136
| 35> H 0.5182056866 0.0019381642 -2.9490894075
| 36> H 0.4480154616 1.023685033 -1.4665416281
| 37> H -2.3873775004 2.4215365477 1.4676921616
| 38> H -0.6253298651 2.6576097046 1.6795362669
| 39> H -0.3947941946 3.1859863032 -0.7273653059
| 40> H -2.1228379066 2.8471175968 -0.9831196816
| 41> H -1.6207056309 4.2359842599 -0.0084734174
| 42> H -1.409599427 -2.795492529 -0.7273311088
| 43> H -1.788980607 -3.2858655956 0.9463510341
| 44> H -3.7675474577 -2.118748784 -1.0845219056
| 45> H -3.6907141196 -3.8085325209 -0.5595335929
| 46> H -4.1658440116 -2.5397597304 0.5843443246
| 47> *
| 48>
| 49>                          ****END OF INPUT****

CARTESIAN COORDINATES (ANGSTROEM)
---------------------------------
  C      4.044438   -0.181526   -2.394280
  C      4.560472   -0.024926   -0.977242
  O      3.706832   -0.664617   -0.015250
  P      2.248908   -0.136504    0.307117
  S      2.057497    1.817558    0.231743
  O      2.164066   -0.869460    1.707014
  C      1.052391   -0.795792    2.615375
  C      1.205147    0.376990    3.565197
  S      0.954193   -1.264890   -0.951491
  C      0.173022    0.068264   -1.920079
  S     -1.633877   -0.064801   -2.049825
  P     -2.221762    0.064585   -0.009314
  S     -4.073412    0.616912    0.312705
  O     -1.128276    0.975821    0.702874
  C     -1.408860    2.359417    0.981805
  C     -1.381774    3.210647   -0.271471
  O     -1.761137   -1.306420    0.655795
  C     -2.063700   -2.613464    0.131680
  C     -3.518073   -2.781049   -0.255517
  H      3.130016    0.396595   -2.522076
  H      4.791126    0.186465   -3.090737
  H      3.837986   -1.227585   -2.606615
  H      4.651544    1.034410   -0.715626
  H      5.522403   -0.521286   -0.842435
  H      0.116395   -0.726269    2.055759
  H      1.081411   -1.745282    3.154020
  H      0.374167    0.384028    4.263335
  H      2.139237    0.294380    4.114321
  H      1.209146    1.313021    3.010661
  H      0.518206    0.001938   -2.949089
  H      0.448015    1.023685   -1.466542
  H     -2.387378    2.421537    1.467692
  H     -0.625330    2.657610    1.679536
  H     -0.394794    3.185986   -0.727365
  H     -2.122838    2.847118   -0.983120
  H     -1.620706    4.235984   -0.008473
  H     -1.409599   -2.795493   -0.727331
  H     -1.788981   -3.285866    0.946351
  H     -3.767547   -2.118749   -1.084522
  H     -3.690714   -3.808533   -0.559534
  H     -4.165844   -2.539760    0.584344

 Total Charge           Charge          ....    0
 Multiplicity           Mult            ....    1
 Number of Electrons    NEL             ....  202
 Basis Dimension        Dim             ....  334

ORBITAL ENERGIES
----------------

  NO   OCC          E(Eh)            E(eV)
   0   2.0000     -88.050339     -2395.9715
   1   2.0000     -88.049648     -2395.9527
   2   2.0000     -87.998687     -2394.5660
   3   2.0000     -87.987543     -2394.2628
   4   2.0000     -76.432877     -2079.8443
   5   2.0000     -76.428981     -2079.7383
   6   2.0000     -18.793324      -511.3923
   7   2.0000     -18.793312      -511.3920
   8   2.0000     -18.791836      -511.3519
   9   2.0000     -18.791717      -511.3486
  10   2.0000      -9.962158      -271.0841
  11   2.0000      -9.955806      -270.9113
  12   2.0000      -9.955437      -270.9012
  13   2.0000      -9.948491      -270.7122
  14   2.0000      -9.946082      -270.6467
  15   2.0000      -9.890429      -269.1322
  16   2.0000      -9.883576      -268.9458
  17   2.0000      -9.879950      -268.8471
  18   2.0000      -9.877930      -268.7922
  19   2.0000      -7.695065      -209.3934
  20   2.0000      -7.694209      -209.3701
  21   2.0000      -7.643340      -207.9859
  22   2.0000      -7.632734      -207.6973
  23   2.0000      -6.430209      -174.9749
  24   2.0000      -6.426113      -174.8634
  25   2.0000      -5.723316      -155.7394
  26   2.0000      -5.722128      -155.7070
  27   2.0000      -5.719114      -155.6250
  28   2.0000      -5.718728      -155.6145
  29   2.0000      -5.712222      -155.4375
  30   2.0000      -5.711187      -155.4093
  31   2.0000      -5.672057      -154.3445
  32   2.0000      -5.664034      -154.1262
  33   2.0000      -5.663613      -154.1148
  34   2.0000      -5.661816      -154.0658
  35   2.0000      -5.653334      -153.8351
  36   2.0000      -5.652756      -153.8193
  37   2.0000      -4.652358      -126.5971
  38   2.0000      -4.652151      -126.5915
  39   2.0000      -4.650915      -126.5578
  40   2.0000      -4.648581      -126.4943
  41   2.0000      -4.648416      -126.4898
  42   2.0000      -4.646216      -126.4300
  43   2.0000      -0.991898       -26.9909
  44   2.0000      -0.988391       -26.8955
  45   2.0000      -0.946344       -25.7513
  46   2.0000      -0.945382       -25.7252
  47   2.0000      -0.764878       -20.8134
  48   2.0000      -0.723110       -19.6768
  49   2.0000      -0.711736       -19.3673
  50   2.0000      -0.686919       -18.6920
  51   2.0000      -0.682869       -18.5818
  52   2.0000      -0.679922       -18.5016
  53   2.0000      -0.659278       -17.9399
  54   2.0000      -0.643493       -17.5103
  55   2.0000      -0.603869       -16.4321
  56   2.0000      -0.595520       -16.2049
  57   2.0000      -0.574655       -15.6372
  58   2.0000      -0.568510       -15.4700
  59   2.0000      -0.566721       -15.4213
  60   2.0000      -0.502738       -13.6802
  61   2.0000      -0.492265       -13.3952
  62   2.0000      -0.472725       -12.8635
  63   2.0000      -0.463458       -12.6113
  64   2.0000      -0.456823       -12.4308
  65   2.0000      -0.450478       -12.2581
  66   2.0000      -0.441467       -12.0129
  67   2.0000      -0.436109       -11.8671
  68   2.0000      -0.426701       -11.6111
  69   2.0000      -0.422781       -11.5044
  70   2.0000      -0.418238       -11.3808
  71   2.0000      -0.404134       -10.9971
  72   2.0000      -0.401326       -10.9206
  73   2.0000      -0.394251       -10.7281
  74   2.0000      -0.388717       -10.5775
  75   2.0000      -0.376279       -10.2391
  76   2.0000      -0.365688        -9.9509
  77   2.0000      -0.358726        -9.7614
  78   2.0000      -0.352772        -9.5994
  79   2.0000      -0.349382        -9.5072
  80   2.0000      -0.348559        -9.4848
  81   2.0000      -0.343762        -9.3542
  82   2.0000      -0.340789        -9.2733
  83   2.0000      -0.335533        -9.1303
  84   2.0000      -0.332516        -9.0482
  85   2.0000      -0.320617        -8.7244
  86   2.0000      -0.316194        -8.6041
  87   2.0000      -0.303061        -8.2467
  88   2.0000      -0.299246        -8.1429
  89   2.0000      -0.294773        -8.0212
  90   2.0000      -0.283527        -7.7151
  91   2.0000      -0.274268        -7.4632
  92   2.0000      -0.271351        -7.3838
  93   2.0000      -0.267082        -7.2677
  94   2.0000      -0.258433        -7.0323
  95   2.0000      -0.238683        -6.4949
  96   2.0000      -0.224572        -6.1109
  97   2.0000      -0.216223        -5.8837
  98   2.0000      -0.212633        -5.7860
  99   2.0000      -0.206039        -5.6066
 100   2.0000      -0.200697        -5.4612
 101   0.0000      -0.047469        -1.2917
 102   0.0000      -0.035992        -0.9794
 103   0.0000      -0.030848        -0.8394
 104   0.0000      -0.006630        -0.1804
 105   0.0000       0.004741         0.1290

MULLIKEN ATOMIC CHARGES
-----------------------
   0 C :   -0.323977
   1 C :    0.001264
   2 O :   -0.357701
   3 P :    0.618759
   4 S :   -0.333257
   5 O :   -0.357505
   6 C :   -0.041592
   7 C :   -0.308082
   8 S :   -0.107268
   9 C :   -0.365269
  10 S :   -0.097198
  11 P :    0.599100
  12 S :   -0.308601
  13 O :   -0.368966
  14 C :   -0.008594
  15 C :   -0.330137
  16 O :   -0.361403
  17 C :    0.000219
  18 C :   -0.312620
  19 H :    0.120029
  20 H :    0.114811
  21 H :    0.122651
  22 H :    0.113360
  23 H :    0.108774
  24 H :    0.148218
  25 H :    0.101859
  26 H :    0.109452
  27 H :    0.112465
  28 H :    0.134876
  29 H :    0.186479
  30 H :    0.214960
  31 H :    0.115438
  32 H :    0.113182
  33 H :    0.134326
  34 H :    0.123717
  35 H :    0.110911
  36 H :    0.107433
  37 H :    0.105509
  38 H :    0.123248
  39 H :    0.112140
  40 H :    0.128990
Sum of atomic charges:    0.0000000

LOEWDIN ATOMIC CHARGES
----------------------
   0 C :   -0.369054
   1 C :   -0.117601
   2 O :   -0.235928
   3 P :    0.575412
   4 S :   -0.293485
   5 O :   -0.229971
   6 C :   -0.122596
   7 C :   -0.361982
   8 S :    0.083175
   9 C :   -0.481539
  10 S :    0.079253
  11 P :    0.570239
  12 S :   -0.306480
  13 O :   -0.235095
  14 C :   -0.127016
  15 C :   -0.370369
  16 O :   -0.236727
  17 C :   -0.119379
  18 C :   -0.370648
  19 H :    0.118144
  20 H :    0.131624
  21 H :    0.126477
  22 H :    0.110439
  23 H :    0.120909
  24 H :    0.113923
  25 H :    0.117460
  26 H :    0.129831
  27 H :    0.124920
  28 H :    0.122112
  29 H :    0.135969
  30 H :    0.121672
  31 H :    0.108644
  32 H :    0.116574
  33 H :    0.120564
  34 H :    0.120357
  35 H :    0.131845
  36 H :    0.098958
  37 H :    0.120341
  38 H :    0.119045
  39 H :    0.130512
  40 H :    0.129475

  Mayer bond orders larger than 0.100000
B(  0-C ,  1-C ) :   1.1607 B(  0-C , 19-H ) :   0.9372 B(  0-C , 20-H ) :   0.9379
B(  0-C , 21-H ) :   0.9432 B(  1-C ,  2-O ) :   0.9207 B(  1-C , 22-H ) :   0.9168
B(  1-C , 23-H ) :   0.9340 B(  2-O ,  3-P ) :   1.1204 B(  3-P ,  4-S ) :   1.5783
B(  3-P ,  5-O ) :   1.1500 B(  3-P ,  8-S ) :   0.9505 B(  4-S ,  8-S ) :   0.1248
B(  5-O ,  6-C ) :   0.8977 B(  6-C ,  7-C ) :   1.1679 B(  6-C , 24-H ) :   0.8942
B(  6-C , 25-H ) :   0.9347 B(  7-C , 26-H ) :   0.9406 B(  7-C , 27-H ) :   0.9465
B(  7-C , 28-H ) :   0.9317 B(  8-S ,  9-C ) :   1.0030 B(  9-C , 10-S ) :   0.9936
B(  9-C , 29-H ) :   0.9021 B(  9-C , 30-H ) :   0.8430 B( 10-S , 11-P ) :   0.9477
B( 11-P , 12-S ) :   1.6556 B( 11-P , 13-O ) :   1.0913 B( 11-P , 16-O ) :   1.0859
B( 13-O , 14-C ) :   0.8979 B( 14-C , 15-C ) :   1.1677 B( 14-C , 31-H ) :   0.9116
B( 14-C , 32-H ) :   0.9188 B( 15-C , 33-H ) :   0.9317 B( 15-C , 34-H ) :   0.9347
B( 15-C , 35-H ) :   0.9382 B( 16-O , 17-C ) :   0.9121 B( 17-C , 18-C ) :   1.1665
B( 17-C , 36-H ) :   0.9130 B( 17-C , 37-H ) :   0.9340 B( 18-C , 38-H ) :   0.9343
B( 18-C , 39-H ) :   0.9346 B( 18-C , 40-H ) :   0.9407

Dispersion correction           -0.069063714
FINAL SINGLE POINT ENERGY     -2929.520436256720

DIPOLE MOMENT
-------------

Method             : SCF
Type of density    : Electron Density
Multiplicity       :   1
Irrep              :   0
Energy             : -2929.6396303722463017 Eh
Relativity type    :
Basis              : AO
                                X                 Y                 Z
Electronic contribution:     -4.577294241      -1.728434043      -2.913692049
Nuclear contribution   :      5.582410522       1.143542894       2.657737935
                        -----------------------------------------
Total Dipole Moment    :      1.005116281      -0.584891149      -0.255954114
                        -----------------------------------------
Magnitude (a.u.)       :      1.190743005
Magnitude (Debye)      :      3.026628188

Rotational constants in cm-1:             0.011876             0.005605             0.005402
Rotational constants in MHz :           356.018767           168.041007           161.959375

                             ****ORCA TERMINATED NORMALLY****
TOTAL RUN TIME: 0 days 0 hours 0 minutes 22 seconds 376 msec
