                         Program Version 6.0.1  -  RELEASE   -
|  1> ! pbe def2-sv(p) def2/J RI DEFGRID1 loosescf d4 GCP(DFT/SV(P)) printgap
|  2> %output
|  3>     printlevel normal
|  4> end
|  5> * xyz 0 1
|  6> C 5.3506896606 -2.2194705727 -0.8096832747
|  7> C 4.6631020323 -1.0596429719 -0.1070671293
|  8> O 3.2359116046 -1.2542438676 -0.0577466868
|  9> C 2.5204888651 -0.8877649426 -1.0993227572
| 10> O 2.9672676305 -0.3756418938 -2.1016885838
| 11> C 1.0460608125 -1.192424736 -0.8954284582
| 12> C 0.2188079051 -0.003422504 -1.3733624362
| 13> H 0.5563102569 0.2804593832 -2.376894581
| 14> C 0.3640312602 1.2039573284 -0.4662623445
| 15> O -0.5903216487 1.8785012906 -0.1300904974
| 16> O 1.6042233573 1.4185867417 -0.131489849
| 17> C 1.9125454338 2.4820879278 0.7990199858
| 18> C 2.1893059016 1.8925420852 2.1714048041
| 19> S -1.5539183501 -0.3777404457 -1.5448996813
| 20> P -2.1976871934 -0.1125888356 0.4456868836
| 21> S -1.0273929158 -0.3293127985 1.997161772
| 22> O -3.1117145742 1.1869590381 0.600907612
| 23> C -3.9433773531 1.6593765251 -0.4715823722
| 24> O -3.2682108576 -1.3187434923 0.3170939967
| 25> C -4.0571304107 -1.702104428 1.4469453791
| 26> H 5.042366022 -2.2609047502 -1.8517346647
| 27> H 6.4255947198 -2.0786932025 -0.7656760735
| 28> H 5.091597134 -3.1567839403 -0.3251061094
| 29> H 4.8664501215 -0.1179523129 -0.6245632944
| 30> H 4.9646418038 -0.9953442828 0.9385127942
| 31> H 0.8630838686 -1.4169957486 0.1564738891
| 32> H 0.7905209732 -2.065159077 -1.4996188714
| 33> H 2.7964417545 2.9692898256 0.3853302775
| 34> H 1.0693496792 3.1766773824 0.8270948129
| 35> H 3.0018299326 1.1740166662 2.1132460115
| 36> H 2.4592656224 2.6895630814 2.8558058564
| 37> H 1.3036481416 1.3840776175 2.5484149219
| 38> H -4.702372725 2.2785939125 0.0001439393
| 39> H -4.3979347031 0.8223676684 -1.0032943613
| 40> H -3.3367186121 2.2521731964 -1.1554197158
| 41> H -3.4071523485 -1.983622796 2.277324444
| 42> H -4.6442603385 -2.5547839185 1.1161542155
| 43> H -4.7072511257 -0.8829854947 1.7574776066
| 44> *
| 45>
| 46>                          ****END OF INPUT****

CARTESIAN COORDINATES (ANGSTROEM)
---------------------------------
  C      5.350690   -2.219471   -0.809683
  C      4.663102   -1.059643   -0.107067
  O      3.235912   -1.254244   -0.057747
  C      2.520489   -0.887765   -1.099323
  O      2.967268   -0.375642   -2.101689
  C      1.046061   -1.192425   -0.895428
  C      0.218808   -0.003423   -1.373362
  H      0.556310    0.280459   -2.376895
  C      0.364031    1.203957   -0.466262
  O     -0.590322    1.878501   -0.130090
  O      1.604223    1.418587   -0.131490
  C      1.912545    2.482088    0.799020
  C      2.189306    1.892542    2.171405
  S     -1.553918   -0.377740   -1.544900
  P     -2.197687   -0.112589    0.445687
  S     -1.027393   -0.329313    1.997162
  O     -3.111715    1.186959    0.600908
  C     -3.943377    1.659377   -0.471582
  O     -3.268211   -1.318743    0.317094
  C     -4.057130   -1.702104    1.446945
  H      5.042366   -2.260905   -1.851735
  H      6.425595   -2.078693   -0.765676
  H      5.091597   -3.156784   -0.325106
  H      4.866450   -0.117952   -0.624563
  H      4.964642   -0.995344    0.938513
  H      0.863084   -1.416996    0.156474
  H      0.790521   -2.065159   -1.499619
  H      2.796442    2.969290    0.385330
  H      1.069350    3.176677    0.827095
  H      3.001830    1.174017    2.113246
  H      2.459266    2.689563    2.855806
  H      1.303648    1.384078    2.548415
  H     -4.702373    2.278594    0.000144
  H     -4.397935    0.822368   -1.003294
  H     -3.336719    2.252173   -1.155420
  H     -3.407152   -1.983623    2.277324
  H     -4.644260   -2.554784    1.116154
  H     -4.707251   -0.882985    1.757478

 Total Charge           Charge          ....    0
 Multiplicity           Mult            ....    1
 Number of Electrons    NEL             ....  174
 Basis Dimension        Dim             ....  316

ORBITAL ENERGIES
----------------

  NO   OCC          E(Eh)            E(eV)
   0   2.0000     -88.038283     -2395.6435
   1   2.0000     -87.978398     -2394.0139
   2   2.0000     -76.420318     -2079.5026
   3   2.0000     -18.817526      -512.0509
   4   2.0000     -18.801612      -511.6179
   5   2.0000     -18.783696      -511.1303
   6   2.0000     -18.779978      -511.0292
   7   2.0000     -18.747911      -510.1566
   8   2.0000     -18.738620      -509.9038
   9   2.0000     -10.023822      -272.7621
  10   2.0000     -10.008976      -272.3581
  11   2.0000      -9.952063      -270.8094
  12   2.0000      -9.949243      -270.7327
  13   2.0000      -9.948707      -270.7181
  14   2.0000      -9.943121      -270.5661
  15   2.0000      -9.937282      -270.4072
  16   2.0000      -9.904019      -269.5021
  17   2.0000      -9.888078      -269.0683
  18   2.0000      -9.883968      -268.9565
  19   2.0000      -7.683493      -209.0785
  20   2.0000      -7.623609      -207.4490
  21   2.0000      -6.417196      -174.6208
  22   2.0000      -5.711640      -155.4216
  23   2.0000      -5.708177      -155.3274
  24   2.0000      -5.699945      -155.1034
  25   2.0000      -5.652754      -153.8193
  26   2.0000      -5.644473      -153.5939
  27   2.0000      -5.643164      -153.5583
  28   2.0000      -4.640074      -126.2628
  29   2.0000      -4.639041      -126.2347
  30   2.0000      -4.637585      -126.1951
  31   2.0000      -1.026421       -27.9303
  32   2.0000      -1.009944       -27.4820
  33   2.0000      -0.974103       -26.5067
  34   2.0000      -0.932213       -25.3668
  35   2.0000      -0.928136       -25.2559
  36   2.0000      -0.915577       -24.9141
  37   2.0000      -0.765130       -20.8202
  38   2.0000      -0.712444       -19.3866
  39   2.0000      -0.709992       -19.3199
  40   2.0000      -0.689082       -18.7509
  41   2.0000      -0.657033       -17.8788
  42   2.0000      -0.633059       -17.2264
  43   2.0000      -0.617541       -16.8041
  44   2.0000      -0.614856       -16.7311
  45   2.0000      -0.595128       -16.1942
  46   2.0000      -0.563422       -15.3315
  47   2.0000      -0.512767       -13.9531
  48   2.0000      -0.503882       -13.7113
  49   2.0000      -0.500381       -13.6160
  50   2.0000      -0.478864       -13.0306
  51   2.0000      -0.468303       -12.7432
  52   2.0000      -0.464560       -12.6413
  53   2.0000      -0.443769       -12.0756
  54   2.0000      -0.438636       -11.9359
  55   2.0000      -0.431924       -11.7532
  56   2.0000      -0.424475       -11.5506
  57   2.0000      -0.418915       -11.3992
  58   2.0000      -0.408136       -11.1059
  59   2.0000      -0.405499       -11.0342
  60   2.0000      -0.399906       -10.8820
  61   2.0000      -0.394968       -10.7476
  62   2.0000      -0.393859       -10.7175
  63   2.0000      -0.379676       -10.3315
  64   2.0000      -0.378386       -10.2964
  65   2.0000      -0.364527        -9.9193
  66   2.0000      -0.360152        -9.8002
  67   2.0000      -0.352751        -9.5988
  68   2.0000      -0.347971        -9.4688
  69   2.0000      -0.338112        -9.2005
  70   2.0000      -0.334893        -9.1129
  71   2.0000      -0.327447        -8.9103
  72   2.0000      -0.321264        -8.7420
  73   2.0000      -0.317842        -8.6489
  74   2.0000      -0.310164        -8.4400
  75   2.0000      -0.296980        -8.0812
  76   2.0000      -0.293762        -7.9937
  77   2.0000      -0.277652        -7.5553
  78   2.0000      -0.271806        -7.3962
  79   2.0000      -0.265757        -7.2316
  80   2.0000      -0.259606        -7.0642
  81   2.0000      -0.255437        -6.9508
  82   2.0000      -0.238440        -6.4883
  83   2.0000      -0.228203        -6.2097
  84   2.0000      -0.212885        -5.7929
  85   2.0000      -0.199113        -5.4182
  86   2.0000      -0.191440        -5.2094
  87   0.0000      -0.046052        -1.2532
  88   0.0000      -0.033347        -0.9074
  89   0.0000      -0.015911        -0.4330
  90   0.0000       0.006664         0.1813
  91   0.0000       0.029908         0.8138

MULLIKEN ATOMIC CHARGES
-----------------------
   0 C :   -0.302890
   1 C :   -0.017879
   2 O :   -0.223487
   3 C :    0.115593
   4 O :   -0.214590
   5 C :   -0.055125
   6 C :   -0.318443
   7 H :    0.166491
   8 C :    0.194010
   9 O :   -0.190503
  10 O :   -0.214358
  11 C :   -0.016862
  12 C :   -0.308807
  13 S :   -0.056881
  14 P :    0.622278
  15 S :   -0.328499
  16 O :   -0.370983
  17 C :   -0.105787
  18 O :   -0.395936
  19 C :   -0.104188
  20 H :    0.128007
  21 H :    0.112615
  22 H :    0.115857
  23 H :    0.106877
  24 H :    0.105424
  25 H :    0.119930
  26 H :    0.122703
  27 H :    0.108790
  28 H :    0.119805
  29 H :    0.114124
  30 H :    0.110830
  31 H :    0.143026
  32 H :    0.126448
  33 H :    0.113154
  34 H :    0.128627
  35 H :    0.120472
  36 H :    0.122625
  37 H :    0.107534
Sum of atomic charges:   -0.0000000

LOEWDIN ATOMIC CHARGES
----------------------
   0 C :   -0.356153
   1 C :   -0.111509
   2 O :   -0.052246
   3 C :    0.026366
   4 O :   -0.176040
   5 C :   -0.255201
   6 C :   -0.266165
   7 H :    0.157130
   8 C :    0.015038
   9 O :   -0.165008
  10 O :   -0.026373
  11 C :   -0.104725
  12 C :   -0.357284
  13 S :    0.126429
  14 P :    0.589103
  15 S :   -0.310188
  16 O :   -0.246246
  17 C :   -0.212544
  18 O :   -0.277389
  19 C :   -0.217453
  20 H :    0.130858
  21 H :    0.130681
  22 H :    0.125800
  23 H :    0.119276
  24 H :    0.117340
  25 H :    0.132876
  26 H :    0.146904
  27 H :    0.119900
  28 H :    0.125378
  29 H :    0.123603
  30 H :    0.130188
  31 H :    0.130045
  32 H :    0.123076
  33 H :    0.106941
  34 H :    0.117956
  35 H :    0.111364
  36 H :    0.120386
  37 H :    0.107885

  Mayer bond orders larger than 0.100000
B(  0-C ,  1-C ) :   1.1750 B(  0-C , 20-H ) :   0.9454 B(  0-C , 21-H ) :   0.9442
B(  0-C , 22-H ) :   0.9485 B(  1-C ,  2-O ) :   0.9164 B(  1-C , 23-H ) :   0.9147
B(  1-C , 24-H ) :   0.9348 B(  2-O ,  3-C ) :   1.2427 B(  3-C ,  4-O ) :   2.0235
B(  3-C ,  5-C ) :   0.9956 B(  5-C ,  6-C ) :   1.0219 B(  5-C , 25-H ) :   0.8863
B(  5-C , 26-H ) :   0.8821 B(  6-C ,  7-H ) :   0.8507 B(  6-C ,  8-C ) :   0.8997
B(  6-C , 13-S ) :   1.0374 B(  8-C ,  9-O ) :   1.9907 B(  8-C , 10-O ) :   1.2789
B( 10-O , 11-C ) :   0.8892 B( 11-C , 12-C ) :   1.1802 B( 11-C , 27-H ) :   0.9359
B( 11-C , 28-H ) :   0.9074 B( 12-C , 29-H ) :   0.9470 B( 12-C , 30-H ) :   0.9411
B( 12-C , 31-H ) :   0.9306 B( 13-S , 14-P ) :   0.9515 B( 13-S , 15-S ) :   0.1076
B( 14-P , 15-S ) :   1.6018 B( 14-P , 16-O ) :   1.0983 B( 14-P , 18-O ) :   1.0515
B( 16-O , 17-C ) :   0.9262 B( 17-C , 32-H ) :   0.9576 B( 17-C , 33-H ) :   0.9411
B( 17-C , 34-H ) :   0.9476 B( 18-O , 19-C ) :   0.9401 B( 19-C , 35-H ) :   0.9390
B( 19-C , 36-H ) :   0.9593 B( 19-C , 37-H ) :   0.9480

Dispersion correction           -0.052517462
FINAL SINGLE POINT ENERGY     -1979.015183933837

DIPOLE MOMENT
-------------

Method             : SCF
Type of density    : Electron Density
Multiplicity       :   1
Irrep              :   0
Energy             : -1979.1457482728815194 Eh
Relativity type    :
Basis              : AO
                                X                 Y                 Z
Electronic contribution:    -14.983909312       0.470017587      -4.563990575
Nuclear contribution   :     15.218391041      -0.312150834       4.607847868
                        -----------------------------------------
Total Dipole Moment    :      0.234481728       0.157866753       0.043857293
                        -----------------------------------------
Magnitude (a.u.)       :      0.286054286
Magnitude (Debye)      :      0.727092213

Rotational constants in cm-1:             0.017076             0.005886             0.005556
Rotational constants in MHz :           511.933217           176.464925           166.571584

                             ****ORCA TERMINATED NORMALLY****
TOTAL RUN TIME: 0 days 0 hours 0 minutes 40 seconds 892 msec
