                         Program Version 6.0.0  -   RELEASE  -
|  1> ! r2scan-3c def2/J RI DEFGRID2 scfconv6 printgap
|  2> %output
|  3>     printlevel normal
|  4> end
|  5> * xyz 0 1
|  6> C 4.0387359649 -2.0040493039 -2.0034940762
|  7> C 4.6305387368 -1.4899595931 -0.706978861
|  8> O 3.6204311449 -1.1612685202 0.26301569
|  9> P 2.6116996325 0.0497790845 0.0697578487
| 10> S 3.3899138787 1.6510108462 -0.7418734762
| 11> O 2.1235063617 0.3421842299 1.5385646593
| 12> C 1.2469760757 -0.4588947903 2.366348249
| 13> C 1.6512195018 -1.9160215353 2.4244983552
| 14> S 0.953393876 -0.8013251854 -0.9759725049
| 15> C 0.2558470627 0.7637592251 -1.5448131514
| 16> S -0.4884203715 1.7286075676 -0.1965959269
| 17> P -2.2910349201 0.6170204065 -0.0895834483
| 18> S -3.147025569 0.165182182 -1.7939555685
| 19> O -3.0386269493 1.6295738785 0.8653410223
| 20> C -4.4769762964 1.7283572127 0.9340760006
| 21> C -5.0694725683 0.6389618187 1.8037533322
| 22> O -1.9750924022 -0.6288374871 0.8519945649
| 23> C -1.9392884847 -2.0026462937 0.4117374394
| 24> C -3.2527483858 -2.6955111064 0.7136257771
| 25> H 3.3433856366 -2.816338571 -1.8085075536
| 26> H 3.5093299017 -1.2021180001 -2.5155828853
| 27> H 4.8385737363 -2.359860723 -2.6449300992
| 28> H 5.2381598307 -0.5980945248 -0.8891198229
| 29> H 5.2300359817 -2.2523492257 -0.2076934731
| 30> H 1.3243760919 0.0208722076 3.3434552306
| 31> H 0.2268173711 -0.3431534182 1.9893118871
| 32> H 1.5647812644 -2.3730403957 1.4402206926
| 33> H 2.6805194438 -2.0059628967 2.7615883716
| 34> H 0.999175409 -2.4359108837 3.1201292849
| 35> H -0.5037717712 0.5323818255 -2.2922202646
| 36> H 1.0530107465 1.3780810641 -1.9648314281
| 37> H -4.6537038628 2.7201089794 1.3534184145
| 38> H -4.879192928 1.6805670956 -0.0833515752
| 39> H -4.5921239385 0.6405246839 2.7799228279
| 40> H -6.1339495682 0.8158416357 1.9225336786
| 41> H -4.9208016854 -0.3325255979 1.3381714376
| 42> H -1.7237850236 -2.0358132818 -0.6596395974
| 43> H -1.11332037 -2.4540754648 0.9627737015
| 44> H -3.1573261107 -3.7498417888 0.4750372973
| 45> H -3.5045239617 -2.5863649839 1.7648326595
| 46> H -4.0480160201 -2.2704951979 0.1045196728
| 47> *
| 48>
| 49>                          ****END OF INPUT****

CARTESIAN COORDINATES (ANGSTROEM)
---------------------------------
  C      4.038736   -2.004049   -2.003494
  C      4.630539   -1.489960   -0.706979
  O      3.620431   -1.161269    0.263016
  P      2.611700    0.049779    0.069758
  S      3.389914    1.651011   -0.741873
  O      2.123506    0.342184    1.538565
  C      1.246976   -0.458895    2.366348
  C      1.651220   -1.916022    2.424498
  S      0.953394   -0.801325   -0.975973
  C      0.255847    0.763759   -1.544813
  S     -0.488420    1.728608   -0.196596
  P     -2.291035    0.617020   -0.089583
  S     -3.147026    0.165182   -1.793956
  O     -3.038627    1.629574    0.865341
  C     -4.476976    1.728357    0.934076
  C     -5.069473    0.638962    1.803753
  O     -1.975092   -0.628837    0.851995
  C     -1.939288   -2.002646    0.411737
  C     -3.252748   -2.695511    0.713626
  H      3.343386   -2.816339   -1.808508
  H      3.509330   -1.202118   -2.515583
  H      4.838574   -2.359861   -2.644930
  H      5.238160   -0.598095   -0.889120
  H      5.230036   -2.252349   -0.207693
  H      1.324376    0.020872    3.343455
  H      0.226817   -0.343153    1.989312
  H      1.564781   -2.373040    1.440221
  H      2.680519   -2.005963    2.761588
  H      0.999175   -2.435911    3.120129
  H     -0.503772    0.532382   -2.292220
  H      1.053011    1.378081   -1.964831
  H     -4.653704    2.720109    1.353418
  H     -4.879193    1.680567   -0.083352
  H     -4.592124    0.640525    2.779923
  H     -6.133950    0.815842    1.922534
  H     -4.920802   -0.332526    1.338171
  H     -1.723785   -2.035813   -0.659640
  H     -1.113320   -2.454075    0.962774
  H     -3.157326   -3.749842    0.475037
  H     -3.504524   -2.586365    1.764833
  H     -4.048016   -2.270495    0.104520

 Total Charge           Charge          ....    0
 Multiplicity           Mult            ....    1
 Number of Electrons    NEL             ....  202
 Basis Dimension        Dim             ....  539

ORBITAL ENERGIES
----------------

  NO   OCC          E(Eh)            E(eV)
   0   2.0000     -88.576150     -2410.2796
   1   2.0000     -88.572886     -2410.1908
   2   2.0000     -88.527379     -2408.9525
   3   2.0000     -88.518381     -2408.7076
   4   2.0000     -76.918095     -2093.0478
   5   2.0000     -76.915210     -2092.9693
   6   2.0000     -18.996812      -516.9295
   7   2.0000     -18.996092      -516.9099
   8   2.0000     -18.994795      -516.8747
   9   2.0000     -18.989091      -516.7194
  10   2.0000     -10.104356      -274.9535
  11   2.0000     -10.103813      -274.9387
  12   2.0000     -10.102813      -274.9115
  13   2.0000     -10.100329      -274.8439
  14   2.0000     -10.100100      -274.8377
  15   2.0000     -10.036366      -273.1034
  16   2.0000     -10.035570      -273.0817
  17   2.0000     -10.035093      -273.0688
  18   2.0000     -10.029919      -272.9280
  19   2.0000      -7.870781      -214.1748
  20   2.0000      -7.866826      -214.0672
  21   2.0000      -7.822181      -212.8524
  22   2.0000      -7.813183      -212.6075
  23   2.0000      -6.596561      -179.5016
  24   2.0000      -6.593463      -179.4173
  25   2.0000      -5.817508      -158.3024
  26   2.0000      -5.814613      -158.2237
  27   2.0000      -5.813755      -158.2003
  28   2.0000      -5.810868      -158.1217
  29   2.0000      -5.808034      -158.0446
  30   2.0000      -5.803772      -157.9287
  31   2.0000      -5.769732      -157.0024
  32   2.0000      -5.762783      -156.8133
  33   2.0000      -5.761950      -156.7906
  34   2.0000      -5.760872      -156.7613
  35   2.0000      -5.753435      -156.5589
  36   2.0000      -5.753161      -156.5515
  37   2.0000      -4.741957      -129.0352
  38   2.0000      -4.741321      -129.0179
  39   2.0000      -4.740528      -128.9963
  40   2.0000      -4.739181      -128.9597
  41   2.0000      -4.738498      -128.9411
  42   2.0000      -4.736931      -128.8985
  43   2.0000      -1.053406       -28.6646
  44   2.0000      -1.050476       -28.5849
  45   2.0000      -1.016126       -27.6502
  46   2.0000      -1.010981       -27.5102
  47   2.0000      -0.801655       -21.8141
  48   2.0000      -0.763401       -20.7732
  49   2.0000      -0.753320       -20.4989
  50   2.0000      -0.737961       -20.0809
  51   2.0000      -0.736246       -20.0343
  52   2.0000      -0.713522       -19.4159
  53   2.0000      -0.689326       -18.7575
  54   2.0000      -0.669690       -18.2232
  55   2.0000      -0.638208       -17.3665
  56   2.0000      -0.629334       -17.1250
  57   2.0000      -0.611005       -16.6263
  58   2.0000      -0.609261       -16.5788
  59   2.0000      -0.591315       -16.0905
  60   2.0000      -0.530789       -14.4435
  61   2.0000      -0.516535       -14.0556
  62   2.0000      -0.503301       -13.6955
  63   2.0000      -0.491385       -13.3713
  64   2.0000      -0.478366       -13.0170
  65   2.0000      -0.466219       -12.6865
  66   2.0000      -0.462691       -12.5905
  67   2.0000      -0.457856       -12.4589
  68   2.0000      -0.452862       -12.3230
  69   2.0000      -0.435948       -11.8628
  70   2.0000      -0.425872       -11.5886
  71   2.0000      -0.417587       -11.3631
  72   2.0000      -0.415748       -11.3131
  73   2.0000      -0.403995       -10.9933
  74   2.0000      -0.396828       -10.7982
  75   2.0000      -0.392988       -10.6937
  76   2.0000      -0.386435       -10.5154
  77   2.0000      -0.382906       -10.4194
  78   2.0000      -0.379721       -10.3327
  79   2.0000      -0.370920       -10.0932
  80   2.0000      -0.369097       -10.0436
  81   2.0000      -0.362380        -9.8609
  82   2.0000      -0.359665        -9.7870
  83   2.0000      -0.357346        -9.7239
  84   2.0000      -0.351442        -9.5632
  85   2.0000      -0.339761        -9.2454
  86   2.0000      -0.324446        -8.8286
  87   2.0000      -0.314937        -8.5699
  88   2.0000      -0.310563        -8.4508
  89   2.0000      -0.308066        -8.3829
  90   2.0000      -0.304789        -8.2937
  91   2.0000      -0.296609        -8.0711
  92   2.0000      -0.284461        -7.7406
  93   2.0000      -0.282548        -7.6885
  94   2.0000      -0.277159        -7.5419
  95   2.0000      -0.247937        -6.7467
  96   2.0000      -0.232467        -6.3258
  97   2.0000      -0.231579        -6.3016
  98   2.0000      -0.218957        -5.9581
  99   2.0000      -0.215484        -5.8636
 100   2.0000      -0.212381        -5.7792
 101   0.0000      -0.049879        -1.3573
 102   0.0000      -0.027555        -0.7498
 103   0.0000      -0.004241        -0.1154
 104   0.0000       0.004976         0.1354
 105   0.0000       0.012306         0.3349

MULLIKEN ATOMIC CHARGES
-----------------------
   0 C :   -0.444690
   1 C :   -0.168384
   2 O :   -0.267701
   3 P :    0.649640
   4 S :   -0.453993
   5 O :   -0.253806
   6 C :   -0.153673
   7 C :   -0.455911
   8 S :   -0.170776
   9 C :   -0.251662
  10 S :   -0.100430
  11 P :    0.660831
  12 S :   -0.479648
  13 O :   -0.315216
  14 C :   -0.158539
  15 C :   -0.429500
  16 O :   -0.268802
  17 C :   -0.079920
  18 C :   -0.510724
  19 H :    0.151600
  20 H :    0.178904
  21 H :    0.148163
  22 H :    0.176402
  23 H :    0.148355
  24 H :    0.153086
  25 H :    0.187562
  26 H :    0.158377
  27 H :    0.162301
  28 H :    0.152144
  29 H :    0.213405
  30 H :    0.222968
  31 H :    0.153416
  32 H :    0.174990
  33 H :    0.158059
  34 H :    0.149392
  35 H :    0.155859
  36 H :    0.168172
  37 H :    0.155711
  38 H :    0.148435
  39 H :    0.159622
  40 H :    0.175984
Sum of atomic charges:    0.0000000

LOEWDIN ATOMIC CHARGES
----------------------
   0 C :   -0.408233
   1 C :    0.021846
   2 O :   -0.670326
   3 P :    0.385595
   4 S :   -0.104570
   5 O :   -0.651052
   6 C :    0.022983
   7 C :   -0.406015
   8 S :    0.133279
   9 C :   -0.424164
  10 S :    0.185253
  11 P :    0.382887
  12 S :   -0.130003
  13 O :   -0.665138
  14 C :    0.026810
  15 C :   -0.395688
  16 O :   -0.682392
  17 C :    0.001975
  18 C :   -0.402922
  19 H :    0.158701
  20 H :    0.166240
  21 H :    0.159534
  22 H :    0.181483
  23 H :    0.179284
  24 H :    0.183540
  25 H :    0.191213
  26 H :    0.161413
  27 H :    0.165300
  28 H :    0.159791
  29 H :    0.191438
  30 H :    0.194590
  31 H :    0.181025
  32 H :    0.181099
  33 H :    0.161695
  34 H :    0.160717
  35 H :    0.161111
  36 H :    0.180431
  37 H :    0.178436
  38 H :    0.160732
  39 H :    0.158758
  40 H :    0.163344

  Mayer bond orders larger than 0.100000
B(  0-C ,  1-C ) :   0.9135 B(  0-C , 19-H ) :   0.9691 B(  0-C , 20-H ) :   0.9639
B(  0-C , 21-H ) :   0.9568 B(  1-C ,  2-O ) :   0.8089 B(  1-C , 22-H ) :   0.9674
B(  1-C , 23-H ) :   0.9615 B(  2-O ,  3-P ) :   1.0424 B(  3-P ,  4-S ) :   1.8157
B(  3-P ,  5-O ) :   1.1843 B(  3-P ,  8-S ) :   0.9885 B(  5-O ,  6-C ) :   0.8132
B(  6-C ,  7-C ) :   0.8977 B(  6-C , 24-H ) :   0.9603 B(  6-C , 25-H ) :   0.9554
B(  7-C , 26-H ) :   0.9672 B(  7-C , 27-H ) :   0.9634 B(  7-C , 28-H ) :   0.9605
B(  8-S ,  9-C ) :   0.9043 B(  9-C , 10-S ) :   0.9138 B(  9-C , 29-H ) :   0.9040
B(  9-C , 30-H ) :   0.9017 B( 10-S , 11-P ) :   1.0927 B( 11-P , 12-S ) :   1.7542
B( 11-P , 13-O ) :   1.1813 B( 11-P , 16-O ) :   1.0496 B( 13-O , 14-C ) :   0.7861
B( 14-C , 15-C ) :   0.9369 B( 14-C , 31-H ) :   0.9621 B( 14-C , 32-H ) :   0.9644
B( 15-C , 33-H ) :   0.9715 B( 15-C , 34-H ) :   0.9636 B( 15-C , 35-H ) :   0.9596
B( 16-O , 17-C ) :   0.7474 B( 17-C , 18-C ) :   0.9268 B( 17-C , 36-H ) :   0.9553
B( 17-C , 37-H ) :   0.9575 B( 18-C , 38-H ) :   0.9607 B( 18-C , 39-H ) :   0.9773
B( 18-C , 40-H ) :   0.9692

Dispersion correction           -0.021916132
FINAL SINGLE POINT ENERGY     -2932.461378263335

DIPOLE MOMENT
-------------

Method             : SCF
Type of density    : Electron Density
Multiplicity       :   1
Irrep              :   0
Energy             : -2932.4860167309921053 Eh
Relativity type    :
Basis              : AO
                                X                 Y                 Z
Electronic contribution:      8.269795234      19.577831262      -8.811548857
Nuclear contribution   :     -8.948340120     -21.338157216       9.831001869
                        -----------------------------------------
Total Dipole Moment    :     -0.678544886      -1.760325954       1.019453011
                        -----------------------------------------
Magnitude (a.u.)       :      2.144400865
Magnitude (Debye)      :      5.450633830

Rotational constants in cm-1:             0.014024             0.004590             0.004383
Rotational constants in MHz :           420.431825           137.607029           131.396673

                             ****ORCA TERMINATED NORMALLY****
TOTAL RUN TIME: 0 days 0 hours 1 minutes 20 seconds 438 msec
