                         Program Version 6.0.0  -   RELEASE  -
|  1> ! r2scan-3c def2/J RI DEFGRID2 scfconv6 printgap
|  2> %output
|  3>     printlevel normal
|  4> end
|  5> %cpcm
|  6>     smd true
|  7>     smdsolvent "water"
|  8> end
|  9> * xyz 0 1
| 10> C 4.0387359649 -2.0040493039 -2.0034940762
| 11> C 4.6305387368 -1.4899595931 -0.706978861
| 12> O 3.6204311449 -1.1612685202 0.26301569
| 13> P 2.6116996325 0.0497790845 0.0697578487
| 14> S 3.3899138787 1.6510108462 -0.7418734762
| 15> O 2.1235063617 0.3421842299 1.5385646593
| 16> C 1.2469760757 -0.4588947903 2.366348249
| 17> C 1.6512195018 -1.9160215353 2.4244983552
| 18> S 0.953393876 -0.8013251854 -0.9759725049
| 19> C 0.2558470627 0.7637592251 -1.5448131514
| 20> S -0.4884203715 1.7286075676 -0.1965959269
| 21> P -2.2910349201 0.6170204065 -0.0895834483
| 22> S -3.147025569 0.165182182 -1.7939555685
| 23> O -3.0386269493 1.6295738785 0.8653410223
| 24> C -4.4769762964 1.7283572127 0.9340760006
| 25> C -5.0694725683 0.6389618187 1.8037533322
| 26> O -1.9750924022 -0.6288374871 0.8519945649
| 27> C -1.9392884847 -2.0026462937 0.4117374394
| 28> C -3.2527483858 -2.6955111064 0.7136257771
| 29> H 3.3433856366 -2.816338571 -1.8085075536
| 30> H 3.5093299017 -1.2021180001 -2.5155828853
| 31> H 4.8385737363 -2.359860723 -2.6449300992
| 32> H 5.2381598307 -0.5980945248 -0.8891198229
| 33> H 5.2300359817 -2.2523492257 -0.2076934731
| 34> H 1.3243760919 0.0208722076 3.3434552306
| 35> H 0.2268173711 -0.3431534182 1.9893118871
| 36> H 1.5647812644 -2.3730403957 1.4402206926
| 37> H 2.6805194438 -2.0059628967 2.7615883716
| 38> H 0.999175409 -2.4359108837 3.1201292849
| 39> H -0.5037717712 0.5323818255 -2.2922202646
| 40> H 1.0530107465 1.3780810641 -1.9648314281
| 41> H -4.6537038628 2.7201089794 1.3534184145
| 42> H -4.879192928 1.6805670956 -0.0833515752
| 43> H -4.5921239385 0.6405246839 2.7799228279
| 44> H -6.1339495682 0.8158416357 1.9225336786
| 45> H -4.9208016854 -0.3325255979 1.3381714376
| 46> H -1.7237850236 -2.0358132818 -0.6596395974
| 47> H -1.11332037 -2.4540754648 0.9627737015
| 48> H -3.1573261107 -3.7498417888 0.4750372973
| 49> H -3.5045239617 -2.5863649839 1.7648326595
| 50> H -4.0480160201 -2.2704951979 0.1045196728
| 51> *
| 52>
| 53>                          ****END OF INPUT****

CARTESIAN COORDINATES (ANGSTROEM)
---------------------------------
  C      4.038736   -2.004049   -2.003494
  C      4.630539   -1.489960   -0.706979
  O      3.620431   -1.161269    0.263016
  P      2.611700    0.049779    0.069758
  S      3.389914    1.651011   -0.741873
  O      2.123506    0.342184    1.538565
  C      1.246976   -0.458895    2.366348
  C      1.651220   -1.916022    2.424498
  S      0.953394   -0.801325   -0.975973
  C      0.255847    0.763759   -1.544813
  S     -0.488420    1.728608   -0.196596
  P     -2.291035    0.617020   -0.089583
  S     -3.147026    0.165182   -1.793956
  O     -3.038627    1.629574    0.865341
  C     -4.476976    1.728357    0.934076
  C     -5.069473    0.638962    1.803753
  O     -1.975092   -0.628837    0.851995
  C     -1.939288   -2.002646    0.411737
  C     -3.252748   -2.695511    0.713626
  H      3.343386   -2.816339   -1.808508
  H      3.509330   -1.202118   -2.515583
  H      4.838574   -2.359861   -2.644930
  H      5.238160   -0.598095   -0.889120
  H      5.230036   -2.252349   -0.207693
  H      1.324376    0.020872    3.343455
  H      0.226817   -0.343153    1.989312
  H      1.564781   -2.373040    1.440221
  H      2.680519   -2.005963    2.761588
  H      0.999175   -2.435911    3.120129
  H     -0.503772    0.532382   -2.292220
  H      1.053011    1.378081   -1.964831
  H     -4.653704    2.720109    1.353418
  H     -4.879193    1.680567   -0.083352
  H     -4.592124    0.640525    2.779923
  H     -6.133950    0.815842    1.922534
  H     -4.920802   -0.332526    1.338171
  H     -1.723785   -2.035813   -0.659640
  H     -1.113320   -2.454075    0.962774
  H     -3.157326   -3.749842    0.475037
  H     -3.504524   -2.586365    1.764833
  H     -4.048016   -2.270495    0.104520

 Total Charge           Charge          ....    0
 Multiplicity           Mult            ....    1
 Number of Electrons    NEL             ....  202
 Basis Dimension        Dim             ....  539

ORBITAL ENERGIES
----------------

  NO   OCC          E(Eh)            E(eV)
   0   2.0000     -88.578642     -2410.3474
   1   2.0000     -88.578305     -2410.3382
   2   2.0000     -88.531796     -2409.0726
   3   2.0000     -88.529129     -2409.0001
   4   2.0000     -76.921495     -2093.1403
   5   2.0000     -76.921012     -2093.1272
   6   2.0000     -18.996970      -516.9338
   7   2.0000     -18.996309      -516.9158
   8   2.0000     -18.994258      -516.8600
   9   2.0000     -18.994093      -516.8555
  10   2.0000     -10.103851      -274.9398
  11   2.0000     -10.091543      -274.6048
  12   2.0000     -10.091411      -274.6013
  13   2.0000     -10.090403      -274.5738
  14   2.0000     -10.089843      -274.5586
  15   2.0000     -10.020601      -272.6744
  16   2.0000     -10.018806      -272.6256
  17   2.0000     -10.018422      -272.6151
  18   2.0000     -10.017321      -272.5852
  19   2.0000      -7.872819      -214.2303
  20   2.0000      -7.872776      -214.2291
  21   2.0000      -7.826861      -212.9797
  22   2.0000      -7.824313      -212.9104
  23   2.0000      -6.599825      -179.5904
  24   2.0000      -6.599466      -179.5806
  25   2.0000      -5.819613      -158.3597
  26   2.0000      -5.819595      -158.3592
  27   2.0000      -5.816755      -158.2819
  28   2.0000      -5.816686      -158.2801
  29   2.0000      -5.809976      -158.0975
  30   2.0000      -5.809888      -158.0951
  31   2.0000      -5.774376      -157.1287
  32   2.0000      -5.771869      -157.0605
  33   2.0000      -5.767382      -156.9384
  34   2.0000      -5.766701      -156.9199
  35   2.0000      -5.764578      -156.8622
  36   2.0000      -5.764338      -156.8556
  37   2.0000      -4.745511      -129.1319
  38   2.0000      -4.744800      -129.1126
  39   2.0000      -4.744786      -129.1122
  40   2.0000      -4.744200      -129.0962
  41   2.0000      -4.743558      -129.0788
  42   2.0000      -4.743430      -129.0753
  43   2.0000      -1.053365       -28.6635
  44   2.0000      -1.052220       -28.6324
  45   2.0000      -1.013834       -27.5878
  46   2.0000      -1.013522       -27.5793
  47   2.0000      -0.804178       -21.8828
  48   2.0000      -0.758036       -20.6272
  49   2.0000      -0.746343       -20.3090
  50   2.0000      -0.726578       -19.7712
  51   2.0000      -0.723814       -19.6960
  52   2.0000      -0.710837       -19.3429
  53   2.0000      -0.690964       -18.8021
  54   2.0000      -0.675090       -18.3701
  55   2.0000      -0.633784       -17.2461
  56   2.0000      -0.625193       -17.0124
  57   2.0000      -0.604140       -16.4395
  58   2.0000      -0.597791       -16.2667
  59   2.0000      -0.589002       -16.0276
  60   2.0000      -0.524693       -14.2776
  61   2.0000      -0.512142       -13.9361
  62   2.0000      -0.496329       -13.5058
  63   2.0000      -0.487758       -13.2726
  64   2.0000      -0.476890       -12.9768
  65   2.0000      -0.460050       -12.5186
  66   2.0000      -0.457896       -12.4600
  67   2.0000      -0.448195       -12.1960
  68   2.0000      -0.447737       -12.1835
  69   2.0000      -0.431838       -11.7509
  70   2.0000      -0.417637       -11.3645
  71   2.0000      -0.412500       -11.2247
  72   2.0000      -0.410645       -11.1742
  73   2.0000      -0.394818       -10.7435
  74   2.0000      -0.392982       -10.6936
  75   2.0000      -0.392826       -10.6893
  76   2.0000      -0.383114       -10.4250
  77   2.0000      -0.377001       -10.2587
  78   2.0000      -0.369325       -10.0499
  79   2.0000      -0.360084        -9.7984
  80   2.0000      -0.355507        -9.6738
  81   2.0000      -0.353691        -9.6244
  82   2.0000      -0.352227        -9.5846
  83   2.0000      -0.344945        -9.3864
  84   2.0000      -0.343446        -9.3456
  85   2.0000      -0.334229        -9.0948
  86   2.0000      -0.319495        -8.6939
  87   2.0000      -0.308079        -8.3833
  88   2.0000      -0.304584        -8.2881
  89   2.0000      -0.303905        -8.2697
  90   2.0000      -0.300459        -8.1759
  91   2.0000      -0.292395        -7.9565
  92   2.0000      -0.284390        -7.7387
  93   2.0000      -0.280056        -7.6207
  94   2.0000      -0.277693        -7.5564
  95   2.0000      -0.251124        -6.8334
  96   2.0000      -0.237986        -6.4759
  97   2.0000      -0.237283        -6.4568
  98   2.0000      -0.229355        -6.2411
  99   2.0000      -0.225886        -6.1467
 100   2.0000      -0.218302        -5.9403
 101   0.0000      -0.054828        -1.4920
 102   0.0000      -0.033182        -0.9029
 103   0.0000      -0.007575        -0.2061
 104   0.0000       0.001793         0.0488
 105   0.0000       0.012653         0.3443

MULLIKEN ATOMIC CHARGES
-----------------------
   0 C :   -0.483111
   1 C :   -0.160597
   2 O :   -0.286551
   3 P :    0.661991
   4 S :   -0.514655
   5 O :   -0.291473
   6 C :   -0.146880
   7 C :   -0.479266
   8 S :   -0.151928
   9 C :   -0.258128
  10 S :   -0.142926
  11 P :    0.689471
  12 S :   -0.516385
  13 O :   -0.344624
  14 C :   -0.148599
  15 C :   -0.473999
  16 O :   -0.284069
  17 C :   -0.078025
  18 C :   -0.533391
  19 H :    0.169187
  20 H :    0.173326
  21 H :    0.172359
  22 H :    0.179095
  23 H :    0.176136
  24 H :    0.177088
  25 H :    0.185098
  26 H :    0.165403
  27 H :    0.170236
  28 H :    0.177666
  29 H :    0.233312
  30 H :    0.236384
  31 H :    0.176526
  32 H :    0.176048
  33 H :    0.169842
  34 H :    0.171858
  35 H :    0.168007
  36 H :    0.167368
  37 H :    0.183857
  38 H :    0.169958
  39 H :    0.171846
  40 H :    0.172545
Sum of atomic charges:    0.0000000

LOEWDIN ATOMIC CHARGES
----------------------
   0 C :   -0.410735
   1 C :    0.027429
   2 O :   -0.676617
   3 P :    0.387644
   4 S :   -0.150912
   5 O :   -0.675018
   6 C :    0.028544
   7 C :   -0.403823
   8 S :    0.150845
   9 C :   -0.419896
  10 S :    0.156438
  11 P :    0.386081
  12 S :   -0.153070
  13 O :   -0.680249
  14 C :    0.031676
  15 C :   -0.399195
  16 O :   -0.685552
  17 C :    0.008598
  18 C :   -0.403772
  19 H :    0.163600
  20 H :    0.161676
  21 H :    0.168341
  22 H :    0.181894
  23 H :    0.191268
  24 H :    0.193110
  25 H :    0.191720
  26 H :    0.163230
  27 H :    0.166031
  28 H :    0.171083
  29 H :    0.197402
  30 H :    0.198161
  31 H :    0.190452
  32 H :    0.182197
  33 H :    0.164632
  34 H :    0.169316
  35 H :    0.163822
  36 H :    0.180377
  37 H :    0.189439
  38 H :    0.168156
  39 H :    0.163883
  40 H :    0.161795

  Mayer bond orders larger than 0.100000
B(  0-C ,  1-C ) :   0.9030 B(  0-C , 19-H ) :   0.9659 B(  0-C , 20-H ) :   0.9652
B(  0-C , 21-H ) :   0.9517 B(  1-C ,  2-O ) :   0.7971 B(  1-C , 22-H ) :   0.9659
B(  1-C , 23-H ) :   0.9503 B(  2-O ,  3-P ) :   1.0533 B(  3-P ,  4-S ) :   1.7894
B(  3-P ,  5-O ) :   1.1857 B(  3-P ,  8-S ) :   1.0089 B(  5-O ,  6-C ) :   0.8055
B(  6-C ,  7-C ) :   0.8972 B(  6-C , 24-H ) :   0.9496 B(  6-C , 25-H ) :   0.9486
B(  7-C , 26-H ) :   0.9613 B(  7-C , 27-H ) :   0.9652 B(  7-C , 28-H ) :   0.9512
B(  8-S ,  9-C ) :   0.8980 B(  9-C , 10-S ) :   0.9005 B(  9-C , 29-H ) :   0.9007
B(  9-C , 30-H ) :   0.8979 B( 10-S , 11-P ) :   1.0930 B( 11-P , 12-S ) :   1.7358
B( 11-P , 13-O ) :   1.1874 B( 11-P , 16-O ) :   1.0631 B( 13-O , 14-C ) :   0.7759
B( 14-C , 15-C ) :   0.9279 B( 14-C , 31-H ) :   0.9535 B( 14-C , 32-H ) :   0.9594
B( 15-C , 33-H ) :   0.9700 B( 15-C , 34-H ) :   0.9577 B( 15-C , 35-H ) :   0.9574
B( 16-O , 17-C ) :   0.7313 B( 17-C , 18-C ) :   0.9322 B( 17-C , 36-H ) :   0.9523
B( 17-C , 37-H ) :   0.9472 B( 18-C , 38-H ) :   0.9569 B( 18-C , 39-H ) :   0.9724
B( 18-C , 40-H ) :   0.9679

Dispersion correction           -0.021916132
FINAL SINGLE POINT ENERGY     -2932.471271096696

DIPOLE MOMENT
-------------

Method             : SCF
Type of density    : Electron Density
Multiplicity       :   1
Irrep              :   0
Energy             : -2932.4959095643530418 Eh
Relativity type    :
Basis              : AO
                                X                 Y                 Z
Electronic contribution:      7.982653581      18.653680051      -8.583991838
Nuclear contribution   :     -8.948340120     -21.338157216       9.831001869
                        -----------------------------------------
Total Dipole Moment    :     -0.965686539      -2.684477165       1.247010031
                        -----------------------------------------
Magnitude (a.u.)       :      3.113519256
Magnitude (Debye)      :      7.913937018

Rotational constants in cm-1:             0.014024             0.004590             0.004383
Rotational constants in MHz :           420.431825           137.607029           131.396673

                             ****ORCA TERMINATED NORMALLY****
TOTAL RUN TIME: 0 days 0 hours 1 minutes 49 seconds 161 msec
