                         Program Version 6.0.0  -   RELEASE  -
|  1> ! pbe def2-sv(p) def2/J RI DEFGRID1 loosescf d4 GCP(DFT/SV(P)) printgap
|  2> %output
|  3>     printlevel normal
|  4> end
|  5> * xyz 0 1
|  6> C 1.3026428417 1.1248170532 2.7269349835
|  7> C 2.4761367787 1.0994805127 1.7682565285
|  8> O 2.8335556515 -0.2417575101 1.3918066829
|  9> P 2.1023303368 -1.1143608496 0.2777673168
| 10> S 0.3133228445 -1.8045943357 0.6717370353
| 11> O 3.1010643044 -2.3127725689 0.0975345549
| 12> C 4.4994648081 -2.1441079 -0.2529412084
| 13> C 5.3728759098 -2.1927904413 0.9836519363
| 14> S 2.3056132269 0.0507480932 -1.5044161122
| 15> C 0.5716735769 0.3612603862 -1.8742378016
| 16> S -0.1727314843 1.6035642445 -0.7517991359
| 17> P -2.0196230395 0.6783756133 -0.3238373247
| 18> S -2.5343642186 -0.8326468355 -1.4692811161
| 19> O -3.0346368754 1.9024071039 -0.3720604179
| 20> C -3.483220072 2.4604733321 -1.6218715761
| 21> C -4.7150537526 3.2980662328 -1.3434042056
| 22> O -1.926673482 0.4538797114 1.2367398833
| 23> C -2.7192335532 -0.5354434123 1.9214976772
| 24> C -4.1936002131 -0.1967909321 1.8808350467
| 25> H 1.1269877072 2.145872107 3.0498453462
| 26> H 0.4027250879 0.752980059 2.2404635676
| 27> H 1.5106013008 0.5008659799 3.5921332124
| 28> H 3.3796213192 1.4879527179 2.2420898445
| 29> H 2.2559985537 1.6807481046 0.8668807739
| 30> H 4.7122281739 -2.9785514988 -0.9233251447
| 31> H 4.6184031734 -1.199908458 -0.7911429448
| 32> H 6.4142209454 -2.1265941319 0.6845273362
| 33> H 5.1353747448 -1.3664509631 1.6476426732
| 34> H 5.2106875541 -3.1259388731 1.5161001825
| 35> H -0.0049670131 -0.5637270166 -1.7953818639
| 36> H 0.5501532628 0.7546671281 -2.8872399622
| 37> H -2.6732663467 3.0685462245 -2.0349268876
| 38> H -3.7023393724 1.6382404393 -2.3118988122
| 39> H -5.0515633597 3.7545660762 -2.2683617072
| 40> H -5.5088571262 2.6749366341 -0.9415425306
| 41> H -4.4776975975 4.074652845 -0.6223282707
| 42> H -2.5211101918 -1.5111793416 1.4650723657
| 43> H -2.3242774862 -0.5265071814 2.9382675562
| 44> H -4.7454196349 -0.9185670956 2.4746688583
| 45> H -4.357771116 0.8030760718 2.2738444179
| 46> H -4.5515702808 -0.2360989566 0.8524303373
| 47> *
| 48>
| 49>                          ****END OF INPUT****

CARTESIAN COORDINATES (ANGSTROEM)
---------------------------------
  C      1.302643    1.124817    2.726935
  C      2.476137    1.099481    1.768257
  O      2.833556   -0.241758    1.391807
  P      2.102330   -1.114361    0.277767
  S      0.313323   -1.804594    0.671737
  O      3.101064   -2.312773    0.097535
  C      4.499465   -2.144108   -0.252941
  C      5.372876   -2.192790    0.983652
  S      2.305613    0.050748   -1.504416
  C      0.571674    0.361260   -1.874238
  S     -0.172731    1.603564   -0.751799
  P     -2.019623    0.678376   -0.323837
  S     -2.534364   -0.832647   -1.469281
  O     -3.034637    1.902407   -0.372060
  C     -3.483220    2.460473   -1.621872
  C     -4.715054    3.298066   -1.343404
  O     -1.926673    0.453880    1.236740
  C     -2.719234   -0.535443    1.921498
  C     -4.193600   -0.196791    1.880835
  H      1.126988    2.145872    3.049845
  H      0.402725    0.752980    2.240464
  H      1.510601    0.500866    3.592133
  H      3.379621    1.487953    2.242090
  H      2.255999    1.680748    0.866881
  H      4.712228   -2.978551   -0.923325
  H      4.618403   -1.199908   -0.791143
  H      6.414221   -2.126594    0.684527
  H      5.135375   -1.366451    1.647643
  H      5.210688   -3.125939    1.516100
  H     -0.004967   -0.563727   -1.795382
  H      0.550153    0.754667   -2.887240
  H     -2.673266    3.068546   -2.034927
  H     -3.702339    1.638240   -2.311899
  H     -5.051563    3.754566   -2.268362
  H     -5.508857    2.674937   -0.941543
  H     -4.477698    4.074653   -0.622328
  H     -2.521110   -1.511179    1.465072
  H     -2.324277   -0.526507    2.938268
  H     -4.745420   -0.918567    2.474669
  H     -4.357771    0.803076    2.273844
  H     -4.551570   -0.236099    0.852430

 Total Charge           Charge          ....    0
 Multiplicity           Mult            ....    1
 Number of Electrons    NEL             ....  202
 Basis Dimension        Dim             ....  334

ORBITAL ENERGIES
----------------

  NO   OCC          E(Eh)            E(eV)
   0   2.0000     -88.044909     -2395.8238
   1   2.0000     -88.041734     -2395.7374
   2   2.0000     -87.985777     -2394.2147
   3   2.0000     -87.980137     -2394.0612
   4   2.0000     -76.424359     -2079.6125
   5   2.0000     -76.423911     -2079.6004
   6   2.0000     -18.790894      -511.3262
   7   2.0000     -18.790222      -511.3079
   8   2.0000     -18.788276      -511.2550
   9   2.0000     -18.787625      -511.2373
  10   2.0000      -9.959362      -271.0080
  11   2.0000      -9.954170      -270.8667
  12   2.0000      -9.949766      -270.7469
  13   2.0000      -9.949686      -270.7447
  14   2.0000      -9.947084      -270.6739
  15   2.0000      -9.887576      -269.0546
  16   2.0000      -9.887147      -269.0430
  17   2.0000      -9.879517      -268.8353
  18   2.0000      -9.873404      -268.6690
  19   2.0000      -7.689882      -209.2523
  20   2.0000      -7.686675      -209.1650
  21   2.0000      -7.630655      -207.6407
  22   2.0000      -7.624989      -207.4865
  23   2.0000      -6.421792      -174.7459
  24   2.0000      -6.421307      -174.7326
  25   2.0000      -5.717834      -155.5902
  26   2.0000      -5.714500      -155.4995
  27   2.0000      -5.714168      -155.4904
  28   2.0000      -5.711247      -155.4109
  29   2.0000      -5.707037      -155.2964
  30   2.0000      -5.703628      -155.2036
  31   2.0000      -5.659547      -154.0041
  32   2.0000      -5.654099      -153.8559
  33   2.0000      -5.651350      -153.7810
  34   2.0000      -5.650776      -153.7654
  35   2.0000      -5.645546      -153.6231
  36   2.0000      -5.645005      -153.6084
  37   2.0000      -4.644006      -126.3698
  38   2.0000      -4.643990      -126.3694
  39   2.0000      -4.643532      -126.3569
  40   2.0000      -4.643294      -126.3505
  41   2.0000      -4.642613      -126.3319
  42   2.0000      -4.641454      -126.3004
  43   2.0000      -0.986983       -26.8572
  44   2.0000      -0.984766       -26.7968
  45   2.0000      -0.943184       -25.6653
  46   2.0000      -0.942424       -25.6447
  47   2.0000      -0.760953       -20.7066
  48   2.0000      -0.720964       -19.6184
  49   2.0000      -0.710511       -19.3340
  50   2.0000      -0.687493       -18.7076
  51   2.0000      -0.685321       -18.6485
  52   2.0000      -0.672797       -18.3077
  53   2.0000      -0.647791       -17.6273
  54   2.0000      -0.634843       -17.2750
  55   2.0000      -0.597811       -16.2673
  56   2.0000      -0.584171       -15.8961
  57   2.0000      -0.574297       -15.6274
  58   2.0000      -0.566321       -15.4104
  59   2.0000      -0.561053       -15.2670
  60   2.0000      -0.505755       -13.7623
  61   2.0000      -0.497504       -13.5378
  62   2.0000      -0.476664       -12.9707
  63   2.0000      -0.473189       -12.8761
  64   2.0000      -0.449351       -12.2275
  65   2.0000      -0.447539       -12.1782
  66   2.0000      -0.440854       -11.9963
  67   2.0000      -0.431839       -11.7509
  68   2.0000      -0.428174       -11.6512
  69   2.0000      -0.417097       -11.3498
  70   2.0000      -0.405471       -11.0334
  71   2.0000      -0.397440       -10.8149
  72   2.0000      -0.393036       -10.6950
  73   2.0000      -0.385096       -10.4790
  74   2.0000      -0.382834       -10.4174
  75   2.0000      -0.373019       -10.1504
  76   2.0000      -0.359204        -9.7744
  77   2.0000      -0.356904        -9.7119
  78   2.0000      -0.354150        -9.6369
  79   2.0000      -0.348148        -9.4736
  80   2.0000      -0.343208        -9.3392
  81   2.0000      -0.341653        -9.2969
  82   2.0000      -0.340796        -9.2735
  83   2.0000      -0.333950        -9.0872
  84   2.0000      -0.330633        -8.9970
  85   2.0000      -0.318177        -8.6580
  86   2.0000      -0.311434        -8.4746
  87   2.0000      -0.298431        -8.1207
  88   2.0000      -0.291681        -7.9370
  89   2.0000      -0.287294        -7.8177
  90   2.0000      -0.282826        -7.6961
  91   2.0000      -0.277118        -7.5408
  92   2.0000      -0.271988        -7.4012
  93   2.0000      -0.262680        -7.1479
  94   2.0000      -0.256244        -6.9727
  95   2.0000      -0.237205        -6.4547
  96   2.0000      -0.220013        -5.9869
  97   2.0000      -0.212846        -5.7918
  98   2.0000      -0.201068        -5.4713
  99   2.0000      -0.194730        -5.2989
 100   2.0000      -0.188240        -5.1223
 101   0.0000      -0.045040        -1.2256
 102   0.0000      -0.033412        -0.9092
 103   0.0000      -0.010319        -0.2808
 104   0.0000       0.009099         0.2476
 105   0.0000       0.018914         0.5147

MULLIKEN ATOMIC CHARGES
-----------------------
   0 C :   -0.323162
   1 C :   -0.011153
   2 O :   -0.377116
   3 P :    0.601181
   4 S :   -0.302616
   5 O :   -0.351526
   6 C :   -0.019499
   7 C :   -0.288286
   8 S :   -0.135149
   9 C :   -0.330238
  10 S :   -0.115478
  11 P :    0.623814
  12 S :   -0.317973
  13 O :   -0.374563
  14 C :   -0.008985
  15 C :   -0.280362
  16 O :   -0.356542
  17 C :   -0.004477
  18 C :   -0.303695
  19 H :    0.103427
  20 H :    0.158478
  21 H :    0.109508
  22 H :    0.099347
  23 H :    0.107870
  24 H :    0.114809
  25 H :    0.107453
  26 H :    0.109380
  27 H :    0.124106
  28 H :    0.122339
  29 H :    0.214407
  30 H :    0.179457
  31 H :    0.097012
  32 H :    0.102498
  33 H :    0.110866
  34 H :    0.119070
  35 H :    0.116392
  36 H :    0.123638
  37 H :    0.106213
  38 H :    0.111817
  39 H :    0.114590
  40 H :    0.123147
Sum of atomic charges:   -0.0000000

LOEWDIN ATOMIC CHARGES
----------------------
   0 C :   -0.370476
   1 C :   -0.119226
   2 O :   -0.245592
   3 P :    0.561128
   4 S :   -0.287258
   5 O :   -0.233832
   6 C :   -0.112096
   7 C :   -0.358736
   8 S :    0.061402
   9 C :   -0.475930
  10 S :    0.072657
  11 P :    0.574103
  12 S :   -0.305705
  13 O :   -0.248892
  14 C :   -0.123491
  15 C :   -0.350247
  16 O :   -0.229586
  17 C :   -0.114803
  18 C :   -0.366413
  19 H :    0.127775
  20 H :    0.124913
  21 H :    0.124387
  22 H :    0.115100
  23 H :    0.097713
  24 H :    0.123511
  25 H :    0.104343
  26 H :    0.129204
  27 H :    0.127446
  28 H :    0.130476
  29 H :    0.126052
  30 H :    0.135186
  31 H :    0.106775
  32 H :    0.106226
  33 H :    0.130231
  34 H :    0.127749
  35 H :    0.126824
  36 H :    0.111991
  37 H :    0.119781
  38 H :    0.130679
  39 H :    0.125427
  40 H :    0.121204

  Mayer bond orders larger than 0.100000
B(  0-C ,  1-C ) :   1.1667 B(  0-C , 19-H ) :   0.9384 B(  0-C , 20-H ) :   0.9205
B(  0-C , 21-H ) :   0.9452 B(  1-C ,  2-O ) :   0.9134 B(  1-C , 22-H ) :   0.9345
B(  1-C , 23-H ) :   0.9064 B(  2-O ,  3-P ) :   1.0779 B(  3-P ,  4-S ) :   1.6749
B(  3-P ,  5-O ) :   1.1453 B(  3-P ,  8-S ) :   0.9294 B(  4-S ,  8-S ) :   0.1115
B(  5-O ,  6-C ) :   0.8932 B(  6-C ,  7-C ) :   1.1650 B(  6-C , 24-H ) :   0.9357
B(  6-C , 25-H ) :   0.9162 B(  7-C , 26-H ) :   0.9394 B(  7-C , 27-H ) :   0.9415
B(  7-C , 28-H ) :   0.9466 B(  8-S ,  9-C ) :   1.0154 B(  9-C , 10-S ) :   0.9841
B(  9-C , 29-H ) :   0.8482 B(  9-C , 30-H ) :   0.9095 B( 10-S , 11-P ) :   0.9547
B( 10-S , 12-S ) :   0.1158 B( 11-P , 12-S ) :   1.6027 B( 11-P , 13-O ) :   1.0988
B( 11-P , 16-O ) :   1.1372 B( 13-O , 14-C ) :   0.9093 B( 14-C , 15-C ) :   1.1607
B( 14-C , 31-H ) :   0.9254 B( 14-C , 32-H ) :   0.9086 B( 15-C , 33-H ) :   0.9422
B( 15-C , 34-H ) :   0.9518 B( 15-C , 35-H ) :   0.9506 B( 16-O , 17-C ) :   0.8953
B( 17-C , 18-C ) :   1.1638 B( 17-C , 36-H ) :   0.9167 B( 17-C , 37-H ) :   0.9343
B( 18-C , 38-H ) :   0.9386 B( 18-C , 39-H ) :   0.9451 B( 18-C , 40-H ) :   0.9330

Dispersion correction           -0.065566381
FINAL SINGLE POINT ENERGY     -2929.520259523814

DIPOLE MOMENT
-------------

Method             : SCF
Type of density    : Electron Density
Multiplicity       :   1
Irrep              :   0
Energy             : -2929.6398887297536930 Eh
Relativity type    :
Basis              : AO
                                X                 Y                 Z
Electronic contribution:      5.015455578      -7.519835668     -10.566824826
Nuclear contribution   :     -4.374246782       8.655580037      10.735574592
                        -----------------------------------------
Total Dipole Moment    :      0.641208796       1.135744370       0.168749766
                        -----------------------------------------
Magnitude (a.u.)       :      1.315119948
Magnitude (Debye)      :      3.342769253

Rotational constants in cm-1:             0.014741             0.004541             0.004341
Rotational constants in MHz :           441.934762           136.147788           130.134030

                             ****ORCA TERMINATED NORMALLY****
TOTAL RUN TIME: 0 days 0 hours 0 minutes 21 seconds 472 msec
