                         Program Version 6.0.0  -   RELEASE  -
|  1> ! pbe def2-sv(p) def2/J RI DEFGRID1 loosescf d4 GCP(DFT/SV(P)) printgap
|  2> %output
|  3>     printlevel normal
|  4> end
|  5> * xyz 0 1
|  6> C 4.327270442 -1.7969416198 -1.2781560807
|  7> C 4.6552617357 -0.5258423028 -0.5217863627
|  8> O 3.6321622854 -0.1852252359 0.4277273407
|  9> P 2.1784479399 0.2948944738 -0.0163003727
| 10> S 2.1986607057 1.4049816337 -1.6405214633
| 11> O 1.6448967242 0.8673208371 1.3624840667
| 12> C 2.3023913974 1.8913987789 2.1367447201
| 13> C 2.2396055219 3.2465723688 1.4620212674
| 14> S 1.0188422995 -1.4574546675 -0.0972281065
| 15> C -0.0367898046 -1.1092693086 -1.5517091881
| 16> S -1.7765050018 -1.4577597251 -1.2432408545
| 17> P -2.3103354683 0.2292885538 -0.050899295
| 18> S -1.0773310386 1.7508445554 -0.1205843913
| 19> O -2.610646967 -0.2950716206 1.4225799995
| 20> C -1.595820316 -0.6535921195 2.3747938903
| 21> C -1.4389878817 -2.1606818143 2.4475517118
| 22> O -3.7436702731 0.6366983467 -0.5440887537
| 23> C -4.7900237961 -0.2599755012 -0.9983793673
| 24> C -5.089623861 -1.365969383 -0.0110858641
| 25> H 4.0889382256 -2.5994138573 -0.5847401922
| 26> H 3.4716585841 -1.6266689051 -1.9304374768
| 27> H 5.1797991323 -2.0833212038 -1.8854391946
| 28> H 4.7756225988 0.3126423602 -1.2153266242
| 29> H 5.5523709546 -0.6382477326 0.0884624483
| 30> H 1.7469167673 1.8927883243 3.0764037681
| 31> H 3.3356989377 1.5835688094 2.3142476993
| 32> H 1.2113836708 3.4762429571 1.18759643
| 33> H 2.6116863 4.0079425637 2.1399386293
| 34> H 2.8422027549 3.2505584028 0.5553557851
| 35> H 0.2568185358 -1.7747409609 -2.3594210405
| 36> H 0.0975442318 -0.0608228268 -1.8309066058
| 37> H -0.6540740981 -0.1623539629 2.1060987187
| 38> H -1.9487303567 -0.2474305668 3.3250100143
| 39> H -1.075813968 -2.5573768034 1.5021409829
| 40> H -0.7215255077 -2.4039863509 3.2244127989
| 41> H -2.3947383861 -2.6200732028 2.6826052031
| 42> H -5.6430194217 0.4072784469 -1.1307917369
| 43> H -4.4853755989 -0.6709448149 -1.9638361302
| 44> H -5.9474320113 -1.9303589873 -0.3635630797
| 45> H -4.2361322717 -2.0359797165 0.0715107739
| 46> H -5.3098872518 -0.9478051567 0.9675387119
| 47> *
| 48>
| 49>                          ****END OF INPUT****

CARTESIAN COORDINATES (ANGSTROEM)
---------------------------------
  C      4.327270   -1.796942   -1.278156
  C      4.655262   -0.525842   -0.521786
  O      3.632162   -0.185225    0.427727
  P      2.178448    0.294894   -0.016300
  S      2.198661    1.404982   -1.640521
  O      1.644897    0.867321    1.362484
  C      2.302391    1.891399    2.136745
  C      2.239606    3.246572    1.462021
  S      1.018842   -1.457455   -0.097228
  C     -0.036790   -1.109269   -1.551709
  S     -1.776505   -1.457760   -1.243241
  P     -2.310335    0.229289   -0.050899
  S     -1.077331    1.750845   -0.120584
  O     -2.610647   -0.295072    1.422580
  C     -1.595820   -0.653592    2.374794
  C     -1.438988   -2.160682    2.447552
  O     -3.743670    0.636698   -0.544089
  C     -4.790024   -0.259976   -0.998379
  C     -5.089624   -1.365969   -0.011086
  H      4.088938   -2.599414   -0.584740
  H      3.471659   -1.626669   -1.930437
  H      5.179799   -2.083321   -1.885439
  H      4.775623    0.312642   -1.215327
  H      5.552371   -0.638248    0.088462
  H      1.746917    1.892788    3.076404
  H      3.335699    1.583569    2.314248
  H      1.211384    3.476243    1.187596
  H      2.611686    4.007943    2.139939
  H      2.842203    3.250558    0.555356
  H      0.256819   -1.774741   -2.359421
  H      0.097544   -0.060823   -1.830907
  H     -0.654074   -0.162354    2.106099
  H     -1.948730   -0.247431    3.325010
  H     -1.075814   -2.557377    1.502141
  H     -0.721526   -2.403986    3.224413
  H     -2.394738   -2.620073    2.682605
  H     -5.643019    0.407278   -1.130792
  H     -4.485376   -0.670945   -1.963836
  H     -5.947432   -1.930359   -0.363563
  H     -4.236132   -2.035980    0.071511
  H     -5.309887   -0.947805    0.967539

 Total Charge           Charge          ....    0
 Multiplicity           Mult            ....    1
 Number of Electrons    NEL             ....  202
 Basis Dimension        Dim             ....  334

ORBITAL ENERGIES
----------------

  NO   OCC          E(Eh)            E(eV)
   0   2.0000     -88.046236     -2395.8599
   1   2.0000     -88.042842     -2395.7675
   2   2.0000     -87.985410     -2394.2047
   3   2.0000     -87.975099     -2393.9241
   4   2.0000     -76.425988     -2079.6569
   5   2.0000     -76.421366     -2079.5311
   6   2.0000     -18.791198      -511.3345
   7   2.0000     -18.789962      -511.3008
   8   2.0000     -18.787054      -511.2217
   9   2.0000     -18.783109      -511.1144
  10   2.0000      -9.958532      -270.9854
  11   2.0000      -9.955210      -270.8950
  12   2.0000      -9.950895      -270.7776
  13   2.0000      -9.950792      -270.7748
  14   2.0000      -9.943733      -270.5827
  15   2.0000      -9.890150      -269.1247
  16   2.0000      -9.883826      -268.9526
  17   2.0000      -9.877989      -268.7937
  18   2.0000      -9.875343      -268.7217
  19   2.0000      -7.691044      -209.2839
  20   2.0000      -7.687741      -209.1941
  21   2.0000      -7.630228      -207.6290
  22   2.0000      -7.620021      -207.3513
  23   2.0000      -6.423081      -174.7809
  24   2.0000      -6.418776      -174.6638
  25   2.0000      -5.718988      -155.6216
  26   2.0000      -5.715586      -155.5290
  27   2.0000      -5.715241      -155.5196
  28   2.0000      -5.712299      -155.4396
  29   2.0000      -5.708314      -155.3311
  30   2.0000      -5.704652      -155.2315
  31   2.0000      -5.659132      -153.9928
  32   2.0000      -5.651021      -153.7721
  33   2.0000      -5.650249      -153.7511
  34   2.0000      -5.649126      -153.7205
  35   2.0000      -5.640600      -153.4885
  36   2.0000      -5.640008      -153.4724
  37   2.0000      -4.645738      -126.4170
  38   2.0000      -4.644649      -126.3873
  39   2.0000      -4.643713      -126.3619
  40   2.0000      -4.641449      -126.3002
  41   2.0000      -4.640674      -126.2791
  42   2.0000      -4.639015      -126.2340
  43   2.0000      -0.985658       -26.8211
  44   2.0000      -0.982736       -26.7416
  45   2.0000      -0.941311       -25.6144
  46   2.0000      -0.939888       -25.5756
  47   2.0000      -0.762169       -20.7397
  48   2.0000      -0.720184       -19.5972
  49   2.0000      -0.710100       -19.3228
  50   2.0000      -0.688285       -18.7292
  51   2.0000      -0.684964       -18.6388
  52   2.0000      -0.673973       -18.3398
  53   2.0000      -0.648111       -17.6360
  54   2.0000      -0.632309       -17.2060
  55   2.0000      -0.597500       -16.2588
  56   2.0000      -0.591319       -16.0906
  57   2.0000      -0.574864       -15.6428
  58   2.0000      -0.570289       -15.5183
  59   2.0000      -0.559814       -15.2333
  60   2.0000      -0.496462       -13.5094
  61   2.0000      -0.492026       -13.3887
  62   2.0000      -0.473064       -12.8727
  63   2.0000      -0.466730       -12.7004
  64   2.0000      -0.453575       -12.3424
  65   2.0000      -0.451508       -12.2862
  66   2.0000      -0.436801       -11.8860
  67   2.0000      -0.432290       -11.7632
  68   2.0000      -0.430033       -11.7018
  69   2.0000      -0.415017       -11.2932
  70   2.0000      -0.405803       -11.0425
  71   2.0000      -0.405045       -11.0218
  72   2.0000      -0.396808       -10.7977
  73   2.0000      -0.386885       -10.5277
  74   2.0000      -0.381184       -10.3725
  75   2.0000      -0.369325       -10.0498
  76   2.0000      -0.361639        -9.8407
  77   2.0000      -0.354719        -9.6524
  78   2.0000      -0.353537        -9.6202
  79   2.0000      -0.351392        -9.5619
  80   2.0000      -0.343799        -9.3552
  81   2.0000      -0.342807        -9.3283
  82   2.0000      -0.339334        -9.2337
  83   2.0000      -0.333486        -9.0746
  84   2.0000      -0.330465        -8.9924
  85   2.0000      -0.314086        -8.5467
  86   2.0000      -0.310848        -8.4586
  87   2.0000      -0.294264        -8.0073
  88   2.0000      -0.290610        -7.9079
  89   2.0000      -0.288955        -7.8629
  90   2.0000      -0.282989        -7.7005
  91   2.0000      -0.274292        -7.4639
  92   2.0000      -0.272726        -7.4213
  93   2.0000      -0.261821        -7.1245
  94   2.0000      -0.255994        -6.9660
  95   2.0000      -0.235458        -6.4071
  96   2.0000      -0.218970        -5.9585
  97   2.0000      -0.212356        -5.7785
  98   2.0000      -0.199453        -5.4274
  99   2.0000      -0.190391        -5.1808
 100   2.0000      -0.184238        -5.0134
 101   0.0000      -0.043167        -1.1746
 102   0.0000      -0.035665        -0.9705
 103   0.0000      -0.011857        -0.3226
 104   0.0000       0.009216         0.2508
 105   0.0000       0.013756         0.3743

MULLIKEN ATOMIC CHARGES
-----------------------
   0 C :   -0.310473
   1 C :   -0.002585
   2 O :   -0.380476
   3 P :    0.638672
   4 S :   -0.311430
   5 O :   -0.356941
   6 C :    0.001774
   7 C :   -0.319639
   8 S :   -0.109843
   9 C :   -0.331045
  10 S :   -0.139830
  11 P :    0.593394
  12 S :   -0.295398
  13 O :   -0.373069
  14 C :   -0.028270
  15 C :   -0.296141
  16 O :   -0.356602
  17 C :   -0.008907
  18 C :   -0.319029
  19 H :    0.117359
  20 H :    0.118425
  21 H :    0.112178
  22 H :    0.110226
  23 H :    0.102129
  24 H :    0.104191
  25 H :    0.104057
  26 H :    0.136872
  27 H :    0.106474
  28 H :    0.126156
  29 H :    0.180526
  30 H :    0.214825
  31 H :    0.130334
  32 H :    0.100904
  33 H :    0.124361
  34 H :    0.105398
  35 H :    0.108697
  36 H :    0.114582
  37 H :    0.115850
  38 H :    0.115502
  39 H :    0.128931
  40 H :    0.127861
Sum of atomic charges:    0.0000000

LOEWDIN ATOMIC CHARGES
----------------------
   0 C :   -0.368514
   1 C :   -0.121533
   2 O :   -0.248286
   3 P :    0.573186
   4 S :   -0.297691
   5 O :   -0.234530
   6 C :   -0.109790
   7 C :   -0.368569
   8 S :    0.089967
   9 C :   -0.476577
  10 S :    0.066851
  11 P :    0.560551
  12 S :   -0.294865
  13 O :   -0.245495
  14 C :   -0.123028
  15 C :   -0.363607
  16 O :   -0.233102
  17 C :   -0.112945
  18 C :   -0.368569
  19 H :    0.124262
  20 H :    0.118869
  21 H :    0.130279
  22 H :    0.109149
  23 H :    0.116987
  24 H :    0.118644
  25 H :    0.109985
  26 H :    0.131999
  27 H :    0.127503
  28 H :    0.121246
  29 H :    0.134875
  30 H :    0.127451
  31 H :    0.108637
  32 H :    0.116628
  33 H :    0.111388
  34 H :    0.128307
  35 H :    0.121789
  36 H :    0.124784
  37 H :    0.111575
  38 H :    0.132422
  39 H :    0.118487
  40 H :    0.131281

  Mayer bond orders larger than 0.100000
B(  0-C ,  1-C ) :   1.1655 B(  0-C , 19-H ) :   0.9445 B(  0-C , 20-H ) :   0.9370
B(  0-C , 21-H ) :   0.9383 B(  1-C ,  2-O ) :   0.9137 B(  1-C , 22-H ) :   0.9127
B(  1-C , 23-H ) :   0.9332 B(  2-O ,  3-P ) :   1.0846 B(  3-P ,  4-S ) :   1.6039
B(  3-P ,  5-O ) :   1.1235 B(  3-P ,  8-S ) :   0.9623 B(  4-S ,  8-S ) :   0.1189
B(  5-O ,  6-C ) :   0.9063 B(  6-C ,  7-C ) :   1.1649 B(  6-C , 24-H ) :   0.9347
B(  6-C , 25-H ) :   0.9281 B(  7-C , 26-H ) :   0.9413 B(  7-C , 27-H ) :   0.9372
B(  7-C , 28-H ) :   0.9358 B(  8-S ,  9-C ) :   0.9871 B(  9-C , 10-S ) :   1.0215
B(  9-C , 29-H ) :   0.9075 B(  9-C , 30-H ) :   0.8445 B( 10-S , 11-P ) :   0.9129
B( 10-S , 12-S ) :   0.1078 B( 11-P , 12-S ) :   1.6737 B( 11-P , 13-O ) :   1.0869
B( 11-P , 16-O ) :   1.1493 B( 13-O , 14-C ) :   0.9049 B( 14-C , 15-C ) :   1.1676
B( 14-C , 31-H ) :   0.8953 B( 14-C , 32-H ) :   0.9349 B( 15-C , 33-H ) :   0.9314
B( 15-C , 34-H ) :   0.9414 B( 15-C , 35-H ) :   0.9456 B( 16-O , 17-C ) :   0.9022
B( 17-C , 18-C ) :   1.1676 B( 17-C , 36-H ) :   0.9343 B( 17-C , 37-H ) :   0.9238
B( 18-C , 38-H ) :   0.9339 B( 18-C , 39-H ) :   0.9367 B( 18-C , 40-H ) :   0.9415

Dispersion correction           -0.067456345
FINAL SINGLE POINT ENERGY     -2929.515272972684

DIPOLE MOMENT
-------------

Method             : SCF
Type of density    : Electron Density
Multiplicity       :   1
Irrep              :   0
Energy             : -2929.6335656783840022 Eh
Relativity type    :
Basis              : AO
                                X                 Y                 Z
Electronic contribution:     -2.563664434       6.222174931      -8.865677247
Nuclear contribution   :      2.675003053      -7.429376024       9.549357888
                        -----------------------------------------
Total Dipole Moment    :      0.111338619      -1.207201093       0.683680642
                        -----------------------------------------
Magnitude (a.u.)       :      1.391815357
Magnitude (Debye)      :      3.537713490

Rotational constants in cm-1:             0.013366             0.005069             0.004766
Rotational constants in MHz :           400.694585           151.956846           142.888462

                             ****ORCA TERMINATED NORMALLY****
TOTAL RUN TIME: 0 days 0 hours 0 minutes 21 seconds 778 msec
