                         Program Version 6.0.0  -   RELEASE  -
|  1> ! pbe def2-sv(p) def2/J RI DEFGRID1 loosescf d4 GCP(DFT/SV(P)) printgap
|  2> %output
|  3>     printlevel normal
|  4> end
|  5> * xyz 0 1
|  6> C 3.5003130198 0.1081026134 -2.9779971193
|  7> C 2.3071759824 -0.5877625467 -2.3572036253
|  8> O 1.7405137486 0.2234395987 -1.2929601887
|  9> P 2.0345821895 -0.0302994266 0.235985448
| 10> S 1.1452810898 1.2838827094 1.3844360785
| 11> O 3.6230277773 -0.019353303 0.2847577111
| 12> C 4.3656559691 0.1502369906 1.504981959
| 13> C 4.1720715389 -1.0047391335 2.465752371
| 14> S 1.5514205333 -2.0770017867 0.5631789542
| 15> C -0.230860293 -1.8891912054 0.7880420851
| 16> S -1.0611507369 -1.1932864669 -0.6722088514
| 17> P -2.0894996808 0.4674234583 0.1860011902
| 18> S -2.2667312554 0.3794363949 2.1346112626
| 19> O -3.4738923595 0.4279509762 -0.5973942388
| 20> C -4.4426794333 -0.606913443 -0.3334428347
| 21> C -5.7664971189 -0.1674999779 -0.9249944389
| 22> O -1.4762308114 1.8183516773 -0.3375137372
| 23> C -1.7056856991 2.3984447675 -1.646121541
| 24> C -1.1263665075 1.5504980499 -2.7580067293
| 25> H 3.862001856 -0.4875555293 -3.8101826199
| 26> H 3.2154520666 1.0926494645 -3.3386342162
| 27> H 4.2940221737 0.2198051845 -2.244293722
| 28> H 2.5850674888 -1.5629724048 -1.9489387124
| 29> H 1.4927953157 -0.7098330213 -3.0741891124
| 30> H 5.4011036407 0.224999071 1.1695937715
| 31> H 4.0546253524 1.0916855659 1.9680490335
| 32> H 4.3608165192 -1.9511228659 1.9651709373
| 33> H 4.8568461357 -0.893953686 3.3004452204
| 34> H 3.1520146682 -1.0050111981 2.8473895232
| 35> H -0.4384164863 -1.2357244082 1.6407296061
| 36> H -0.6175820201 -2.8904256634 0.9605408013
| 37> H -4.0854394878 -1.5320151778 -0.7940138498
| 38> H -4.5121781953 -0.7486011407 0.7501891593
| 39> H -6.5078344344 -0.9390289298 -0.7455693444
| 40> H -6.0940177699 0.758349481 -0.4603374185
| 41> H -5.6628942518 -0.0091717581 -1.9944089438
| 42> H -2.7803830723 2.5405975127 -1.7727249288
| 43> H -1.2053496274 3.3656917096 -1.574676821
| 44> H -1.2398935319 2.0753427246 -3.7013600527
| 45> H -0.0710798501 1.3679858415 -2.5703209697
| 46> H -1.6458811724 0.5950388737 -2.8147069173
| 47> *
| 48>
| 49>                          ****END OF INPUT****

CARTESIAN COORDINATES (ANGSTROEM)
---------------------------------
  C      3.500313    0.108103   -2.977997
  C      2.307176   -0.587763   -2.357204
  O      1.740514    0.223440   -1.292960
  P      2.034582   -0.030299    0.235985
  S      1.145281    1.283883    1.384436
  O      3.623028   -0.019353    0.284758
  C      4.365656    0.150237    1.504982
  C      4.172072   -1.004739    2.465752
  S      1.551421   -2.077002    0.563179
  C     -0.230860   -1.889191    0.788042
  S     -1.061151   -1.193286   -0.672209
  P     -2.089500    0.467423    0.186001
  S     -2.266731    0.379436    2.134611
  O     -3.473892    0.427951   -0.597394
  C     -4.442679   -0.606913   -0.333443
  C     -5.766497   -0.167500   -0.924994
  O     -1.476231    1.818352   -0.337514
  C     -1.705686    2.398445   -1.646122
  C     -1.126367    1.550498   -2.758007
  H      3.862002   -0.487556   -3.810183
  H      3.215452    1.092649   -3.338634
  H      4.294022    0.219805   -2.244294
  H      2.585067   -1.562972   -1.948939
  H      1.492795   -0.709833   -3.074189
  H      5.401104    0.224999    1.169594
  H      4.054625    1.091686    1.968049
  H      4.360817   -1.951123    1.965171
  H      4.856846   -0.893954    3.300445
  H      3.152015   -1.005011    2.847390
  H     -0.438416   -1.235724    1.640730
  H     -0.617582   -2.890426    0.960541
  H     -4.085439   -1.532015   -0.794014
  H     -4.512178   -0.748601    0.750189
  H     -6.507834   -0.939029   -0.745569
  H     -6.094018    0.758349   -0.460337
  H     -5.662894   -0.009172   -1.994409
  H     -2.780383    2.540598   -1.772725
  H     -1.205350    3.365692   -1.574677
  H     -1.239894    2.075343   -3.701360
  H     -0.071080    1.367986   -2.570321
  H     -1.645881    0.595039   -2.814707

 Total Charge           Charge          ....    0
 Multiplicity           Mult            ....    1
 Number of Electrons    NEL             ....  202
 Basis Dimension        Dim             ....  334

ORBITAL ENERGIES
----------------

  NO   OCC          E(Eh)            E(eV)
   0   2.0000     -88.041319     -2395.7261
   1   2.0000     -88.037606     -2395.6251
   2   2.0000     -87.978285     -2394.0108
   3   2.0000     -87.975654     -2393.9392
   4   2.0000     -76.422316     -2079.5569
   5   2.0000     -76.420171     -2079.4986
   6   2.0000     -18.792641      -511.3738
   7   2.0000     -18.789748      -511.2950
   8   2.0000     -18.789663      -511.2927
   9   2.0000     -18.783546      -511.1263
  10   2.0000      -9.954742      -270.8823
  11   2.0000      -9.952730      -270.8275
  12   2.0000      -9.950868      -270.7769
  13   2.0000      -9.949791      -270.7476
  14   2.0000      -9.949137      -270.7298
  15   2.0000      -9.887262      -269.0461
  16   2.0000      -9.887169      -269.0435
  17   2.0000      -9.883694      -268.9490
  18   2.0000      -9.883156      -268.9344
  19   2.0000      -7.686329      -209.1556
  20   2.0000      -7.682061      -209.0395
  21   2.0000      -7.623165      -207.4369
  22   2.0000      -7.620876      -207.3746
  23   2.0000      -6.419692      -174.6887
  24   2.0000      -6.417355      -174.6251
  25   2.0000      -5.714170      -155.4905
  26   2.0000      -5.710694      -155.3959
  27   2.0000      -5.709924      -155.3749
  28   2.0000      -5.706568      -155.2836
  29   2.0000      -5.703497      -155.2000
  30   2.0000      -5.699140      -155.0815
  31   2.0000      -5.652221      -153.8048
  32   2.0000      -5.649950      -153.7430
  33   2.0000      -5.643654      -153.5716
  34   2.0000      -5.643350      -153.5633
  35   2.0000      -5.641369      -153.5095
  36   2.0000      -5.640951      -153.4981
  37   2.0000      -4.642609      -126.3318
  38   2.0000      -4.641492      -126.3014
  39   2.0000      -4.640341      -126.2701
  40   2.0000      -4.639800      -126.2554
  41   2.0000      -4.638933      -126.2318
  42   2.0000      -4.637646      -126.1968
  43   2.0000      -0.986988       -26.8573
  44   2.0000      -0.983654       -26.7666
  45   2.0000      -0.944160       -25.6919
  46   2.0000      -0.938126       -25.5277
  47   2.0000      -0.758498       -20.6398
  48   2.0000      -0.717369       -19.5206
  49   2.0000      -0.709296       -19.3009
  50   2.0000      -0.689897       -18.7731
  51   2.0000      -0.689361       -18.7585
  52   2.0000      -0.674110       -18.3435
  53   2.0000      -0.646279       -17.5862
  54   2.0000      -0.628158       -17.0931
  55   2.0000      -0.593382       -16.1467
  56   2.0000      -0.587292       -15.9810
  57   2.0000      -0.574609       -15.6359
  58   2.0000      -0.569509       -15.4971
  59   2.0000      -0.559524       -15.2254
  60   2.0000      -0.503470       -13.7001
  61   2.0000      -0.498011       -13.5516
  62   2.0000      -0.473402       -12.8819
  63   2.0000      -0.469485       -12.7753
  64   2.0000      -0.448530       -12.2051
  65   2.0000      -0.445901       -12.1336
  66   2.0000      -0.440186       -11.9781
  67   2.0000      -0.438180       -11.9235
  68   2.0000      -0.427987       -11.6461
  69   2.0000      -0.423659       -11.5283
  70   2.0000      -0.409385       -11.1399
  71   2.0000      -0.395438       -10.7604
  72   2.0000      -0.391663       -10.6577
  73   2.0000      -0.380988       -10.3672
  74   2.0000      -0.376915       -10.2564
  75   2.0000      -0.366067        -9.9612
  76   2.0000      -0.362808        -9.8725
  77   2.0000      -0.358155        -9.7459
  78   2.0000      -0.353608        -9.6222
  79   2.0000      -0.352304        -9.5867
  80   2.0000      -0.348874        -9.4934
  81   2.0000      -0.344039        -9.3618
  82   2.0000      -0.338141        -9.2013
  83   2.0000      -0.335371        -9.1259
  84   2.0000      -0.334211        -9.0944
  85   2.0000      -0.316320        -8.6075
  86   2.0000      -0.310763        -8.4563
  87   2.0000      -0.299140        -8.1400
  88   2.0000      -0.297306        -8.0901
  89   2.0000      -0.290727        -7.9111
  90   2.0000      -0.287013        -7.8100
  91   2.0000      -0.271713        -7.3937
  92   2.0000      -0.266513        -7.2522
  93   2.0000      -0.261013        -7.1025
  94   2.0000      -0.252625        -6.8743
  95   2.0000      -0.231266        -6.2931
  96   2.0000      -0.220210        -5.9922
  97   2.0000      -0.208626        -5.6770
  98   2.0000      -0.196346        -5.3429
  99   2.0000      -0.187143        -5.0924
 100   2.0000      -0.180701        -4.9171
 101   0.0000      -0.037587        -1.0228
 102   0.0000      -0.031737        -0.8636
 103   0.0000      -0.005399        -0.1469
 104   0.0000       0.011013         0.2997
 105   0.0000       0.019882         0.5410

MULLIKEN ATOMIC CHARGES
-----------------------
   0 C :   -0.285673
   1 C :   -0.009841
   2 O :   -0.351939
   3 P :    0.581064
   4 S :   -0.277110
   5 O :   -0.381959
   6 C :    0.002145
   7 C :   -0.322708
   8 S :   -0.108266
   9 C :   -0.337246
  10 S :   -0.136970
  11 P :    0.624140
  12 S :   -0.299649
  13 O :   -0.391955
  14 C :   -0.005659
  15 C :   -0.280570
  16 O :   -0.347074
  17 C :    0.009389
  18 C :   -0.353055
  19 H :    0.108743
  20 H :    0.116092
  21 H :    0.121272
  22 H :    0.104019
  23 H :    0.108473
  24 H :    0.103005
  25 H :    0.113147
  26 H :    0.116581
  27 H :    0.114522
  28 H :    0.134073
  29 H :    0.206899
  30 H :    0.176792
  31 H :    0.097720
  32 H :    0.103718
  33 H :    0.111573
  34 H :    0.120819
  35 H :    0.112140
  36 H :    0.108708
  37 H :    0.111657
  38 H :    0.109366
  39 H :    0.155732
  40 H :    0.117884
Sum of atomic charges:    0.0000000

LOEWDIN ATOMIC CHARGES
----------------------
   0 C :   -0.358203
   1 C :   -0.117870
   2 O :   -0.232949
   3 P :    0.559004
   4 S :   -0.285451
   5 O :   -0.249738
   6 C :   -0.116686
   7 C :   -0.372195
   8 S :    0.072441
   9 C :   -0.482343
  10 S :    0.057510
  11 P :    0.573589
  12 S :   -0.298526
  13 O :   -0.252976
  14 C :   -0.123462
  15 C :   -0.350761
  16 O :   -0.225186
  17 C :   -0.105386
  18 C :   -0.373924
  19 H :    0.129113
  20 H :    0.126740
  21 H :    0.126877
  22 H :    0.103266
  23 H :    0.116469
  24 H :    0.117451
  25 H :    0.113656
  26 H :    0.122321
  27 H :    0.131893
  28 H :    0.123892
  29 H :    0.125291
  30 H :    0.135095
  31 H :    0.105344
  32 H :    0.107922
  33 H :    0.130767
  34 H :    0.128839
  35 H :    0.124424
  36 H :    0.112791
  37 H :    0.124175
  38 H :    0.129520
  39 H :    0.132644
  40 H :    0.114623

  Mayer bond orders larger than 0.100000
B(  0-C ,  1-C ) :   1.1678 B(  0-C , 19-H ) :   0.9401 B(  0-C , 20-H ) :   0.9491
B(  0-C , 21-H ) :   0.9416 B(  1-C ,  2-O ) :   0.8779 B(  1-C , 22-H ) :   0.9100
B(  1-C , 23-H ) :   0.9309 B(  2-O ,  3-P ) :   1.1177 B(  3-P ,  4-S ) :   1.6743
B(  3-P ,  5-O ) :   1.0767 B(  3-P ,  8-S ) :   0.9433 B(  4-S ,  8-S ) :   0.1082
B(  5-O ,  6-C ) :   0.9059 B(  6-C ,  7-C ) :   1.1666 B(  6-C , 24-H ) :   0.9342
B(  6-C , 25-H ) :   0.9175 B(  7-C , 26-H ) :   0.9433 B(  7-C , 27-H ) :   0.9369
B(  7-C , 28-H ) :   0.9339 B(  8-S ,  9-C ) :   0.9946 B(  9-C , 10-S ) :   0.9991
B(  9-C , 29-H ) :   0.8427 B(  9-C , 30-H ) :   0.9113 B( 10-S , 11-P ) :   0.9333
B( 10-S , 12-S ) :   0.1206 B( 11-P , 12-S ) :   1.6391 B( 11-P , 13-O ) :   1.0606
B( 11-P , 16-O ) :   1.1467 B( 12-S , 29-H ) :   0.1066 B( 13-O , 14-C ) :   0.9060
B( 14-C , 15-C ) :   1.1591 B( 14-C , 31-H ) :   0.9247 B( 14-C , 32-H ) :   0.9078
B( 15-C , 33-H ) :   0.9422 B( 15-C , 34-H ) :   0.9509 B( 15-C , 35-H ) :   0.9515
B( 16-O , 17-C ) :   0.9012 B( 17-C , 18-C ) :   1.1710 B( 17-C , 36-H ) :   0.9269
B( 17-C , 37-H ) :   0.9318 B( 18-C , 38-H ) :   0.9351 B( 18-C , 39-H ) :   0.9241
B( 18-C , 40-H ) :   0.9371

Dispersion correction           -0.066788263
FINAL SINGLE POINT ENERGY     -2929.514758382130

DIPOLE MOMENT
-------------

Method             : SCF
Type of density    : Electron Density
Multiplicity       :   1
Irrep              :   0
Energy             : -2929.6339717645682867 Eh
Relativity type    :
Basis              : AO
                                X                 Y                 Z
Electronic contribution:     -1.911890414       0.164111557      14.095005690
Nuclear contribution   :      2.338017584      -0.901880956     -15.742556246
                        -----------------------------------------
Total Dipole Moment    :      0.426127170      -0.737769399      -1.647550556
                        -----------------------------------------
Magnitude (a.u.)       :      1.854807506
Magnitude (Debye)      :      4.714546009

Rotational constants in cm-1:             0.013158             0.005213             0.004720
Rotational constants in MHz :           394.475635           156.293953           141.514541

                             ****ORCA TERMINATED NORMALLY****
TOTAL RUN TIME: 0 days 0 hours 0 minutes 21 seconds 161 msec
