                         Program Version 6.0.0  -   RELEASE  -
|  1> ! r2scan-3c def2/J RI DEFGRID2 scfconv6 printgap
|  2> %output
|  3>     printlevel normal
|  4> end
|  5> * xyz 0 1
|  6> C 4.5447392113 -2.202835659 0.5873927445
|  7> C 4.7333822001 -0.7097992765 0.4134375288
|  8> O 3.5341916923 0.0237253148 0.720186213
|  9> P 2.2360187197 -0.0421707085 -0.2003640985
| 10> S 2.6474805377 -0.0919284897 -2.1217040905
| 11> O 1.4332015027 1.2165412624 0.346939769
| 12> C 1.7602513707 2.5616273759 -0.0650292696
| 13> C 0.8045858121 3.0415595918 -1.1398087224
| 14> S 1.0877499859 -1.586554227 0.6311768226
| 15> C -0.1099746423 -1.796500926 -0.7266579259
| 16> S -0.803072752 -0.2513109468 -1.3746350097
| 17> P -2.1264466869 0.2584244114 0.1907247903
| 18> S -3.1322030318 1.9235993215 -0.030185815
| 19> O -1.1303460537 0.1991269862 1.4193952174
| 20> C -1.4152329224 0.8492307971 2.6725878031
| 21> C -2.5324697963 0.1567815246 3.4239699054
| 22> O -3.0144434508 -1.0467622982 0.4367160393
| 23> C -4.2791929401 -1.2376530818 -0.2166109688
| 24> C -4.1186102696 -1.5203283481 -1.6970925282
| 25> H 3.8490674051 -2.578211812 -0.1617667785
| 26> H 5.5002694088 -2.7020535748 0.4629621125
| 27> H 4.1470828217 -2.4210236508 1.5752539833
| 28> H 5.0267461747 -0.47629265 -0.6151855978
| 29> H 5.4703947917 -0.3101195728 1.111182088
| 30> H 1.6723897237 3.1610474349 0.8428579568
| 31> H 2.7936183317 2.5870754658 -0.4228500171
| 32> H -0.2243133486 2.9708467475 -0.7916524472
| 33> H 1.0263561252 4.0757167467 -1.3825924251
| 34> H 0.9076616812 2.4341448284 -2.0370414871
| 35> H -0.9033606666 -2.4285878919 -0.3348640198
| 36> H 0.3885646618 -2.2608342633 -1.5757039545
| 37> H -0.4679791251 0.7973029663 3.2117815809
| 38> H -1.6722049276 1.8942103343 2.4702516501
| 39> H -2.3112150083 -0.9018037515 3.5318341164
| 40> H -2.6373404881 0.6073632736 4.4059888352
| 41> H -3.4695377407 0.2701458659 2.8807140729
| 42> H -4.7253349272 -2.0822175067 0.3103938755
| 43> H -4.8863604052 -0.3395364893 -0.0641840567
| 44> H -5.0931337047 -1.7191305066 -2.1314492781
| 45> H -3.6809349394 -0.6554277305 -2.195240383
| 46> H -3.4731809884 -2.3802104881 -1.8564932638
| 47> *
| 48>
| 49>                          ****END OF INPUT****

CARTESIAN COORDINATES (ANGSTROEM)
---------------------------------
  C      4.544739   -2.202836    0.587393
  C      4.733382   -0.709799    0.413438
  O      3.534192    0.023725    0.720186
  P      2.236019   -0.042171   -0.200364
  S      2.647481   -0.091928   -2.121704
  O      1.433202    1.216541    0.346940
  C      1.760251    2.561627   -0.065029
  C      0.804586    3.041560   -1.139809
  S      1.087750   -1.586554    0.631177
  C     -0.109975   -1.796501   -0.726658
  S     -0.803073   -0.251311   -1.374635
  P     -2.126447    0.258424    0.190725
  S     -3.132203    1.923599   -0.030186
  O     -1.130346    0.199127    1.419395
  C     -1.415233    0.849231    2.672588
  C     -2.532470    0.156782    3.423970
  O     -3.014443   -1.046762    0.436716
  C     -4.279193   -1.237653   -0.216611
  C     -4.118610   -1.520328   -1.697093
  H      3.849067   -2.578212   -0.161767
  H      5.500269   -2.702054    0.462962
  H      4.147083   -2.421024    1.575254
  H      5.026746   -0.476293   -0.615186
  H      5.470395   -0.310120    1.111182
  H      1.672390    3.161047    0.842858
  H      2.793618    2.587075   -0.422850
  H     -0.224313    2.970847   -0.791652
  H      1.026356    4.075717   -1.382592
  H      0.907662    2.434145   -2.037041
  H     -0.903361   -2.428588   -0.334864
  H      0.388565   -2.260834   -1.575704
  H     -0.467979    0.797303    3.211782
  H     -1.672205    1.894210    2.470252
  H     -2.311215   -0.901804    3.531834
  H     -2.637340    0.607363    4.405989
  H     -3.469538    0.270146    2.880714
  H     -4.725335   -2.082218    0.310394
  H     -4.886360   -0.339536   -0.064184
  H     -5.093134   -1.719131   -2.131449
  H     -3.680935   -0.655428   -2.195240
  H     -3.473181   -2.380210   -1.856493

 Total Charge           Charge          ....    0
 Multiplicity           Mult            ....    1
 Number of Electrons    NEL             ....  202
 Basis Dimension        Dim             ....  539

ORBITAL ENERGIES
----------------

  NO   OCC          E(Eh)            E(eV)
   0   2.0000     -88.574609     -2410.2377
   1   2.0000     -88.574098     -2410.2237
   2   2.0000     -88.523330     -2408.8423
   3   2.0000     -88.518180     -2408.7021
   4   2.0000     -76.913263     -2092.9163
   5   2.0000     -76.912260     -2092.8890
   6   2.0000     -18.992170      -516.8032
   7   2.0000     -18.990155      -516.7484
   8   2.0000     -18.985424      -516.6197
   9   2.0000     -18.981125      -516.5027
  10   2.0000     -10.112730      -275.1814
  11   2.0000     -10.099645      -274.8253
  12   2.0000     -10.096007      -274.7263
  13   2.0000     -10.095948      -274.7247
  14   2.0000     -10.091576      -274.6058
  15   2.0000     -10.030417      -272.9415
  16   2.0000     -10.028602      -272.8921
  17   2.0000     -10.027802      -272.8704
  18   2.0000     -10.013505      -272.4813
  19   2.0000      -7.868882      -214.1232
  20   2.0000      -7.868865      -214.1227
  21   2.0000      -7.817949      -212.7372
  22   2.0000      -7.812892      -212.5996
  23   2.0000      -6.591750      -179.3706
  24   2.0000      -6.590496      -179.3365
  25   2.0000      -5.816291      -158.2693
  26   2.0000      -5.815916      -158.2591
  27   2.0000      -5.812784      -158.1739
  28   2.0000      -5.812374      -158.1627
  29   2.0000      -5.805742      -157.9823
  30   2.0000      -5.805689      -157.9808
  31   2.0000      -5.765555      -156.8887
  32   2.0000      -5.760536      -156.7521
  33   2.0000      -5.758318      -156.6918
  34   2.0000      -5.757933      -156.6813
  35   2.0000      -5.753341      -156.5564
  36   2.0000      -5.752760      -156.5405
  37   2.0000      -4.737023      -128.9010
  38   2.0000      -4.736840      -128.8960
  39   2.0000      -4.736046      -128.8744
  40   2.0000      -4.735558      -128.8611
  41   2.0000      -4.735362      -128.8558
  42   2.0000      -4.734303      -128.8269
  43   2.0000      -1.048833       -28.5402
  44   2.0000      -1.044691       -28.4275
  45   2.0000      -1.010095       -27.4861
  46   2.0000      -1.003790       -27.3145
  47   2.0000      -0.802604       -21.8400
  48   2.0000      -0.756572       -20.5874
  49   2.0000      -0.745213       -20.2783
  50   2.0000      -0.731615       -19.9083
  51   2.0000      -0.725111       -19.7313
  52   2.0000      -0.709583       -19.3087
  53   2.0000      -0.689104       -18.7515
  54   2.0000      -0.669065       -18.2062
  55   2.0000      -0.631847       -17.1934
  56   2.0000      -0.622780       -16.9467
  57   2.0000      -0.606165       -16.4946
  58   2.0000      -0.602623       -16.3982
  59   2.0000      -0.589138       -16.0313
  60   2.0000      -0.522621       -14.2212
  61   2.0000      -0.518665       -14.1136
  62   2.0000      -0.492769       -13.4089
  63   2.0000      -0.484982       -13.1970
  64   2.0000      -0.478443       -13.0191
  65   2.0000      -0.459836       -12.5128
  66   2.0000      -0.455764       -12.4020
  67   2.0000      -0.453245       -12.3334
  68   2.0000      -0.443331       -12.0636
  69   2.0000      -0.433625       -11.7995
  70   2.0000      -0.425692       -11.5837
  71   2.0000      -0.413173       -11.2430
  72   2.0000      -0.409631       -11.1466
  73   2.0000      -0.408173       -11.1070
  74   2.0000      -0.389938       -10.6108
  75   2.0000      -0.389124       -10.5886
  76   2.0000      -0.384463       -10.4618
  77   2.0000      -0.372600       -10.1390
  78   2.0000      -0.367901       -10.0111
  79   2.0000      -0.363269        -9.8851
  80   2.0000      -0.362246        -9.8572
  81   2.0000      -0.360141        -9.7999
  82   2.0000      -0.352683        -9.5970
  83   2.0000      -0.348612        -9.4862
  84   2.0000      -0.342893        -9.3306
  85   2.0000      -0.335240        -9.1223
  86   2.0000      -0.319128        -8.6839
  87   2.0000      -0.308142        -8.3850
  88   2.0000      -0.307371        -8.3640
  89   2.0000      -0.304642        -8.2897
  90   2.0000      -0.296686        -8.0732
  91   2.0000      -0.289012        -7.8644
  92   2.0000      -0.279653        -7.6098
  93   2.0000      -0.278263        -7.5719
  94   2.0000      -0.275575        -7.4988
  95   2.0000      -0.239918        -6.5285
  96   2.0000      -0.230613        -6.2753
  97   2.0000      -0.224958        -6.1214
  98   2.0000      -0.220630        -6.0036
  99   2.0000      -0.212313        -5.7773
 100   2.0000      -0.210202        -5.7199
 101   0.0000      -0.047660        -1.2969
 102   0.0000      -0.021327        -0.5803
 103   0.0000      -0.009365        -0.2548
 104   0.0000       0.002966         0.0807
 105   0.0000       0.006577         0.1790

MULLIKEN ATOMIC CHARGES
-----------------------
   0 C :   -0.454756
   1 C :   -0.151898
   2 O :   -0.304158
   3 P :    0.674986
   4 S :   -0.469315
   5 O :   -0.270048
   6 C :   -0.116860
   7 C :   -0.474581
   8 S :   -0.102784
   9 C :   -0.262591
  10 S :   -0.108980
  11 P :    0.673953
  12 S :   -0.472810
  13 O :   -0.229320
  14 C :   -0.174014
  15 C :   -0.433871
  16 O :   -0.300710
  17 C :   -0.163288
  18 C :   -0.429871
  19 H :    0.176305
  20 H :    0.147533
  21 H :    0.154572
  22 H :    0.174796
  23 H :    0.147086
  24 H :    0.146376
  25 H :    0.148717
  26 H :    0.176132
  27 H :    0.141708
  28 H :    0.178772
  29 H :    0.189987
  30 H :    0.206416
  31 H :    0.158502
  32 H :    0.170274
  33 H :    0.155673
  34 H :    0.146779
  35 H :    0.163360
  36 H :    0.148080
  37 H :    0.170720
  38 H :    0.147983
  39 H :    0.174255
  40 H :    0.146891
Sum of atomic charges:   -0.0000000

LOEWDIN ATOMIC CHARGES
----------------------
   0 C :   -0.407624
   1 C :    0.017275
   2 O :   -0.663102
   3 P :    0.370745
   4 S :   -0.127317
   5 O :   -0.672318
   6 C :    0.027057
   7 C :   -0.405175
   8 S :    0.195650
   9 C :   -0.407474
  10 S :    0.196468
  11 P :    0.374258
  12 S :   -0.116046
  13 O :   -0.688197
  14 C :    0.023530
  15 C :   -0.398289
  16 O :   -0.680796
  17 C :    0.016605
  18 C :   -0.403290
  19 H :    0.164988
  20 H :    0.158986
  21 H :    0.159542
  22 H :    0.180185
  23 H :    0.178745
  24 H :    0.177448
  25 H :    0.174426
  26 H :    0.166447
  27 H :    0.156186
  28 H :    0.167300
  29 H :    0.187452
  30 H :    0.188834
  31 H :    0.182553
  32 H :    0.179966
  33 H :    0.161029
  34 H :    0.158976
  35 H :    0.163494
  36 H :    0.178495
  37 H :    0.180117
  38 H :    0.159508
  39 H :    0.166910
  40 H :    0.156454

  Mayer bond orders larger than 0.100000
B(  0-C ,  1-C ) :   0.9200 B(  0-C , 19-H ) :   0.9638 B(  0-C , 20-H ) :   0.9593
B(  0-C , 21-H ) :   0.9684 B(  1-C ,  2-O ) :   0.8199 B(  1-C , 22-H ) :   0.9675
B(  1-C , 23-H ) :   0.9584 B(  2-O ,  3-P ) :   1.0595 B(  3-P ,  4-S ) :   1.7478
B(  3-P ,  5-O ) :   1.1537 B(  3-P ,  8-S ) :   1.1193 B(  5-O ,  6-C ) :   0.7579
B(  6-C ,  7-C ) :   0.9387 B(  6-C , 24-H ) :   0.9626 B(  6-C , 25-H ) :   0.9643
B(  7-C , 26-H ) :   0.9621 B(  7-C , 27-H ) :   0.9637 B(  7-C , 28-H ) :   0.9624
B(  8-S ,  9-C ) :   0.9069 B(  9-C , 10-S ) :   0.9093 B(  9-C , 29-H ) :   0.9209
B(  9-C , 30-H ) :   0.9173 B( 10-S , 11-P ) :   1.0561 B( 11-P , 12-S ) :   1.7935
B( 11-P , 13-O ) :   1.1391 B( 11-P , 16-O ) :   1.0239 B( 13-O , 14-C ) :   0.7893
B( 14-C , 15-C ) :   0.9218 B( 14-C , 31-H ) :   0.9640 B( 14-C , 32-H ) :   0.9622
B( 15-C , 33-H ) :   0.9733 B( 15-C , 34-H ) :   0.9628 B( 15-C , 35-H ) :   0.9614
B( 16-O , 17-C ) :   0.8103 B( 17-C , 18-C ) :   0.9332 B( 17-C , 36-H ) :   0.9599
B( 17-C , 37-H ) :   0.9612 B( 18-C , 38-H ) :   0.9603 B( 18-C , 39-H ) :   0.9601
B( 18-C , 40-H ) :   0.9707

Dispersion correction           -0.022301012
FINAL SINGLE POINT ENERGY     -2932.457898568101

DIPOLE MOMENT
-------------

Method             : SCF
Type of density    : Electron Density
Multiplicity       :   1
Irrep              :   0
Energy             : -2932.4821068925325562 Eh
Relativity type    :
Basis              : AO
                                X                 Y                 Z
Electronic contribution:      2.699339010       1.610460976      -5.832380832
Nuclear contribution   :     -2.671859075      -2.492876955       6.922638003
                        -----------------------------------------
Total Dipole Moment    :      0.027479935      -0.882415980       1.090257171
                        -----------------------------------------
Magnitude (a.u.)       :      1.402880539
Magnitude (Debye)      :      3.565838948

Rotational constants in cm-1:             0.012865             0.005129             0.005044
Rotational constants in MHz :           385.678318           153.766185           151.228463

                             ****ORCA TERMINATED NORMALLY****
TOTAL RUN TIME: 0 days 0 hours 1 minutes 22 seconds 625 msec
