                         Program Version 6.0.0  -   RELEASE  -
|  1> ! r2scan-3c def2/J RI DEFGRID2 scfconv6 printgap
|  2> %output
|  3>     printlevel normal
|  4> end
|  5> %cpcm
|  6>     smd true
|  7>     smdsolvent "water"
|  8> end
|  9> * xyz 0 1
| 10> C 4.5447392113 -2.202835659 0.5873927445
| 11> C 4.7333822001 -0.7097992765 0.4134375288
| 12> O 3.5341916923 0.0237253148 0.720186213
| 13> P 2.2360187197 -0.0421707085 -0.2003640985
| 14> S 2.6474805377 -0.0919284897 -2.1217040905
| 15> O 1.4332015027 1.2165412624 0.346939769
| 16> C 1.7602513707 2.5616273759 -0.0650292696
| 17> C 0.8045858121 3.0415595918 -1.1398087224
| 18> S 1.0877499859 -1.586554227 0.6311768226
| 19> C -0.1099746423 -1.796500926 -0.7266579259
| 20> S -0.803072752 -0.2513109468 -1.3746350097
| 21> P -2.1264466869 0.2584244114 0.1907247903
| 22> S -3.1322030318 1.9235993215 -0.030185815
| 23> O -1.1303460537 0.1991269862 1.4193952174
| 24> C -1.4152329224 0.8492307971 2.6725878031
| 25> C -2.5324697963 0.1567815246 3.4239699054
| 26> O -3.0144434508 -1.0467622982 0.4367160393
| 27> C -4.2791929401 -1.2376530818 -0.2166109688
| 28> C -4.1186102696 -1.5203283481 -1.6970925282
| 29> H 3.8490674051 -2.578211812 -0.1617667785
| 30> H 5.5002694088 -2.7020535748 0.4629621125
| 31> H 4.1470828217 -2.4210236508 1.5752539833
| 32> H 5.0267461747 -0.47629265 -0.6151855978
| 33> H 5.4703947917 -0.3101195728 1.111182088
| 34> H 1.6723897237 3.1610474349 0.8428579568
| 35> H 2.7936183317 2.5870754658 -0.4228500171
| 36> H -0.2243133486 2.9708467475 -0.7916524472
| 37> H 1.0263561252 4.0757167467 -1.3825924251
| 38> H 0.9076616812 2.4341448284 -2.0370414871
| 39> H -0.9033606666 -2.4285878919 -0.3348640198
| 40> H 0.3885646618 -2.2608342633 -1.5757039545
| 41> H -0.4679791251 0.7973029663 3.2117815809
| 42> H -1.6722049276 1.8942103343 2.4702516501
| 43> H -2.3112150083 -0.9018037515 3.5318341164
| 44> H -2.6373404881 0.6073632736 4.4059888352
| 45> H -3.4695377407 0.2701458659 2.8807140729
| 46> H -4.7253349272 -2.0822175067 0.3103938755
| 47> H -4.8863604052 -0.3395364893 -0.0641840567
| 48> H -5.0931337047 -1.7191305066 -2.1314492781
| 49> H -3.6809349394 -0.6554277305 -2.195240383
| 50> H -3.4731809884 -2.3802104881 -1.8564932638
| 51> *
| 52>
| 53>                          ****END OF INPUT****

CARTESIAN COORDINATES (ANGSTROEM)
---------------------------------
  C      4.544739   -2.202836    0.587393
  C      4.733382   -0.709799    0.413438
  O      3.534192    0.023725    0.720186
  P      2.236019   -0.042171   -0.200364
  S      2.647481   -0.091928   -2.121704
  O      1.433202    1.216541    0.346940
  C      1.760251    2.561627   -0.065029
  C      0.804586    3.041560   -1.139809
  S      1.087750   -1.586554    0.631177
  C     -0.109975   -1.796501   -0.726658
  S     -0.803073   -0.251311   -1.374635
  P     -2.126447    0.258424    0.190725
  S     -3.132203    1.923599   -0.030186
  O     -1.130346    0.199127    1.419395
  C     -1.415233    0.849231    2.672588
  C     -2.532470    0.156782    3.423970
  O     -3.014443   -1.046762    0.436716
  C     -4.279193   -1.237653   -0.216611
  C     -4.118610   -1.520328   -1.697093
  H      3.849067   -2.578212   -0.161767
  H      5.500269   -2.702054    0.462962
  H      4.147083   -2.421024    1.575254
  H      5.026746   -0.476293   -0.615186
  H      5.470395   -0.310120    1.111182
  H      1.672390    3.161047    0.842858
  H      2.793618    2.587075   -0.422850
  H     -0.224313    2.970847   -0.791652
  H      1.026356    4.075717   -1.382592
  H      0.907662    2.434145   -2.037041
  H     -0.903361   -2.428588   -0.334864
  H      0.388565   -2.260834   -1.575704
  H     -0.467979    0.797303    3.211782
  H     -1.672205    1.894210    2.470252
  H     -2.311215   -0.901804    3.531834
  H     -2.637340    0.607363    4.405989
  H     -3.469538    0.270146    2.880714
  H     -4.725335   -2.082218    0.310394
  H     -4.886360   -0.339536   -0.064184
  H     -5.093134   -1.719131   -2.131449
  H     -3.680935   -0.655428   -2.195240
  H     -3.473181   -2.380210   -1.856493

 Total Charge           Charge          ....    0
 Multiplicity           Mult            ....    1
 Number of Electrons    NEL             ....  202
 Basis Dimension        Dim             ....  539

ORBITAL ENERGIES
----------------

  NO   OCC          E(Eh)            E(eV)
   0   2.0000     -88.576509     -2410.2893
   1   2.0000     -88.576342     -2410.2848
   2   2.0000     -88.529830     -2409.0191
   3   2.0000     -88.525536     -2408.9023
   4   2.0000     -76.917738     -2093.0381
   5   2.0000     -76.917076     -2093.0200
   6   2.0000     -18.993328      -516.8347
   7   2.0000     -18.991306      -516.7797
   8   2.0000     -18.988001      -516.6898
   9   2.0000     -18.987035      -516.6635
  10   2.0000     -10.107526      -275.0398
  11   2.0000     -10.088725      -274.5282
  12   2.0000     -10.088278      -274.5160
  13   2.0000     -10.088029      -274.5092
  14   2.0000     -10.087860      -274.5046
  15   2.0000     -10.018228      -272.6098
  16   2.0000     -10.017935      -272.6019
  17   2.0000     -10.017781      -272.5977
  18   2.0000     -10.014171      -272.4994
  19   2.0000      -7.871056      -214.1823
  20   2.0000      -7.870883      -214.1776
  21   2.0000      -7.824803      -212.9237
  22   2.0000      -7.820553      -212.8081
  23   2.0000      -6.596042      -179.4874
  24   2.0000      -6.595598      -179.4753
  25   2.0000      -5.818268      -158.3231
  26   2.0000      -5.818087      -158.3182
  27   2.0000      -5.814943      -158.2326
  28   2.0000      -5.814370      -158.2170
  29   2.0000      -5.807908      -158.0412
  30   2.0000      -5.807821      -158.0389
  31   2.0000      -5.772320      -157.0728
  32   2.0000      -5.768134      -156.9589
  33   2.0000      -5.765187      -156.8787
  34   2.0000      -5.764791      -156.8679
  35   2.0000      -5.760995      -156.7646
  36   2.0000      -5.760433      -156.7494
  37   2.0000      -4.741564      -129.0245
  38   2.0000      -4.740914      -129.0068
  39   2.0000      -4.740833      -129.0046
  40   2.0000      -4.740669      -129.0002
  41   2.0000      -4.739890      -128.9790
  42   2.0000      -4.739494      -128.9682
  43   2.0000      -1.049735       -28.5647
  44   2.0000      -1.048361       -28.5273
  45   2.0000      -1.010197       -27.4889
  46   2.0000      -1.007636       -27.4192
  47   2.0000      -0.801858       -21.8197
  48   2.0000      -0.754420       -20.5288
  49   2.0000      -0.740544       -20.1512
  50   2.0000      -0.722144       -19.6505
  51   2.0000      -0.720648       -19.6098
  52   2.0000      -0.708887       -19.2898
  53   2.0000      -0.692558       -18.8455
  54   2.0000      -0.674280       -18.3481
  55   2.0000      -0.629935       -17.1414
  56   2.0000      -0.620432       -16.8828
  57   2.0000      -0.600814       -16.3490
  58   2.0000      -0.597572       -16.2608
  59   2.0000      -0.587374       -15.9833
  60   2.0000      -0.520937       -14.1754
  61   2.0000      -0.514188       -13.9918
  62   2.0000      -0.488184       -13.2842
  63   2.0000      -0.483945       -13.1688
  64   2.0000      -0.477057       -12.9814
  65   2.0000      -0.454559       -12.3692
  66   2.0000      -0.453614       -12.3435
  67   2.0000      -0.451349       -12.2818
  68   2.0000      -0.438730       -11.9385
  69   2.0000      -0.430004       -11.7010
  70   2.0000      -0.421235       -11.4624
  71   2.0000      -0.410692       -11.1755
  72   2.0000      -0.406882       -11.0718
  73   2.0000      -0.403901       -10.9907
  74   2.0000      -0.390830       -10.6350
  75   2.0000      -0.385458       -10.4889
  76   2.0000      -0.381820       -10.3899
  77   2.0000      -0.367412        -9.9978
  78   2.0000      -0.364542        -9.9197
  79   2.0000      -0.360802        -9.8179
  80   2.0000      -0.353208        -9.6113
  81   2.0000      -0.352104        -9.5812
  82   2.0000      -0.347775        -9.4634
  83   2.0000      -0.345739        -9.4080
  84   2.0000      -0.341263        -9.2862
  85   2.0000      -0.332940        -9.0598
  86   2.0000      -0.316627        -8.6159
  87   2.0000      -0.304904        -8.2969
  88   2.0000      -0.304189        -8.2774
  89   2.0000      -0.301246        -8.1973
  90   2.0000      -0.297272        -8.0892
  91   2.0000      -0.289707        -7.8833
  92   2.0000      -0.280152        -7.6233
  93   2.0000      -0.277570        -7.5531
  94   2.0000      -0.276493        -7.5238
  95   2.0000      -0.243126        -6.6158
  96   2.0000      -0.235902        -6.4192
  97   2.0000      -0.232667        -6.3312
  98   2.0000      -0.227821        -6.1993
  99   2.0000      -0.218619        -5.9489
 100   2.0000      -0.215996        -5.8776
 101   0.0000      -0.050272        -1.3680
 102   0.0000      -0.025710        -0.6996
 103   0.0000      -0.012297        -0.3346
 104   0.0000       0.000308         0.0084
 105   0.0000       0.004488         0.1221

MULLIKEN ATOMIC CHARGES
-----------------------
   0 C :   -0.489505
   1 C :   -0.151217
   2 O :   -0.331293
   3 P :    0.709485
   4 S :   -0.521213
   5 O :   -0.296868
   6 C :   -0.126009
   7 C :   -0.501217
   8 S :   -0.109470
   9 C :   -0.270476
  10 S :   -0.137497
  11 P :    0.712078
  12 S :   -0.528446
  13 O :   -0.261121
  14 C :   -0.169337
  15 C :   -0.474705
  16 O :   -0.317377
  17 C :   -0.158418
  18 C :   -0.468992
  19 H :    0.172661
  20 H :    0.172044
  21 H :    0.168790
  22 H :    0.177787
  23 H :    0.173661
  24 H :    0.174207
  25 H :    0.167309
  26 H :    0.166860
  27 H :    0.167656
  28 H :    0.172955
  29 H :    0.227824
  30 H :    0.234149
  31 H :    0.178791
  32 H :    0.176274
  33 H :    0.169342
  34 H :    0.171546
  35 H :    0.167227
  36 H :    0.174380
  37 H :    0.173773
  38 H :    0.170490
  39 H :    0.165606
  40 H :    0.168264
Sum of atomic charges:   -0.0000000

LOEWDIN ATOMIC CHARGES
----------------------
   0 C :   -0.410436
   1 C :    0.022389
   2 O :   -0.676125
   3 P :    0.375666
   4 S :   -0.159366
   5 O :   -0.688786
   6 C :    0.030601
   7 C :   -0.409933
   8 S :    0.195216
   9 C :   -0.395358
  10 S :    0.182536
  11 P :    0.379633
  12 S :   -0.152804
  13 O :   -0.701885
  14 C :    0.026731
  15 C :   -0.401541
  16 O :   -0.684809
  17 C :    0.022878
  18 C :   -0.407279
  19 H :    0.161341
  20 H :    0.167974
  21 H :    0.163307
  22 H :    0.181096
  23 H :    0.189920
  24 H :    0.188527
  25 H :    0.180552
  26 H :    0.161801
  27 H :    0.164829
  28 H :    0.162932
  29 H :    0.201873
  30 H :    0.198816
  31 H :    0.190437
  32 H :    0.181900
  33 H :    0.164301
  34 H :    0.168230
  35 H :    0.162705
  36 H :    0.189979
  37 H :    0.180764
  38 H :    0.167338
  39 H :    0.161280
  40 H :    0.162769

  Mayer bond orders larger than 0.100000
B(  0-C ,  1-C ) :   0.9093 B(  0-C , 19-H ) :   0.9643 B(  0-C , 20-H ) :   0.9540
B(  0-C , 21-H ) :   0.9655 B(  1-C ,  2-O ) :   0.8079 B(  1-C , 22-H ) :   0.9656
B(  1-C , 23-H ) :   0.9490 B(  2-O ,  3-P ) :   1.0666 B(  3-P ,  4-S ) :   1.7011
B(  3-P ,  5-O ) :   1.1526 B(  3-P ,  8-S ) :   1.1395 B(  5-O ,  6-C ) :   0.7460
B(  6-C ,  7-C ) :   0.9295 B(  6-C , 24-H ) :   0.9532 B(  6-C , 25-H ) :   0.9606
B(  7-C , 26-H ) :   0.9641 B(  7-C , 27-H ) :   0.9597 B(  7-C , 28-H ) :   0.9654
B(  8-S ,  9-C ) :   0.8993 B(  9-C , 10-S ) :   0.9057 B(  9-C , 29-H ) :   0.9087
B(  9-C , 30-H ) :   0.9074 B( 10-S , 11-P ) :   1.0656 B( 11-P , 12-S ) :   1.7483
B( 11-P , 13-O ) :   1.1456 B( 11-P , 16-O ) :   1.0393 B( 13-O , 14-C ) :   0.7808
B( 14-C , 15-C ) :   0.9119 B( 14-C , 31-H ) :   0.9548 B( 14-C , 32-H ) :   0.9567
B( 15-C , 33-H ) :   0.9716 B( 15-C , 34-H ) :   0.9569 B( 15-C , 35-H ) :   0.9599
B( 16-O , 17-C ) :   0.7974 B( 17-C , 18-C ) :   0.9219 B( 17-C , 36-H ) :   0.9501
B( 17-C , 37-H ) :   0.9604 B( 18-C , 38-H ) :   0.9558 B( 18-C , 39-H ) :   0.9623
B( 18-C , 40-H ) :   0.9670

Dispersion correction           -0.022301012
FINAL SINGLE POINT ENERGY     -2932.466603513392

DIPOLE MOMENT
-------------

Method             : SCF
Type of density    : Electron Density
Multiplicity       :   1
Irrep              :   0
Energy             : -2932.4908118378230029 Eh
Relativity type    :
Basis              : AO
                                X                 Y                 Z
Electronic contribution:      2.756637885       1.126598424      -5.461954627
Nuclear contribution   :     -2.671859075      -2.492876955       6.922638003
                        -----------------------------------------
Total Dipole Moment    :      0.084778810      -1.366278532       1.460683376
                        -----------------------------------------
Magnitude (a.u.)       :      2.001874221
Magnitude (Debye)      :      5.088359892

Rotational constants in cm-1:             0.012865             0.005129             0.005044
Rotational constants in MHz :           385.678318           153.766185           151.228463

                             ****ORCA TERMINATED NORMALLY****
TOTAL RUN TIME: 0 days 0 hours 1 minutes 53 seconds 35 msec
