                         Program Version 6.0.0  -   RELEASE  -
|  1> ! r2scan-3c def2/J RI DEFGRID2 scfconv6 printgap
|  2> %output
|  3>     printlevel normal
|  4> end
|  5> * xyz 0 1
|  6> C 2.7749666235 -1.3915985455 -0.0001369018
|  7> C 1.5784664928 -0.6980940262 -0.0001485677
|  8> C 1.5784713402 0.6980809621 -8.12133e-05
|  9> C 2.7749590194 1.3916014917 4.60401e-05
| 10> C 3.9767980748 0.6950558522 7.88624e-05
| 11> C 3.9767888323 -0.6950394741 -3.23788e-05
| 12> Cl 5.4631932859 -1.5688469998 -4.39926e-05
| 13> Cl 5.463188358 1.5688460488 0.0002574593
| 14> O 0.4100377713 1.4242764262 -0.000137819
| 15> C -0.7431813552 0.6990787809 -0.0001190069
| 16> C -0.7431821032 -0.6990842383 -0.0001225285
| 17> C -1.9510866127 -1.3892835139 -2.47142e-05
| 18> C -3.1620451103 -0.6952469951 5.19516e-05
| 19> C -3.1620417788 0.6952478601 5.5777e-06
| 20> C -1.9510849889 1.389287499 -7.74244e-05
| 21> Cl -1.9225286564 3.1042657377 -0.0001353832
| 22> Cl -4.642277964 1.5599723208 6.76085e-05
| 23> Cl -4.6422743035 -1.5599663037 0.0002060415
| 24> Cl -1.922537372 -3.1042695368 1.7403e-06
| 25> O 0.4100395903 -1.4242833604 -0.0002184893
| 26> H 2.7593358829 -2.4683101219 -0.000216636
| 27> H 2.7593028359 2.4683082717 0.0001162531
| 28> *
| 29>
| 30>                          ****END OF INPUT****

CARTESIAN COORDINATES (ANGSTROEM)
---------------------------------
  C      2.774967   -1.391599   -0.000137
  C      1.578466   -0.698094   -0.000149
  C      1.578471    0.698081   -0.000081
  C      2.774959    1.391601    0.000046
  C      3.976798    0.695056    0.000079
  C      3.976789   -0.695039   -0.000032
  Cl     5.463193   -1.568847   -0.000044
  Cl     5.463188    1.568846    0.000257
  O      0.410038    1.424276   -0.000138
  C     -0.743181    0.699079   -0.000119
  C     -0.743182   -0.699084   -0.000123
  C     -1.951087   -1.389284   -0.000025
  C     -3.162045   -0.695247    0.000052
  C     -3.162042    0.695248    0.000006
  C     -1.951085    1.389287   -0.000077
  Cl    -1.922529    3.104266   -0.000135
  Cl    -4.642278    1.559972    0.000068
  Cl    -4.642274   -1.559966    0.000206
  Cl    -1.922537   -3.104270    0.000002
  O      0.410040   -1.424283   -0.000218
  H      2.759336   -2.468310   -0.000217
  H      2.759303    2.468308    0.000116

 Total Charge           Charge          ....    0
 Multiplicity           Mult            ....    1
 Number of Electrons    NEL             ....  192
 Basis Dimension        Dim             ....  448

ORBITAL ENERGIES
----------------

  NO   OCC          E(Eh)            E(eV)
   0   2.0000    -101.247397     -2755.0817
   1   2.0000    -101.247396     -2755.0817
   2   2.0000    -101.245504     -2755.0302
   3   2.0000    -101.245499     -2755.0301
   4   2.0000    -101.240333     -2754.8895
   5   2.0000    -101.240328     -2754.8894
   6   2.0000     -19.050955      -518.4028
   7   2.0000     -19.050948      -518.4026
   8   2.0000     -10.153360      -276.2870
   9   2.0000     -10.152950      -276.2758
  10   2.0000     -10.144869      -276.0559
  11   2.0000     -10.144453      -276.0446
  12   2.0000     -10.139707      -275.9154
  13   2.0000     -10.139317      -275.9048
  14   2.0000     -10.138799      -275.8907
  15   2.0000     -10.138763      -275.8898
  16   2.0000     -10.131417      -275.6899
  17   2.0000     -10.130982      -275.6780
  18   2.0000     -10.081369      -274.3280
  19   2.0000     -10.081357      -274.3277
  20   2.0000      -9.402965      -255.8677
  21   2.0000      -9.402964      -255.8677
  22   2.0000      -9.401209      -255.8199
  23   2.0000      -9.401204      -255.8198
  24   2.0000      -9.396079      -255.6803
  25   2.0000      -9.396074      -255.6802
  26   2.0000      -7.149740      -194.5543
  27   2.0000      -7.149739      -194.5543
  28   2.0000      -7.147962      -194.5059
  29   2.0000      -7.147961      -194.5059
  30   2.0000      -7.142623      -194.3607
  31   2.0000      -7.142621      -194.3606
  32   2.0000      -7.139199      -194.2675
  33   2.0000      -7.139198      -194.2675
  34   2.0000      -7.138249      -194.2416
  35   2.0000      -7.138248      -194.2416
  36   2.0000      -7.137437      -194.2195
  37   2.0000      -7.137436      -194.2195
  38   2.0000      -7.136480      -194.1935
  39   2.0000      -7.136479      -194.1935
  40   2.0000      -7.132288      -194.0794
  41   2.0000      -7.132286      -194.0794
  42   2.0000      -7.131602      -194.0608
  43   2.0000      -7.131600      -194.0607
  44   2.0000      -1.123770       -30.5793
  45   2.0000      -1.089981       -29.6599
  46   2.0000      -0.931786       -25.3552
  47   2.0000      -0.908381       -24.7183
  48   2.0000      -0.886230       -24.1155
  49   2.0000      -0.866099       -23.5677
  50   2.0000      -0.843437       -22.9511
  51   2.0000      -0.837317       -22.7846
  52   2.0000      -0.832606       -22.6564
  53   2.0000      -0.811102       -22.0712
  54   2.0000      -0.766397       -20.8547
  55   2.0000      -0.744331       -20.2543
  56   2.0000      -0.717243       -19.5172
  57   2.0000      -0.708976       -19.2922
  58   2.0000      -0.660129       -17.9630
  59   2.0000      -0.641538       -17.4571
  60   2.0000      -0.608926       -16.5697
  61   2.0000      -0.590548       -16.0696
  62   2.0000      -0.572068       -15.5668
  63   2.0000      -0.545057       -14.8318
  64   2.0000      -0.508978       -13.8500
  65   2.0000      -0.496715       -13.5163
  66   2.0000      -0.489931       -13.3317
  67   2.0000      -0.487577       -13.2676
  68   2.0000      -0.469277       -12.7697
  69   2.0000      -0.456747       -12.4287
  70   2.0000      -0.450430       -12.2568
  71   2.0000      -0.432807       -11.7773
  72   2.0000      -0.432306       -11.7636
  73   2.0000      -0.430634       -11.7182
  74   2.0000      -0.426082       -11.5943
  75   2.0000      -0.420494       -11.4422
  76   2.0000      -0.405519       -11.0347
  77   2.0000      -0.404724       -11.0131
  78   2.0000      -0.401304       -10.9200
  79   2.0000      -0.373497       -10.1634
  80   2.0000      -0.356125        -9.6907
  81   2.0000      -0.346043        -9.4163
  82   2.0000      -0.339295        -9.2327
  83   2.0000      -0.327488        -8.9114
  84   2.0000      -0.327113        -8.9012
  85   2.0000      -0.324791        -8.8380
  86   2.0000      -0.321966        -8.7611
  87   2.0000      -0.316889        -8.6230
  88   2.0000      -0.308312        -8.3896
  89   2.0000      -0.294773        -8.0212
  90   2.0000      -0.290305        -7.8996
  91   2.0000      -0.285895        -7.7796
  92   2.0000      -0.265098        -7.2137
  93   2.0000      -0.254780        -6.9329
  94   2.0000      -0.237838        -6.4719
  95   2.0000      -0.211091        -5.7441
  96   0.0000      -0.082726        -2.2511
  97   0.0000      -0.074233        -2.0200
  98   0.0000      -0.073275        -1.9939
  99   0.0000      -0.069327        -1.8865
 100   0.0000      -0.040553        -1.1035

MULLIKEN ATOMIC CHARGES
-----------------------
   0 C :   -0.452675
   1 C :    0.243378
   2 C :    0.243372
   3 C :   -0.452654
   4 C :    0.184512
   5 C :    0.184542
   6 Cl:   -0.095337
   7 Cl:   -0.095322
   8 O :   -0.070788
   9 C :    0.490176
  10 C :    0.490186
  11 C :   -0.385225
  12 C :    0.036783
  13 C :    0.036788
  14 C :   -0.385226
  15 Cl:   -0.067219
  16 Cl:   -0.058815
  17 Cl:   -0.058809
  18 Cl:   -0.067223
  19 O :   -0.070782
  20 H :    0.175170
  21 H :    0.175170
Sum of atomic charges:   -0.0000000

LOEWDIN ATOMIC CHARGES
----------------------
   0 C :   -0.114778
   1 C :    0.226752
   2 C :    0.226752
   3 C :   -0.114777
   4 C :   -0.182585
   5 C :   -0.182576
   6 Cl:    0.164580
   7 Cl:    0.164596
   8 O :   -0.564480
   9 C :    0.211429
  10 C :    0.211428
  11 C :   -0.149605
  12 C :   -0.199381
  13 C :   -0.199377
  14 C :   -0.149608
  15 Cl:    0.219029
  16 Cl:    0.190223
  17 Cl:    0.190229
  18 Cl:    0.219023
  19 O :   -0.564475
  20 H :    0.198801
  21 H :    0.198800

  Mayer bond orders larger than 0.100000
B(  0-C ,  1-C ) :   1.2868 B(  0-C ,  5-C ) :   1.2663 B(  0-C , 20-H ) :   0.9583
B(  1-C ,  2-C ) :   1.4594 B(  1-C , 19-O ) :   0.9041 B(  2-C ,  3-C ) :   1.2868
B(  2-C ,  8-O ) :   0.9040 B(  3-C ,  4-C ) :   1.2663 B(  3-C , 21-H ) :   0.9583
B(  4-C ,  5-C ) :   1.2713 B(  4-C ,  7-Cl) :   1.0506 B(  5-C ,  6-Cl) :   1.0505
B(  8-O ,  9-C ) :   1.1189 B(  9-C , 10-C ) :   1.3602 B(  9-C , 11-C ) :  -0.1825
B(  9-C , 14-C ) :   0.7625 B(  9-C , 15-Cl) :  -0.2553 B( 10-C , 11-C ) :   0.7625
B( 10-C , 14-C ) :  -0.1825 B( 10-C , 18-Cl) :  -0.2553 B( 10-C , 19-O ) :   1.1189
B( 11-C , 12-C ) :   0.9405 B( 11-C , 14-C ) :   0.1487 B( 11-C , 18-Cl) :   1.4585
B( 12-C , 13-C ) :   1.0744 B( 12-C , 17-Cl) :   1.2573 B( 13-C , 14-C ) :   0.9405
B( 13-C , 16-Cl) :   1.2573 B( 14-C , 15-Cl) :   1.4585

Dispersion correction           -0.014623507
FINAL SINGLE POINT ENERGY     -3369.852732158718

DIPOLE MOMENT
-------------

Method             : SCF
Type of density    : Electron Density
Multiplicity       :   1
Irrep              :   0
Energy             : -3369.8527780864765191 Eh
Relativity type    :
Basis              : AO
                                X                 Y                 Z
Electronic contribution:     -8.041990567       0.000026915       0.000544181
Nuclear contribution   :      8.146789227      -0.000003539      -0.000573879
                        -----------------------------------------
Total Dipole Moment    :      0.104798660       0.000023376      -0.000029698
                        -----------------------------------------
Magnitude (a.u.)       :      0.104798667
Magnitude (Debye)      :      0.266377043

Rotational constants in cm-1:             0.013518             0.003443             0.002744
Rotational constants in MHz :           405.245610           103.205845            82.257048

                             ****ORCA TERMINATED NORMALLY****
TOTAL RUN TIME: 0 days 0 hours 1 minutes 25 seconds 485 msec
