                         Program Version 6.0.0  -   RELEASE  -
|  1> ! r2scan-3c def2/J RI DEFGRID2 scfconv6 printgap
|  2> %output
|  3>     printlevel normal
|  4> end
|  5> %cpcm
|  6>     smd true
|  7>     smdsolvent "water"
|  8> end
|  9> * xyz 0 1
| 10> C 2.7749666235 -1.3915985455 -0.0001369018
| 11> C 1.5784664928 -0.6980940262 -0.0001485677
| 12> C 1.5784713402 0.6980809621 -8.12133e-05
| 13> C 2.7749590194 1.3916014917 4.60401e-05
| 14> C 3.9767980748 0.6950558522 7.88624e-05
| 15> C 3.9767888323 -0.6950394741 -3.23788e-05
| 16> Cl 5.4631932859 -1.5688469998 -4.39926e-05
| 17> Cl 5.463188358 1.5688460488 0.0002574593
| 18> O 0.4100377713 1.4242764262 -0.000137819
| 19> C -0.7431813552 0.6990787809 -0.0001190069
| 20> C -0.7431821032 -0.6990842383 -0.0001225285
| 21> C -1.9510866127 -1.3892835139 -2.47142e-05
| 22> C -3.1620451103 -0.6952469951 5.19516e-05
| 23> C -3.1620417788 0.6952478601 5.5777e-06
| 24> C -1.9510849889 1.389287499 -7.74244e-05
| 25> Cl -1.9225286564 3.1042657377 -0.0001353832
| 26> Cl -4.642277964 1.5599723208 6.76085e-05
| 27> Cl -4.6422743035 -1.5599663037 0.0002060415
| 28> Cl -1.922537372 -3.1042695368 1.7403e-06
| 29> O 0.4100395903 -1.4242833604 -0.0002184893
| 30> H 2.7593358829 -2.4683101219 -0.000216636
| 31> H 2.7593028359 2.4683082717 0.0001162531
| 32> *
| 33>
| 34>                          ****END OF INPUT****

CARTESIAN COORDINATES (ANGSTROEM)
---------------------------------
  C      2.774967   -1.391599   -0.000137
  C      1.578466   -0.698094   -0.000149
  C      1.578471    0.698081   -0.000081
  C      2.774959    1.391601    0.000046
  C      3.976798    0.695056    0.000079
  C      3.976789   -0.695039   -0.000032
  Cl     5.463193   -1.568847   -0.000044
  Cl     5.463188    1.568846    0.000257
  O      0.410038    1.424276   -0.000138
  C     -0.743181    0.699079   -0.000119
  C     -0.743182   -0.699084   -0.000123
  C     -1.951087   -1.389284   -0.000025
  C     -3.162045   -0.695247    0.000052
  C     -3.162042    0.695248    0.000006
  C     -1.951085    1.389287   -0.000077
  Cl    -1.922529    3.104266   -0.000135
  Cl    -4.642278    1.559972    0.000068
  Cl    -4.642274   -1.559966    0.000206
  Cl    -1.922537   -3.104270    0.000002
  O      0.410040   -1.424283   -0.000218
  H      2.759336   -2.468310   -0.000217
  H      2.759303    2.468308    0.000116

 Total Charge           Charge          ....    0
 Multiplicity           Mult            ....    1
 Number of Electrons    NEL             ....  192
 Basis Dimension        Dim             ....  448

ORBITAL ENERGIES
----------------

  NO   OCC          E(Eh)            E(eV)
   0   2.0000    -101.244464     -2755.0019
   1   2.0000    -101.244463     -2755.0019
   2   2.0000    -101.243718     -2754.9816
   3   2.0000    -101.243714     -2754.9815
   4   2.0000    -101.235339     -2754.7536
   5   2.0000    -101.235334     -2754.7535
   6   2.0000     -19.041529      -518.1464
   7   2.0000     -19.041523      -518.1462
   8   2.0000     -10.145245      -276.0662
   9   2.0000     -10.144836      -276.0550
  10   2.0000     -10.133775      -275.7540
  11   2.0000     -10.133348      -275.7424
  12   2.0000     -10.133055      -275.7344
  13   2.0000     -10.132639      -275.7231
  14   2.0000     -10.132017      -275.7062
  15   2.0000     -10.132015      -275.7062
  16   2.0000     -10.121315      -275.4150
  17   2.0000     -10.120880      -275.4031
  18   2.0000     -10.067385      -273.9475
  19   2.0000     -10.067374      -273.9472
  20   2.0000      -9.400095      -255.7896
  21   2.0000      -9.400094      -255.7896
  22   2.0000      -9.399515      -255.7738
  23   2.0000      -9.399510      -255.7737
  24   2.0000      -9.391250      -255.5489
  25   2.0000      -9.391245      -255.5488
  26   2.0000      -7.146772      -194.4736
  27   2.0000      -7.146771      -194.4735
  28   2.0000      -7.146166      -194.4571
  29   2.0000      -7.146165      -194.4570
  30   2.0000      -7.137653      -194.2254
  31   2.0000      -7.137651      -194.2253
  32   2.0000      -7.136340      -194.1897
  33   2.0000      -7.136339      -194.1897
  34   2.0000      -7.135750      -194.1736
  35   2.0000      -7.135750      -194.1736
  36   2.0000      -7.135455      -194.1656
  37   2.0000      -7.135455      -194.1656
  38   2.0000      -7.134865      -194.1495
  39   2.0000      -7.134864      -194.1495
  40   2.0000      -7.127510      -193.9494
  41   2.0000      -7.127507      -193.9493
  42   2.0000      -7.126833      -193.9310
  43   2.0000      -7.126830      -193.9309
  44   2.0000      -1.113259       -30.2933
  45   2.0000      -1.079794       -29.3827
  46   2.0000      -0.926062       -25.1994
  47   2.0000      -0.899672       -24.4813
  48   2.0000      -0.882089       -24.0029
  49   2.0000      -0.861327       -23.4379
  50   2.0000      -0.837201       -22.7814
  51   2.0000      -0.830203       -22.5910
  52   2.0000      -0.829763       -22.5790
  53   2.0000      -0.804460       -21.8905
  54   2.0000      -0.755511       -20.5585
  55   2.0000      -0.736914       -20.0525
  56   2.0000      -0.709700       -19.3119
  57   2.0000      -0.700266       -19.0552
  58   2.0000      -0.651876       -17.7384
  59   2.0000      -0.630082       -17.1454
  60   2.0000      -0.601279       -16.3616
  61   2.0000      -0.580540       -15.7973
  62   2.0000      -0.564185       -15.3523
  63   2.0000      -0.537390       -14.6231
  64   2.0000      -0.500948       -13.6315
  65   2.0000      -0.487633       -13.2692
  66   2.0000      -0.481953       -13.1146
  67   2.0000      -0.478657       -13.0249
  68   2.0000      -0.460766       -12.5381
  69   2.0000      -0.451517       -12.2864
  70   2.0000      -0.435371       -11.8471
  71   2.0000      -0.427442       -11.6313
  72   2.0000      -0.425005       -11.5650
  73   2.0000      -0.424535       -11.5522
  74   2.0000      -0.416054       -11.3214
  75   2.0000      -0.412178       -11.2159
  76   2.0000      -0.397958       -10.8290
  77   2.0000      -0.396954       -10.8017
  78   2.0000      -0.391111       -10.6427
  79   2.0000      -0.368609       -10.0304
  80   2.0000      -0.350918        -9.5490
  81   2.0000      -0.336135        -9.1467
  82   2.0000      -0.334214        -9.0944
  83   2.0000      -0.325911        -8.8685
  84   2.0000      -0.323309        -8.7977
  85   2.0000      -0.321299        -8.7430
  86   2.0000      -0.319990        -8.7074
  87   2.0000      -0.312221        -8.4960
  88   2.0000      -0.306381        -8.3371
  89   2.0000      -0.290453        -7.9036
  90   2.0000      -0.285152        -7.7594
  91   2.0000      -0.284674        -7.7464
  92   2.0000      -0.254917        -6.9367
  93   2.0000      -0.248197        -6.7538
  94   2.0000      -0.231257        -6.2928
  95   2.0000      -0.201864        -5.4930
  96   0.0000      -0.073819        -2.0087
  97   0.0000      -0.066877        -1.8198
  98   0.0000      -0.064656        -1.7594
  99   0.0000      -0.059974        -1.6320
 100   0.0000      -0.031873        -0.8673

MULLIKEN ATOMIC CHARGES
-----------------------
   0 C :   -0.438225
   1 C :    0.227497
   2 C :    0.227580
   3 C :   -0.438264
   4 C :    0.174262
   5 C :    0.174244
   6 Cl:   -0.116838
   7 Cl:   -0.116822
   8 O :   -0.072834
   9 C :    0.515295
  10 C :    0.515319
  11 C :   -0.384959
  12 C :    0.045583
  13 C :    0.045498
  14 C :   -0.384963
  15 Cl:   -0.083637
  16 Cl:   -0.076906
  17 Cl:   -0.076900
  18 Cl:   -0.083640
  19 O :   -0.072834
  20 H :    0.210773
  21 H :    0.210771
Sum of atomic charges:   -0.0000000

LOEWDIN ATOMIC CHARGES
----------------------
   0 C :   -0.108925
   1 C :    0.233071
   2 C :    0.233071
   3 C :   -0.108923
   4 C :   -0.186615
   5 C :   -0.186606
   6 Cl:    0.148804
   7 Cl:    0.148821
   8 O :   -0.562799
   9 C :    0.223137
  10 C :    0.223136
  11 C :   -0.147159
  12 C :   -0.197830
  13 C :   -0.197826
  14 C :   -0.147163
  15 Cl:    0.208673
  16 Cl:    0.178370
  17 Cl:    0.178377
  18 Cl:    0.208667
  19 O :   -0.562794
  20 H :    0.211257
  21 H :    0.211256

  Mayer bond orders larger than 0.100000
B(  0-C ,  1-C ) :   1.3140 B(  0-C ,  5-C ) :   1.2664 B(  0-C , 20-H ) :   0.9368
B(  1-C ,  2-C ) :   1.4552 B(  1-C , 19-O ) :   0.9074 B(  2-C ,  3-C ) :   1.3140
B(  2-C ,  8-O ) :   0.9074 B(  3-C ,  4-C ) :   1.2663 B(  3-C , 21-H ) :   0.9368
B(  4-C ,  5-C ) :   1.2550 B(  4-C ,  7-Cl) :   1.0406 B(  5-C ,  6-Cl) :   1.0406
B(  8-O ,  9-C ) :   1.1268 B(  9-C , 10-C ) :   1.3736 B(  9-C , 11-C ) :  -0.1885
B(  9-C , 14-C ) :   0.7564 B(  9-C , 15-Cl) :  -0.2434 B( 10-C , 11-C ) :   0.7563
B( 10-C , 14-C ) :  -0.1884 B( 10-C , 18-Cl) :  -0.2434 B( 10-C , 19-O ) :   1.1268
B( 11-C , 12-C ) :   0.9417 B( 11-C , 14-C ) :   0.1533 B( 11-C , 18-Cl) :   1.4316
B( 12-C , 13-C ) :   1.0837 B( 12-C , 17-Cl) :   1.2357 B( 13-C , 14-C ) :   0.9417
B( 13-C , 16-Cl) :   1.2357 B( 14-C , 15-Cl) :   1.4316

Dispersion correction           -0.014623507
FINAL SINGLE POINT ENERGY     -3369.852766791983

DIPOLE MOMENT
-------------

Method             : SCF
Type of density    : Electron Density
Multiplicity       :   1
Irrep              :   0
Energy             : -3369.8528127197409958 Eh
Relativity type    :
Basis              : AO
                                X                 Y                 Z
Electronic contribution:     -8.005570006       0.000032091       0.000520008
Nuclear contribution   :      8.146789227      -0.000003539      -0.000573879
                        -----------------------------------------
Total Dipole Moment    :      0.141219222       0.000028552      -0.000053871
                        -----------------------------------------
Magnitude (a.u.)       :      0.141219235
Magnitude (Debye)      :      0.358950768

Rotational constants in cm-1:             0.013518             0.003443             0.002744
Rotational constants in MHz :           405.245610           103.205845            82.257048

                             ****ORCA TERMINATED NORMALLY****
TOTAL RUN TIME: 0 days 0 hours 2 minutes 0 seconds 559 msec
