                         Program Version 6.0.0  -   RELEASE  -
|  1> ! pbe def2-sv(p) def2/J RI DEFGRID1 loosescf d4 GCP(DFT/SV(P)) printgap
|  2> %output
|  3>     printlevel normal
|  4> end
|  5> * xyz 0 1
|  6> C 3.0792917619 0.7617793787 -2.835689255
|  7> C 3.9252216829 0.9002058253 -1.5856730812
|  8> O 3.6036591872 -0.1004082683 -0.607738738
|  9> P 2.2019972184 -0.1333440079 0.1494451244
| 10> S 1.6032677403 1.6622871126 0.6774403279
| 11> O 2.4997657364 -1.1301398778 1.3382291591
| 12> C 2.681078638 -0.7316397937 2.7165997666
| 13> C 1.6736320763 -1.4593800361 3.5843054514
| 14> S 1.0813923697 -1.430377771 -1.0881298055
| 15> C -0.1752532538 -1.9939496482 0.107385392
| 16> S -0.9840037107 -0.667164757 1.0333357922
| 17> P -2.0254995972 0.2593265125 -0.5864706276
| 18> S -0.9753918195 1.230743905 -1.9262349647
| 19> O -3.1451536253 1.1224559049 0.1360662341
| 20> C -2.9265396653 2.4772655521 0.5637853612
| 21> C -2.0442023991 2.5460366126 1.7932130259
| 22> O -2.8474594507 -0.9141503545 -1.2494562685
| 23> C -4.1405838443 -1.4042591226 -0.8119145336
| 24> C -4.0985520241 -2.0466991627 0.5587335906
| 25> H 3.4175272659 1.4711620303 -3.5840423109
| 26> H 3.1524093716 -0.2477804152 -3.2332879281
| 27> H 2.0326304556 0.9710831726 -2.6070814936
| 28> H 3.7817448995 1.8873822105 -1.1334130686
| 29> H 4.9833132735 0.7358668656 -1.7935669148
| 30> H 3.7061868069 -1.001095191 2.9763958688
| 31> H 2.5560006606 0.3536447052 2.7913633996
| 32> H 0.6616756054 -1.1771746539 3.2999618589
| 33> H 1.789699695 -2.5335404134 3.4721959898
| 34> H 1.8403664254 -1.1876790163 4.6213854143
| 35> H 0.2968914947 -2.6366648645 0.8469624452
| 36> H -0.9094203113 -2.5391310803 -0.4828158846
| 37> H -2.4804448664 3.0380053288 -0.2640897952
| 38> H -3.9312140009 2.8507136847 0.7680076906
| 39> H -2.4253433087 1.8902591107 2.5716120158
| 40> H -1.0260841819 2.2465538716 1.545716786
| 41> H -2.0201206608 3.5667210761 2.160854145
| 42> H -4.8426039882 -0.5691244839 -0.8278334355
| 43> H -4.4035018189 -2.1251730327 -1.5877725564
| 44> H -3.8397096182 -1.3096480076 1.3151819044
| 45> H -5.0807726629 -2.4513628904 0.7829156921
| 46> H -3.3694906353 -2.8523283297 0.5863649907
| 47> *
| 48>
| 49>                          ****END OF INPUT****

CARTESIAN COORDINATES (ANGSTROEM)
---------------------------------
  C      3.079292    0.761779   -2.835689
  C      3.925222    0.900206   -1.585673
  O      3.603659   -0.100408   -0.607739
  P      2.201997   -0.133344    0.149445
  S      1.603268    1.662287    0.677440
  O      2.499766   -1.130140    1.338229
  C      2.681079   -0.731640    2.716600
  C      1.673632   -1.459380    3.584305
  S      1.081392   -1.430378   -1.088130
  C     -0.175253   -1.993950    0.107385
  S     -0.984004   -0.667165    1.033336
  P     -2.025500    0.259327   -0.586471
  S     -0.975392    1.230744   -1.926235
  O     -3.145154    1.122456    0.136066
  C     -2.926540    2.477266    0.563785
  C     -2.044202    2.546037    1.793213
  O     -2.847459   -0.914150   -1.249456
  C     -4.140584   -1.404259   -0.811915
  C     -4.098552   -2.046699    0.558734
  H      3.417527    1.471162   -3.584042
  H      3.152409   -0.247780   -3.233288
  H      2.032630    0.971083   -2.607081
  H      3.781745    1.887382   -1.133413
  H      4.983313    0.735867   -1.793567
  H      3.706187   -1.001095    2.976396
  H      2.556001    0.353645    2.791363
  H      0.661676   -1.177175    3.299962
  H      1.789700   -2.533540    3.472196
  H      1.840366   -1.187679    4.621385
  H      0.296891   -2.636665    0.846962
  H     -0.909420   -2.539131   -0.482816
  H     -2.480445    3.038005   -0.264090
  H     -3.931214    2.850714    0.768008
  H     -2.425343    1.890259    2.571612
  H     -1.026084    2.246554    1.545717
  H     -2.020121    3.566721    2.160854
  H     -4.842604   -0.569124   -0.827833
  H     -4.403502   -2.125173   -1.587773
  H     -3.839710   -1.309648    1.315182
  H     -5.080773   -2.451363    0.782916
  H     -3.369491   -2.852328    0.586365

 Total Charge           Charge          ....    0
 Multiplicity           Mult            ....    1
 Number of Electrons    NEL             ....  202
 Basis Dimension        Dim             ....  334

ORBITAL ENERGIES
----------------

  NO   OCC          E(Eh)            E(eV)
   0   2.0000     -88.041384     -2395.7279
   1   2.0000     -88.033254     -2395.5066
   2   2.0000     -87.977402     -2393.9868
   3   2.0000     -87.974517     -2393.9083
   4   2.0000     -76.424003     -2079.6028
   5   2.0000     -76.419739     -2079.4868
   6   2.0000     -18.795507      -511.4518
   7   2.0000     -18.791819      -511.3514
   8   2.0000     -18.787659      -511.2382
   9   2.0000     -18.781260      -511.0641
  10   2.0000      -9.959264      -271.0053
  11   2.0000      -9.958409      -270.9821
  12   2.0000      -9.951050      -270.7818
  13   2.0000      -9.948616      -270.7156
  14   2.0000      -9.941978      -270.5350
  15   2.0000      -9.890867      -269.1442
  16   2.0000      -9.886492      -269.0251
  17   2.0000      -9.879387      -268.8318
  18   2.0000      -9.873542      -268.6727
  19   2.0000      -7.685438      -209.1314
  20   2.0000      -7.678550      -208.9440
  21   2.0000      -7.622049      -207.4065
  22   2.0000      -7.619445      -207.3356
  23   2.0000      -6.421177      -174.7291
  24   2.0000      -6.417003      -174.6155
  25   2.0000      -5.713295      -155.4667
  26   2.0000      -5.710163      -155.3814
  27   2.0000      -5.706742      -155.2883
  28   2.0000      -5.703129      -155.1900
  29   2.0000      -5.702314      -155.1678
  30   2.0000      -5.695070      -154.9707
  31   2.0000      -5.650873      -153.7681
  32   2.0000      -5.648520      -153.7040
  33   2.0000      -5.642690      -153.5454
  34   2.0000      -5.642293      -153.5346
  35   2.0000      -5.640236      -153.4786
  36   2.0000      -5.639286      -153.4528
  37   2.0000      -4.644510      -126.3835
  38   2.0000      -4.642823      -126.3376
  39   2.0000      -4.641043      -126.2892
  40   2.0000      -4.639666      -126.2517
  41   2.0000      -4.638852      -126.2296
  42   2.0000      -4.637320      -126.1879
  43   2.0000      -0.988985       -26.9117
  44   2.0000      -0.979212       -26.6457
  45   2.0000      -0.945884       -25.7388
  46   2.0000      -0.939282       -25.5592
  47   2.0000      -0.760483       -20.6938
  48   2.0000      -0.718162       -19.5422
  49   2.0000      -0.708761       -19.2864
  50   2.0000      -0.690656       -18.7937
  51   2.0000      -0.679288       -18.4844
  52   2.0000      -0.669254       -18.2113
  53   2.0000      -0.647997       -17.6329
  54   2.0000      -0.631818       -17.1926
  55   2.0000      -0.594377       -16.1738
  56   2.0000      -0.587626       -15.9901
  57   2.0000      -0.580882       -15.8066
  58   2.0000      -0.566886       -15.4258
  59   2.0000      -0.558192       -15.1892
  60   2.0000      -0.496242       -13.5034
  61   2.0000      -0.495226       -13.4758
  62   2.0000      -0.472868       -12.8674
  63   2.0000      -0.464926       -12.6513
  64   2.0000      -0.462391       -12.5823
  65   2.0000      -0.446499       -12.1498
  66   2.0000      -0.435718       -11.8565
  67   2.0000      -0.428132       -11.6501
  68   2.0000      -0.425447       -11.5770
  69   2.0000      -0.417575       -11.3628
  70   2.0000      -0.410618       -11.1735
  71   2.0000      -0.398829       -10.8527
  72   2.0000      -0.387146       -10.5348
  73   2.0000      -0.386378       -10.5139
  74   2.0000      -0.376758       -10.2521
  75   2.0000      -0.371319       -10.1041
  76   2.0000      -0.364391        -9.9156
  77   2.0000      -0.358848        -9.7647
  78   2.0000      -0.354449        -9.6451
  79   2.0000      -0.351672        -9.5695
  80   2.0000      -0.347452        -9.4547
  81   2.0000      -0.343129        -9.3370
  82   2.0000      -0.339405        -9.2357
  83   2.0000      -0.335957        -9.1418
  84   2.0000      -0.327248        -8.9049
  85   2.0000      -0.322260        -8.7691
  86   2.0000      -0.306804        -8.3486
  87   2.0000      -0.298459        -8.1215
  88   2.0000      -0.291911        -7.9433
  89   2.0000      -0.289248        -7.8708
  90   2.0000      -0.277434        -7.5494
  91   2.0000      -0.273234        -7.4351
  92   2.0000      -0.267659        -7.2834
  93   2.0000      -0.255988        -6.9658
  94   2.0000      -0.253414        -6.8957
  95   2.0000      -0.244560        -6.6548
  96   2.0000      -0.217847        -5.9279
  97   2.0000      -0.204359        -5.5609
  98   2.0000      -0.186732        -5.0812
  99   2.0000      -0.182062        -4.9542
 100   2.0000      -0.178062        -4.8453
 101   0.0000      -0.049405        -1.3444
 102   0.0000      -0.026469        -0.7203
 103   0.0000      -0.010644        -0.2896
 104   0.0000      -0.003288        -0.0895
 105   0.0000       0.021921         0.5965

MULLIKEN ATOMIC CHARGES
-----------------------
   0 C :   -0.343437
   1 C :    0.001341
   2 O :   -0.368527
   3 P :    0.611372
   4 S :   -0.311898
   5 O :   -0.375551
   6 C :   -0.001625
   7 C :   -0.308618
   8 S :   -0.081589
   9 C :   -0.340791
  10 S :   -0.121798
  11 P :    0.621380
  12 S :   -0.282530
  13 O :   -0.385799
  14 C :    0.001689
  15 C :   -0.348207
  16 O :   -0.375100
  17 C :    0.007091
  18 C :   -0.317930
  19 H :    0.111770
  20 H :    0.118006
  21 H :    0.154179
  22 H :    0.109111
  23 H :    0.101260
  24 H :    0.105217
  25 H :    0.109280
  26 H :    0.128765
  27 H :    0.114798
  28 H :    0.111965
  29 H :    0.188206
  30 H :    0.183040
  31 H :    0.114493
  32 H :    0.101510
  33 H :    0.111117
  34 H :    0.163871
  35 H :    0.113872
  36 H :    0.111472
  37 H :    0.110176
  38 H :    0.129702
  39 H :    0.112998
  40 H :    0.115717
Sum of atomic charges:    0.0000000

LOEWDIN ATOMIC CHARGES
----------------------
   0 C :   -0.374050
   1 C :   -0.121404
   2 O :   -0.247058
   3 P :    0.568242
   4 S :   -0.303141
   5 O :   -0.245511
   6 C :   -0.117083
   7 C :   -0.359520
   8 S :    0.090194
   9 C :   -0.474923
  10 S :    0.082177
  11 P :    0.569130
  12 S :   -0.294765
  13 O :   -0.245733
  14 C :   -0.117422
  15 C :   -0.375760
  16 O :   -0.244730
  17 C :   -0.107537
  18 C :   -0.368630
  19 H :    0.131100
  20 H :    0.123451
  21 H :    0.125634
  22 H :    0.108681
  23 H :    0.116730
  24 H :    0.116946
  25 H :    0.106846
  26 H :    0.119087
  27 H :    0.123440
  28 H :    0.131350
  29 H :    0.133326
  30 H :    0.129585
  31 H :    0.113334
  32 H :    0.116580
  33 H :    0.121489
  34 H :    0.123273
  35 H :    0.132920
  36 H :    0.116563
  37 H :    0.121792
  38 H :    0.121090
  39 H :    0.131153
  40 H :    0.123154

  Mayer bond orders larger than 0.100000
B(  0-C ,  1-C ) :   1.1618 B(  0-C , 19-H ) :   0.9380 B(  0-C , 20-H ) :   0.9437
B(  0-C , 21-H ) :   0.9257 B(  1-C ,  2-O ) :   0.9123 B(  1-C , 22-H ) :   0.9132
B(  1-C , 23-H ) :   0.9330 B(  2-O ,  3-P ) :   1.1142 B(  3-P ,  4-S ) :   1.6081
B(  3-P ,  5-O ) :   1.1142 B(  3-P ,  8-S ) :   0.9686 B(  4-S ,  8-S ) :   0.1133
B(  5-O ,  6-C ) :   0.8990 B(  6-C ,  7-C ) :   1.1660 B(  6-C , 24-H ) :   0.9333
B(  6-C , 25-H ) :   0.8979 B(  7-C , 26-H ) :   0.9371 B(  7-C , 27-H ) :   0.9478
B(  7-C , 28-H ) :   0.9398 B(  8-S ,  9-C ) :   0.9946 B(  9-C , 10-S ) :   1.0096
B(  9-C , 29-H ) :   0.9036 B(  9-C , 30-H ) :   0.8992 B( 10-S , 11-P ) :   0.9262
B( 10-S , 12-S ) :   0.1132 B( 11-P , 12-S ) :   1.7051 B( 11-P , 13-O ) :   1.0751
B( 11-P , 16-O ) :   1.1045 B( 13-O , 14-C ) :   0.9015 B( 14-C , 15-C ) :   1.1660
B( 14-C , 31-H ) :   0.9113 B( 14-C , 32-H ) :   0.9336 B( 15-C , 33-H ) :   0.9448
B( 15-C , 34-H ) :   0.9168 B( 15-C , 35-H ) :   0.9374 B( 16-O , 17-C ) :   0.8965
B( 17-C , 18-C ) :   1.1698 B( 17-C , 36-H ) :   0.9272 B( 17-C , 37-H ) :   0.9359
B( 18-C , 38-H ) :   0.9364 B( 18-C , 39-H ) :   0.9352 B( 18-C , 40-H ) :   0.9453

Dispersion correction           -0.068511227
FINAL SINGLE POINT ENERGY     -2929.509251198437

DIPOLE MOMENT
-------------

Method             : SCF
Type of density    : Electron Density
Multiplicity       :   1
Irrep              :   0
Energy             : -2929.6255129172873239 Eh
Relativity type    :
Basis              : AO
                                X                 Y                 Z
Electronic contribution:      5.127358656       0.890049624     -10.849385472
Nuclear contribution   :     -5.909528540      -1.669923958      11.891713177
                        -----------------------------------------
Total Dipole Moment    :     -0.782169884      -0.779874334       1.042327705
                        -----------------------------------------
Magnitude (a.u.)       :      1.518697056
Magnitude (Debye)      :      3.860221141

Rotational constants in cm-1:             0.011211             0.005824             0.005392
Rotational constants in MHz :           336.083771           174.600477           161.647302

                             ****ORCA TERMINATED NORMALLY****
TOTAL RUN TIME: 0 days 0 hours 0 minutes 21 seconds 580 msec
