                         Program Version 6.0.0  -   RELEASE  -
|  1> ! pbe def2-sv(p) def2/J RI DEFGRID1 loosescf d4 GCP(DFT/SV(P)) printgap
|  2> %output
|  3>     printlevel normal
|  4> end
|  5> * xyz 0 1
|  6> C 2.0942992239 -1.5468006505 3.0917417113
|  7> C 1.1864809395 -1.3060189255 1.9013247172
|  8> O 1.5134886556 -0.0427391412 1.3011241583
|  9> P 2.1102720973 0.1494336991 -0.1618266123
| 10> S 2.8677409448 -1.4852496348 -0.9436758404
| 11> O 3.0268227372 1.427948964 0.0196004011
| 12> C 4.0499043123 1.5377120329 1.0329881645
| 13> C 5.2888840259 0.7402062175 0.6768212795
| 14> S 0.6683194934 1.1461276222 -1.3452995185
| 15> C -0.0841706335 -0.3319742254 -2.0736307141
| 16> S -0.8615222018 -1.4098968623 -0.8373263799
| 17> P -2.2840736345 -0.0135627126 -0.148829866
| 18> S -3.0885431632 1.2044205538 -1.4616236162
| 19> O -1.4591289756 0.6538350631 1.0272572367
| 20> C -1.8185350162 1.9253024711 1.6139898185
| 21> C -0.5468420337 2.6704933451 1.9656217293
| 22> O -3.3330619614 -0.8783257707 0.6767826478
| 23> C -4.513307124 -1.4421654673 0.0768711776
| 24> C -4.1791965365 -2.542244375 -0.9095481829
| 25> H 1.8030416936 -2.4723451382 3.5774301874
| 26> H 3.1271806955 -1.6307722943 2.7608138145
| 27> H 2.0129078131 -0.7283764365 3.8017557341
| 28> H 0.1371249181 -1.2397273994 2.1972938905
| 29> H 1.3037470527 -2.1003913421 1.1565876774
| 30> H 4.262844949 2.607613628 1.0679538088
| 31> H 3.6334001527 1.212810852 1.9897185326
| 32> H 6.0528544359 0.9075859228 1.4295789201
| 33> H 5.0582184749 -0.3227444851 0.6327680884
| 34> H 5.6671454549 1.0485900171 -0.294410094
| 35> H 0.6792332736 -0.9334219404 -2.5668277244
| 36> H -0.8355679311 0.017981984 -2.7802710908
| 37> H -2.4215637919 2.4876575398 0.8927453838
| 38> H -2.4189800835 1.7148746249 2.5019463688
| 39> H 0.063372408 2.0695005605 2.6338760084
| 40> H 0.0263485421 2.8813249129 1.065414691
| 41> H -0.8050187564 3.6053284255 2.4524189613
| 42> H -5.0835431957 -1.819981653 0.9264081075
| 43> H -5.0662577452 -0.6368463817 -0.4169005153
| 44> H -3.5372902248 -3.2860015162 -0.4442065812
| 45> H -5.0965525147 -3.0149877558 -1.2453112746
| 46> H -3.6616157008 -2.1240936485 -1.7719851462
| 47> *
| 48>
| 49>                          ****END OF INPUT****

CARTESIAN COORDINATES (ANGSTROEM)
---------------------------------
  C      2.094299   -1.546801    3.091742
  C      1.186481   -1.306019    1.901325
  O      1.513489   -0.042739    1.301124
  P      2.110272    0.149434   -0.161827
  S      2.867741   -1.485250   -0.943676
  O      3.026823    1.427949    0.019600
  C      4.049904    1.537712    1.032988
  C      5.288884    0.740206    0.676821
  S      0.668319    1.146128   -1.345300
  C     -0.084171   -0.331974   -2.073631
  S     -0.861522   -1.409897   -0.837326
  P     -2.284074   -0.013563   -0.148830
  S     -3.088543    1.204421   -1.461624
  O     -1.459129    0.653835    1.027257
  C     -1.818535    1.925302    1.613990
  C     -0.546842    2.670493    1.965622
  O     -3.333062   -0.878326    0.676783
  C     -4.513307   -1.442165    0.076871
  C     -4.179197   -2.542244   -0.909548
  H      1.803042   -2.472345    3.577430
  H      3.127181   -1.630772    2.760814
  H      2.012908   -0.728376    3.801756
  H      0.137125   -1.239727    2.197294
  H      1.303747   -2.100391    1.156588
  H      4.262845    2.607614    1.067954
  H      3.633400    1.212811    1.989719
  H      6.052854    0.907586    1.429579
  H      5.058218   -0.322744    0.632768
  H      5.667145    1.048590   -0.294410
  H      0.679233   -0.933422   -2.566828
  H     -0.835568    0.017982   -2.780271
  H     -2.421564    2.487658    0.892745
  H     -2.418980    1.714875    2.501946
  H      0.063372    2.069501    2.633876
  H      0.026349    2.881325    1.065415
  H     -0.805019    3.605328    2.452419
  H     -5.083543   -1.819982    0.926408
  H     -5.066258   -0.636846   -0.416901
  H     -3.537290   -3.286002   -0.444207
  H     -5.096553   -3.014988   -1.245311
  H     -3.661616   -2.124094   -1.771985

 Total Charge           Charge          ....    0
 Multiplicity           Mult            ....    1
 Number of Electrons    NEL             ....  202
 Basis Dimension        Dim             ....  334

ORBITAL ENERGIES
----------------

  NO   OCC          E(Eh)            E(eV)
   0   2.0000     -88.045651     -2395.8440
   1   2.0000     -88.038866     -2395.6593
   2   2.0000     -87.989697     -2394.3214
   3   2.0000     -87.988051     -2394.2766
   4   2.0000     -76.427509     -2079.6982
   5   2.0000     -76.426893     -2079.6815
   6   2.0000     -18.794918      -511.4357
   7   2.0000     -18.794846      -511.4338
   8   2.0000     -18.792493      -511.3697
   9   2.0000     -18.789219      -511.2806
  10   2.0000      -9.958133      -270.9746
  11   2.0000      -9.953462      -270.8475
  12   2.0000      -9.953445      -270.8470
  13   2.0000      -9.949610      -270.7427
  14   2.0000      -9.945849      -270.6403
  15   2.0000      -9.886605      -269.0282
  16   2.0000      -9.885212      -268.9903
  17   2.0000      -9.884425      -268.9689
  18   2.0000      -9.881053      -268.8771
  19   2.0000      -7.690384      -209.2660
  20   2.0000      -7.683900      -209.0896
  21   2.0000      -7.634678      -207.7501
  22   2.0000      -7.632953      -207.7032
  23   2.0000      -6.425089      -174.8356
  24   2.0000      -6.424293      -174.8139
  25   2.0000      -5.718263      -155.6018
  26   2.0000      -5.714952      -155.5117
  27   2.0000      -5.711890      -155.4284
  28   2.0000      -5.708528      -155.3369
  29   2.0000      -5.707293      -155.3033
  30   2.0000      -5.700617      -155.1217
  31   2.0000      -5.663422      -154.1096
  32   2.0000      -5.661772      -154.0647
  33   2.0000      -5.655350      -153.8899
  34   2.0000      -5.654977      -153.8798
  35   2.0000      -5.653778      -153.8471
  36   2.0000      -5.653013      -153.8263
  37   2.0000      -4.647526      -126.4656
  38   2.0000      -4.647120      -126.4546
  39   2.0000      -4.646807      -126.4460
  40   2.0000      -4.645793      -126.4184
  41   2.0000      -4.645682      -126.4154
  42   2.0000      -4.644795      -126.3913
  43   2.0000      -0.988330       -26.8938
  44   2.0000      -0.986687       -26.8491
  45   2.0000      -0.945447       -25.7269
  46   2.0000      -0.944101       -25.6903
  47   2.0000      -0.766138       -20.8477
  48   2.0000      -0.724219       -19.7070
  49   2.0000      -0.709205       -19.2985
  50   2.0000      -0.688790       -18.7429
  51   2.0000      -0.686325       -18.6759
  52   2.0000      -0.672722       -18.3057
  53   2.0000      -0.651344       -17.7240
  54   2.0000      -0.639666       -17.4062
  55   2.0000      -0.601767       -16.3749
  56   2.0000      -0.591149       -16.0860
  57   2.0000      -0.576433       -15.6855
  58   2.0000      -0.571616       -15.5545
  59   2.0000      -0.556237       -15.1360
  60   2.0000      -0.504382       -13.7249
  61   2.0000      -0.498759       -13.5719
  62   2.0000      -0.477537       -12.9945
  63   2.0000      -0.473285       -12.8787
  64   2.0000      -0.459489       -12.5033
  65   2.0000      -0.442710       -12.0468
  66   2.0000      -0.440207       -11.9786
  67   2.0000      -0.433679       -11.8010
  68   2.0000      -0.428894       -11.6708
  69   2.0000      -0.415502       -11.3064
  70   2.0000      -0.410248       -11.1634
  71   2.0000      -0.393724       -10.7138
  72   2.0000      -0.389298       -10.5933
  73   2.0000      -0.386290       -10.5115
  74   2.0000      -0.378861       -10.3093
  75   2.0000      -0.377783       -10.2800
  76   2.0000      -0.371290       -10.1033
  77   2.0000      -0.355244        -9.6667
  78   2.0000      -0.353312        -9.6141
  79   2.0000      -0.351132        -9.5548
  80   2.0000      -0.350410        -9.5352
  81   2.0000      -0.346758        -9.4358
  82   2.0000      -0.340795        -9.2735
  83   2.0000      -0.339061        -9.2263
  84   2.0000      -0.335706        -9.1350
  85   2.0000      -0.323766        -8.8101
  86   2.0000      -0.307684        -8.3725
  87   2.0000      -0.297756        -8.1024
  88   2.0000      -0.294535        -8.0147
  89   2.0000      -0.291368        -7.9285
  90   2.0000      -0.286688        -7.8012
  91   2.0000      -0.279252        -7.5988
  92   2.0000      -0.276116        -7.5135
  93   2.0000      -0.265592        -7.2271
  94   2.0000      -0.258002        -7.0206
  95   2.0000      -0.234384        -6.3779
  96   2.0000      -0.216126        -5.8811
  97   2.0000      -0.214923        -5.8484
  98   2.0000      -0.208471        -5.6728
  99   2.0000      -0.201333        -5.4785
 100   2.0000      -0.198207        -5.3935
 101   0.0000      -0.046717        -1.2712
 102   0.0000      -0.025643        -0.6978
 103   0.0000      -0.000760        -0.0207
 104   0.0000       0.003418         0.0930
 105   0.0000       0.007816         0.2127

MULLIKEN ATOMIC CHARGES
-----------------------
   0 C :   -0.286514
   1 C :   -0.016699
   2 O :   -0.376395
   3 P :    0.649125
   4 S :   -0.335389
   5 O :   -0.377327
   6 C :   -0.013949
   7 C :   -0.309937
   8 S :   -0.075474
   9 C :   -0.357201
  10 S :   -0.086923
  11 P :    0.618497
  12 S :   -0.333521
  13 O :   -0.362480
  14 C :   -0.009452
  15 C :   -0.285902
  16 O :   -0.376315
  17 C :   -0.003042
  18 C :   -0.316273
  19 H :    0.111824
  20 H :    0.112775
  21 H :    0.112617
  22 H :    0.105428
  23 H :    0.115976
  24 H :    0.109507
  25 H :    0.109131
  26 H :    0.108772
  27 H :    0.132705
  28 H :    0.122260
  29 H :    0.194325
  30 H :    0.190568
  31 H :    0.107662
  32 H :    0.100272
  33 H :    0.115138
  34 H :    0.125599
  35 H :    0.105299
  36 H :    0.104894
  37 H :    0.111914
  38 H :    0.117739
  39 H :    0.114015
  40 H :    0.126749
Sum of atomic charges:    0.0000000

LOEWDIN ATOMIC CHARGES
----------------------
   0 C :   -0.356583
   1 C :   -0.129756
   2 O :   -0.234670
   3 P :    0.570338
   4 S :   -0.317629
   5 O :   -0.245303
   6 C :   -0.111817
   7 C :   -0.365630
   8 S :    0.102317
   9 C :   -0.481530
  10 S :    0.102235
  11 P :    0.569514
  12 S :   -0.322260
  13 O :   -0.238478
  14 C :   -0.115278
  15 C :   -0.354659
  16 O :   -0.248616
  17 C :   -0.119124
  18 C :   -0.369083
  19 H :    0.130981
  20 H :    0.122738
  21 H :    0.122080
  22 H :    0.110561
  23 H :    0.103099
  24 H :    0.121240
  25 H :    0.110316
  26 H :    0.128915
  27 H :    0.122183
  28 H :    0.130412
  29 H :    0.131547
  30 H :    0.131807
  31 H :    0.107667
  32 H :    0.112259
  33 H :    0.123375
  34 H :    0.123328
  35 H :    0.127164
  36 H :    0.118537
  37 H :    0.110902
  38 H :    0.124318
  39 H :    0.131469
  40 H :    0.121116

  Mayer bond orders larger than 0.100000
B(  0-C ,  1-C ) :   1.1612 B(  0-C , 19-H ) :   0.9413 B(  0-C , 20-H ) :   0.9437
B(  0-C , 21-H ) :   0.9488 B(  1-C ,  2-O ) :   0.8986 B(  1-C , 22-H ) :   0.9246
B(  1-C , 23-H ) :   0.8993 B(  2-O ,  3-P ) :   1.0892 B(  3-P ,  4-S ) :   1.6089
B(  3-P ,  5-O ) :   1.1217 B(  3-P ,  8-S ) :   0.9472 B(  4-S ,  8-S ) :   0.1079
B(  5-O ,  6-C ) :   0.9092 B(  6-C ,  7-C ) :   1.1654 B(  6-C , 24-H ) :   0.9356
B(  6-C , 25-H ) :   0.9225 B(  7-C , 26-H ) :   0.9380 B(  7-C , 27-H ) :   0.9337
B(  7-C , 28-H ) :   0.9460 B(  8-S ,  9-C ) :   1.0136 B(  9-C , 10-S ) :   0.9919
B(  9-C , 29-H ) :   0.8810 B(  9-C , 30-H ) :   0.8877 B( 10-S , 11-P ) :   0.9577
B( 10-S , 12-S ) :   0.1074 B( 11-P , 12-S ) :   1.6007 B( 11-P , 13-O ) :   1.1219
B( 11-P , 16-O ) :   1.1113 B( 13-O , 14-C ) :   0.8966 B( 14-C , 15-C ) :   1.1665
B( 14-C , 31-H ) :   0.9053 B( 14-C , 32-H ) :   0.9342 B( 15-C , 33-H ) :   0.9469
B( 15-C , 34-H ) :   0.9445 B( 15-C , 35-H ) :   0.9398 B( 16-O , 17-C ) :   0.9091
B( 17-C , 18-C ) :   1.1643 B( 17-C , 36-H ) :   0.9340 B( 17-C , 37-H ) :   0.9158
B( 18-C , 38-H ) :   0.9449 B( 18-C , 39-H ) :   0.9379 B( 18-C , 40-H ) :   0.9357

Dispersion correction           -0.067297582
FINAL SINGLE POINT ENERGY     -2929.527240466176

DIPOLE MOMENT
-------------

Method             : SCF
Type of density    : Electron Density
Multiplicity       :   1
Irrep              :   0
Energy             : -2929.6454836491734568 Eh
Relativity type    :
Basis              : AO
                                X                 Y                 Z
Electronic contribution:     -4.902131835       1.668303209     -17.306209039
Nuclear contribution   :      4.761554461      -1.736271509      18.812196185
                        -----------------------------------------
Total Dipole Moment    :     -0.140577374      -0.067968300       1.505987146
                        -----------------------------------------
Magnitude (a.u.)       :      1.514060425
Magnitude (Debye)      :      3.848435761

Rotational constants in cm-1:             0.013274             0.005114             0.004947
Rotational constants in MHz :           397.942200           153.327263           148.295454

                             ****ORCA TERMINATED NORMALLY****
TOTAL RUN TIME: 0 days 0 hours 0 minutes 21 seconds 525 msec
