                         Program Version 6.0.0  -   RELEASE  -
|  1> ! r2scan-3c def2/J RI DEFGRID2 scfconv6 printgap
|  2> %output
|  3>     printlevel normal
|  4> end
|  5> * xyz 0 1
|  6> C 5.4700867015 -1.2704403287 -1.262140181
|  7> C 4.0612139949 -1.725320413 -1.5909952428
|  8> O 3.2057182783 -1.6188774009 -0.4349681841
|  9> P 2.2922292822 -0.346855315 -0.1590395364
| 10> S 3.1950244253 1.3985323953 -0.1610447879
| 11> O 1.6098942641 -0.7696316825 1.2022650875
| 12> C 2.1019944052 -0.3583551023 2.5005716835
| 13> C 0.9667504493 0.2554913236 3.294692871
| 14> S 0.7169043953 -0.5863975347 -1.5430180987
| 15> C 0.0504032529 1.0955381386 -1.3927880864
| 16> S -0.7620004805 1.3933072762 0.1890942598
| 17> P -2.6298585926 0.4192001911 -0.2024431199
| 18> S -2.9917429843 0.1003184392 -2.1011263837
| 19> O -3.7540671539 1.3393158824 0.4000614527
| 20> C -4.0614959267 1.5072983852 1.8064342476
| 21> C -2.9007851918 2.0786048717 2.5919268572
| 22> O -2.6816566549 -0.8166373633 0.8025845441
| 23> C -1.7526025145 -1.9106768171 0.8511748066
| 24> C -1.9220876945 -2.865667583 -0.3130860897
| 25> H 5.4738281063 -0.2152499439 -0.9977212861
| 26> H 5.8606666469 -1.8427800526 -0.4254935774
| 27> H 6.1058644402 -1.4199928143 -2.1288010673
| 28> H 4.0358526823 -2.7840603577 -1.8553553751
| 29> H 3.6387226599 -1.1364568472 -2.4101249557
| 30> H 2.4890902742 -1.2590768414 2.9801312658
| 31> H 2.9151938829 0.3607780276 2.3603282048
| 32> H 0.6078992225 1.1538934066 2.7978451794
| 33> H 0.1477413911 -0.4524122482 3.3857148807
| 34> H 1.3277318443 0.5153309242 4.2844865287
| 35> H -0.6715743086 1.2150823332 -2.2011694601
| 36> H 0.8669100085 1.8136331236 -1.4682095248
| 37> H -4.9126371383 2.1897342374 1.7923914386
| 38> H -4.3675538435 0.5385832658 2.2051852858
| 39> H -2.5632454132 3.0117703905 2.1481401842
| 40> H -3.2190168184 2.2625979515 3.6133212374
| 41> H -2.0688353398 1.3767487766 2.6025720597
| 42> H -0.732649548 -1.5156473501 0.8850111245
| 43> H -1.9839088345 -2.4020455935 1.7986878093
| 44> H -1.2610810832 -3.7155371646 -0.1763231734
| 45> H -2.9507854498 -3.2123162654 -0.368557505
| 46> H -1.6708883 -2.37408233 -1.2511251113
| 47> *
| 48>
| 49>                          ****END OF INPUT****

CARTESIAN COORDINATES (ANGSTROEM)
---------------------------------
  C      5.470087   -1.270440   -1.262140
  C      4.061214   -1.725320   -1.590995
  O      3.205718   -1.618877   -0.434968
  P      2.292229   -0.346855   -0.159040
  S      3.195024    1.398532   -0.161045
  O      1.609894   -0.769632    1.202265
  C      2.101994   -0.358355    2.500572
  C      0.966750    0.255491    3.294693
  S      0.716904   -0.586398   -1.543018
  C      0.050403    1.095538   -1.392788
  S     -0.762000    1.393307    0.189094
  P     -2.629859    0.419200   -0.202443
  S     -2.991743    0.100318   -2.101126
  O     -3.754067    1.339316    0.400061
  C     -4.061496    1.507298    1.806434
  C     -2.900785    2.078605    2.591927
  O     -2.681657   -0.816637    0.802585
  C     -1.752603   -1.910677    0.851175
  C     -1.922088   -2.865668   -0.313086
  H      5.473828   -0.215250   -0.997721
  H      5.860667   -1.842780   -0.425494
  H      6.105864   -1.419993   -2.128801
  H      4.035853   -2.784060   -1.855355
  H      3.638723   -1.136457   -2.410125
  H      2.489090   -1.259077    2.980131
  H      2.915194    0.360778    2.360328
  H      0.607899    1.153893    2.797845
  H      0.147741   -0.452412    3.385715
  H      1.327732    0.515331    4.284487
  H     -0.671574    1.215082   -2.201169
  H      0.866910    1.813633   -1.468210
  H     -4.912637    2.189734    1.792391
  H     -4.367554    0.538583    2.205185
  H     -2.563245    3.011770    2.148140
  H     -3.219017    2.262598    3.613321
  H     -2.068835    1.376749    2.602572
  H     -0.732650   -1.515647    0.885011
  H     -1.983909   -2.402046    1.798688
  H     -1.261081   -3.715537   -0.176323
  H     -2.950785   -3.212316   -0.368558
  H     -1.670888   -2.374082   -1.251125

 Total Charge           Charge          ....    0
 Multiplicity           Mult            ....    1
 Number of Electrons    NEL             ....  202
 Basis Dimension        Dim             ....  539

ORBITAL ENERGIES
----------------

  NO   OCC          E(Eh)            E(eV)
   0   2.0000     -88.579182     -2410.3621
   1   2.0000     -88.574537     -2410.2357
   2   2.0000     -88.525189     -2408.8928
   3   2.0000     -88.517336     -2408.6792
   4   2.0000     -76.918616     -2093.0619
   5   2.0000     -76.915011     -2092.9639
   6   2.0000     -18.995812      -516.9023
   7   2.0000     -18.995649      -516.8979
   8   2.0000     -18.992523      -516.8128
   9   2.0000     -18.991513      -516.7853
  10   2.0000     -10.106067      -275.0001
  11   2.0000     -10.103539      -274.9313
  12   2.0000     -10.103297      -274.9247
  13   2.0000     -10.102237      -274.8958
  14   2.0000     -10.096180      -274.7310
  15   2.0000     -10.039157      -273.1794
  16   2.0000     -10.035109      -273.0692
  17   2.0000     -10.028342      -272.8851
  18   2.0000     -10.020721      -272.6777
  19   2.0000      -7.873370      -214.2453
  20   2.0000      -7.868852      -214.1223
  21   2.0000      -7.820000      -212.7930
  22   2.0000      -7.812167      -212.5799
  23   2.0000      -6.597055      -179.5150
  24   2.0000      -6.592977      -179.4040
  25   2.0000      -5.820203      -158.3758
  26   2.0000      -5.817150      -158.2927
  27   2.0000      -5.815840      -158.2570
  28   2.0000      -5.812540      -158.1673
  29   2.0000      -5.810636      -158.1154
  30   2.0000      -5.806017      -157.9898
  31   2.0000      -5.767556      -156.9432
  32   2.0000      -5.760294      -156.7456
  33   2.0000      -5.760076      -156.7396
  34   2.0000      -5.759983      -156.7371
  35   2.0000      -5.752251      -156.5267
  36   2.0000      -5.752194      -156.5252
  37   2.0000      -4.742545      -129.0512
  38   2.0000      -4.742022      -129.0370
  39   2.0000      -4.740751      -129.0024
  40   2.0000      -4.738804      -128.9494
  41   2.0000      -4.737975      -128.9269
  42   2.0000      -4.736432      -128.8849
  43   2.0000      -1.054041       -28.6819
  44   2.0000      -1.051589       -28.6152
  45   2.0000      -1.014520       -27.6065
  46   2.0000      -1.008958       -27.4551
  47   2.0000      -0.802373       -21.8337
  48   2.0000      -0.762781       -20.7563
  49   2.0000      -0.754846       -20.5404
  50   2.0000      -0.734525       -19.9874
  51   2.0000      -0.734037       -19.9742
  52   2.0000      -0.712912       -19.3993
  53   2.0000      -0.687543       -18.7090
  54   2.0000      -0.670497       -18.2452
  55   2.0000      -0.631218       -17.1763
  56   2.0000      -0.623111       -16.9557
  57   2.0000      -0.612708       -16.6726
  58   2.0000      -0.608813       -16.5666
  59   2.0000      -0.592092       -16.1116
  60   2.0000      -0.535947       -14.5839
  61   2.0000      -0.521220       -14.1831
  62   2.0000      -0.502557       -13.6753
  63   2.0000      -0.492451       -13.4003
  64   2.0000      -0.475145       -12.9294
  65   2.0000      -0.466862       -12.7040
  66   2.0000      -0.464421       -12.6375
  67   2.0000      -0.451740       -12.2925
  68   2.0000      -0.444075       -12.0839
  69   2.0000      -0.441739       -12.0203
  70   2.0000      -0.426516       -11.6061
  71   2.0000      -0.419924       -11.4267
  72   2.0000      -0.417388       -11.3577
  73   2.0000      -0.406638       -11.0652
  74   2.0000      -0.398940       -10.8557
  75   2.0000      -0.392293       -10.6748
  76   2.0000      -0.381515       -10.3816
  77   2.0000      -0.374469       -10.1898
  78   2.0000      -0.372119       -10.1259
  79   2.0000      -0.367648       -10.0042
  80   2.0000      -0.367032        -9.9874
  81   2.0000      -0.360842        -9.8190
  82   2.0000      -0.355853        -9.6833
  83   2.0000      -0.352747        -9.5987
  84   2.0000      -0.348207        -9.4752
  85   2.0000      -0.339429        -9.2363
  86   2.0000      -0.323813        -8.8114
  87   2.0000      -0.316446        -8.6109
  88   2.0000      -0.312771        -8.5109
  89   2.0000      -0.310927        -8.4608
  90   2.0000      -0.303079        -8.2472
  91   2.0000      -0.296303        -8.0628
  92   2.0000      -0.291405        -7.9295
  93   2.0000      -0.282175        -7.6784
  94   2.0000      -0.272941        -7.4271
  95   2.0000      -0.250464        -6.8155
  96   2.0000      -0.232344        -6.3224
  97   2.0000      -0.226005        -6.1499
  98   2.0000      -0.219245        -5.9660
  99   2.0000      -0.213654        -5.8138
 100   2.0000      -0.212269        -5.7761
 101   0.0000      -0.047947        -1.3047
 102   0.0000      -0.029001        -0.7892
 103   0.0000      -0.006528        -0.1776
 104   0.0000      -0.003532        -0.0961
 105   0.0000       0.010970         0.2985

MULLIKEN ATOMIC CHARGES
-----------------------
   0 C :   -0.449995
   1 C :   -0.132217
   2 O :   -0.303808
   3 P :    0.677262
   4 S :   -0.482584
   5 O :   -0.265830
   6 C :   -0.123559
   7 C :   -0.466923
   8 S :   -0.137482
   9 C :   -0.244047
  10 S :   -0.145651
  11 P :    0.657608
  12 S :   -0.442070
  13 O :   -0.276859
  14 C :   -0.111348
  15 C :   -0.486754
  16 O :   -0.272328
  17 C :   -0.181204
  18 C :   -0.423981
  19 H :    0.180141
  20 H :    0.151198
  21 H :    0.145802
  22 H :    0.150929
  23 H :    0.153794
  24 H :    0.149953
  25 H :    0.169316
  26 H :    0.172105
  27 H :    0.152044
  28 H :    0.146683
  29 H :    0.219725
  30 H :    0.221015
  31 H :    0.152354
  32 H :    0.162453
  33 H :    0.175639
  34 H :    0.154283
  35 H :    0.158408
  36 H :    0.181130
  37 H :    0.144810
  38 H :    0.143972
  39 H :    0.150615
  40 H :    0.175399
Sum of atomic charges:   -0.0000000

LOEWDIN ATOMIC CHARGES
----------------------
   0 C :   -0.400322
   1 C :    0.022936
   2 O :   -0.659666
   3 P :    0.372190
   4 S :   -0.135992
   5 O :   -0.681386
   6 C :    0.025311
   7 C :   -0.399075
   8 S :    0.162197
   9 C :   -0.428500
  10 S :    0.138387
  11 P :    0.395117
  12 S :   -0.100494
  13 O :   -0.647350
  14 C :    0.033935
  15 C :   -0.405680
  16 O :   -0.674059
  17 C :    0.016702
  18 C :   -0.408790
  19 H :    0.168628
  20 H :    0.158264
  21 H :    0.158517
  22 H :    0.178935
  23 H :    0.176111
  24 H :    0.173937
  25 H :    0.182978
  26 H :    0.165182
  27 H :    0.157867
  28 H :    0.159208
  29 H :    0.195619
  30 H :    0.192837
  31 H :    0.183651
  32 H :    0.177332
  33 H :    0.165837
  34 H :    0.161497
  35 H :    0.161939
  36 H :    0.191243
  37 H :    0.177425
  38 H :    0.159321
  39 H :    0.160086
  40 H :    0.168125

  Mayer bond orders larger than 0.100000
B(  0-C ,  1-C ) :   0.9581 B(  0-C , 19-H ) :   0.9567 B(  0-C , 20-H ) :   0.9749
B(  0-C , 21-H ) :   0.9646 B(  1-C ,  2-O ) :   0.7754 B(  1-C , 22-H ) :   0.9637
B(  1-C , 23-H ) :   0.9621 B(  2-O ,  3-P ) :   1.0723 B(  3-P ,  4-S ) :   1.7437
B(  3-P ,  5-O ) :   1.1609 B(  3-P ,  8-S ) :   1.1044 B(  5-O ,  6-C ) :   0.7596
B(  6-C ,  7-C ) :   0.9539 B(  6-C , 24-H ) :   0.9526 B(  6-C , 25-H ) :   0.9574
B(  7-C , 26-H ) :   0.9672 B(  7-C , 27-H ) :   0.9688 B(  7-C , 28-H ) :   0.9631
B(  8-S ,  9-C ) :   0.8941 B(  9-C , 10-S ) :   0.9138 B(  9-C , 29-H ) :   0.9015
B(  9-C , 30-H ) :   0.9095 B( 10-S , 11-P ) :   0.9856 B( 11-P , 12-S ) :   1.8194
B( 11-P , 13-O ) :   1.1716 B( 11-P , 16-O ) :   1.0412 B( 13-O , 14-C ) :   0.7989
B( 14-C , 15-C ) :   0.9126 B( 14-C , 31-H ) :   0.9530 B( 14-C , 32-H ) :   0.9759
B( 15-C , 33-H ) :   0.9659 B( 15-C , 34-H ) :   0.9570 B( 15-C , 35-H ) :   0.9632
B( 16-O , 17-C ) :   0.7948 B( 17-C , 18-C ) :   0.9375 B( 17-C , 36-H ) :   0.9471
B( 17-C , 37-H ) :   0.9656 B( 18-C , 38-H ) :   0.9651 B( 18-C , 39-H ) :   0.9691
B( 18-C , 40-H ) :   0.9507

Dispersion correction           -0.021873683
FINAL SINGLE POINT ENERGY     -2932.460821510638

DIPOLE MOMENT
-------------

Method             : SCF
Type of density    : Electron Density
Multiplicity       :   1
Irrep              :   0
Energy             : -2932.4856902652204553 Eh
Relativity type    :
Basis              : AO
                                X                 Y                 Z
Electronic contribution:     -6.326717356       6.787110933     -15.253363322
Nuclear contribution   :      6.903465502      -7.562607082      16.941392800
                        -----------------------------------------
Total Dipole Moment    :      0.576748146      -0.775496150       1.688029477
                        -----------------------------------------
Magnitude (a.u.)       :      1.945115991
Magnitude (Debye)      :      4.944091936

Rotational constants in cm-1:             0.012905             0.004986             0.004535
Rotational constants in MHz :           386.888595           149.474510           135.943744

                             ****ORCA TERMINATED NORMALLY****
TOTAL RUN TIME: 0 days 0 hours 1 minutes 22 seconds 876 msec
