                         Program Version 6.0.0  -   RELEASE  -
|  1> ! r2scan-3c def2/J RI DEFGRID2 scfconv6 printgap
|  2> %output
|  3>     printlevel normal
|  4> end
|  5> %cpcm
|  6>     smd true
|  7>     smdsolvent "water"
|  8> end
|  9> * xyz 0 1
| 10> C 5.4700867015 -1.2704403287 -1.262140181
| 11> C 4.0612139949 -1.725320413 -1.5909952428
| 12> O 3.2057182783 -1.6188774009 -0.4349681841
| 13> P 2.2922292822 -0.346855315 -0.1590395364
| 14> S 3.1950244253 1.3985323953 -0.1610447879
| 15> O 1.6098942641 -0.7696316825 1.2022650875
| 16> C 2.1019944052 -0.3583551023 2.5005716835
| 17> C 0.9667504493 0.2554913236 3.294692871
| 18> S 0.7169043953 -0.5863975347 -1.5430180987
| 19> C 0.0504032529 1.0955381386 -1.3927880864
| 20> S -0.7620004805 1.3933072762 0.1890942598
| 21> P -2.6298585926 0.4192001911 -0.2024431199
| 22> S -2.9917429843 0.1003184392 -2.1011263837
| 23> O -3.7540671539 1.3393158824 0.4000614527
| 24> C -4.0614959267 1.5072983852 1.8064342476
| 25> C -2.9007851918 2.0786048717 2.5919268572
| 26> O -2.6816566549 -0.8166373633 0.8025845441
| 27> C -1.7526025145 -1.9106768171 0.8511748066
| 28> C -1.9220876945 -2.865667583 -0.3130860897
| 29> H 5.4738281063 -0.2152499439 -0.9977212861
| 30> H 5.8606666469 -1.8427800526 -0.4254935774
| 31> H 6.1058644402 -1.4199928143 -2.1288010673
| 32> H 4.0358526823 -2.7840603577 -1.8553553751
| 33> H 3.6387226599 -1.1364568472 -2.4101249557
| 34> H 2.4890902742 -1.2590768414 2.9801312658
| 35> H 2.9151938829 0.3607780276 2.3603282048
| 36> H 0.6078992225 1.1538934066 2.7978451794
| 37> H 0.1477413911 -0.4524122482 3.3857148807
| 38> H 1.3277318443 0.5153309242 4.2844865287
| 39> H -0.6715743086 1.2150823332 -2.2011694601
| 40> H 0.8669100085 1.8136331236 -1.4682095248
| 41> H -4.9126371383 2.1897342374 1.7923914386
| 42> H -4.3675538435 0.5385832658 2.2051852858
| 43> H -2.5632454132 3.0117703905 2.1481401842
| 44> H -3.2190168184 2.2625979515 3.6133212374
| 45> H -2.0688353398 1.3767487766 2.6025720597
| 46> H -0.732649548 -1.5156473501 0.8850111245
| 47> H -1.9839088345 -2.4020455935 1.7986878093
| 48> H -1.2610810832 -3.7155371646 -0.1763231734
| 49> H -2.9507854498 -3.2123162654 -0.368557505
| 50> H -1.6708883 -2.37408233 -1.2511251113
| 51> *
| 52>
| 53>                          ****END OF INPUT****

CARTESIAN COORDINATES (ANGSTROEM)
---------------------------------
  C      5.470087   -1.270440   -1.262140
  C      4.061214   -1.725320   -1.590995
  O      3.205718   -1.618877   -0.434968
  P      2.292229   -0.346855   -0.159040
  S      3.195024    1.398532   -0.161045
  O      1.609894   -0.769632    1.202265
  C      2.101994   -0.358355    2.500572
  C      0.966750    0.255491    3.294693
  S      0.716904   -0.586398   -1.543018
  C      0.050403    1.095538   -1.392788
  S     -0.762000    1.393307    0.189094
  P     -2.629859    0.419200   -0.202443
  S     -2.991743    0.100318   -2.101126
  O     -3.754067    1.339316    0.400061
  C     -4.061496    1.507298    1.806434
  C     -2.900785    2.078605    2.591927
  O     -2.681657   -0.816637    0.802585
  C     -1.752603   -1.910677    0.851175
  C     -1.922088   -2.865668   -0.313086
  H      5.473828   -0.215250   -0.997721
  H      5.860667   -1.842780   -0.425494
  H      6.105864   -1.419993   -2.128801
  H      4.035853   -2.784060   -1.855355
  H      3.638723   -1.136457   -2.410125
  H      2.489090   -1.259077    2.980131
  H      2.915194    0.360778    2.360328
  H      0.607899    1.153893    2.797845
  H      0.147741   -0.452412    3.385715
  H      1.327732    0.515331    4.284487
  H     -0.671574    1.215082   -2.201169
  H      0.866910    1.813633   -1.468210
  H     -4.912637    2.189734    1.792391
  H     -4.367554    0.538583    2.205185
  H     -2.563245    3.011770    2.148140
  H     -3.219017    2.262598    3.613321
  H     -2.068835    1.376749    2.602572
  H     -0.732650   -1.515647    0.885011
  H     -1.983909   -2.402046    1.798688
  H     -1.261081   -3.715537   -0.176323
  H     -2.950785   -3.212316   -0.368558
  H     -1.670888   -2.374082   -1.251125

 Total Charge           Charge          ....    0
 Multiplicity           Mult            ....    1
 Number of Electrons    NEL             ....  202
 Basis Dimension        Dim             ....  539

ORBITAL ENERGIES
----------------

  NO   OCC          E(Eh)            E(eV)
   0   2.0000     -88.581258     -2410.4186
   1   2.0000     -88.578360     -2410.3397
   2   2.0000     -88.529382     -2409.0069
   3   2.0000     -88.529190     -2409.0017
   4   2.0000     -76.922030     -2093.1549
   5   2.0000     -76.920527     -2093.1140
   6   2.0000     -18.995544      -516.8950
   7   2.0000     -18.995273      -516.8877
   8   2.0000     -18.995209      -516.8859
   9   2.0000     -18.993475      -516.8387
  10   2.0000     -10.102670      -274.9076
  11   2.0000     -10.093003      -274.6446
  12   2.0000     -10.091613      -274.6068
  13   2.0000     -10.089591      -274.5517
  14   2.0000     -10.089052      -274.5371
  15   2.0000     -10.022557      -272.7277
  16   2.0000     -10.017812      -272.5985
  17   2.0000     -10.016848      -272.5723
  18   2.0000     -10.015613      -272.5387
  19   2.0000      -7.875531      -214.3041
  20   2.0000      -7.872605      -214.2245
  21   2.0000      -7.824464      -212.9145
  22   2.0000      -7.824406      -212.9129
  23   2.0000      -6.600080      -179.5973
  24   2.0000      -6.598976      -179.5673
  25   2.0000      -5.822349      -158.4342
  26   2.0000      -5.819612      -158.3597
  27   2.0000      -5.819314      -158.3516
  28   2.0000      -5.816290      -158.2693
  29   2.0000      -5.812800      -158.1743
  30   2.0000      -5.809763      -158.0917
  31   2.0000      -5.772080      -157.0663
  32   2.0000      -5.771961      -157.0631
  33   2.0000      -5.764749      -156.8668
  34   2.0000      -5.764557      -156.8616
  35   2.0000      -5.764510      -156.8603
  36   2.0000      -5.764479      -156.8595
  37   2.0000      -4.745855      -129.1413
  38   2.0000      -4.745014      -129.1184
  39   2.0000      -4.744410      -129.1019
  40   2.0000      -4.743929      -129.0889
  41   2.0000      -4.743686      -129.0822
  42   2.0000      -4.742776      -129.0575
  43   2.0000      -1.054444       -28.6929
  44   2.0000      -1.052533       -28.6409
  45   2.0000      -1.012205       -27.5435
  46   2.0000      -1.011089       -27.5131
  47   2.0000      -0.804230       -21.8842
  48   2.0000      -0.758017       -20.6267
  49   2.0000      -0.746753       -20.3202
  50   2.0000      -0.726625       -19.7725
  51   2.0000      -0.722438       -19.6585
  52   2.0000      -0.711134       -19.3509
  53   2.0000      -0.689663       -18.7667
  54   2.0000      -0.675360       -18.3775
  55   2.0000      -0.628462       -17.1013
  56   2.0000      -0.618794       -16.8382
  57   2.0000      -0.607469       -16.5301
  58   2.0000      -0.599898       -16.3241
  59   2.0000      -0.588108       -16.0032
  60   2.0000      -0.529455       -14.4072
  61   2.0000      -0.516639       -14.0585
  62   2.0000      -0.495885       -13.4937
  63   2.0000      -0.488361       -13.2890
  64   2.0000      -0.474870       -12.9219
  65   2.0000      -0.462015       -12.5721
  66   2.0000      -0.456928       -12.4336
  67   2.0000      -0.443898       -12.0791
  68   2.0000      -0.438210       -11.9243
  69   2.0000      -0.435633       -11.8542
  70   2.0000      -0.422571       -11.4987
  71   2.0000      -0.418636       -11.3917
  72   2.0000      -0.413047       -11.2396
  73   2.0000      -0.400242       -10.8911
  74   2.0000      -0.394354       -10.7309
  75   2.0000      -0.387602       -10.5472
  76   2.0000      -0.375541       -10.2190
  77   2.0000      -0.366939        -9.9849
  78   2.0000      -0.363627        -9.8948
  79   2.0000      -0.361208        -9.8290
  80   2.0000      -0.357755        -9.7350
  81   2.0000      -0.352099        -9.5811
  82   2.0000      -0.349241        -9.5033
  83   2.0000      -0.345329        -9.3969
  84   2.0000      -0.343670        -9.3517
  85   2.0000      -0.336183        -9.1480
  86   2.0000      -0.319176        -8.6852
  87   2.0000      -0.309697        -8.4273
  88   2.0000      -0.307713        -8.3733
  89   2.0000      -0.305389        -8.3101
  90   2.0000      -0.299478        -8.1492
  91   2.0000      -0.291588        -7.9345
  92   2.0000      -0.288535        -7.8514
  93   2.0000      -0.281637        -7.6637
  94   2.0000      -0.275453        -7.4954
  95   2.0000      -0.252080        -6.8595
  96   2.0000      -0.238314        -6.4848
  97   2.0000      -0.233321        -6.3490
  98   2.0000      -0.224426        -6.1069
  99   2.0000      -0.223455        -6.0805
 100   2.0000      -0.222107        -6.0438
 101   0.0000      -0.052367        -1.4250
 102   0.0000      -0.034238        -0.9317
 103   0.0000      -0.010953        -0.2980
 104   0.0000      -0.005689        -0.1548
 105   0.0000       0.010863         0.2956

MULLIKEN ATOMIC CHARGES
-----------------------
   0 C :   -0.489896
   1 C :   -0.126117
   2 O :   -0.331073
   3 P :    0.708200
   4 S :   -0.527245
   5 O :   -0.285755
   6 C :   -0.117691
   7 C :   -0.498713
   8 S :   -0.146854
   9 C :   -0.253319
  10 S :   -0.145437
  11 P :    0.667747
  12 S :   -0.502554
  13 O :   -0.311356
  14 C :   -0.107987
  15 C :   -0.517951
  16 O :   -0.288974
  17 C :   -0.160158
  18 C :   -0.471930
  19 H :    0.170672
  20 H :    0.167095
  21 H :    0.169710
  22 H :    0.176748
  23 H :    0.164360
  24 H :    0.173522
  25 H :    0.169414
  26 H :    0.168718
  27 H :    0.170229
  28 H :    0.168768
  29 H :    0.232228
  30 H :    0.239221
  31 H :    0.175255
  32 H :    0.178476
  33 H :    0.181255
  34 H :    0.180548
  35 H :    0.165613
  36 H :    0.176176
  37 H :    0.176898
  38 H :    0.170700
  39 H :    0.164896
  40 H :    0.166558
Sum of atomic charges:   -0.0000000

LOEWDIN ATOMIC CHARGES
----------------------
   0 C :   -0.404859
   1 C :    0.027856
   2 O :   -0.672046
   3 P :    0.377289
   4 S :   -0.164653
   5 O :   -0.688003
   6 C :    0.031013
   7 C :   -0.400737
   8 S :    0.156448
   9 C :   -0.425432
  10 S :    0.143569
  11 P :    0.395161
  12 S :   -0.147782
  13 O :   -0.669846
  14 C :    0.040545
  15 C :   -0.405126
  16 O :   -0.676948
  17 C :    0.023825
  18 C :   -0.414432
  19 H :    0.162658
  20 H :    0.162499
  21 H :    0.167439
  22 H :    0.189917
  23 H :    0.180104
  24 H :    0.184161
  25 H :    0.183119
  26 H :    0.162709
  27 H :    0.163499
  28 H :    0.167422
  29 H :    0.198824
  30 H :    0.197935
  31 H :    0.193258
  32 H :    0.184675
  33 H :    0.165886
  34 H :    0.172333
  35 H :    0.163273
  36 H :    0.190537
  37 H :    0.191060
  38 H :    0.168791
  39 H :    0.162265
  40 H :    0.161794

  Mayer bond orders larger than 0.100000
B(  0-C ,  1-C ) :   0.9469 B(  0-C , 19-H ) :   0.9612 B(  0-C , 20-H ) :   0.9723
B(  0-C , 21-H ) :   0.9596 B(  1-C ,  2-O ) :   0.7634 B(  1-C , 22-H ) :   0.9536
B(  1-C , 23-H ) :   0.9557 B(  2-O ,  3-P ) :   1.0762 B(  3-P ,  4-S ) :   1.7089
B(  3-P ,  5-O ) :   1.1737 B(  3-P ,  8-S ) :   1.1102 B(  5-O ,  6-C ) :   0.7480
B(  6-C ,  7-C ) :   0.9487 B(  6-C , 24-H ) :   0.9425 B(  6-C , 25-H ) :   0.9555
B(  7-C , 26-H ) :   0.9658 B(  7-C , 27-H ) :   0.9657 B(  7-C , 28-H ) :   0.9585
B(  8-S ,  9-C ) :   0.8898 B(  9-C , 10-S ) :   0.9021 B(  9-C , 29-H ) :   0.8991
B(  9-C , 30-H ) :   0.9045 B( 10-S , 11-P ) :   1.0057 B( 11-P , 12-S ) :   1.7918
B( 11-P , 13-O ) :   1.1779 B( 11-P , 16-O ) :   1.0511 B( 13-O , 14-C ) :   0.7864
B( 14-C , 15-C ) :   0.9013 B( 14-C , 31-H ) :   0.9446 B( 14-C , 32-H ) :   0.9663
B( 15-C , 33-H ) :   0.9657 B( 15-C , 34-H ) :   0.9496 B( 15-C , 35-H ) :   0.9581
B( 16-O , 17-C ) :   0.7871 B( 17-C , 18-C ) :   0.9180 B( 17-C , 36-H ) :   0.9476
B( 17-C , 37-H ) :   0.9559 B( 18-C , 38-H ) :   0.9601 B( 18-C , 39-H ) :   0.9696
B( 18-C , 40-H ) :   0.9543

Dispersion correction           -0.021873683
FINAL SINGLE POINT ENERGY     -2932.469584264468

DIPOLE MOMENT
-------------

Method             : SCF
Type of density    : Electron Density
Multiplicity       :   1
Irrep              :   0
Energy             : -2932.4944530190505247 Eh
Relativity type    :
Basis              : AO
                                X                 Y                 Z
Electronic contribution:     -6.058316266       6.474748403     -14.562011247
Nuclear contribution   :      6.903465502      -7.562607082      16.941392800
                        -----------------------------------------
Total Dipole Moment    :      0.845149235      -1.087858679       2.379381553
                        -----------------------------------------
Magnitude (a.u.)       :      2.749394535
Magnitude (Debye)      :      6.988405531

Rotational constants in cm-1:             0.012905             0.004986             0.004535
Rotational constants in MHz :           386.888595           149.474510           135.943744

                             ****ORCA TERMINATED NORMALLY****
TOTAL RUN TIME: 0 days 0 hours 1 minutes 50 seconds 630 msec
