                         Program Version 6.0.0  -   RELEASE  -
|  1> ! pbe def2-sv(p) def2/J RI DEFGRID1 loosescf d4 GCP(DFT/SV(P)) printgap
|  2> %output
|  3>     printlevel normal
|  4> end
|  5> * xyz 0 1
|  6> C 4.5221956464 -1.5297585069 1.0921862403
|  7> C 4.0356586218 -0.0945330598 1.0833475073
|  8> O 3.5548148992 0.2827405452 -0.2311000425
|  9> P 2.0184643832 0.3269190035 -0.6249196109
| 10> S 1.7933830844 1.033279575 -2.431931557
| 11> O 1.2701329487 1.1196755366 0.5511748635
| 12> C 1.1232575211 2.5482787902 0.5177605003
| 13> C 2.4333467424 3.2563052851 0.7937704356
| 14> S 1.3432030018 -1.6241936137 -0.2472213511
| 15> C -0.1640777184 -1.6660119594 -1.2719756996
| 16> S -1.6591752314 -1.9735180034 -0.3137769008
| 17> P -2.0975429683 0.0306385132 0.2557500706
| 18> S -1.6897753761 1.3915944092 -1.0940964808
| 19> O -1.3396122822 0.3654578422 1.5960627659
| 20> C -1.459948101 -0.4082924757 2.8189496572
| 21> C -0.2299194464 -1.2685496534 3.0290846831
| 22> O -3.5949570713 -0.0805189921 0.7758647274
| 23> C -4.6791131 -0.7187572505 0.0755492481
| 24> C -4.8777651106 -0.1721510117 -1.3222635513
| 25> H 3.6965771897 -2.2168589807 0.9215327259
| 26> H 5.2643960708 -1.6728122952 0.3119100556
| 27> H 4.970560054 -1.7436517072 2.0573184046
| 28> H 4.8551909981 0.5993454635 1.2799645305
| 29> H 3.236982826 0.0594251211 1.8131188393
| 30> H 0.7244726465 2.8342930194 -0.4615030021
| 31> H 0.3717138092 2.7547388308 1.2820711017
| 32> H 3.1502566178 3.0226422085 0.0069691134
| 33> H 2.2617292788 4.3281233508 0.8051197099
| 34> H 2.8392999214 2.9459273508 1.7531549361
| 35> H -0.0656870419 -2.4976570148 -1.964758838
| 36> H -0.2555415388 -0.7153316348 -1.8063676383
| 37> H -1.5578615733 0.3422888824 3.6049971881
| 38> H -2.368247885 -1.0118178856 2.7737946116
| 39> H 0.6652541567 -0.6554578438 2.9640694197
| 40> H -0.2807940219 -1.7238389856 4.012918328
| 41> H -0.1687098451 -2.0526654326 2.2782073964
| 42> H -4.4808630235 -1.7935594063 0.0459501298
| 43> H -5.5448867676 -0.5164655767 0.7086553315
| 44> H -4.0093066796 -0.393343636 -1.9412156664
| 45> H -5.7550969137 -0.6298743184 -1.7676830347
| 46> H -5.0092206583 0.9070372236 -1.2932439779
| 47> *
| 48>
| 49>                          ****END OF INPUT****

CARTESIAN COORDINATES (ANGSTROEM)
---------------------------------
  C      4.522196   -1.529759    1.092186
  C      4.035659   -0.094533    1.083348
  O      3.554815    0.282741   -0.231100
  P      2.018464    0.326919   -0.624920
  S      1.793383    1.033280   -2.431932
  O      1.270133    1.119676    0.551175
  C      1.123258    2.548279    0.517761
  C      2.433347    3.256305    0.793770
  S      1.343203   -1.624194   -0.247221
  C     -0.164078   -1.666012   -1.271976
  S     -1.659175   -1.973518   -0.313777
  P     -2.097543    0.030639    0.255750
  S     -1.689775    1.391594   -1.094096
  O     -1.339612    0.365458    1.596063
  C     -1.459948   -0.408292    2.818950
  C     -0.229919   -1.268550    3.029085
  O     -3.594957   -0.080519    0.775865
  C     -4.679113   -0.718757    0.075549
  C     -4.877765   -0.172151   -1.322264
  H      3.696577   -2.216859    0.921533
  H      5.264396   -1.672812    0.311910
  H      4.970560   -1.743652    2.057318
  H      4.855191    0.599345    1.279965
  H      3.236983    0.059425    1.813119
  H      0.724473    2.834293   -0.461503
  H      0.371714    2.754739    1.282071
  H      3.150257    3.022642    0.006969
  H      2.261729    4.328123    0.805120
  H      2.839300    2.945927    1.753155
  H     -0.065687   -2.497657   -1.964759
  H     -0.255542   -0.715332   -1.806368
  H     -1.557862    0.342289    3.604997
  H     -2.368248   -1.011818    2.773795
  H      0.665254   -0.655458    2.964069
  H     -0.280794   -1.723839    4.012918
  H     -0.168710   -2.052665    2.278207
  H     -4.480863   -1.793559    0.045950
  H     -5.544887   -0.516466    0.708655
  H     -4.009307   -0.393344   -1.941216
  H     -5.755097   -0.629874   -1.767683
  H     -5.009221    0.907037   -1.293244

 Total Charge           Charge          ....    0
 Multiplicity           Mult            ....    1
 Number of Electrons    NEL             ....  202
 Basis Dimension        Dim             ....  334

ORBITAL ENERGIES
----------------

  NO   OCC          E(Eh)            E(eV)
   0   2.0000     -88.048356     -2395.9176
   1   2.0000     -88.040339     -2395.6994
   2   2.0000     -87.981143     -2394.0886
   3   2.0000     -87.976222     -2393.9547
   4   2.0000     -76.426324     -2079.6660
   5   2.0000     -76.418489     -2079.4528
   6   2.0000     -18.796643      -511.4827
   7   2.0000     -18.791023      -511.3297
   8   2.0000     -18.789194      -511.2800
   9   2.0000     -18.779602      -511.0189
  10   2.0000      -9.960780      -271.0466
  11   2.0000      -9.958054      -270.9724
  12   2.0000      -9.956303      -270.9248
  13   2.0000      -9.956213      -270.9223
  14   2.0000      -9.935311      -270.3536
  15   2.0000      -9.889211      -269.0991
  16   2.0000      -9.883802      -268.9519
  17   2.0000      -9.883684      -268.9487
  18   2.0000      -9.878172      -268.7987
  19   2.0000      -7.693287      -209.3450
  20   2.0000      -7.685733      -209.1394
  21   2.0000      -7.626018      -207.5145
  22   2.0000      -7.621496      -207.3915
  23   2.0000      -6.423590      -174.7948
  24   2.0000      -6.416516      -174.6023
  25   2.0000      -5.720968      -155.6755
  26   2.0000      -5.717643      -155.5850
  27   2.0000      -5.713618      -155.4755
  28   2.0000      -5.710633      -155.3942
  29   2.0000      -5.710208      -155.3826
  30   2.0000      -5.702600      -155.1756
  31   2.0000      -5.655159      -153.8847
  32   2.0000      -5.650661      -153.7623
  33   2.0000      -5.646509      -153.6493
  34   2.0000      -5.646066      -153.6373
  35   2.0000      -5.642203      -153.5322
  36   2.0000      -5.641277      -153.5069
  37   2.0000      -4.646385      -126.4346
  38   2.0000      -4.645633      -126.4141
  39   2.0000      -4.643608      -126.3590
  40   2.0000      -4.639422      -126.2451
  41   2.0000      -4.637944      -126.2049
  42   2.0000      -4.636966      -126.1783
  43   2.0000      -0.989544       -26.9269
  44   2.0000      -0.979071       -26.6419
  45   2.0000      -0.944760       -25.7082
  46   2.0000      -0.936129       -25.4734
  47   2.0000      -0.763771       -20.7833
  48   2.0000      -0.721540       -19.6341
  49   2.0000      -0.711134       -19.3509
  50   2.0000      -0.690950       -18.8017
  51   2.0000      -0.688610       -18.7380
  52   2.0000      -0.673544       -18.3281
  53   2.0000      -0.649197       -17.6655
  54   2.0000      -0.632715       -17.2171
  55   2.0000      -0.592858       -16.1325
  56   2.0000      -0.584888       -15.9156
  57   2.0000      -0.576586       -15.6897
  58   2.0000      -0.575176       -15.6513
  59   2.0000      -0.560798       -15.2601
  60   2.0000      -0.506036       -13.7699
  61   2.0000      -0.495563       -13.4849
  62   2.0000      -0.473419       -12.8824
  63   2.0000      -0.470303       -12.7976
  64   2.0000      -0.454620       -12.3708
  65   2.0000      -0.449550       -12.2329
  66   2.0000      -0.441120       -12.0035
  67   2.0000      -0.437905       -11.9160
  68   2.0000      -0.427208       -11.6249
  69   2.0000      -0.415893       -11.3170
  70   2.0000      -0.411560       -11.1991
  71   2.0000      -0.399573       -10.8729
  72   2.0000      -0.395018       -10.7490
  73   2.0000      -0.384938       -10.4747
  74   2.0000      -0.380948       -10.3661
  75   2.0000      -0.365285        -9.9399
  76   2.0000      -0.357480        -9.7275
  77   2.0000      -0.356265        -9.6945
  78   2.0000      -0.355946        -9.6858
  79   2.0000      -0.350067        -9.5258
  80   2.0000      -0.346287        -9.4229
  81   2.0000      -0.345438        -9.3998
  82   2.0000      -0.342946        -9.3320
  83   2.0000      -0.337742        -9.1904
  84   2.0000      -0.334200        -9.0940
  85   2.0000      -0.316711        -8.6182
  86   2.0000      -0.309163        -8.4128
  87   2.0000      -0.302487        -8.2311
  88   2.0000      -0.298400        -8.1199
  89   2.0000      -0.293849        -7.9960
  90   2.0000      -0.278217        -7.5707
  91   2.0000      -0.270978        -7.3737
  92   2.0000      -0.267594        -7.2816
  93   2.0000      -0.263519        -7.1707
  94   2.0000      -0.256393        -6.9768
  95   2.0000      -0.237025        -6.4498
  96   2.0000      -0.220052        -5.9879
  97   2.0000      -0.208946        -5.6857
  98   2.0000      -0.198796        -5.4095
  99   2.0000      -0.191832        -5.2200
 100   2.0000      -0.183719        -4.9993
 101   0.0000      -0.039598        -1.0775
 102   0.0000      -0.029086        -0.7915
 103   0.0000      -0.017702        -0.4817
 104   0.0000       0.008993         0.2447
 105   0.0000       0.016753         0.4559

MULLIKEN ATOMIC CHARGES
-----------------------
   0 C :   -0.289678
   1 C :   -0.046371
   2 O :   -0.370594
   3 P :    0.615911
   4 S :   -0.300442
   5 O :   -0.376214
   6 C :   -0.012719
   7 C :   -0.309104
   8 S :   -0.119267
   9 C :   -0.336861
  10 S :   -0.127017
  11 P :    0.597348
  12 S :   -0.290489
  13 O :   -0.345088
  14 C :   -0.009724
  15 C :   -0.300077
  16 O :   -0.380020
  17 C :   -0.012642
  18 C :   -0.306996
  19 H :    0.132035
  20 H :    0.124339
  21 H :    0.109543
  22 H :    0.111558
  23 H :    0.119240
  24 H :    0.126279
  25 H :    0.101188
  26 H :    0.127208
  27 H :    0.112221
  28 H :    0.104636
  29 H :    0.187708
  30 H :    0.212151
  31 H :    0.107679
  32 H :    0.099115
  33 H :    0.126183
  34 H :    0.103392
  35 H :    0.128273
  36 H :    0.112960
  37 H :    0.109069
  38 H :    0.126512
  39 H :    0.111151
  40 H :    0.127604
Sum of atomic charges:    0.0000000

LOEWDIN ATOMIC CHARGES
----------------------
   0 C :   -0.360667
   1 C :   -0.120054
   2 O :   -0.244046
   3 P :    0.566528
   4 S :   -0.302716
   5 O :   -0.246627
   6 C :   -0.127587
   7 C :   -0.366648
   8 S :    0.081255
   9 C :   -0.475466
  10 S :    0.064066
  11 P :    0.564153
  12 S :   -0.278544
  13 O :   -0.228741
  14 C :   -0.110869
  15 C :   -0.364950
  16 O :   -0.245737
  17 C :   -0.115606
  18 C :   -0.368769
  19 H :    0.118911
  20 H :    0.131492
  21 H :    0.130155
  22 H :    0.121108
  23 H :    0.108576
  24 H :    0.108927
  25 H :    0.115420
  26 H :    0.124552
  27 H :    0.130885
  28 H :    0.118181
  29 H :    0.139637
  30 H :    0.127867
  31 H :    0.120474
  32 H :    0.107004
  33 H :    0.124511
  34 H :    0.126495
  35 H :    0.115368
  36 H :    0.107086
  37 H :    0.121201
  38 H :    0.122024
  39 H :    0.130065
  40 H :    0.131087

  Mayer bond orders larger than 0.100000
B(  0-C ,  1-C ) :   1.1681 B(  0-C , 19-H ) :   0.9342 B(  0-C , 20-H ) :   0.9456
B(  0-C , 21-H ) :   0.9385 B(  1-C ,  2-O ) :   0.9015 B(  1-C , 22-H ) :   0.9330
B(  1-C , 23-H ) :   0.9106 B(  2-O ,  3-P ) :   1.1045 B(  3-P ,  4-S ) :   1.6529
B(  3-P ,  5-O ) :   1.0837 B(  3-P ,  8-S ) :   0.9680 B(  4-S ,  8-S ) :   0.1071
B(  5-O ,  6-C ) :   0.9047 B(  6-C ,  7-C ) :   1.1530 B(  6-C , 24-H ) :   0.9081
B(  6-C , 25-H ) :   0.9327 B(  7-C , 26-H ) :   0.9366 B(  7-C , 27-H ) :   0.9408
B(  7-C , 28-H ) :   0.9448 B(  8-S ,  9-C ) :   0.9917 B(  9-C , 10-S ) :   1.0124
B(  9-C , 29-H ) :   0.9110 B(  9-C , 30-H ) :   0.8390 B( 10-S , 11-P ) :   0.9274
B( 10-S , 12-S ) :   0.1079 B( 11-P , 12-S ) :   1.6525 B( 11-P , 13-O ) :   1.1394
B( 11-P , 16-O ) :   1.0865 B( 13-O , 14-C ) :   0.8950 B( 14-C , 15-C ) :   1.1674
B( 14-C , 31-H ) :   0.9353 B( 14-C , 32-H ) :   0.9186 B( 15-C , 33-H ) :   0.9401
B( 15-C , 34-H ) :   0.9365 B( 15-C , 35-H ) :   0.9304 B( 16-O , 17-C ) :   0.9112
B( 17-C , 18-C ) :   1.1672 B( 17-C , 36-H ) :   0.9258 B( 17-C , 37-H ) :   0.9332
B( 18-C , 38-H ) :   0.9323 B( 18-C , 39-H ) :   0.9351 B( 18-C , 40-H ) :   0.9432

Dispersion correction           -0.068247055
FINAL SINGLE POINT ENERGY     -2929.514332617024

DIPOLE MOMENT
-------------

Method             : SCF
Type of density    : Electron Density
Multiplicity       :   1
Irrep              :   0
Energy             : -2929.6333494180807975 Eh
Relativity type    :
Basis              : AO
                                X                 Y                 Z
Electronic contribution:     -2.925190341      -0.822038243     -14.850665006
Nuclear contribution   :      2.458341430      -0.100593262      16.798129844
                        -----------------------------------------
Total Dipole Moment    :     -0.466848911      -0.922631505       1.947464839
                        -----------------------------------------
Magnitude (a.u.)       :      2.204952630
Magnitude (Debye)      :      5.604544184

Rotational constants in cm-1:             0.012394             0.005548             0.005223
Rotational constants in MHz :           371.555683           166.321896           156.594401

                             ****ORCA TERMINATED NORMALLY****
TOTAL RUN TIME: 0 days 0 hours 0 minutes 21 seconds 945 msec
