                         Program Version 6.0.1  -  RELEASE   -
|  1> ! pbe def2-sv(p) def2/J RI DEFGRID1 loosescf d4 GCP(DFT/SV(P)) printgap
|  2> %output
|  3>     printlevel normal
|  4> end
|  5> * xyz 0 1
|  6> C 2.7091200422 -4.0339751377 0.0837165271
|  7> C 2.7524363655 -2.5612128233 0.4374921602
|  8> O 2.3929776365 -1.8120958097 -0.7400719428
|  9> C 2.1624160966 -0.5275057024 -0.6189303007
| 10> O 2.2297324514 0.095847541 0.4229720532
| 11> C 1.8010401058 0.1259602908 -1.9389214744
| 12> C 0.5098616974 0.9341582385 -1.7812446918
| 13> H 0.3954390744 1.6214900009 -2.6222055918
| 14> C 0.5134717517 1.7234910754 -0.4878194585
| 15> O -0.3121865814 1.5228708366 0.3906837851
| 16> O 1.427583107 2.6409612482 -0.4623146743
| 17> C 1.5815512198 3.4344352713 0.7365881684
| 18> C 0.5972166103 4.5913610125 0.7573048058
| 19> S -0.9784094661 -0.1269866156 -1.8066415762
| 20> P -1.5441442029 -0.4621457769 0.2059451045
| 21> S -0.4600029568 -1.1246173081 1.7131398655
| 22> O -2.7539261613 0.5031874091 0.6276700626
| 23> C -2.7288572111 1.4645718219 1.6795608413
| 24> O -2.4386957936 -1.6765676513 -0.3793910309
| 25> C -3.2404627364 -2.5013814103 0.4642872671
| 26> H 1.7029037218 -4.3127456363 -0.2156198799
| 27> H 3.3920984366 -4.239993067 -0.7347945142
| 28> H 2.996524537 -4.6175635803 0.9516770973
| 29> H 3.7528813076 -2.2448880987 0.7475434264
| 30> H 2.0464373507 -2.3103887709 1.2365623128
| 31> H 1.6801871014 -0.6327369538 -2.7096856202
| 32> H 2.6128983769 0.8062280064 -2.204272454
| 33> H 1.4485891026 2.7773062204 1.6000824687
| 34> H 2.6117061342 3.785930641 0.6862921724
| 35> H 0.7174739001 5.201468986 -0.1334370203
| 36> H -0.42381003 4.2194253716 0.7996007369
| 37> H 0.7836305572 5.1995191124 1.6360358341
| 38> H -1.9525200754 1.2124134014 2.4037713797
| 39> H -3.7110753283 1.4276739134 2.1464679279
| 40> H -2.5381375722 2.4517423864 1.2628748672
| 41> H -4.1528123249 -1.9746031433 0.7430246119
| 42> H -2.681148308 -2.7741394387 1.3625576547
| 43> H -3.4731461669 -3.3872486406 -0.1216150237
| 44> *
| 45>
| 46>                          ****END OF INPUT****

CARTESIAN COORDINATES (ANGSTROEM)
---------------------------------
  C      2.709120   -4.033975    0.083717
  C      2.752436   -2.561213    0.437492
  O      2.392978   -1.812096   -0.740072
  C      2.162416   -0.527506   -0.618930
  O      2.229732    0.095848    0.422972
  C      1.801040    0.125960   -1.938921
  C      0.509862    0.934158   -1.781245
  H      0.395439    1.621490   -2.622206
  C      0.513472    1.723491   -0.487819
  O     -0.312187    1.522871    0.390684
  O      1.427583    2.640961   -0.462315
  C      1.581551    3.434435    0.736588
  C      0.597217    4.591361    0.757305
  S     -0.978409   -0.126987   -1.806642
  P     -1.544144   -0.462146    0.205945
  S     -0.460003   -1.124617    1.713140
  O     -2.753926    0.503187    0.627670
  C     -2.728857    1.464572    1.679561
  O     -2.438696   -1.676568   -0.379391
  C     -3.240463   -2.501381    0.464287
  H      1.702904   -4.312746   -0.215620
  H      3.392098   -4.239993   -0.734795
  H      2.996525   -4.617564    0.951677
  H      3.752881   -2.244888    0.747543
  H      2.046437   -2.310389    1.236562
  H      1.680187   -0.632737   -2.709686
  H      2.612898    0.806228   -2.204272
  H      1.448589    2.777306    1.600082
  H      2.611706    3.785931    0.686292
  H      0.717474    5.201469   -0.133437
  H     -0.423810    4.219425    0.799601
  H      0.783631    5.199519    1.636036
  H     -1.952520    1.212413    2.403771
  H     -3.711075    1.427674    2.146468
  H     -2.538138    2.451742    1.262875
  H     -4.152812   -1.974603    0.743025
  H     -2.681148   -2.774139    1.362558
  H     -3.473146   -3.387249   -0.121615

 Total Charge           Charge          ....    0
 Multiplicity           Mult            ....    1
 Number of Electrons    NEL             ....  174
 Basis Dimension        Dim             ....  316

ORBITAL ENERGIES
----------------

  NO   OCC          E(Eh)            E(eV)
   0   2.0000     -88.029951     -2395.4168
   1   2.0000     -87.958978     -2393.4855
   2   2.0000     -76.412432     -2079.2880
   3   2.0000     -18.822974      -512.1992
   4   2.0000     -18.803774      -511.6767
   5   2.0000     -18.771630      -510.8020
   6   2.0000     -18.767218      -510.6820
   7   2.0000     -18.759439      -510.4703
   8   2.0000     -18.737738      -509.8798
   9   2.0000     -10.035635      -273.0835
  10   2.0000     -10.011036      -272.4141
  11   2.0000      -9.958292      -270.9789
  12   2.0000      -9.953584      -270.8508
  13   2.0000      -9.938045      -270.4279
  14   2.0000      -9.927640      -270.1448
  15   2.0000      -9.921666      -269.9822
  16   2.0000      -9.916274      -269.8355
  17   2.0000      -9.896815      -269.3060
  18   2.0000      -9.880833      -268.8711
  19   2.0000      -7.675051      -208.8487
  20   2.0000      -7.604052      -206.9168
  21   2.0000      -6.407055      -174.3448
  22   2.0000      -5.703567      -155.2020
  23   2.0000      -5.699345      -155.0871
  24   2.0000      -5.691552      -154.8750
  25   2.0000      -5.633188      -153.2868
  26   2.0000      -5.624891      -153.0611
  27   2.0000      -5.623700      -153.0287
  28   2.0000      -4.629960      -125.9876
  29   2.0000      -4.629119      -125.9647
  30   2.0000      -4.627599      -125.9234
  31   2.0000      -1.036253       -28.1979
  32   2.0000      -1.010366       -27.4935
  33   2.0000      -0.960146       -26.1269
  34   2.0000      -0.941873       -25.6297
  35   2.0000      -0.915832       -24.9211
  36   2.0000      -0.914225       -24.8773
  37   2.0000      -0.767249       -20.8779
  38   2.0000      -0.716502       -19.4970
  39   2.0000      -0.706835       -19.2340
  40   2.0000      -0.685024       -18.6404
  41   2.0000      -0.648489       -17.6463
  42   2.0000      -0.627086       -17.0639
  43   2.0000      -0.612419       -16.6648
  44   2.0000      -0.607280       -16.5249
  45   2.0000      -0.587895       -15.9974
  46   2.0000      -0.560799       -15.2601
  47   2.0000      -0.513346       -13.9688
  48   2.0000      -0.505339       -13.7510
  49   2.0000      -0.501743       -13.6531
  50   2.0000      -0.487972       -13.2784
  51   2.0000      -0.465253       -12.6602
  52   2.0000      -0.458619       -12.4797
  53   2.0000      -0.448543       -12.2055
  54   2.0000      -0.436734       -11.8841
  55   2.0000      -0.431821       -11.7504
  56   2.0000      -0.421907       -11.4807
  57   2.0000      -0.414404       -11.2765
  58   2.0000      -0.409449       -11.1417
  59   2.0000      -0.403556       -10.9813
  60   2.0000      -0.396544       -10.7905
  61   2.0000      -0.394733       -10.7412
  62   2.0000      -0.383540       -10.4367
  63   2.0000      -0.381644       -10.3851
  64   2.0000      -0.367312        -9.9951
  65   2.0000      -0.364140        -9.9088
  66   2.0000      -0.360796        -9.8178
  67   2.0000      -0.351809        -9.5732
  68   2.0000      -0.345757        -9.4085
  69   2.0000      -0.345110        -9.3909
  70   2.0000      -0.338316        -9.2061
  71   2.0000      -0.331171        -9.0116
  72   2.0000      -0.311870        -8.4864
  73   2.0000      -0.309418        -8.4197
  74   2.0000      -0.296325        -8.0634
  75   2.0000      -0.295353        -8.0370
  76   2.0000      -0.287238        -7.8161
  77   2.0000      -0.282880        -7.6975
  78   2.0000      -0.267181        -7.2704
  79   2.0000      -0.258531        -7.0350
  80   2.0000      -0.255653        -6.9567
  81   2.0000      -0.250306        -6.8112
  82   2.0000      -0.239734        -6.5235
  83   2.0000      -0.224736        -6.1154
  84   2.0000      -0.209302        -5.6954
  85   2.0000      -0.178883        -4.8677
  86   2.0000      -0.171523        -4.6674
  87   0.0000      -0.045457        -1.2369
  88   0.0000      -0.034646        -0.9428
  89   0.0000      -0.026287        -0.7153
  90   0.0000       0.011160         0.3037
  91   0.0000       0.034418         0.9366

MULLIKEN ATOMIC CHARGES
-----------------------
   0 C :   -0.275225
   1 C :   -0.042327
   2 O :   -0.215768
   3 C :    0.098515
   4 O :   -0.203272
   5 C :   -0.026168
   6 C :   -0.307297
   7 H :    0.146907
   8 C :    0.241697
   9 O :   -0.218906
  10 O :   -0.213337
  11 C :   -0.006694
  12 C :   -0.321235
  13 S :   -0.078150
  14 P :    0.665031
  15 S :   -0.346304
  16 O :   -0.395050
  17 C :   -0.093597
  18 O :   -0.409975
  19 C :   -0.091157
  20 H :    0.123231
  21 H :    0.108530
  22 H :    0.109930
  23 H :    0.096557
  24 H :    0.138421
  25 H :    0.117825
  26 H :    0.122963
  27 H :    0.131318
  28 H :    0.108905
  29 H :    0.115768
  30 H :    0.137163
  31 H :    0.119743
  32 H :    0.116546
  33 H :    0.111988
  34 H :    0.110954
  35 H :    0.102521
  36 H :    0.106089
  37 H :    0.113856
Sum of atomic charges:   -0.0000000

LOEWDIN ATOMIC CHARGES
----------------------
   0 C :   -0.349982
   1 C :   -0.111592
   2 O :   -0.043492
   3 C :    0.027878
   4 O :   -0.155804
   5 C :   -0.246603
   6 C :   -0.263225
   7 H :    0.147538
   8 C :    0.036080
   9 O :   -0.147663
  10 O :   -0.027979
  11 C :   -0.101225
  12 C :   -0.357310
  13 S :    0.118659
  14 P :    0.584507
  15 S :   -0.336569
  16 O :   -0.258113
  17 C :   -0.215267
  18 O :   -0.282441
  19 C :   -0.217949
  20 H :    0.130685
  21 H :    0.123002
  22 H :    0.130497
  23 H :    0.113122
  24 H :    0.119916
  25 H :    0.137430
  26 H :    0.146572
  27 H :    0.131668
  28 H :    0.122395
  29 H :    0.126099
  30 H :    0.129492
  31 H :    0.134573
  32 H :    0.108720
  33 H :    0.113974
  34 H :    0.106095
  35 H :    0.106621
  36 H :    0.103181
  37 H :    0.116510

  Mayer bond orders larger than 0.100000
B(  0-C ,  1-C ) :   1.1588 B(  0-C , 20-H ) :   0.9491 B(  0-C , 21-H ) :   0.9499
B(  0-C , 22-H ) :   0.9439 B(  1-C ,  2-O ) :   0.8935 B(  1-C , 23-H ) :   0.9326
B(  1-C , 24-H ) :   0.9082 B(  2-O ,  3-C ) :   1.2738 B(  2-O ,  4-O ) :   0.1017
B(  3-C ,  4-O ) :   1.9636 B(  3-C ,  5-C ) :   1.0024 B(  4-O ,  8-C ) :   0.1167
B(  5-C ,  6-C ) :   1.0170 B(  5-C , 25-H ) :   0.9042 B(  5-C , 26-H ) :   0.8767
B(  6-C ,  7-H ) :   0.8771 B(  6-C ,  8-C ) :   0.9147 B(  6-C , 13-S ) :   1.0423
B(  8-C ,  9-O ) :   1.8293 B(  8-C , 10-O ) :   1.2885 B(  9-O , 14-P ) :   0.1841
B( 10-O , 11-C ) :   0.8929 B( 11-C , 12-C ) :   1.1714 B( 11-C , 27-H ) :   0.9168
B( 11-C , 28-H ) :   0.9375 B( 12-C , 29-H ) :   0.9460 B( 12-C , 30-H ) :   0.9413
B( 12-C , 31-H ) :   0.9429 B( 13-S , 14-P ) :   0.9298 B( 13-S , 15-S ) :   0.1079
B( 14-P , 15-S ) :   1.5646 B( 14-P , 16-O ) :   1.0726 B( 14-P , 18-O ) :   1.0334
B( 16-O , 17-C ) :   0.9386 B( 17-C , 32-H ) :   0.9309 B( 17-C , 33-H ) :   0.9535
B( 17-C , 34-H ) :   0.9522 B( 18-O , 19-C ) :   0.9485 B( 19-C , 35-H ) :   0.9521
B( 19-C , 36-H ) :   0.9281 B( 19-C , 37-H ) :   0.9610

Dispersion correction           -0.053511346
FINAL SINGLE POINT ENERGY     -1979.006448527901

DIPOLE MOMENT
-------------

Method             : SCF
Type of density    : Electron Density
Multiplicity       :   1
Irrep              :   0
Energy             : -1979.1368661009546486 Eh
Relativity type    :
Basis              : AO
                                X                 Y                 Z
Electronic contribution:     -5.593093545      -1.442452284      -6.575776737
Nuclear contribution   :      6.315530331       2.540351696       6.228883242
                        -----------------------------------------
Total Dipole Moment    :      0.722436786       1.097899412      -0.346893495
                        -----------------------------------------
Magnitude (a.u.)       :      1.359276692
Magnitude (Debye)      :      3.455006777

Rotational constants in cm-1:             0.010546             0.009894             0.006655
Rotational constants in MHz :           316.175387           296.622164           199.525118

                             ****ORCA TERMINATED NORMALLY****
TOTAL RUN TIME: 0 days 0 hours 0 minutes 36 seconds 563 msec
