                         Program Version 6.0.1  -  RELEASE   -
|  1> ! pbe def2-sv(p) def2/J RI DEFGRID1 loosescf d4 GCP(DFT/SV(P)) printgap
|  2> %output
|  3>     printlevel normal
|  4> end
|  5> * xyz 0 1
|  6> C 5.1093554117 -1.3681353067 -2.412988293
|  7> C 4.1772416566 -0.3143804118 -1.8361503664
|  8> O 2.8772239811 -0.869062206 -1.5613484153
|  9> C 2.6781640955 -1.4515851915 -0.3964747686
| 10> O 3.5135366339 -1.570994956 0.4703858174
| 11> C 1.2525826643 -1.9649004698 -0.2721064652
| 12> C 0.2597666649 -0.807357479 -0.3951510948
| 13> H 0.3628368546 -0.3219588593 -1.3692210565
| 14> C 0.4980205753 0.215723206 0.6976719722
| 15> O -0.3179626946 0.4604089896 1.5636428795
| 16> O 1.6681581522 0.7804917531 0.5801260641
| 17> C 2.0807338837 1.725972524 1.5916153449
| 18> C 2.6368679745 1.0015940058 2.8062968072
| 19> S -1.4461608456 -1.4433361218 -0.2228249689
| 20> P -2.4768094203 0.3904012221 0.012990683
| 21> S -1.6405064419 2.0032833566 -0.7451164818
| 22> O -3.8592983022 0.0235542048 -0.701417133
| 23> C -3.923714863 -0.207429583 -2.1125193067
| 24> O -3.1142029125 0.4793800446 1.4601576984
| 25> C -2.7984739474 1.4549073062 2.4560234528
| 26> H 4.6699469582 -1.8101596267 -3.3028714429
| 27> H 6.0555587142 -0.9055129632 -2.6733895805
| 28> H 5.2890027862 -2.1504495244 -1.6791755855
| 29> H 3.9867516274 0.4847234822 -2.5526686759
| 30> H 4.5830807061 0.0954841688 -0.9072744776
| 31> H 1.139378095 -2.4632478094 0.6909359714
| 32> H 1.0583973649 -2.6780361304 -1.0735902228
| 33> H 2.8438558137 2.3261149577 1.0967987549
| 34> H 1.2205206445 2.3469875166 1.8561359068
| 35> H 1.8460880025 0.4554037255 3.3153854642
| 36> H 3.4048257642 0.2959515368 2.4969739245
| 37> H 3.0650871576 1.725045825 3.4916135317
| 38> H -3.4368187166 -1.1504856702 -2.3622690038
| 39> H -3.4453342773 0.6142893298 -2.649050428
| 40> H -4.9831602128 -0.2495841091 -2.3516433238
| 41> H -3.7415722791 1.7116841962 2.9334277257
| 42> H -2.3521819363 2.3390238677 1.9969215695
| 43> H -2.1023964552 1.0223966718 3.1721138272
| 44> *
| 45>
| 46>                          ****END OF INPUT****

CARTESIAN COORDINATES (ANGSTROEM)
---------------------------------
  C      5.109355   -1.368135   -2.412988
  C      4.177242   -0.314380   -1.836150
  O      2.877224   -0.869062   -1.561348
  C      2.678164   -1.451585   -0.396475
  O      3.513537   -1.570995    0.470386
  C      1.252583   -1.964900   -0.272106
  C      0.259767   -0.807357   -0.395151
  H      0.362837   -0.321959   -1.369221
  C      0.498021    0.215723    0.697672
  O     -0.317963    0.460409    1.563643
  O      1.668158    0.780492    0.580126
  C      2.080734    1.725973    1.591615
  C      2.636868    1.001594    2.806297
  S     -1.446161   -1.443336   -0.222825
  P     -2.476809    0.390401    0.012991
  S     -1.640506    2.003283   -0.745116
  O     -3.859298    0.023554   -0.701417
  C     -3.923715   -0.207430   -2.112519
  O     -3.114203    0.479380    1.460158
  C     -2.798474    1.454907    2.456023
  H      4.669947   -1.810160   -3.302871
  H      6.055559   -0.905513   -2.673390
  H      5.289003   -2.150450   -1.679176
  H      3.986752    0.484723   -2.552669
  H      4.583081    0.095484   -0.907274
  H      1.139378   -2.463248    0.690936
  H      1.058397   -2.678036   -1.073590
  H      2.843856    2.326115    1.096799
  H      1.220521    2.346988    1.856136
  H      1.846088    0.455404    3.315385
  H      3.404826    0.295952    2.496974
  H      3.065087    1.725046    3.491614
  H     -3.436819   -1.150486   -2.362269
  H     -3.445334    0.614289   -2.649050
  H     -4.983160   -0.249584   -2.351643
  H     -3.741572    1.711684    2.933428
  H     -2.352182    2.339024    1.996922
  H     -2.102396    1.022397    3.172114

 Total Charge           Charge          ....    0
 Multiplicity           Mult            ....    1
 Number of Electrons    NEL             ....  174
 Basis Dimension        Dim             ....  316

ORBITAL ENERGIES
----------------

  NO   OCC          E(Eh)            E(eV)
   0   2.0000     -88.036331     -2395.5904
   1   2.0000     -87.976745     -2393.9689
   2   2.0000     -76.420772     -2079.5149
   3   2.0000     -18.821296      -512.1535
   4   2.0000     -18.809925      -511.8441
   5   2.0000     -18.781229      -511.0632
   6   2.0000     -18.778002      -510.9754
   7   2.0000     -18.752904      -510.2925
   8   2.0000     -18.746276      -510.1121
   9   2.0000     -10.026907      -272.8460
  10   2.0000     -10.019692      -272.6497
  11   2.0000      -9.956350      -270.9261
  12   2.0000      -9.954962      -270.8883
  13   2.0000      -9.950919      -270.7783
  14   2.0000      -9.934896      -270.3423
  15   2.0000      -9.932559      -270.2787
  16   2.0000      -9.921282      -269.9718
  17   2.0000      -9.892970      -269.2014
  18   2.0000      -9.887890      -269.0632
  19   2.0000      -7.681531      -209.0251
  20   2.0000      -7.621816      -207.4002
  21   2.0000      -6.416851      -174.6114
  22   2.0000      -5.709469      -155.3626
  23   2.0000      -5.706157      -155.2724
  24   2.0000      -5.698321      -155.0592
  25   2.0000      -5.650837      -153.7671
  26   2.0000      -5.642569      -153.5421
  27   2.0000      -5.641730      -153.5193
  28   2.0000      -4.639100      -126.2363
  29   2.0000      -4.639004      -126.2337
  30   2.0000      -4.637493      -126.1926
  31   2.0000      -1.031049       -28.0563
  32   2.0000      -1.017758       -27.6946
  33   2.0000      -0.975271       -26.5385
  34   2.0000      -0.934909       -25.4402
  35   2.0000      -0.929180       -25.2843
  36   2.0000      -0.923323       -25.1249
  37   2.0000      -0.771072       -20.9819
  38   2.0000      -0.716222       -19.4894
  39   2.0000      -0.711677       -19.3657
  40   2.0000      -0.690975       -18.8024
  41   2.0000      -0.658166       -17.9096
  42   2.0000      -0.626714       -17.0538
  43   2.0000      -0.622337       -16.9346
  44   2.0000      -0.613988       -16.7075
  45   2.0000      -0.600749       -16.3472
  46   2.0000      -0.570297       -15.5186
  47   2.0000      -0.512386       -13.9427
  48   2.0000      -0.507107       -13.7991
  49   2.0000      -0.500895       -13.6300
  50   2.0000      -0.483157       -13.1474
  51   2.0000      -0.471326       -12.8254
  52   2.0000      -0.462458       -12.5841
  53   2.0000      -0.449954       -12.2439
  54   2.0000      -0.445241       -12.1156
  55   2.0000      -0.431486       -11.7413
  56   2.0000      -0.420918       -11.4538
  57   2.0000      -0.418937       -11.3998
  58   2.0000      -0.417699       -11.3662
  59   2.0000      -0.409746       -11.1498
  60   2.0000      -0.402562       -10.9543
  61   2.0000      -0.396888       -10.7999
  62   2.0000      -0.389899       -10.6097
  63   2.0000      -0.385295       -10.4844
  64   2.0000      -0.380885       -10.3644
  65   2.0000      -0.369877       -10.0649
  66   2.0000      -0.366092        -9.9619
  67   2.0000      -0.355391        -9.6707
  68   2.0000      -0.350502        -9.5376
  69   2.0000      -0.346054        -9.4166
  70   2.0000      -0.343980        -9.3602
  71   2.0000      -0.335032        -9.1167
  72   2.0000      -0.328901        -8.9498
  73   2.0000      -0.310660        -8.4535
  74   2.0000      -0.303022        -8.2456
  75   2.0000      -0.301940        -8.2162
  76   2.0000      -0.294844        -8.0231
  77   2.0000      -0.284298        -7.7361
  78   2.0000      -0.276496        -7.5238
  79   2.0000      -0.266715        -7.2577
  80   2.0000      -0.261434        -7.1140
  81   2.0000      -0.252011        -6.8576
  82   2.0000      -0.239048        -6.5048
  83   2.0000      -0.229136        -6.2351
  84   2.0000      -0.219270        -5.9666
  85   2.0000      -0.197360        -5.3704
  86   2.0000      -0.192427        -5.2362
  87   0.0000      -0.045588        -1.2405
  88   0.0000      -0.041720        -1.1353
  89   0.0000      -0.024786        -0.6745
  90   0.0000       0.010911         0.2969
  91   0.0000       0.030123         0.8197

MULLIKEN ATOMIC CHARGES
-----------------------
   0 C :   -0.304872
   1 C :   -0.011742
   2 O :   -0.234977
   3 C :    0.114263
   4 O :   -0.198421
   5 C :   -0.049199
   6 C :   -0.301554
   7 H :    0.159420
   8 C :    0.203267
   9 O :   -0.197427
  10 O :   -0.218944
  11 C :   -0.005340
  12 C :   -0.322433
  13 S :   -0.090972
  14 P :    0.624652
  15 S :   -0.356987
  16 O :   -0.369613
  17 C :   -0.100036
  18 O :   -0.364225
  19 C :   -0.088948
  20 H :    0.115804
  21 H :    0.114988
  22 H :    0.127490
  23 H :    0.107332
  24 H :    0.106932
  25 H :    0.110373
  26 H :    0.128062
  27 H :    0.106562
  28 H :    0.115961
  29 H :    0.125536
  30 H :    0.137795
  31 H :    0.114154
  32 H :    0.110553
  33 H :    0.112341
  34 H :    0.123536
  35 H :    0.117957
  36 H :    0.115193
  37 H :    0.123517
Sum of atomic charges:   -0.0000000

LOEWDIN ATOMIC CHARGES
----------------------
   0 C :   -0.355792
   1 C :   -0.108989
   2 O :   -0.056884
   3 C :    0.025940
   4 O :   -0.163127
   5 C :   -0.238964
   6 C :   -0.266704
   7 H :    0.144985
   8 C :    0.018072
   9 O :   -0.161716
  10 O :   -0.026641
  11 C :   -0.103327
  12 C :   -0.360644
  13 S :    0.100327
  14 P :    0.586390
  15 S :   -0.342378
  16 O :   -0.254413
  17 C :   -0.220133
  18 O :   -0.234930
  19 C :   -0.207379
  20 H :    0.125728
  21 H :    0.131775
  22 H :    0.130902
  23 H :    0.120088
  24 H :    0.118875
  25 H :    0.140250
  26 H :    0.145819
  27 H :    0.120179
  28 H :    0.123867
  29 H :    0.129750
  30 H :    0.133324
  31 H :    0.131157
  32 H :    0.104516
  33 H :    0.108170
  34 H :    0.121534
  35 H :    0.117001
  36 H :    0.108101
  37 H :    0.115270

  Mayer bond orders larger than 0.100000
B(  0-C ,  1-C ) :   1.1746 B(  0-C , 20-H ) :   0.9485 B(  0-C , 21-H ) :   0.9441
B(  0-C , 22-H ) :   0.9458 B(  1-C ,  2-O ) :   0.9137 B(  1-C , 23-H ) :   0.9364
B(  1-C , 24-H ) :   0.9141 B(  2-O ,  3-C ) :   1.2093 B(  3-C ,  4-O ) :   2.0363
B(  3-C ,  5-C ) :   1.0251 B(  5-C ,  6-C ) :   1.0505 B(  5-C , 25-H ) :   0.8987
B(  5-C , 26-H ) :   0.8881 B(  6-C ,  7-H ) :   0.8603 B(  6-C ,  8-C ) :   0.8885
B(  6-C , 13-S ) :   1.0259 B(  8-C ,  9-O ) :   1.9642 B(  8-C , 10-O ) :   1.2652
B( 10-O , 11-C ) :   0.8938 B( 11-C , 12-C ) :   1.1727 B( 11-C , 27-H ) :   0.9367
B( 11-C , 28-H ) :   0.9168 B( 12-C , 29-H ) :   0.9445 B( 12-C , 30-H ) :   0.9383
B( 12-C , 31-H ) :   0.9424 B( 13-S , 14-P ) :   0.9394 B( 13-S , 15-S ) :   0.1152
B( 14-P , 15-S ) :   1.5690 B( 14-P , 16-O ) :   1.0976 B( 14-P , 18-O ) :   1.1459
B( 16-O , 17-C ) :   0.9415 B( 17-C , 32-H ) :   0.9433 B( 17-C , 33-H ) :   0.9351
B( 17-C , 34-H ) :   0.9593 B( 18-O , 19-C ) :   0.9243 B( 19-C , 35-H ) :   0.9542
B( 19-C , 36-H ) :   0.9348 B( 19-C , 37-H ) :   0.9518

Dispersion correction           -0.051971101
FINAL SINGLE POINT ENERGY     -1979.016040739571

DIPOLE MOMENT
-------------

Method             : SCF
Type of density    : Electron Density
Multiplicity       :   1
Irrep              :   0
Energy             : -1979.1476334232820591 Eh
Relativity type    :
Basis              : AO
                                X                 Y                 Z
Electronic contribution:    -19.465691905      -1.174866937      -0.532511330
Nuclear contribution   :     20.574207835       1.207977174       0.164410173
                        -----------------------------------------
Total Dipole Moment    :      1.108515930       0.033110237      -0.368101158
                        -----------------------------------------
Magnitude (a.u.)       :      1.168504308
Magnitude (Debye)      :      2.970101912

Rotational constants in cm-1:             0.016295             0.006055             0.005247
Rotational constants in MHz :           488.524729           181.535426           157.311841

                             ****ORCA TERMINATED NORMALLY****
TOTAL RUN TIME: 0 days 0 hours 0 minutes 39 seconds 16 msec
