                         Program Version 6.0.0  -   RELEASE  -
|  1> ! pbe def2-sv(p) def2/J RI DEFGRID1 loosescf d4 GCP(DFT/SV(P)) printgap
|  2> %output
|  3>     printlevel normal
|  4> end
|  5> * xyz 0 1
|  6> C 2.2889534546 -1.8068408579 -2.5587164525
|  7> C 1.6887211276 -0.4179280917 -2.545308648
|  8> O 2.154515171 0.404194342 -1.4510179169
|  9> P 2.2050893497 0.0293212447 0.0737913947
| 10> S 2.2952046577 1.6490566188 1.1704888589
| 11> O 3.5002579157 -0.8979000351 0.1065227535
| 12> C 3.8752600295 -1.7834192373 1.1746315322
| 13> C 4.141834921 -1.0585152919 2.478251948
| 14> S 0.6203790687 -1.341206461 0.5215028765
| 15> C -0.1501933822 -0.4685582386 1.9126618211
| 16> S -1.9593792045 -0.3762325672 1.7964062307
| 17> P -2.1604629609 0.4084251157 -0.1392167877
| 18> S -0.8101378016 1.6614235895 -0.846096917
| 19> O -3.6433333938 0.9847013983 -0.1913822605
| 20> C -3.9588059619 2.3477646596 0.1370676435
| 21> C -3.7179001048 2.6498306683 1.6019959781
| 22> O -2.3258515973 -0.9486719365 -0.9323703451
| 23> C -2.4083820882 -1.0090098144 -2.3748636466
| 24> C -1.9070468045 -2.3705103175 -2.8119164908
| 25> H 3.3739418216 -1.745567404 -2.5495088131
| 26> H 1.9585884645 -2.372642981 -1.6883509565
| 27> H 1.9651473344 -2.3205748612 -3.4590072389
| 28> H 0.5976770217 -0.4576939362 -2.4818828418
| 29> H 1.9774348759 0.157021593 -3.4267488426
| 30> H 3.0825994699 -2.5271719434 1.2992455877
| 31> H 4.7792299365 -2.2667918924 0.7997683894
| 32> H 3.2309975683 -0.5894175712 2.8462667951
| 33> H 4.5014257012 -1.7678462851 3.2167029422
| 34> H 4.8871825591 -0.2805223141 2.3322977821
| 35> H 0.2785188694 0.5383074422 1.9593154055
| 36> H 0.0473232843 -1.0200465673 2.8290032249
| 37> H -3.3529677542 3.0043168709 -0.4959887413
| 38> H -5.0124852124 2.4441376613 -0.1279792798
| 39> H -4.2337497707 1.9254491915 2.2273905019
| 40> H -2.6508685582 2.6055647362 1.8198641199
| 41> H -4.0794514629 3.6476679168 1.828951689
| 42> H -3.4529972819 -0.8552162859 -2.6545819062
| 43> H -1.8052123318 -0.1958495126 -2.7952868285
| 44> H -2.5281337808 -3.1473771742 -2.3764572148
| 45> H -1.9493607697 -2.4365755464 -3.8941408819
| 46> H -0.8830366606 -2.5184335032 -2.479449264
| 47> *
| 48>
| 49>                          ****END OF INPUT****

CARTESIAN COORDINATES (ANGSTROEM)
---------------------------------
  C      2.288953   -1.806841   -2.558716
  C      1.688721   -0.417928   -2.545309
  O      2.154515    0.404194   -1.451018
  P      2.205089    0.029321    0.073791
  S      2.295205    1.649057    1.170489
  O      3.500258   -0.897900    0.106523
  C      3.875260   -1.783419    1.174632
  C      4.141835   -1.058515    2.478252
  S      0.620379   -1.341206    0.521503
  C     -0.150193   -0.468558    1.912662
  S     -1.959379   -0.376233    1.796406
  P     -2.160463    0.408425   -0.139217
  S     -0.810138    1.661424   -0.846097
  O     -3.643333    0.984701   -0.191382
  C     -3.958806    2.347765    0.137068
  C     -3.717900    2.649831    1.601996
  O     -2.325852   -0.948672   -0.932370
  C     -2.408382   -1.009010   -2.374864
  C     -1.907047   -2.370510   -2.811916
  H      3.373942   -1.745567   -2.549509
  H      1.958588   -2.372643   -1.688351
  H      1.965147   -2.320575   -3.459007
  H      0.597677   -0.457694   -2.481883
  H      1.977435    0.157022   -3.426749
  H      3.082599   -2.527172    1.299246
  H      4.779230   -2.266792    0.799768
  H      3.230998   -0.589418    2.846267
  H      4.501426   -1.767846    3.216703
  H      4.887183   -0.280522    2.332298
  H      0.278519    0.538307    1.959315
  H      0.047323   -1.020047    2.829003
  H     -3.352968    3.004317   -0.495989
  H     -5.012485    2.444138   -0.127979
  H     -4.233750    1.925449    2.227391
  H     -2.650869    2.605565    1.819864
  H     -4.079451    3.647668    1.828952
  H     -3.452997   -0.855216   -2.654582
  H     -1.805212   -0.195850   -2.795287
  H     -2.528134   -3.147377   -2.376457
  H     -1.949361   -2.436576   -3.894141
  H     -0.883037   -2.518434   -2.479449

 Total Charge           Charge          ....    0
 Multiplicity           Mult            ....    1
 Number of Electrons    NEL             ....  202
 Basis Dimension        Dim             ....  334

ORBITAL ENERGIES
----------------

  NO   OCC          E(Eh)            E(eV)
   0   2.0000     -88.045673     -2395.8446
   1   2.0000     -88.044707     -2395.8183
   2   2.0000     -87.983357     -2394.1489
   3   2.0000     -87.976875     -2393.9725
   4   2.0000     -76.424380     -2079.6131
   5   2.0000     -76.423182     -2079.5805
   6   2.0000     -18.789718      -511.2942
   7   2.0000     -18.787378      -511.2305
   8   2.0000     -18.786776      -511.2142
   9   2.0000     -18.785955      -511.1918
  10   2.0000      -9.954647      -270.8797
  11   2.0000      -9.954260      -270.8692
  12   2.0000      -9.953964      -270.8611
  13   2.0000      -9.952328      -270.8166
  14   2.0000      -9.949984      -270.7528
  15   2.0000      -9.890799      -269.1423
  16   2.0000      -9.890756      -269.1411
  17   2.0000      -9.881989      -268.9026
  18   2.0000      -9.880044      -268.8497
  19   2.0000      -7.690336      -209.2647
  20   2.0000      -7.689518      -209.2424
  21   2.0000      -7.627799      -207.5630
  22   2.0000      -7.622191      -207.4104
  23   2.0000      -6.421839      -174.7471
  24   2.0000      -6.419906      -174.6945
  25   2.0000      -5.718381      -155.6050
  26   2.0000      -5.717317      -155.5761
  27   2.0000      -5.714755      -155.5064
  28   2.0000      -5.714039      -155.4869
  29   2.0000      -5.707117      -155.2985
  30   2.0000      -5.706744      -155.2884
  31   2.0000      -5.656681      -153.9261
  32   2.0000      -5.651295      -153.7795
  33   2.0000      -5.648508      -153.7037
  34   2.0000      -5.648016      -153.6903
  35   2.0000      -5.643037      -153.5548
  36   2.0000      -5.641854      -153.5226
  37   2.0000      -4.644380      -126.3800
  38   2.0000      -4.643595      -126.3586
  39   2.0000      -4.642537      -126.3299
  40   2.0000      -4.642321      -126.3240
  41   2.0000      -4.642032      -126.3161
  42   2.0000      -4.640084      -126.2631
  43   2.0000      -0.984783       -26.7973
  44   2.0000      -0.982217       -26.7275
  45   2.0000      -0.942929       -25.6584
  46   2.0000      -0.939409       -25.5626
  47   2.0000      -0.763575       -20.7779
  48   2.0000      -0.720691       -19.6110
  49   2.0000      -0.711774       -19.3684
  50   2.0000      -0.688778       -18.7426
  51   2.0000      -0.686616       -18.6838
  52   2.0000      -0.677374       -18.4323
  53   2.0000      -0.649001       -17.6602
  54   2.0000      -0.634583       -17.2679
  55   2.0000      -0.597867       -16.2688
  56   2.0000      -0.589076       -16.0296
  57   2.0000      -0.574794       -15.6409
  58   2.0000      -0.573945       -15.6178
  59   2.0000      -0.560665       -15.2565
  60   2.0000      -0.504070       -13.7164
  61   2.0000      -0.492815       -13.4102
  62   2.0000      -0.472971       -12.8702
  63   2.0000      -0.468299       -12.7431
  64   2.0000      -0.452465       -12.3122
  65   2.0000      -0.443358       -12.0644
  66   2.0000      -0.442058       -12.0290
  67   2.0000      -0.436377       -11.8744
  68   2.0000      -0.428132       -11.6501
  69   2.0000      -0.420594       -11.4449
  70   2.0000      -0.408158       -11.1066
  71   2.0000      -0.404861       -11.0168
  72   2.0000      -0.398077       -10.8322
  73   2.0000      -0.391136       -10.6434
  74   2.0000      -0.381192       -10.3728
  75   2.0000      -0.371921       -10.1205
  76   2.0000      -0.359489        -9.7822
  77   2.0000      -0.358094        -9.7442
  78   2.0000      -0.354206        -9.6384
  79   2.0000      -0.350077        -9.5261
  80   2.0000      -0.347060        -9.4440
  81   2.0000      -0.345746        -9.4082
  82   2.0000      -0.340710        -9.2712
  83   2.0000      -0.339179        -9.2295
  84   2.0000      -0.335440        -9.1278
  85   2.0000      -0.315017        -8.5720
  86   2.0000      -0.313151        -8.5213
  87   2.0000      -0.295288        -8.0352
  88   2.0000      -0.291378        -7.9288
  89   2.0000      -0.288056        -7.8384
  90   2.0000      -0.282160        -7.6780
  91   2.0000      -0.276124        -7.5137
  92   2.0000      -0.270590        -7.3631
  93   2.0000      -0.261537        -7.1168
  94   2.0000      -0.257111        -6.9964
  95   2.0000      -0.237158        -6.4534
  96   2.0000      -0.223283        -6.0758
  97   2.0000      -0.209047        -5.6885
  98   2.0000      -0.197340        -5.3699
  99   2.0000      -0.193777        -5.2729
 100   2.0000      -0.181777        -4.9464
 101   0.0000      -0.047041        -1.2801
 102   0.0000      -0.034049        -0.9265
 103   0.0000      -0.009325        -0.2537
 104   0.0000       0.005604         0.1525
 105   0.0000       0.017894         0.4869

MULLIKEN ATOMIC CHARGES
-----------------------
   0 C :   -0.322693
   1 C :   -0.020562
   2 O :   -0.351685
   3 P :    0.609613
   4 S :   -0.290159
   5 O :   -0.371414
   6 C :   -0.007091
   7 C :   -0.302810
   8 S :   -0.137931
   9 C :   -0.333374
  10 S :   -0.087072
  11 P :    0.601668
  12 S :   -0.311615
  13 O :   -0.376558
  14 C :   -0.001390
  15 C :   -0.321000
  16 O :   -0.367996
  17 C :   -0.010574
  18 C :   -0.294335
  19 H :    0.127768
  20 H :    0.127631
  21 H :    0.114911
  22 H :    0.130977
  23 H :    0.110176
  24 H :    0.102080
  25 H :    0.104417
  26 H :    0.118600
  27 H :    0.106540
  28 H :    0.124605
  29 H :    0.203488
  30 H :    0.178419
  31 H :    0.111751
  32 H :    0.103210
  33 H :    0.117206
  34 H :    0.132470
  35 H :    0.113864
  36 H :    0.105897
  37 H :    0.109082
  38 H :    0.118648
  39 H :    0.109214
  40 H :    0.126028
Sum of atomic charges:   -0.0000000

LOEWDIN ATOMIC CHARGES
----------------------
   0 C :   -0.369282
   1 C :   -0.113116
   2 O :   -0.223893
   3 P :    0.573482
   4 S :   -0.287378
   5 O :   -0.245818
   6 C :   -0.119918
   7 C :   -0.367721
   8 S :    0.065037
   9 C :   -0.480771
  10 S :    0.094368
  11 P :    0.559914
  12 S :   -0.304293
  13 O :   -0.248979
  14 C :   -0.120022
  15 C :   -0.369809
  16 O :   -0.244691
  17 C :   -0.116119
  18 C :   -0.353101
  19 H :    0.130770
  20 H :    0.115050
  21 H :    0.131055
  22 H :    0.108238
  23 H :    0.124327
  24 H :    0.101341
  25 H :    0.118671
  26 H :    0.117965
  27 H :    0.127410
  28 H :    0.130486
  29 H :    0.123103
  30 H :    0.134232
  31 H :    0.110819
  32 H :    0.117762
  33 H :    0.123585
  34 H :    0.123353
  35 H :    0.131438
  36 H :    0.114988
  37 H :    0.104043
  38 H :    0.129411
  39 H :    0.129249
  40 H :    0.124810

  Mayer bond orders larger than 0.100000
B(  0-C ,  1-C ) :   1.1675 B(  0-C , 19-H ) :   0.9393 B(  0-C , 20-H ) :   0.9340
B(  0-C , 21-H ) :   0.9334 B(  1-C ,  2-O ) :   0.9035 B(  1-C , 22-H ) :   0.9092
B(  1-C , 23-H ) :   0.9332 B(  2-O ,  3-P ) :   1.1465 B(  3-P ,  4-S ) :   1.6339
B(  3-P ,  5-O ) :   1.0821 B(  3-P ,  8-S ) :   0.9176 B(  4-S ,  8-S ) :   0.1188
B(  4-S , 29-H ) :   0.1258 B(  5-O ,  6-C ) :   0.9225 B(  6-C ,  7-C ) :   1.1652
B(  6-C , 24-H ) :   0.9175 B(  6-C , 25-H ) :   0.9339 B(  7-C , 26-H ) :   0.9340
B(  7-C , 27-H ) :   0.9361 B(  7-C , 28-H ) :   0.9448 B(  8-S ,  9-C ) :   1.0035
B(  9-C , 10-S ) :   0.9929 B(  9-C , 29-H ) :   0.8422 B(  9-C , 30-H ) :   0.9097
B( 10-S , 11-P ) :   0.9659 B( 10-S , 12-S ) :   0.1160 B( 11-P , 12-S ) :   1.6139
B( 11-P , 13-O ) :   1.1030 B( 11-P , 16-O ) :   1.1199 B( 13-O , 14-C ) :   0.9097
B( 14-C , 15-C ) :   1.1648 B( 14-C , 31-H ) :   0.9147 B( 14-C , 32-H ) :   0.9337
B( 15-C , 33-H ) :   0.9446 B( 15-C , 34-H ) :   0.9351 B( 15-C , 35-H ) :   0.9379
B( 16-O , 17-C ) :   0.9021 B( 17-C , 18-C ) :   1.1627 B( 17-C , 36-H ) :   0.9315
B( 17-C , 37-H ) :   0.8982 B( 18-C , 38-H ) :   0.9469 B( 18-C , 39-H ) :   0.9417
B( 18-C , 40-H ) :   0.9437

Dispersion correction           -0.067607909
FINAL SINGLE POINT ENERGY     -2929.513403842464

DIPOLE MOMENT
-------------

Method             : SCF
Type of density    : Electron Density
Multiplicity       :   1
Irrep              :   0
Energy             : -2929.6305367545164700 Eh
Relativity type    :
Basis              : AO
                                X                 Y                 Z
Electronic contribution:     -1.195994250       8.613568236       6.357688775
Nuclear contribution   :      0.637798510      -9.993917971      -6.875634375
                        -----------------------------------------
Total Dipole Moment    :     -0.558195740      -1.380349735      -0.517945600
                        -----------------------------------------
Magnitude (a.u.)       :      1.576456634
Magnitude (Debye)      :      4.007034320

Rotational constants in cm-1:             0.011703             0.005716             0.004915
Rotational constants in MHz :           350.840401           171.359168           147.355623

                             ****ORCA TERMINATED NORMALLY****
TOTAL RUN TIME: 0 days 0 hours 0 minutes 21 seconds 222 msec
