                         Program Version 6.0.0  -   RELEASE  -
|  1> ! pbe def2-sv(p) def2/J RI DEFGRID1 loosescf d4 GCP(DFT/SV(P)) printgap
|  2> %output
|  3>     printlevel normal
|  4> end
|  5> * xyz 0 1
|  6> C 4.5577420472 -2.2501188985 0.316084288
|  7> C 4.1070863434 -2.0561573368 -1.1172597509
|  8> O 2.710969499 -1.7050879617 -1.2047181699
|  9> P 2.1412985075 -0.3500823619 -0.6111168134
| 10> S 3.3011652165 1.2298975067 -0.6973399546
| 11> O 1.671921929 -0.7553808675 0.8546774346
| 12> C 1.8614573884 0.0473166633 2.0382971409
| 13> C 0.7433954837 -0.2516351918 3.0152013841
| 14> S 0.4131055358 -0.3279591397 -1.8297308154
| 15> C -0.0038328643 1.4149020166 -1.5611970425
| 16> S -0.4853649516 1.7440178266 0.1532327798
| 17> P -2.1662580828 0.4506137235 0.1697586644
| 18> S -3.2386181555 0.4348685192 -1.4753277651
| 19> O -2.9347682119 0.9073443792 1.4791344097
| 20> C -3.6884582047 2.1374547613 1.5205807231
| 21> C -4.5967758099 2.0826732904 2.7320285729
| 22> O -1.6020194678 -0.9365657246 0.6687622006
| 23> C -1.9607163268 -2.2135403017 0.094914338
| 24> C -0.7891352742 -3.1593016658 0.2585804629
| 25> H 4.5262456409 -1.2972158747 0.8442392691
| 26> H 3.9085605752 -2.9599677641 0.8222502936
| 27> H 5.577595313 -2.6221003366 0.3255085876
| 28> H 4.1789282634 -2.9792870789 -1.6938779757
| 29> H 4.6915281966 -1.2679981672 -1.6019739682
| 30> H 2.8319881506 -0.2222340978 2.4631186066
| 31> H 1.879076943 1.1050381452 1.7592863557
| 32> H 0.7355118167 -1.3098991886 3.2587094791
| 33> H 0.9034374077 0.3260758702 3.9196521644
| 34> H -0.2201118933 0.015348352 2.5877106399
| 35> H -0.8366667301 1.6446093572 -2.225259678
| 36> H 0.8619394704 2.0419820359 -1.773516475
| 37> H -2.982149356 2.9695450696 1.5865084542
| 38> H -4.2611801684 2.2258375207 0.5913573364
| 39> H -5.2841712728 1.2460770461 2.6454287154
| 40> H -4.0040135202 1.9597127101 3.6335511211
| 41> H -5.1621300402 3.0065817062 2.7949455035
| 42> H -2.8401922876 -2.5765024571 0.6317493219
| 43> H -2.21784104 -2.0694610392 -0.9598212498
| 44> H 0.0785411026 -2.7889253798 -0.2830163872
| 45> H -0.5319173958 -3.2522014414 1.3094927347
| 46> H -1.0640279941 -4.1325218366 -0.1348728181
| 47> *
| 48>
| 49>                          ****END OF INPUT****

CARTESIAN COORDINATES (ANGSTROEM)
---------------------------------
  C      4.557742   -2.250119    0.316084
  C      4.107086   -2.056157   -1.117260
  O      2.710969   -1.705088   -1.204718
  P      2.141299   -0.350082   -0.611117
  S      3.301165    1.229898   -0.697340
  O      1.671922   -0.755381    0.854677
  C      1.861457    0.047317    2.038297
  C      0.743395   -0.251635    3.015201
  S      0.413106   -0.327959   -1.829731
  C     -0.003833    1.414902   -1.561197
  S     -0.485365    1.744018    0.153233
  P     -2.166258    0.450614    0.169759
  S     -3.238618    0.434869   -1.475328
  O     -2.934768    0.907344    1.479134
  C     -3.688458    2.137455    1.520581
  C     -4.596776    2.082673    2.732029
  O     -1.602019   -0.936566    0.668762
  C     -1.960716   -2.213540    0.094914
  C     -0.789135   -3.159302    0.258580
  H      4.526246   -1.297216    0.844239
  H      3.908561   -2.959968    0.822250
  H      5.577595   -2.622100    0.325509
  H      4.178928   -2.979287   -1.693878
  H      4.691528   -1.267998   -1.601974
  H      2.831988   -0.222234    2.463119
  H      1.879077    1.105038    1.759286
  H      0.735512   -1.309899    3.258709
  H      0.903437    0.326076    3.919652
  H     -0.220112    0.015348    2.587711
  H     -0.836667    1.644609   -2.225260
  H      0.861939    2.041982   -1.773516
  H     -2.982149    2.969545    1.586508
  H     -4.261180    2.225838    0.591357
  H     -5.284171    1.246077    2.645429
  H     -4.004014    1.959713    3.633551
  H     -5.162130    3.006582    2.794946
  H     -2.840192   -2.576502    0.631749
  H     -2.217841   -2.069461   -0.959821
  H      0.078541   -2.788925   -0.283016
  H     -0.531917   -3.252201    1.309493
  H     -1.064028   -4.132522   -0.134873

 Total Charge           Charge          ....    0
 Multiplicity           Mult            ....    1
 Number of Electrons    NEL             ....  202
 Basis Dimension        Dim             ....  334

ORBITAL ENERGIES
----------------

  NO   OCC          E(Eh)            E(eV)
   0   2.0000     -88.044668     -2395.8172
   1   2.0000     -88.041506     -2395.7312
   2   2.0000     -87.990587     -2394.3456
   3   2.0000     -87.989131     -2394.3060
   4   2.0000     -76.428710     -2079.7309
   5   2.0000     -76.427844     -2079.7074
   6   2.0000     -18.796246      -511.4719
   7   2.0000     -18.795442      -511.4500
   8   2.0000     -18.790762      -511.3226
   9   2.0000     -18.790234      -511.3082
  10   2.0000      -9.957317      -270.9524
  11   2.0000      -9.955056      -270.8909
  12   2.0000      -9.953788      -270.8563
  13   2.0000      -9.949262      -270.7332
  14   2.0000      -9.948530      -270.7133
  15   2.0000      -9.890068      -269.1224
  16   2.0000      -9.889703      -269.1125
  17   2.0000      -9.879949      -268.8471
  18   2.0000      -9.879775      -268.8424
  19   2.0000      -7.689499      -209.2419
  20   2.0000      -7.686451      -209.1590
  21   2.0000      -7.635519      -207.7730
  22   2.0000      -7.634117      -207.7349
  23   2.0000      -6.425942      -174.8588
  24   2.0000      -6.425253      -174.8400
  25   2.0000      -5.717253      -155.5744
  26   2.0000      -5.714341      -155.4951
  27   2.0000      -5.714046      -155.4871
  28   2.0000      -5.711177      -155.4090
  29   2.0000      -5.706591      -155.2842
  30   2.0000      -5.703194      -155.1918
  31   2.0000      -5.664349      -154.1348
  32   2.0000      -5.662911      -154.0956
  33   2.0000      -5.656505      -153.9213
  34   2.0000      -5.655416      -153.8917
  35   2.0000      -5.654712      -153.8725
  36   2.0000      -5.654438      -153.8651
  37   2.0000      -4.648274      -126.4860
  38   2.0000      -4.647838      -126.4741
  39   2.0000      -4.647649      -126.4689
  40   2.0000      -4.646875      -126.4479
  41   2.0000      -4.646490      -126.4374
  42   2.0000      -4.646036      -126.4251
  43   2.0000      -0.988965       -26.9111
  44   2.0000      -0.986005       -26.8305
  45   2.0000      -0.946583       -25.7578
  46   2.0000      -0.944932       -25.7129
  47   2.0000      -0.767027       -20.8719
  48   2.0000      -0.725741       -19.7484
  49   2.0000      -0.711751       -19.3677
  50   2.0000      -0.689007       -18.7488
  51   2.0000      -0.687480       -18.7073
  52   2.0000      -0.671940       -18.2844
  53   2.0000      -0.649478       -17.6732
  54   2.0000      -0.639577       -17.4038
  55   2.0000      -0.604377       -16.4459
  56   2.0000      -0.592393       -16.1198
  57   2.0000      -0.569342       -15.4926
  58   2.0000      -0.565720       -15.3940
  59   2.0000      -0.557318       -15.1654
  60   2.0000      -0.509363       -13.8605
  61   2.0000      -0.499360       -13.5883
  62   2.0000      -0.482042       -13.1170
  63   2.0000      -0.478676       -13.0254
  64   2.0000      -0.460870       -12.5409
  65   2.0000      -0.444249       -12.0886
  66   2.0000      -0.441450       -12.0125
  67   2.0000      -0.432682       -11.7739
  68   2.0000      -0.430272       -11.7083
  69   2.0000      -0.410495       -11.1701
  70   2.0000      -0.402922       -10.9641
  71   2.0000      -0.397510       -10.8168
  72   2.0000      -0.395854       -10.7717
  73   2.0000      -0.386348       -10.5131
  74   2.0000      -0.380765       -10.3612
  75   2.0000      -0.377232       -10.2650
  76   2.0000      -0.366647        -9.9770
  77   2.0000      -0.359551        -9.7839
  78   2.0000      -0.357613        -9.7311
  79   2.0000      -0.350819        -9.5463
  80   2.0000      -0.348759        -9.4902
  81   2.0000      -0.347935        -9.4678
  82   2.0000      -0.337645        -9.1878
  83   2.0000      -0.334739        -9.1087
  84   2.0000      -0.333076        -9.0635
  85   2.0000      -0.325046        -8.8450
  86   2.0000      -0.311174        -8.4675
  87   2.0000      -0.303510        -8.2589
  88   2.0000      -0.297155        -8.0860
  89   2.0000      -0.289200        -7.8695
  90   2.0000      -0.284287        -7.7358
  91   2.0000      -0.278742        -7.5850
  92   2.0000      -0.276127        -7.5138
  93   2.0000      -0.266258        -7.2452
  94   2.0000      -0.256853        -6.9893
  95   2.0000      -0.234040        -6.3686
  96   2.0000      -0.218292        -5.9400
  97   2.0000      -0.216532        -5.8921
  98   2.0000      -0.209371        -5.6973
  99   2.0000      -0.202638        -5.5141
 100   2.0000      -0.199992        -5.4421
 101   0.0000      -0.050041        -1.3617
 102   0.0000      -0.026824        -0.7299
 103   0.0000       0.001078         0.0293
 104   0.0000       0.002168         0.0590
 105   0.0000       0.008981         0.2444

MULLIKEN ATOMIC CHARGES
-----------------------
   0 C :   -0.322095
   1 C :    0.001305
   2 O :   -0.384867
   3 P :    0.635459
   4 S :   -0.330349
   5 O :   -0.377237
   6 C :   -0.008351
   7 C :   -0.294807
   8 S :   -0.074861
   9 C :   -0.361308
  10 S :   -0.100380
  11 P :    0.614150
  12 S :   -0.326317
  13 O :   -0.374747
  14 C :   -0.014058
  15 C :   -0.278804
  16 O :   -0.364272
  17 C :   -0.004668
  18 C :   -0.292758
  19 H :    0.127788
  20 H :    0.120137
  21 H :    0.115518
  22 H :    0.108962
  23 H :    0.114884
  24 H :    0.102673
  25 H :    0.111808
  26 H :    0.111401
  27 H :    0.103602
  28 H :    0.130524
  29 H :    0.194009
  30 H :    0.191934
  31 H :    0.103940
  32 H :    0.107378
  33 H :    0.120134
  34 H :    0.116755
  35 H :    0.113199
  36 H :    0.102248
  37 H :    0.115016
  38 H :    0.128239
  39 H :    0.113452
  40 H :    0.105364
Sum of atomic charges:   -0.0000000

LOEWDIN ATOMIC CHARGES
----------------------
   0 C :   -0.366739
   1 C :   -0.112262
   2 O :   -0.248266
   3 P :    0.573488
   4 S :   -0.321835
   5 O :   -0.243581
   6 C :   -0.119319
   7 C :   -0.355795
   8 S :    0.103488
   9 C :   -0.482572
  10 S :    0.083419
  11 P :    0.568551
  12 S :   -0.318962
  13 O :   -0.246343
  14 C :   -0.120271
  15 C :   -0.349884
  16 O :   -0.232108
  17 C :   -0.114260
  18 C :   -0.354556
  19 H :    0.122254
  20 H :    0.127450
  21 H :    0.132325
  22 H :    0.121045
  23 H :    0.114162
  24 H :    0.108396
  25 H :    0.102562
  26 H :    0.123546
  27 H :    0.127571
  28 H :    0.118544
  29 H :    0.131378
  30 H :    0.130237
  31 H :    0.109377
  32 H :    0.109730
  33 H :    0.128985
  34 H :    0.127088
  35 H :    0.131443
  36 H :    0.112978
  37 H :    0.107890
  38 H :    0.118270
  39 H :    0.124303
  40 H :    0.128275

  Mayer bond orders larger than 0.100000
B(  0-C ,  1-C ) :   1.1612 B(  0-C , 19-H ) :   0.9296 B(  0-C , 20-H ) :   0.9460
B(  0-C , 21-H ) :   0.9368 B(  1-C ,  2-O ) :   0.9104 B(  1-C , 22-H ) :   0.9354
B(  1-C , 23-H ) :   0.9211 B(  2-O ,  3-P ) :   1.0996 B(  3-P ,  4-S ) :   1.5983
B(  3-P ,  5-O ) :   1.1039 B(  3-P ,  8-S ) :   0.9462 B(  4-S ,  8-S ) :   0.1013
B(  5-O ,  6-C ) :   0.8955 B(  6-C ,  7-C ) :   1.1639 B(  6-C , 24-H ) :   0.9283
B(  6-C , 25-H ) :   0.9053 B(  7-C , 26-H ) :   0.9462 B(  7-C , 27-H ) :   0.9390
B(  7-C , 28-H ) :   0.9353 B(  8-S ,  9-C ) :   1.0123 B(  9-C , 10-S ) :   0.9976
B(  9-C , 29-H ) :   0.8826 B(  9-C , 30-H ) :   0.8797 B( 10-S , 11-P ) :   0.9527
B( 10-S , 12-S ) :   0.1058 B( 11-P , 12-S ) :   1.6104 B( 11-P , 13-O ) :   1.1051
B( 11-P , 16-O ) :   1.1251 B( 13-O , 14-C ) :   0.9042 B( 14-C , 15-C ) :   1.1611
B( 14-C , 31-H ) :   0.9276 B( 14-C , 32-H ) :   0.9117 B( 15-C , 33-H ) :   0.9509
B( 15-C , 34-H ) :   0.9507 B( 15-C , 35-H ) :   0.9418 B( 16-O , 17-C ) :   0.8896
B( 17-C , 18-C ) :   1.1647 B( 17-C , 36-H ) :   0.9343 B( 17-C , 37-H ) :   0.9073
B( 18-C , 38-H ) :   0.9386 B( 18-C , 39-H ) :   0.9469 B( 18-C , 40-H ) :   0.9392

Dispersion correction           -0.067164410
FINAL SINGLE POINT ENERGY     -2929.527033410071

DIPOLE MOMENT
-------------

Method             : SCF
Type of density    : Electron Density
Multiplicity       :   1
Irrep              :   0
Energy             : -2929.6461427671260935 Eh
Relativity type    :
Basis              : AO
                                X                 Y                 Z
Electronic contribution:     -0.609264962       9.877199674     -18.600307140
Nuclear contribution   :      0.741711763     -10.477139905      19.766024674
                        -----------------------------------------
Total Dipole Moment    :      0.132446801      -0.599940231       1.165717534
                        -----------------------------------------
Magnitude (a.u.)       :      1.317713097
Magnitude (Debye)      :      3.349360514

Rotational constants in cm-1:             0.013375             0.005010             0.004953
Rotational constants in MHz :           400.958936           150.188084           148.492406

                             ****ORCA TERMINATED NORMALLY****
TOTAL RUN TIME: 0 days 0 hours 0 minutes 22 seconds 55 msec
