                         Program Version 6.0.0  -   RELEASE  -
|  1> ! pbe def2-sv(p) def2/J RI DEFGRID1 loosescf d4 GCP(DFT/SV(P)) printgap
|  2> %output
|  3>     printlevel normal
|  4> end
|  5> * xyz 0 1
|  6> C 5.0395083485 -0.4666810459 -2.6019369777
|  7> C 3.5676729367 -0.8203326597 -2.5094938216
|  8> O 3.1877014938 -0.8530933561 -1.123249888
|  9> P 1.8450467208 -0.2224066544 -0.5365843477
| 10> S 1.3274491757 1.3917499094 -1.5314884597
| 11> O 2.2036675568 -0.0799985115 0.99510035
| 12> C 2.9371378657 1.0647875702 1.4870153398
| 13> C 2.7413925015 1.1330461719 2.9862671055
| 14> S 0.6162128493 -1.9402728351 -0.4569084684
| 15> C -0.2651035364 -1.8349581118 1.140373114
| 16> S -2.0448592956 -1.5973312564 0.9579996208
| 17> P -1.9648918415 0.4685197248 0.4656041782
| 18> S -0.6462588008 1.5078329057 1.4673126185
| 19> O -3.484044751 0.9221320372 0.5466008957
| 20> C -4.3782740781 0.6574530204 1.6462254196
| 21> C -3.8354466077 1.1373609522 2.9754228413
| 22> O -1.6940719655 0.565693588 -1.0827116859
| 23> C -2.5544806635 -0.0459203579 -2.079935658
| 24> C -1.6854077558 -0.6345083588 -3.1719886049
| 25> H 5.3482683502 -0.501900975 -3.6414685792
| 26> H 5.2083272944 0.5343700808 -2.2133184603
| 27> H 5.6284716317 -1.1744321512 -2.0256813421
| 28> H 3.368745273 -1.812126545 -2.9217085513
| 29> H 2.9509367622 -0.0768106827 -3.0260781624
| 30> H 3.9873519571 0.9266819202 1.2196137953
| 31> H 2.5516229929 1.9629107017 0.992290661
| 32> H 3.0614072248 0.2023382556 3.4454635839
| 33> H 3.3288226031 1.9545763867 3.3824266006
| 34> H 1.6915321719 1.3040084363 3.2124195326
| 35> H 0.152429047 -1.0140268573 1.7235810686
| 36> H -0.1297559889 -2.7920089423 1.6364159775
| 37> H -5.2871387115 1.1936759823 1.3678811401
| 38> H -4.5725484756 -0.4181456871 1.6730236664
| 39> H -2.938731659 0.5788507898 3.239532391
| 40> H -3.5780692222 2.1926900037 2.9218878374
| 41> H -4.58584388 0.9883476489 3.7450063871
| 42> H -3.1671892783 -0.8137718993 -1.5984859921
| 43> H -3.1967785339 0.7487003018 -2.4630390057
| 44> H -2.3183741609 -0.9868728277 -3.9797094255
| 45> H -1.0061166129 0.1262544027 -3.5491997006
| 46> H -1.0976652974 -1.4649605156 -2.7868420878
| 47> *
| 48>
| 49>                          ****END OF INPUT****

CARTESIAN COORDINATES (ANGSTROEM)
---------------------------------
  C      5.039508   -0.466681   -2.601937
  C      3.567673   -0.820333   -2.509494
  O      3.187701   -0.853093   -1.123250
  P      1.845047   -0.222407   -0.536584
  S      1.327449    1.391750   -1.531488
  O      2.203668   -0.079999    0.995100
  C      2.937138    1.064788    1.487015
  C      2.741393    1.133046    2.986267
  S      0.616213   -1.940273   -0.456908
  C     -0.265104   -1.834958    1.140373
  S     -2.044859   -1.597331    0.958000
  P     -1.964892    0.468520    0.465604
  S     -0.646259    1.507833    1.467313
  O     -3.484045    0.922132    0.546601
  C     -4.378274    0.657453    1.646225
  C     -3.835447    1.137361    2.975423
  O     -1.694072    0.565694   -1.082712
  C     -2.554481   -0.045920   -2.079936
  C     -1.685408   -0.634508   -3.171989
  H      5.348268   -0.501901   -3.641469
  H      5.208327    0.534370   -2.213318
  H      5.628472   -1.174432   -2.025681
  H      3.368745   -1.812127   -2.921709
  H      2.950937   -0.076811   -3.026078
  H      3.987352    0.926682    1.219614
  H      2.551623    1.962911    0.992291
  H      3.061407    0.202338    3.445464
  H      3.328823    1.954576    3.382427
  H      1.691532    1.304008    3.212420
  H      0.152429   -1.014027    1.723581
  H     -0.129756   -2.792009    1.636416
  H     -5.287139    1.193676    1.367881
  H     -4.572548   -0.418146    1.673024
  H     -2.938732    0.578851    3.239532
  H     -3.578069    2.192690    2.921888
  H     -4.585844    0.988348    3.745006
  H     -3.167189   -0.813772   -1.598486
  H     -3.196779    0.748700   -2.463039
  H     -2.318374   -0.986873   -3.979709
  H     -1.006117    0.126254   -3.549200
  H     -1.097665   -1.464961   -2.786842

 Total Charge           Charge          ....    0
 Multiplicity           Mult            ....    1
 Number of Electrons    NEL             ....  202
 Basis Dimension        Dim             ....  334

ORBITAL ENERGIES
----------------

  NO   OCC          E(Eh)            E(eV)
   0   2.0000     -88.045138     -2395.8300
   1   2.0000     -88.036593     -2395.5975
   2   2.0000     -87.981178     -2394.0896
   3   2.0000     -87.973097     -2393.8697
   4   2.0000     -76.423987     -2079.6024
   5   2.0000     -76.417215     -2079.4181
   6   2.0000     -18.794064      -511.4125
   7   2.0000     -18.785807      -511.1878
   8   2.0000     -18.783080      -511.1136
   9   2.0000     -18.779373      -511.0127
  10   2.0000      -9.959789      -271.0196
  11   2.0000      -9.957764      -270.9645
  12   2.0000      -9.948153      -270.7030
  13   2.0000      -9.945110      -270.6202
  14   2.0000      -9.943007      -270.5630
  15   2.0000      -9.883812      -268.9522
  16   2.0000      -9.881391      -268.8863
  17   2.0000      -9.879155      -268.8255
  18   2.0000      -9.874331      -268.6942
  19   2.0000      -7.690340      -209.2648
  20   2.0000      -7.682102      -209.0406
  21   2.0000      -7.626237      -207.5205
  22   2.0000      -7.618032      -207.2972
  23   2.0000      -6.421274      -174.7318
  24   2.0000      -6.414885      -174.5579
  25   2.0000      -5.717954      -155.5934
  26   2.0000      -5.714717      -155.5054
  27   2.0000      -5.710375      -155.3872
  28   2.0000      -5.707701      -155.3144
  29   2.0000      -5.706382      -155.2785
  30   2.0000      -5.698772      -155.0715
  31   2.0000      -5.655181      -153.8853
  32   2.0000      -5.646979      -153.6621
  33   2.0000      -5.646768      -153.6564
  34   2.0000      -5.646370      -153.6455
  35   2.0000      -5.638869      -153.4414
  36   2.0000      -5.637939      -153.4161
  37   2.0000      -4.644085      -126.3720
  38   2.0000      -4.643341      -126.3517
  39   2.0000      -4.641276      -126.2955
  40   2.0000      -4.637485      -126.1924
  41   2.0000      -4.636726      -126.1717
  42   2.0000      -4.635203      -126.1303
  43   2.0000      -0.985805       -26.8251
  44   2.0000      -0.978304       -26.6210
  45   2.0000      -0.940321       -25.5874
  46   2.0000      -0.936303       -25.4781
  47   2.0000      -0.761464       -20.7205
  48   2.0000      -0.718811       -19.5598
  49   2.0000      -0.708292       -19.2736
  50   2.0000      -0.687339       -18.7034
  51   2.0000      -0.682130       -18.5617
  52   2.0000      -0.670016       -18.2321
  53   2.0000      -0.646687       -17.5972
  54   2.0000      -0.628980       -17.1154
  55   2.0000      -0.590571       -16.0703
  56   2.0000      -0.584050       -15.8928
  57   2.0000      -0.568009       -15.4563
  58   2.0000      -0.562500       -15.3064
  59   2.0000      -0.559989       -15.2381
  60   2.0000      -0.504041       -13.7156
  61   2.0000      -0.498747       -13.5716
  62   2.0000      -0.475210       -12.9311
  63   2.0000      -0.471296       -12.8246
  64   2.0000      -0.453427       -12.3384
  65   2.0000      -0.442101       -12.0302
  66   2.0000      -0.434132       -11.8133
  67   2.0000      -0.431396       -11.7389
  68   2.0000      -0.429657       -11.6916
  69   2.0000      -0.417716       -11.3666
  70   2.0000      -0.412076       -11.2132
  71   2.0000      -0.394461       -10.7338
  72   2.0000      -0.387945       -10.5565
  73   2.0000      -0.380959       -10.3664
  74   2.0000      -0.376688       -10.2502
  75   2.0000      -0.364325        -9.9138
  76   2.0000      -0.354355        -9.6425
  77   2.0000      -0.350988        -9.5509
  78   2.0000      -0.347825        -9.4648
  79   2.0000      -0.346489        -9.4284
  80   2.0000      -0.344131        -9.3643
  81   2.0000      -0.342849        -9.3294
  82   2.0000      -0.337208        -9.1759
  83   2.0000      -0.332811        -9.0562
  84   2.0000      -0.324148        -8.8205
  85   2.0000      -0.314721        -8.5640
  86   2.0000      -0.306017        -8.3272
  87   2.0000      -0.296862        -8.0780
  88   2.0000      -0.293253        -7.9798
  89   2.0000      -0.288348        -7.8464
  90   2.0000      -0.282233        -7.6799
  91   2.0000      -0.273480        -7.4418
  92   2.0000      -0.267838        -7.2882
  93   2.0000      -0.260355        -7.0846
  94   2.0000      -0.252452        -6.8696
  95   2.0000      -0.237101        -6.4518
  96   2.0000      -0.217778        -5.9260
  97   2.0000      -0.209005        -5.6873
  98   2.0000      -0.198757        -5.4084
  99   2.0000      -0.187462        -5.1011
 100   2.0000      -0.175083        -4.7642
 101   0.0000      -0.041735        -1.1357
 102   0.0000      -0.025963        -0.7065
 103   0.0000      -0.021447        -0.5836
 104   0.0000       0.002380         0.0648
 105   0.0000       0.018890         0.5140

MULLIKEN ATOMIC CHARGES
-----------------------
   0 C :   -0.285746
   1 C :   -0.005479
   2 O :   -0.384369
   3 P :    0.626427
   4 S :   -0.303049
   5 O :   -0.375221
   6 C :   -0.005063
   7 C :   -0.290479
   8 S :   -0.103764
   9 C :   -0.359122
  10 S :   -0.116207
  11 P :    0.595258
  12 S :   -0.302327
  13 O :   -0.378938
  14 C :   -0.011180
  15 C :   -0.307268
  16 O :   -0.334499
  17 C :   -0.002455
  18 C :   -0.289744
  19 H :    0.108394
  20 H :    0.114800
  21 H :    0.113981
  22 H :    0.095914
  23 H :    0.101149
  24 H :    0.100628
  25 H :    0.115408
  26 H :    0.110910
  27 H :    0.108602
  28 H :    0.133581
  29 H :    0.214977
  30 H :    0.183751
  31 H :    0.110092
  32 H :    0.112031
  33 H :    0.122748
  34 H :    0.127995
  35 H :    0.110535
  36 H :    0.091753
  37 H :    0.107323
  38 H :    0.100426
  39 H :    0.127002
  40 H :    0.121228
Sum of atomic charges:   -0.0000000

LOEWDIN ATOMIC CHARGES
----------------------
   0 C :   -0.352978
   1 C :   -0.124685
   2 O :   -0.254136
   3 P :    0.562881
   4 S :   -0.296522
   5 O :   -0.240301
   6 C :   -0.116283
   7 C :   -0.354480
   8 S :    0.073569
   9 C :   -0.475783
  10 S :    0.058316
  11 P :    0.567300
  12 S :   -0.289015
  13 O :   -0.246097
  14 C :   -0.113871
  15 C :   -0.369492
  16 O :   -0.223935
  17 C :   -0.110773
  18 C :   -0.358945
  19 H :    0.128944
  20 H :    0.125964
  21 H :    0.124761
  22 H :    0.110209
  23 H :    0.102067
  24 H :    0.111005
  25 H :    0.111893
  26 H :    0.124310
  27 H :    0.129768
  28 H :    0.125438
  29 H :    0.131456
  30 H :    0.138520
  31 H :    0.121769
  32 H :    0.107608
  33 H :    0.120265
  34 H :    0.131111
  35 H :    0.129689
  36 H :    0.099872
  37 H :    0.117243
  38 H :    0.124941
  39 H :    0.129964
  40 H :    0.118434

  Mayer bond orders larger than 0.100000
B(  0-C ,  1-C ) :   1.1624 B(  0-C , 19-H ) :   0.9421 B(  0-C , 20-H ) :   0.9499
B(  0-C , 21-H ) :   0.9514 B(  1-C ,  2-O ) :   0.9166 B(  1-C , 22-H ) :   0.9323
B(  1-C , 23-H ) :   0.8941 B(  2-O ,  3-P ) :   1.0835 B(  3-P ,  4-S ) :   1.6515
B(  3-P ,  5-O ) :   1.1208 B(  3-P ,  8-S ) :   0.9515 B(  4-S ,  8-S ) :   0.1062
B(  5-O ,  6-C ) :   0.8884 B(  6-C ,  7-C ) :   1.1644 B(  6-C , 24-H ) :   0.9314
B(  6-C , 25-H ) :   0.9096 B(  7-C , 26-H ) :   0.9491 B(  7-C , 27-H ) :   0.9409
B(  7-C , 28-H ) :   0.9429 B(  8-S ,  9-C ) :   0.9979 B(  9-C , 10-S ) :   1.0048
B(  9-C , 29-H ) :   0.8570 B(  9-C , 30-H ) :   0.9105 B( 10-S , 11-P ) :   0.9299
B( 10-S , 12-S ) :   0.1072 B( 11-P , 12-S ) :   1.6387 B( 11-P , 13-O ) :   1.0897
B( 11-P , 16-O ) :   1.1593 B( 13-O , 14-C ) :   0.9136 B( 14-C , 15-C ) :   1.1670
B( 14-C , 31-H ) :   0.9336 B( 14-C , 32-H ) :   0.9269 B( 15-C , 33-H ) :   0.9321
B( 15-C , 34-H ) :   0.9430 B( 15-C , 35-H ) :   0.9346 B( 16-O , 17-C ) :   0.8870
B( 17-C , 18-C ) :   1.1660 B( 17-C , 36-H ) :   0.9134 B( 17-C , 37-H ) :   0.9342
B( 18-C , 38-H ) :   0.9385 B( 18-C , 39-H ) :   0.9426 B( 18-C , 40-H ) :   0.9393

Dispersion correction           -0.066891432
FINAL SINGLE POINT ENERGY     -2929.511019478137

DIPOLE MOMENT
-------------

Method             : SCF
Type of density    : Electron Density
Multiplicity       :   1
Irrep              :   0
Energy             : -2929.6286762275931324 Eh
Relativity type    :
Basis              : AO
                                X                 Y                 Z
Electronic contribution:     -5.662471064      -2.188720920      -0.127872901
Nuclear contribution   :      5.197726679       1.362596527       0.373059222
                        -----------------------------------------
Total Dipole Moment    :     -0.464744385      -0.826124393       0.245186321
                        -----------------------------------------
Magnitude (a.u.)       :      0.979073638
Magnitude (Debye)      :      2.488607414

Rotational constants in cm-1:             0.012336             0.005596             0.004854
Rotational constants in MHz :           369.834880           167.778838           145.506851

                             ****ORCA TERMINATED NORMALLY****
TOTAL RUN TIME: 0 days 0 hours 0 minutes 21 seconds 290 msec
