                         Program Version 6.0.1  -  RELEASE   -
|  1> ! pbe def2-sv(p) def2/J RI DEFGRID1 loosescf d4 GCP(DFT/SV(P)) printgap
|  2> %output
|  3>     printlevel normal
|  4> end
|  5> * xyz 0 1
|  6> C 2.3720645245 -3.4972255531 -0.2608520175
|  7> C 2.9664262129 -2.1485731508 0.1111316395
|  8> O 2.1680001592 -1.0729247939 -0.4177845153
|  9> C 2.3519350155 -0.7182433766 -1.6813687016
| 10> O 3.2019986904 -1.1896188093 -2.4010061357
| 11> C 1.3922809784 0.36621498 -2.1242008051
| 12> C 0.2867010647 0.6461737873 -1.1175009776
| 13> H -0.3233945067 1.493035336 -1.4511205534
| 14> C 0.8172001743 0.9800274368 0.2624234937
| 15> O 0.312389001 0.5480059253 1.2798529563
| 16> O 1.8265270302 1.8058658398 0.2254831748
| 17> C 2.3769961927 2.2415226277 1.4872774779
| 18> C 3.4911772934 3.2259219293 1.1959715409
| 19> S -0.8330305417 -0.7857707873 -0.9360988629
| 20> P -2.1634291004 0.0487580135 0.4910405315
| 21> S -2.3447169581 1.9982065358 0.5098084744
| 22> O -3.5291882298 -0.6822822872 0.0481770925
| 23> C -4.1832742304 -0.3589528531 -1.181090327
| 24> O -2.0126457645 -0.6148782956 1.9167935323
| 25> C -1.6217851015 -1.9875479997 2.0967923452
| 26> H 1.3325274001 -3.5484414982 0.0529947831
| 27> H 2.4210599864 -3.6408575985 -1.3374603973
| 28> H 2.9353670052 -4.284793024 0.2283900339
| 29> H 3.9832862133 -2.0505671569 -0.2794522709
| 30> H 2.9556667533 -1.9912700475 1.190419856
| 31> H 0.9668148016 0.0642013234 -3.0824267044
| 32> H 1.9723129013 1.2777740506 -2.2858650009
| 33> H 1.5700473058 2.6944424387 2.0718090305
| 34> H 2.7389033891 1.3593204486 2.0237513018
| 35> H 3.1012610346 4.0776426421 0.6469878166
| 36> H 3.9167974278 3.5694800755 2.1327913977
| 37> H 4.2664378431 2.7493004928 0.6036927387
| 38> H -5.1643119465 -0.8231970714 -1.1228313535
| 39> H -3.6157257024 -0.7605541474 -2.020632094
| 40> H -4.2797522078 0.7238269863 -1.2791252477
| 41> H -0.5629799639 -2.0909502262 1.8588268188
| 42> H -2.2220320088 -2.6400957491 1.4643271536
| 43> H -1.7978297243 -2.1971188852 3.1486225338
| 44> *
| 45>
| 46>                          ****END OF INPUT****

CARTESIAN COORDINATES (ANGSTROEM)
---------------------------------
  C      2.372065   -3.497226   -0.260852
  C      2.966426   -2.148573    0.111132
  O      2.168000   -1.072925   -0.417785
  C      2.351935   -0.718243   -1.681369
  O      3.201999   -1.189619   -2.401006
  C      1.392281    0.366215   -2.124201
  C      0.286701    0.646174   -1.117501
  H     -0.323395    1.493035   -1.451121
  C      0.817200    0.980027    0.262423
  O      0.312389    0.548006    1.279853
  O      1.826527    1.805866    0.225483
  C      2.376996    2.241523    1.487277
  C      3.491177    3.225922    1.195972
  S     -0.833031   -0.785771   -0.936099
  P     -2.163429    0.048758    0.491041
  S     -2.344717    1.998207    0.509808
  O     -3.529188   -0.682282    0.048177
  C     -4.183274   -0.358953   -1.181090
  O     -2.012646   -0.614878    1.916794
  C     -1.621785   -1.987548    2.096792
  H      1.332527   -3.548441    0.052995
  H      2.421060   -3.640858   -1.337460
  H      2.935367   -4.284793    0.228390
  H      3.983286   -2.050567   -0.279452
  H      2.955667   -1.991270    1.190420
  H      0.966815    0.064201   -3.082427
  H      1.972313    1.277774   -2.285865
  H      1.570047    2.694442    2.071809
  H      2.738903    1.359320    2.023751
  H      3.101261    4.077643    0.646988
  H      3.916797    3.569480    2.132791
  H      4.266438    2.749300    0.603693
  H     -5.164312   -0.823197   -1.122831
  H     -3.615726   -0.760554   -2.020632
  H     -4.279752    0.723827   -1.279125
  H     -0.562980   -2.090950    1.858827
  H     -2.222032   -2.640096    1.464327
  H     -1.797830   -2.197119    3.148623

 Total Charge           Charge          ....    0
 Multiplicity           Mult            ....    1
 Number of Electrons    NEL             ....  174
 Basis Dimension        Dim             ....  316

ORBITAL ENERGIES
----------------

  NO   OCC          E(Eh)            E(eV)
   0   2.0000     -88.037835     -2395.6313
   1   2.0000     -87.971516     -2393.8267
   2   2.0000     -76.418762     -2079.4602
   3   2.0000     -18.816912      -512.0342
   4   2.0000     -18.814633      -511.9722
   5   2.0000     -18.781893      -511.0813
   6   2.0000     -18.778030      -510.9762
   7   2.0000     -18.745338      -510.0866
   8   2.0000     -18.743854      -510.0462
   9   2.0000     -10.020587      -272.6740
  10   2.0000     -10.020068      -272.6599
  11   2.0000      -9.956667      -270.9347
  12   2.0000      -9.956363      -270.9264
  13   2.0000      -9.948671      -270.7171
  14   2.0000      -9.943710      -270.5821
  15   2.0000      -9.933872      -270.3144
  16   2.0000      -9.923235      -270.0249
  17   2.0000      -9.895603      -269.2730
  18   2.0000      -9.891852      -269.1710
  19   2.0000      -7.682531      -209.0523
  20   2.0000      -7.616946      -207.2676
  21   2.0000      -6.414796      -174.5555
  22   2.0000      -5.710279      -155.3846
  23   2.0000      -5.707281      -155.3030
  24   2.0000      -5.699460      -155.0902
  25   2.0000      -5.646158      -153.6398
  26   2.0000      -5.637583      -153.4064
  27   2.0000      -5.636703      -153.3825
  28   2.0000      -4.637402      -126.1901
  29   2.0000      -4.636970      -126.1784
  30   2.0000      -4.635160      -126.1291
  31   2.0000      -1.027425       -27.9577
  32   2.0000      -1.018656       -27.7191
  33   2.0000      -0.975010       -26.5314
  34   2.0000      -0.930627       -25.3237
  35   2.0000      -0.925437       -25.1824
  36   2.0000      -0.923167       -25.1207
  37   2.0000      -0.771612       -20.9966
  38   2.0000      -0.716436       -19.4952
  39   2.0000      -0.713592       -19.4178
  40   2.0000      -0.690423       -18.7874
  41   2.0000      -0.660937       -17.9850
  42   2.0000      -0.626126       -17.0378
  43   2.0000      -0.621721       -16.9179
  44   2.0000      -0.611851       -16.6493
  45   2.0000      -0.602486       -16.3945
  46   2.0000      -0.568121       -15.4594
  47   2.0000      -0.520486       -14.1632
  48   2.0000      -0.507835       -13.8189
  49   2.0000      -0.504641       -13.7320
  50   2.0000      -0.486783       -13.2460
  51   2.0000      -0.466733       -12.7005
  52   2.0000      -0.464429       -12.6377
  53   2.0000      -0.458625       -12.4798
  54   2.0000      -0.439315       -11.9544
  55   2.0000      -0.430454       -11.7133
  56   2.0000      -0.427637       -11.6366
  57   2.0000      -0.422298       -11.4913
  58   2.0000      -0.412190       -11.2163
  59   2.0000      -0.406474       -11.0607
  60   2.0000      -0.400617       -10.9013
  61   2.0000      -0.395801       -10.7703
  62   2.0000      -0.393485       -10.7073
  63   2.0000      -0.388643       -10.5755
  64   2.0000      -0.379510       -10.3270
  65   2.0000      -0.369771       -10.0620
  66   2.0000      -0.366784        -9.9807
  67   2.0000      -0.361229        -9.8295
  68   2.0000      -0.357470        -9.7273
  69   2.0000      -0.347100        -9.4451
  70   2.0000      -0.336215        -9.1489
  71   2.0000      -0.330870        -9.0034
  72   2.0000      -0.324341        -8.8258
  73   2.0000      -0.316542        -8.6135
  74   2.0000      -0.312606        -8.5064
  75   2.0000      -0.302279        -8.2254
  76   2.0000      -0.290433        -7.9031
  77   2.0000      -0.286721        -7.8021
  78   2.0000      -0.274417        -7.4673
  79   2.0000      -0.269561        -7.3351
  80   2.0000      -0.262131        -7.1330
  81   2.0000      -0.250293        -6.8108
  82   2.0000      -0.233864        -6.3638
  83   2.0000      -0.230282        -6.2663
  84   2.0000      -0.218427        -5.9437
  85   2.0000      -0.193620        -5.2687
  86   2.0000      -0.186716        -5.0808
  87   0.0000      -0.041722        -1.1353
  88   0.0000      -0.028857        -0.7852
  89   0.0000      -0.027731        -0.7546
  90   0.0000       0.006935         0.1887
  91   0.0000       0.021888         0.5956

MULLIKEN ATOMIC CHARGES
-----------------------
   0 C :   -0.315879
   1 C :   -0.007078
   2 O :   -0.237120
   3 C :    0.112177
   4 O :   -0.197216
   5 C :   -0.106173
   6 C :   -0.288834
   7 H :    0.152495
   8 C :    0.232847
   9 O :   -0.196904
  10 O :   -0.230772
  11 C :   -0.028725
  12 C :   -0.275751
  13 S :   -0.104580
  14 P :    0.616106
  15 S :   -0.336188
  16 O :   -0.389370
  17 C :   -0.098142
  18 O :   -0.351356
  19 C :   -0.106562
  20 H :    0.122893
  21 H :    0.129416
  22 H :    0.114405
  23 H :    0.110102
  24 H :    0.106150
  25 H :    0.136507
  26 H :    0.143024
  27 H :    0.122573
  28 H :    0.105735
  29 H :    0.120751
  30 H :    0.115500
  31 H :    0.116236
  32 H :    0.120452
  33 H :    0.106958
  34 H :    0.113128
  35 H :    0.130328
  36 H :    0.114698
  37 H :    0.128167
Sum of atomic charges:   -0.0000000

LOEWDIN ATOMIC CHARGES
----------------------
   0 C :   -0.356744
   1 C :   -0.108604
   2 O :   -0.049736
   3 C :    0.032884
   4 O :   -0.160413
   5 C :   -0.248484
   6 C :   -0.271820
   7 H :    0.145056
   8 C :    0.009067
   9 O :   -0.160456
  10 O :   -0.047899
  11 C :   -0.102062
  12 C :   -0.350717
  13 S :    0.091678
  14 P :    0.588573
  15 S :   -0.329066
  16 O :   -0.268919
  17 C :   -0.221030
  18 O :   -0.230959
  19 C :   -0.208312
  20 H :    0.125238
  21 H :    0.131788
  22 H :    0.131465
  23 H :    0.120647
  24 H :    0.118897
  25 H :    0.150289
  26 H :    0.157818
  27 H :    0.125402
  28 H :    0.116996
  29 H :    0.129469
  30 H :    0.133267
  31 H :    0.126995
  32 H :    0.119819
  33 H :    0.103440
  34 H :    0.108401
  35 H :    0.112670
  36 H :    0.110026
  37 H :    0.125336

  Mayer bond orders larger than 0.100000
B(  0-C ,  1-C ) :   1.1756 B(  0-C , 20-H ) :   0.9453 B(  0-C , 21-H ) :   0.9440
B(  0-C , 22-H ) :   0.9430 B(  1-C ,  2-O ) :   0.9095 B(  1-C , 23-H ) :   0.9168
B(  1-C , 24-H ) :   0.9337 B(  2-O ,  3-C ) :   1.2143 B(  3-C ,  4-O ) :   2.0568
B(  3-C ,  5-C ) :   1.0082 B(  5-C ,  6-C ) :   1.0606 B(  5-C , 25-H ) :   0.8975
B(  5-C , 26-H ) :   0.8779 B(  6-C ,  7-H ) :   0.8429 B(  6-C ,  8-C ) :   0.8825
B(  6-C , 13-S ) :   1.0324 B(  8-C ,  9-O ) :   1.9885 B(  8-C , 10-O ) :   1.2602
B( 10-O , 11-C ) :   0.8950 B( 11-C , 12-C ) :   1.1533 B( 11-C , 27-H ) :   0.9300
B( 11-C , 28-H ) :   0.9313 B( 12-C , 29-H ) :   0.9494 B( 12-C , 30-H ) :   0.9427
B( 12-C , 31-H ) :   0.9496 B( 13-S , 14-P ) :   0.9387 B( 13-S , 15-S ) :   0.1115
B( 14-P , 15-S ) :   1.6147 B( 14-P , 16-O ) :   1.0582 B( 14-P , 18-O ) :   1.1337
B( 16-O , 17-C ) :   0.9417 B( 17-C , 32-H ) :   0.9589 B( 17-C , 33-H ) :   0.9455
B( 17-C , 34-H ) :   0.9333 B( 18-O , 19-C ) :   0.9242 B( 19-C , 35-H ) :   0.9407
B( 19-C , 36-H ) :   0.9453 B( 19-C , 37-H ) :   0.9580

Dispersion correction           -0.052502698
FINAL SINGLE POINT ENERGY     -1979.015786300576

DIPOLE MOMENT
-------------

Method             : SCF
Type of density    : Electron Density
Multiplicity       :   1
Irrep              :   0
Energy             : -1979.1454310275485113 Eh
Relativity type    :
Basis              : AO
                                X                 Y                 Z
Electronic contribution:    -14.375836403       5.059160279      -1.839366660
Nuclear contribution   :     15.370993848      -5.743208474       1.988431457
                        -----------------------------------------
Total Dipole Moment    :      0.995157445      -0.684048195       0.149064797
                        -----------------------------------------
Magnitude (a.u.)       :      1.216750010
Magnitude (Debye)      :      3.092732741

Rotational constants in cm-1:             0.012838             0.007526             0.006191
Rotational constants in MHz :           384.864391           225.627422           185.591738

                             ****ORCA TERMINATED NORMALLY****
TOTAL RUN TIME: 0 days 0 hours 0 minutes 46 seconds 715 msec
