                         Program Version 6.0.0  -   RELEASE  -
|  1> ! pbe def2-sv(p) def2/J RI DEFGRID1 loosescf d4 GCP(DFT/SV(P)) printgap
|  2> %output
|  3>     printlevel normal
|  4> end
|  5> * xyz 0 1
|  6> C 4.1227421301 -3.3405460067 -1.4498582322
|  7> C 2.9149682359 -2.4724842569 -1.1658879552
|  8> O 3.4001635832 -1.1592996773 -0.7815852249
|  9> P 2.4476073039 -0.0608077324 -0.1583622821
| 10> S 3.3996902475 1.5933176978 0.2502275932
| 11> O 1.6965571814 -0.753108639 1.0788080898
| 12> C 2.1339289036 -0.5517727816 2.4354650727
| 13> C 3.4083785085 -1.3207634595 2.7179395218
| 14> S 0.8421622617 0.0492892917 -1.5327100697
| 15> C 0.1903181265 1.6322868907 -0.9410112648
| 16> S -0.5732310198 1.5207259089 0.7005724571
| 17> P -2.4244591632 0.6607924129 0.1092417665
| 18> S -2.8951067769 0.7961155476 -1.7935402982
| 19> O -3.3801510899 1.4534004477 1.0874958018
| 20> C -4.7824377451 1.6364950635 0.8053945282
| 21> C -5.5500152582 0.3384061921 0.9421149899
| 22> O -2.4631964974 -0.7810845205 0.7826017672
| 23> C -1.5812682717 -1.8821216332 0.5074482524
| 24> C -1.8100496617 -2.4863015252 -0.8642133331
| 25> H 3.788264454 -4.3251420588 -1.7600371256
| 26> H 4.719690165 -2.8973276666 -2.2414650422
| 27> H 4.7383817057 -3.4323181356 -0.5596252982
| 28> H 2.3110183838 -2.8743124128 -0.3486398112
| 29> H 2.2876415082 -2.3525564165 -2.0528449416
| 30> H 2.2819962884 0.5202984477 2.598188712
| 31> H 1.298670367 -0.9027721463 3.0430127907
| 32> H 4.2053931686 -0.9557078314 2.0700680161
| 33> H 3.6989695586 -1.1703081937 3.7527854665
| 34> H 3.2610563759 -2.3821408686 2.5358374588
| 35> H -0.5535485241 1.951856958 -1.6710186736
| 36> H 1.0076448534 2.3483281242 -0.8589756465
| 37> H -5.102563235 2.3791824949 1.53710536
| 38> H -4.8851522711 2.0416027464 -0.2064996372
| 39> H -5.3829870175 -0.0947323732 1.9245954649
| 40> H -6.609703311 0.5280100748 0.8030569977
| 41> H -5.2119300291 -0.3673920331 0.1844362933
| 42> H -0.5465014209 -1.5442905486 0.6172010492
| 43> H -1.816889172 -2.5974167339 1.2981137514
| 44> H -1.524946537 -1.7847688591 -1.6456056697
| 45> H -1.2079420765 -3.3837965985 -0.9629992847
| 46> H -2.8585349393 -2.742823091 -0.991507741
| 47> *
| 48>
| 49>                          ****END OF INPUT****

CARTESIAN COORDINATES (ANGSTROEM)
---------------------------------
  C      4.122742   -3.340546   -1.449858
  C      2.914968   -2.472484   -1.165888
  O      3.400164   -1.159300   -0.781585
  P      2.447607   -0.060808   -0.158362
  S      3.399690    1.593318    0.250228
  O      1.696557   -0.753109    1.078808
  C      2.133929   -0.551773    2.435465
  C      3.408379   -1.320763    2.717940
  S      0.842162    0.049289   -1.532710
  C      0.190318    1.632287   -0.941011
  S     -0.573231    1.520726    0.700572
  P     -2.424459    0.660792    0.109242
  S     -2.895107    0.796116   -1.793540
  O     -3.380151    1.453400    1.087496
  C     -4.782438    1.636495    0.805395
  C     -5.550015    0.338406    0.942115
  O     -2.463196   -0.781085    0.782602
  C     -1.581268   -1.882122    0.507448
  C     -1.810050   -2.486302   -0.864213
  H      3.788264   -4.325142   -1.760037
  H      4.719690   -2.897328   -2.241465
  H      4.738382   -3.432318   -0.559625
  H      2.311018   -2.874312   -0.348640
  H      2.287642   -2.352556   -2.052845
  H      2.281996    0.520298    2.598189
  H      1.298670   -0.902772    3.043013
  H      4.205393   -0.955708    2.070068
  H      3.698970   -1.170308    3.752785
  H      3.261056   -2.382141    2.535837
  H     -0.553549    1.951857   -1.671019
  H      1.007645    2.348328   -0.858976
  H     -5.102563    2.379182    1.537105
  H     -4.885152    2.041603   -0.206500
  H     -5.382987   -0.094732    1.924595
  H     -6.609703    0.528010    0.803057
  H     -5.211930   -0.367392    0.184436
  H     -0.546501   -1.544291    0.617201
  H     -1.816889   -2.597417    1.298114
  H     -1.524947   -1.784769   -1.645606
  H     -1.207942   -3.383797   -0.962999
  H     -2.858535   -2.742823   -0.991508

 Total Charge           Charge          ....    0
 Multiplicity           Mult            ....    1
 Number of Electrons    NEL             ....  202
 Basis Dimension        Dim             ....  334

ORBITAL ENERGIES
----------------

  NO   OCC          E(Eh)            E(eV)
   0   2.0000     -88.044699     -2395.8181
   1   2.0000     -88.040826     -2395.7127
   2   2.0000     -87.991668     -2394.3750
   3   2.0000     -87.991271     -2394.3642
   4   2.0000     -76.429319     -2079.7475
   5   2.0000     -76.427293     -2079.6924
   6   2.0000     -18.800993      -511.6010
   7   2.0000     -18.796406      -511.4762
   8   2.0000     -18.789614      -511.2914
   9   2.0000     -18.788777      -511.2686
  10   2.0000      -9.966443      -271.2007
  11   2.0000      -9.953618      -270.8517
  12   2.0000      -9.953564      -270.8503
  13   2.0000      -9.951436      -270.7923
  14   2.0000      -9.949977      -270.7526
  15   2.0000      -9.897605      -269.3275
  16   2.0000      -9.889477      -269.1064
  17   2.0000      -9.883039      -268.9312
  18   2.0000      -9.878895      -268.8184
  19   2.0000      -7.689735      -209.2483
  20   2.0000      -7.685996      -209.1466
  21   2.0000      -7.636883      -207.8102
  22   2.0000      -7.636123      -207.7895
  23   2.0000      -6.427390      -174.8982
  24   2.0000      -6.424799      -174.8277
  25   2.0000      -5.717471      -155.5803
  26   2.0000      -5.714387      -155.4964
  27   2.0000      -5.713895      -155.4830
  28   2.0000      -5.710641      -155.3945
  29   2.0000      -5.706699      -155.2872
  30   2.0000      -5.702790      -155.1808
  31   2.0000      -5.665945      -154.1782
  32   2.0000      -5.664921      -154.1503
  33   2.0000      -5.657550      -153.9498
  34   2.0000      -5.657005      -153.9349
  35   2.0000      -5.656808      -153.9296
  36   2.0000      -5.656156      -153.9118
  37   2.0000      -4.650271      -126.5403
  38   2.0000      -4.648774      -126.4996
  39   2.0000      -4.647887      -126.4754
  40   2.0000      -4.647135      -126.4550
  41   2.0000      -4.646640      -126.4415
  42   2.0000      -4.645434      -126.4087
  43   2.0000      -0.991543       -26.9813
  44   2.0000      -0.985205       -26.8088
  45   2.0000      -0.950651       -25.8685
  46   2.0000      -0.942913       -25.6580
  47   2.0000      -0.765226       -20.8228
  48   2.0000      -0.726494       -19.7689
  49   2.0000      -0.712359       -19.3843
  50   2.0000      -0.696135       -18.9428
  51   2.0000      -0.684983       -18.6393
  52   2.0000      -0.674671       -18.3587
  53   2.0000      -0.654170       -17.8009
  54   2.0000      -0.642907       -17.4944
  55   2.0000      -0.600723       -16.3465
  56   2.0000      -0.592680       -16.1277
  57   2.0000      -0.580587       -15.7986
  58   2.0000      -0.571139       -15.5415
  59   2.0000      -0.562327       -15.3017
  60   2.0000      -0.512454       -13.9446
  61   2.0000      -0.494699       -13.4615
  62   2.0000      -0.484184       -13.1753
  63   2.0000      -0.470703       -12.8085
  64   2.0000      -0.461776       -12.5656
  65   2.0000      -0.449913       -12.2427
  66   2.0000      -0.443940       -12.0802
  67   2.0000      -0.436400       -11.8750
  68   2.0000      -0.429627       -11.6907
  69   2.0000      -0.411053       -11.1853
  70   2.0000      -0.407328       -11.0840
  71   2.0000      -0.399343       -10.8667
  72   2.0000      -0.397544       -10.8177
  73   2.0000      -0.390857       -10.6358
  74   2.0000      -0.384569       -10.4647
  75   2.0000      -0.374826       -10.1995
  76   2.0000      -0.371308       -10.1038
  77   2.0000      -0.364160        -9.9093
  78   2.0000      -0.358389        -9.7523
  79   2.0000      -0.353316        -9.6142
  80   2.0000      -0.347783        -9.4637
  81   2.0000      -0.346900        -9.4396
  82   2.0000      -0.343575        -9.3491
  83   2.0000      -0.338389        -9.2080
  84   2.0000      -0.334770        -9.1095
  85   2.0000      -0.324328        -8.8254
  86   2.0000      -0.319785        -8.7018
  87   2.0000      -0.313118        -8.5204
  88   2.0000      -0.295201        -8.0328
  89   2.0000      -0.288426        -7.8485
  90   2.0000      -0.284334        -7.7371
  91   2.0000      -0.276442        -7.5224
  92   2.0000      -0.274417        -7.4673
  93   2.0000      -0.271653        -7.3920
  94   2.0000      -0.259612        -7.0644
  95   2.0000      -0.234354        -6.3771
  96   2.0000      -0.218833        -5.9548
  97   2.0000      -0.215073        -5.8524
  98   2.0000      -0.208162        -5.6644
  99   2.0000      -0.204998        -5.5783
 100   2.0000      -0.202783        -5.5180
 101   0.0000      -0.048025        -1.3068
 102   0.0000      -0.028891        -0.7862
 103   0.0000      -0.004155        -0.1131
 104   0.0000       0.003596         0.0979
 105   0.0000       0.010416         0.2834

MULLIKEN ATOMIC CHARGES
-----------------------
   0 C :   -0.273997
   1 C :   -0.041684
   2 O :   -0.369973
   3 P :    0.618589
   4 S :   -0.303104
   5 O :   -0.380278
   6 C :   -0.003939
   7 C :   -0.313661
   8 S :   -0.100946
   9 C :   -0.358911
  10 S :   -0.081071
  11 P :    0.627244
  12 S :   -0.336396
  13 O :   -0.370055
  14 C :   -0.005268
  15 C :   -0.305309
  16 O :   -0.370328
  17 C :   -0.040473
  18 C :   -0.310409
  19 H :    0.113466
  20 H :    0.127030
  21 H :    0.120871
  22 H :    0.110158
  23 H :    0.120414
  24 H :    0.116436
  25 H :    0.104199
  26 H :    0.129886
  27 H :    0.115898
  28 H :    0.109352
  29 H :    0.197372
  30 H :    0.194566
  31 H :    0.106596
  32 H :    0.113783
  33 H :    0.116352
  34 H :    0.111247
  35 H :    0.124129
  36 H :    0.138339
  37 H :    0.099323
  38 H :    0.137892
  39 H :    0.098750
  40 H :    0.113909
Sum of atomic charges:   -0.0000000

LOEWDIN ATOMIC CHARGES
----------------------
   0 C :   -0.348204
   1 C :   -0.119594
   2 O :   -0.244126
   3 P :    0.569785
   4 S :   -0.299292
   5 O :   -0.250368
   6 C :   -0.121984
   7 C :   -0.365138
   8 S :    0.086909
   9 C :   -0.482962
  10 S :    0.088384
  11 P :    0.573505
  12 S :   -0.310484
  13 O :   -0.243205
  14 C :   -0.115695
  15 C :   -0.364086
  16 O :   -0.242594
  17 C :   -0.124365
  18 C :   -0.369434
  19 H :    0.131913
  20 H :    0.132896
  21 H :    0.129294
  22 H :    0.109281
  23 H :    0.112579
  24 H :    0.110943
  25 H :    0.117278
  26 H :    0.125377
  27 H :    0.132517
  28 H :    0.120964
  29 H :    0.129378
  30 H :    0.131123
  31 H :    0.119610
  32 H :    0.110735
  33 H :    0.126443
  34 H :    0.129996
  35 H :    0.122840
  36 H :    0.106592
  37 H :    0.116636
  38 H :    0.117023
  39 H :    0.124459
  40 H :    0.125071

  Mayer bond orders larger than 0.100000
B(  0-C ,  1-C ) :   1.1669 B(  0-C , 19-H ) :   0.9398 B(  0-C , 20-H ) :   0.9489
B(  0-C , 21-H ) :   0.9507 B(  1-C ,  2-O ) :   0.8981 B(  1-C , 22-H ) :   0.9178
B(  1-C , 23-H ) :   0.9226 B(  2-O ,  3-P ) :   1.1223 B(  3-P ,  4-S ) :   1.6437
B(  3-P ,  5-O ) :   1.0574 B(  3-P ,  8-S ) :   0.9622 B(  4-S ,  8-S ) :   0.1009
B(  5-O ,  6-C ) :   0.9006 B(  6-C ,  7-C ) :   1.1607 B(  6-C , 24-H ) :   0.9125
B(  6-C , 25-H ) :   0.9332 B(  7-C , 26-H ) :   0.9351 B(  7-C , 27-H ) :   0.9401
B(  7-C , 28-H ) :   0.9469 B(  8-S ,  9-C ) :   1.0032 B(  9-C , 10-S ) :   1.0152
B(  9-C , 29-H ) :   0.8705 B(  9-C , 30-H ) :   0.8752 B( 10-S , 11-P ) :   0.9446
B( 10-S , 12-S ) :   0.1136 B( 11-P , 12-S ) :   1.5985 B( 11-P , 13-O ) :   1.1375
B( 11-P , 16-O ) :   1.1098 B( 13-O , 14-C ) :   0.9078 B( 14-C , 15-C ) :   1.1633
B( 14-C , 31-H ) :   0.9347 B( 14-C , 32-H ) :   0.9153 B( 15-C , 33-H ) :   0.9464
B( 15-C , 34-H ) :   0.9386 B( 15-C , 35-H ) :   0.9365 B( 16-O , 17-C ) :   0.9111
B( 17-C , 18-C ) :   1.1640 B( 17-C , 36-H ) :   0.8971 B( 17-C , 37-H ) :   0.9353
B( 18-C , 38-H ) :   0.9290 B( 18-C , 39-H ) :   0.9381 B( 18-C , 40-H ) :   0.9452

Dispersion correction           -0.065077388
FINAL SINGLE POINT ENERGY     -2929.523469958416

DIPOLE MOMENT
-------------

Method             : SCF
Type of density    : Electron Density
Multiplicity       :   1
Irrep              :   0
Energy             : -2929.6437898639314881 Eh
Relativity type    :
Basis              : AO
                                X                 Y                 Z
Electronic contribution:      1.764121324      21.533298579      -6.017222059
Nuclear contribution   :     -2.026142367     -23.221338836       6.773105572
                        -----------------------------------------
Total Dipole Moment    :     -0.262021043      -1.688040257       0.755883512
                        -----------------------------------------
Magnitude (a.u.)       :      1.868018956
Magnitude (Debye)      :      4.748126846

Rotational constants in cm-1:             0.013594             0.004549             0.004344
Rotational constants in MHz :           407.543217           136.377553           130.225274

                             ****ORCA TERMINATED NORMALLY****
TOTAL RUN TIME: 0 days 0 hours 0 minutes 21 seconds 307 msec
