                         Program Version 6.0.0  -   RELEASE  -
|  1> ! pbe def2-sv(p) def2/J RI DEFGRID1 loosescf d4 GCP(DFT/SV(P)) printgap
|  2> %output
|  3>     printlevel normal
|  4> end
|  5> * xyz 0 1
|  6> C 4.5636429746 -1.8873495148 0.8680350858
|  7> C 4.6746797891 -0.4096980071 0.5532968269
|  8> O 3.4291507453 0.2803034501 0.7605653387
|  9> P 2.1588648757 0.0445695444 -0.1706332018
| 10> S 2.6155783664 -0.1681833136 -2.0712004079
| 11> O 1.2712108916 1.3001301496 0.2348530387
| 12> C 1.5352593017 2.6144568241 -0.3010880172
| 13> C 0.5920129217 2.9298669754 -1.4453121756
| 14> S 1.0907388742 -1.4803192634 0.7912234028
| 15> C -0.079303659 -1.8903894564 -0.5441342337
| 16> S -0.8334704884 -0.4581888986 -1.3646710398
| 17> P -2.2090431522 0.1488427788 0.1087750101
| 18> S -3.2412791359 1.7730987697 -0.2588065515
| 19> O -1.2509461347 0.1970702182 1.3656484512
| 20> C -1.7190043445 0.6523447889 2.6542310516
| 21> C -0.5097057544 0.7715718011 3.5580379149
| 22> O -3.1004224237 -1.133721914 0.4579595974
| 23> C -4.3514012535 -1.3870292878 -0.200535901
| 24> C -4.1580590892 -1.7627143462 -1.6558985728
| 25> H 4.1499764115 -2.0318076997 1.8628039819
| 26> H 3.9122003497 -2.3728828832 0.1428617098
| 27> H 5.5484952242 -2.3402249824 0.8157311111
| 28> H 4.9830882127 -0.2597849651 -0.4863994505
| 29> H 5.3690759673 0.096785321 1.224869549
| 30> H 1.3820923204 3.2956209205 0.5379761478
| 31> H 2.5774696223 2.6663222681 -0.6291910455
| 32> H -0.4426125964 2.8408449947 -1.1190003062
| 33> H 0.7691884013 3.944161776 -1.7880752179
| 34> H 0.7545742001 2.2403764023 -2.2716395156
| 35> H -0.8493672721 -2.5120374162 -0.0933789401
| 36> H 0.4493457501 -2.4206891206 -1.3342125551
| 37> H -2.2237106218 1.6146698064 2.5174737262
| 38> H -2.4365359292 -0.0777933901 3.0367322823
| 39> H 0.2100713445 1.4611404186 3.124715002
| 40> H -0.8228551789 1.1391823865 4.5297108525
| 41> H -0.034239043 -0.1989528722 3.6705649674
| 42> H -4.793656796 -2.2021045124 0.3739323797
| 43> H -4.9731750798 -0.4900916409 -0.1167257267
| 44> H -3.4965913121 -2.6203801163 -1.7467907132
| 45> H -5.1205017572 -2.0038062654 -2.0955566416
| 46> H -3.722737723 -0.9239288287 -2.199196473
| 47> *
| 48>
| 49>                          ****END OF INPUT****

CARTESIAN COORDINATES (ANGSTROEM)
---------------------------------
  C      4.563643   -1.887350    0.868035
  C      4.674680   -0.409698    0.553297
  O      3.429151    0.280303    0.760565
  P      2.158865    0.044570   -0.170633
  S      2.615578   -0.168183   -2.071200
  O      1.271211    1.300130    0.234853
  C      1.535259    2.614457   -0.301088
  C      0.592013    2.929867   -1.445312
  S      1.090739   -1.480319    0.791223
  C     -0.079304   -1.890389   -0.544134
  S     -0.833470   -0.458189   -1.364671
  P     -2.209043    0.148843    0.108775
  S     -3.241279    1.773099   -0.258807
  O     -1.250946    0.197070    1.365648
  C     -1.719004    0.652345    2.654231
  C     -0.509706    0.771572    3.558038
  O     -3.100422   -1.133722    0.457960
  C     -4.351401   -1.387029   -0.200536
  C     -4.158059   -1.762714   -1.655899
  H      4.149976   -2.031808    1.862804
  H      3.912200   -2.372883    0.142862
  H      5.548495   -2.340225    0.815731
  H      4.983088   -0.259785   -0.486399
  H      5.369076    0.096785    1.224870
  H      1.382092    3.295621    0.537976
  H      2.577470    2.666322   -0.629191
  H     -0.442613    2.840845   -1.119000
  H      0.769188    3.944162   -1.788075
  H      0.754574    2.240376   -2.271640
  H     -0.849367   -2.512037   -0.093379
  H      0.449346   -2.420689   -1.334213
  H     -2.223711    1.614670    2.517474
  H     -2.436536   -0.077793    3.036732
  H      0.210071    1.461140    3.124715
  H     -0.822855    1.139182    4.529711
  H     -0.034239   -0.198953    3.670565
  H     -4.793657   -2.202105    0.373932
  H     -4.973175   -0.490092   -0.116726
  H     -3.496591   -2.620380   -1.746791
  H     -5.120502   -2.003806   -2.095557
  H     -3.722738   -0.923929   -2.199196

 Total Charge           Charge          ....    0
 Multiplicity           Mult            ....    1
 Number of Electrons    NEL             ....  202
 Basis Dimension        Dim             ....  334

ORBITAL ENERGIES
----------------

  NO   OCC          E(Eh)            E(eV)
   0   2.0000     -88.046207     -2395.8591
   1   2.0000     -88.042634     -2395.7619
   2   2.0000     -87.989411     -2394.3136
   3   2.0000     -87.985919     -2394.2186
   4   2.0000     -76.425565     -2079.6454
   5   2.0000     -76.425301     -2079.6382
   6   2.0000     -18.794803      -511.4326
   7   2.0000     -18.792142      -511.3602
   8   2.0000     -18.786965      -511.2193
   9   2.0000     -18.782554      -511.0993
  10   2.0000      -9.963008      -271.1072
  11   2.0000      -9.953258      -270.8419
  12   2.0000      -9.951037      -270.7815
  13   2.0000      -9.950703      -270.7724
  14   2.0000      -9.945023      -270.6178
  15   2.0000      -9.885910      -269.0093
  16   2.0000      -9.883924      -268.9553
  17   2.0000      -9.882935      -268.9283
  18   2.0000      -9.867006      -268.4949
  19   2.0000      -7.690822      -209.2779
  20   2.0000      -7.687996      -209.2010
  21   2.0000      -7.634363      -207.7416
  22   2.0000      -7.630862      -207.6463
  23   2.0000      -6.423219      -174.7847
  24   2.0000      -6.422775      -174.7726
  25   2.0000      -5.719146      -155.6259
  26   2.0000      -5.716044      -155.5415
  27   2.0000      -5.715122      -155.5164
  28   2.0000      -5.712636      -155.4487
  29   2.0000      -5.707536      -155.3100
  30   2.0000      -5.704519      -155.2279
  31   2.0000      -5.663265      -154.1053
  32   2.0000      -5.659721      -154.0088
  33   2.0000      -5.654972      -153.8796
  34   2.0000      -5.654581      -153.8690
  35   2.0000      -5.651627      -153.7886
  36   2.0000      -5.650996      -153.7714
  37   2.0000      -4.645652      -126.4146
  38   2.0000      -4.645310      -126.4053
  39   2.0000      -4.645155      -126.4011
  40   2.0000      -4.644503      -126.3833
  41   2.0000      -4.643623      -126.3594
  42   2.0000      -4.643396      -126.3532
  43   2.0000      -0.986915       -26.8553
  44   2.0000      -0.982757       -26.7422
  45   2.0000      -0.944499       -25.7011
  46   2.0000      -0.939598       -25.5678
  47   2.0000      -0.766926       -20.8691
  48   2.0000      -0.721819       -19.6417
  49   2.0000      -0.706003       -19.2113
  50   2.0000      -0.687453       -18.7066
  51   2.0000      -0.682323       -18.5670
  52   2.0000      -0.671735       -18.2788
  53   2.0000      -0.653027       -17.7698
  54   2.0000      -0.638852       -17.3840
  55   2.0000      -0.598452       -16.2847
  56   2.0000      -0.589744       -16.0477
  57   2.0000      -0.575168       -15.6511
  58   2.0000      -0.567317       -15.4375
  59   2.0000      -0.556356       -15.1392
  60   2.0000      -0.505127       -13.7452
  61   2.0000      -0.497013       -13.5244
  62   2.0000      -0.474190       -12.9034
  63   2.0000      -0.466146       -12.6845
  64   2.0000      -0.459852       -12.5132
  65   2.0000      -0.445055       -12.1106
  66   2.0000      -0.435524       -11.8512
  67   2.0000      -0.433658       -11.8004
  68   2.0000      -0.428263       -11.6536
  69   2.0000      -0.417033       -11.3481
  70   2.0000      -0.410244       -11.1633
  71   2.0000      -0.399219       -10.8633
  72   2.0000      -0.391808       -10.6616
  73   2.0000      -0.388942       -10.5837
  74   2.0000      -0.376253       -10.2384
  75   2.0000      -0.372737       -10.1427
  76   2.0000      -0.366299        -9.9675
  77   2.0000      -0.354974        -9.6593
  78   2.0000      -0.351876        -9.5750
  79   2.0000      -0.351007        -9.5514
  80   2.0000      -0.345604        -9.4044
  81   2.0000      -0.340225        -9.2580
  82   2.0000      -0.336203        -9.1485
  83   2.0000      -0.333647        -9.0790
  84   2.0000      -0.328386        -8.9358
  85   2.0000      -0.322780        -8.7833
  86   2.0000      -0.307642        -8.3714
  87   2.0000      -0.297058        -8.0834
  88   2.0000      -0.294345        -8.0095
  89   2.0000      -0.293455        -7.9853
  90   2.0000      -0.281292        -7.6544
  91   2.0000      -0.272343        -7.4108
  92   2.0000      -0.267758        -7.2861
  93   2.0000      -0.264685        -7.2024
  94   2.0000      -0.261723        -7.1219
  95   2.0000      -0.228995        -6.2313
  96   2.0000      -0.219975        -5.9858
  97   2.0000      -0.210755        -5.7349
  98   2.0000      -0.205835        -5.6011
  99   2.0000      -0.200258        -5.4493
 100   2.0000      -0.198101        -5.3906
 101   0.0000      -0.046705        -1.2709
 102   0.0000      -0.025037        -0.6813
 103   0.0000      -0.009369        -0.2549
 104   0.0000      -0.000567        -0.0154
 105   0.0000       0.007811         0.2125

MULLIKEN ATOMIC CHARGES
-----------------------
   0 C :   -0.315256
   1 C :   -0.004333
   2 O :   -0.374513
   3 P :    0.608909
   4 S :   -0.336345
   5 O :   -0.358327
   6 C :   -0.002486
   7 C :   -0.302623
   8 S :   -0.072309
   9 C :   -0.342068
  10 S :   -0.052650
  11 P :    0.618833
  12 S :   -0.319968
  13 O :   -0.362969
  14 C :   -0.008738
  15 C :   -0.279335
  16 O :   -0.389111
  17 C :   -0.006864
  18 C :   -0.312647
  19 H :    0.116265
  20 H :    0.124498
  21 H :    0.112783
  22 H :    0.111817
  23 H :    0.104059
  24 H :    0.103698
  25 H :    0.097036
  26 H :    0.120678
  27 H :    0.101785
  28 H :    0.126555
  29 H :    0.180981
  30 H :    0.192133
  31 H :    0.104820
  32 H :    0.098397
  33 H :    0.124059
  34 H :    0.106722
  35 H :    0.116358
  36 H :    0.103092
  37 H :    0.112157
  38 H :    0.112070
  39 H :    0.113995
  40 H :    0.128841
Sum of atomic charges:   -0.0000000

LOEWDIN ATOMIC CHARGES
----------------------
   0 C :   -0.369686
   1 C :   -0.121111
   2 O :   -0.247924
   3 P :    0.567808
   4 S :   -0.331873
   5 O :   -0.240146
   6 C :   -0.112157
   7 C :   -0.368090
   8 S :    0.102697
   9 C :   -0.471830
  10 S :    0.124808
  11 P :    0.565376
  12 S :   -0.317413
  13 O :   -0.238848
  14 C :   -0.113932
  15 C :   -0.351402
  16 O :   -0.255079
  17 C :   -0.122678
  18 C :   -0.367291
  19 H :    0.123494
  20 H :    0.120154
  21 H :    0.130842
  22 H :    0.109990
  23 H :    0.118067
  24 H :    0.116646
  25 H :    0.106394
  26 H :    0.119005
  27 H :    0.125933
  28 H :    0.123431
  29 H :    0.132867
  30 H :    0.137989
  31 H :    0.109408
  32 H :    0.109760
  33 H :    0.129454
  34 H :    0.127664
  35 H :    0.124385
  36 H :    0.117142
  37 H :    0.110191
  38 H :    0.122302
  39 H :    0.131447
  40 H :    0.122207

  Mayer bond orders larger than 0.100000
B(  0-C ,  1-C ) :   1.1652 B(  0-C , 19-H ) :   0.9451 B(  0-C , 20-H ) :   0.9352
B(  0-C , 21-H ) :   0.9380 B(  1-C ,  2-O ) :   0.9102 B(  1-C , 22-H ) :   0.9138
B(  1-C , 23-H ) :   0.9336 B(  2-O ,  3-P ) :   1.1036 B(  3-P ,  4-S ) :   1.5862
B(  3-P ,  5-O ) :   1.1240 B(  3-P ,  8-S ) :   0.9806 B(  4-S ,  8-S ) :   0.1137
B(  5-O ,  6-C ) :   0.8963 B(  6-C ,  7-C ) :   1.1720 B(  6-C , 24-H ) :   0.9329
B(  6-C , 25-H ) :   0.9154 B(  7-C , 26-H ) :   0.9292 B(  7-C , 27-H ) :   0.9393
B(  7-C , 28-H ) :   0.9363 B(  8-S ,  9-C ) :   0.9870 B(  9-C , 10-S ) :   0.9999
B(  9-C , 29-H ) :   0.8991 B(  9-C , 30-H ) :   0.8999 B( 10-S , 11-P ) :   0.9714
B( 11-P , 12-S ) :   1.6330 B( 11-P , 13-O ) :   1.1276 B( 11-P , 16-O ) :   1.0588
B( 13-O , 14-C ) :   0.9008 B( 14-C , 15-C ) :   1.1607 B( 14-C , 31-H ) :   0.9180
B( 14-C , 32-H ) :   0.9285 B( 15-C , 33-H ) :   0.9477 B( 15-C , 34-H ) :   0.9406
B( 15-C , 35-H ) :   0.9491 B( 16-O , 17-C ) :   0.9136 B( 17-C , 18-C ) :   1.1625
B( 17-C , 36-H ) :   0.9339 B( 17-C , 37-H ) :   0.9137 B( 18-C , 38-H ) :   0.9470
B( 18-C , 39-H ) :   0.9385 B( 18-C , 40-H ) :   0.9348

Dispersion correction           -0.067441682
FINAL SINGLE POINT ENERGY     -2929.522207744269

DIPOLE MOMENT
-------------

Method             : SCF
Type of density    : Electron Density
Multiplicity       :   1
Irrep              :   0
Energy             : -2929.6398030904374536 Eh
Relativity type    :
Basis              : AO
                                X                 Y                 Z
Electronic contribution:     -1.116782266       0.393860554      -6.538720468
Nuclear contribution   :      1.176712288      -1.237569050       7.646293349
                        -----------------------------------------
Total Dipole Moment    :      0.059930022      -0.843708496       1.107572880
                        -----------------------------------------
Magnitude (a.u.)       :      1.393611610
Magnitude (Debye)      :      3.542279203

Rotational constants in cm-1:             0.012598             0.005228             0.005193
Rotational constants in MHz :           377.670353           156.722342           155.683246

                             ****ORCA TERMINATED NORMALLY****
TOTAL RUN TIME: 0 days 0 hours 0 minutes 21 seconds 702 msec
