                         Program Version 6.0.0  -   RELEASE  -
|  1> ! pbe def2-sv(p) def2/J RI DEFGRID1 loosescf d4 GCP(DFT/SV(P)) printgap
|  2> %output
|  3>     printlevel normal
|  4> end
|  5> * xyz 0 1
|  6> C 5.8395872758 -0.1457800827 -0.168841358
|  7> C 4.5949635568 0.3787316119 -0.8546379416
|  8> O 3.4540701608 -0.210729603 -0.2022756376
|  9> P 1.9774423349 0.188470297 -0.6737763628
| 10> S 1.7144558179 -0.0119261923 -2.6021824165
| 11> O 1.762843577 1.6993591983 -0.226027918
| 12> C 1.4514436466 2.1528974817 1.1108034371
| 13> C 2.479174007 1.7201891285 2.1357749694
| 14> S 0.9651494439 -1.0875569941 0.6483749053
| 15> C -0.1572169494 -1.9356447332 -0.5138518752
| 16> S -1.8608077207 -1.9717606593 0.0801641352
| 17> P -2.1732630898 0.1299799328 0.2248988941
| 18> S -1.3328498795 1.2505975928 -1.1462117057
| 19> O -1.7094665673 0.5344831855 1.6759448255
| 20> C -2.2142215743 -0.1218323335 2.8736128981
| 21> C -1.0491166473 -0.659159802 3.6786120009
| 22> O -3.7532363866 0.257182456 0.3493597262
| 23> C -4.6315286975 0.3543723173 -0.786177006
| 24> C -4.6041091984 -0.8900948586 -1.6494102907
| 25> H 5.8339840149 0.133997232 0.8805916084
| 26> H 5.8711276543 -1.2286927201 -0.2430434958
| 27> H 6.7159928986 0.2746969016 -0.651002205
| 28> H 4.5674339259 0.0998802216 -1.9132982712
| 29> H 4.51993717 1.4690264024 -0.7819874415
| 30> H 1.4167815842 3.2383753543 1.0015316229
| 31> H 0.4539126338 1.7856000932 1.3705103786
| 32> H 3.4679269698 2.0724635153 1.8518459455
| 33> H 2.2135255963 2.1443237499 3.0992173175
| 34> H 2.4991602448 0.6342571688 2.2189889912
| 35> H 0.1528367929 -2.9735835306 -0.6061791691
| 36> H -0.1018488004 -1.4217148651 -1.4780784984
| 37> H -2.7631891523 0.6459578708 3.4204203883
| 38> H -2.8978779933 -0.9212487452 2.5788671861
| 39> H -0.3645745476 0.1455251028 3.9301974227
| 40> H -1.4285143666 -1.1068285427 4.5913076111
| 41> H -0.5071250841 -1.4098323267 3.1081515566
| 42> H -5.6135011073 0.5125603764 -0.3379485031
| 43> H -4.3420555992 1.2334992243 -1.3698157405
| 44> H -4.7763308397 -1.7767123946 -1.0444449507
| 45> H -5.3757295285 -0.8149589584 -2.4089786298
| 46> H -3.6367238817 -0.9810329935 -2.1417301704
| 47> *
| 48>
| 49>                          ****END OF INPUT****

CARTESIAN COORDINATES (ANGSTROEM)
---------------------------------
  C      5.839587   -0.145780   -0.168841
  C      4.594964    0.378732   -0.854638
  O      3.454070   -0.210730   -0.202276
  P      1.977442    0.188470   -0.673776
  S      1.714456   -0.011926   -2.602182
  O      1.762844    1.699359   -0.226028
  C      1.451444    2.152897    1.110803
  C      2.479174    1.720189    2.135775
  S      0.965149   -1.087557    0.648375
  C     -0.157217   -1.935645   -0.513852
  S     -1.860808   -1.971761    0.080164
  P     -2.173263    0.129980    0.224899
  S     -1.332850    1.250598   -1.146212
  O     -1.709467    0.534483    1.675945
  C     -2.214222   -0.121832    2.873613
  C     -1.049117   -0.659160    3.678612
  O     -3.753236    0.257182    0.349360
  C     -4.631529    0.354372   -0.786177
  C     -4.604109   -0.890095   -1.649410
  H      5.833984    0.133997    0.880592
  H      5.871128   -1.228693   -0.243043
  H      6.715993    0.274697   -0.651002
  H      4.567434    0.099880   -1.913298
  H      4.519937    1.469026   -0.781987
  H      1.416782    3.238375    1.001532
  H      0.453913    1.785600    1.370510
  H      3.467927    2.072464    1.851846
  H      2.213526    2.144324    3.099217
  H      2.499160    0.634257    2.218989
  H      0.152837   -2.973584   -0.606179
  H     -0.101849   -1.421715   -1.478078
  H     -2.763189    0.645958    3.420420
  H     -2.897878   -0.921249    2.578867
  H     -0.364575    0.145525    3.930197
  H     -1.428514   -1.106829    4.591308
  H     -0.507125   -1.409832    3.108152
  H     -5.613501    0.512560   -0.337949
  H     -4.342056    1.233499   -1.369816
  H     -4.776331   -1.776712   -1.044445
  H     -5.375730   -0.814959   -2.408979
  H     -3.636724   -0.981033   -2.141730

 Total Charge           Charge          ....    0
 Multiplicity           Mult            ....    1
 Number of Electrons    NEL             ....  202
 Basis Dimension        Dim             ....  334

ORBITAL ENERGIES
----------------

  NO   OCC          E(Eh)            E(eV)
   0   2.0000     -88.046590     -2395.8695
   1   2.0000     -88.042485     -2395.7578
   2   2.0000     -87.983374     -2394.1493
   3   2.0000     -87.973486     -2393.8802
   4   2.0000     -76.426581     -2079.6730
   5   2.0000     -76.416417     -2079.3964
   6   2.0000     -18.793559      -511.3987
   7   2.0000     -18.793025      -511.3842
   8   2.0000     -18.781772      -511.0780
   9   2.0000     -18.779423      -511.0141
  10   2.0000      -9.959890      -271.0224
  11   2.0000      -9.954787      -270.8835
  12   2.0000      -9.954705      -270.8813
  13   2.0000      -9.945418      -270.6286
  14   2.0000      -9.944504      -270.6037
  15   2.0000      -9.890133      -269.1242
  16   2.0000      -9.887253      -269.0458
  17   2.0000      -9.884794      -268.9789
  18   2.0000      -9.883519      -268.9442
  19   2.0000      -7.691456      -209.2952
  20   2.0000      -7.687140      -209.1777
  21   2.0000      -7.628061      -207.5701
  22   2.0000      -7.618841      -207.3192
  23   2.0000      -6.423789      -174.8002
  24   2.0000      -6.414283      -174.5415
  25   2.0000      -5.719342      -155.6312
  26   2.0000      -5.715812      -155.5351
  27   2.0000      -5.715015      -155.5135
  28   2.0000      -5.711730      -155.4241
  29   2.0000      -5.708626      -155.3396
  30   2.0000      -5.703996      -155.2136
  31   2.0000      -5.657139      -153.9386
  32   2.0000      -5.648505      -153.7036
  33   2.0000      -5.648282      -153.6976
  34   2.0000      -5.648010      -153.6902
  35   2.0000      -5.639879      -153.4689
  36   2.0000      -5.638253      -153.4247
  37   2.0000      -4.646629      -126.4412
  38   2.0000      -4.645589      -126.4129
  39   2.0000      -4.644000      -126.3697
  40   2.0000      -4.637118      -126.1824
  41   2.0000      -4.635994      -126.1518
  42   2.0000      -4.634556      -126.1127
  43   2.0000      -0.989747       -26.9324
  44   2.0000      -0.973684       -26.4953
  45   2.0000      -0.945990       -25.7417
  46   2.0000      -0.932745       -25.3813
  47   2.0000      -0.763677       -20.7807
  48   2.0000      -0.720659       -19.6101
  49   2.0000      -0.709573       -19.3085
  50   2.0000      -0.691197       -18.8084
  51   2.0000      -0.688338       -18.7306
  52   2.0000      -0.674676       -18.3589
  53   2.0000      -0.648599       -17.6493
  54   2.0000      -0.630483       -17.1563
  55   2.0000      -0.596673       -16.2363
  56   2.0000      -0.583652       -15.8820
  57   2.0000      -0.577095       -15.7036
  58   2.0000      -0.571296       -15.5457
  59   2.0000      -0.555586       -15.1183
  60   2.0000      -0.507205       -13.8017
  61   2.0000      -0.496198       -13.5022
  62   2.0000      -0.474024       -12.8988
  63   2.0000      -0.468573       -12.7505
  64   2.0000      -0.450103       -12.2479
  65   2.0000      -0.445474       -12.1220
  66   2.0000      -0.441486       -12.0134
  67   2.0000      -0.434625       -11.8268
  68   2.0000      -0.432081       -11.7575
  69   2.0000      -0.418985       -11.4012
  70   2.0000      -0.409976       -11.1560
  71   2.0000      -0.397671       -10.8212
  72   2.0000      -0.392298       -10.6750
  73   2.0000      -0.379949       -10.3389
  74   2.0000      -0.378093       -10.2884
  75   2.0000      -0.367140        -9.9904
  76   2.0000      -0.361860        -9.8467
  77   2.0000      -0.360314        -9.8046
  78   2.0000      -0.353351        -9.6152
  79   2.0000      -0.351278        -9.5588
  80   2.0000      -0.349025        -9.4975
  81   2.0000      -0.346673        -9.4335
  82   2.0000      -0.344000        -9.3607
  83   2.0000      -0.338811        -9.2195
  84   2.0000      -0.331472        -9.0198
  85   2.0000      -0.316756        -8.6194
  86   2.0000      -0.309305        -8.4166
  87   2.0000      -0.304959        -8.2984
  88   2.0000      -0.301586        -8.2066
  89   2.0000      -0.294454        -8.0125
  90   2.0000      -0.274879        -7.4798
  91   2.0000      -0.271096        -7.3769
  92   2.0000      -0.263390        -7.1672
  93   2.0000      -0.262661        -7.1474
  94   2.0000      -0.256555        -6.9812
  95   2.0000      -0.234598        -6.3837
  96   2.0000      -0.218847        -5.9551
  97   2.0000      -0.209862        -5.7106
  98   2.0000      -0.200336        -5.4514
  99   2.0000      -0.191631        -5.2145
 100   2.0000      -0.179379        -4.8811
 101   0.0000      -0.044523        -1.2115
 102   0.0000      -0.035296        -0.9605
 103   0.0000      -0.008193        -0.2229
 104   0.0000       0.006162         0.1677
 105   0.0000       0.020398         0.5551

MULLIKEN ATOMIC CHARGES
-----------------------
   0 C :   -0.275332
   1 C :   -0.018413
   2 O :   -0.386108
   3 P :    0.630473
   4 S :   -0.307948
   5 O :   -0.372225
   6 C :   -0.026741
   7 C :   -0.325622
   8 S :   -0.122917
   9 C :   -0.329895
  10 S :   -0.113821
  11 P :    0.578906
  12 S :   -0.278320
  13 O :   -0.353136
  14 C :   -0.010123
  15 C :   -0.287363
  16 O :   -0.379447
  17 C :    0.003830
  18 C :   -0.322956
  19 H :    0.111547
  20 H :    0.118740
  21 H :    0.109471
  22 H :    0.107997
  23 H :    0.098945
  24 H :    0.106951
  25 H :    0.137652
  26 H :    0.117100
  27 H :    0.113143
  28 H :    0.130954
  29 H :    0.182188
  30 H :    0.206951
  31 H :    0.111698
  32 H :    0.105878
  33 H :    0.117756
  34 H :    0.110153
  35 H :    0.125490
  36 H :    0.104427
  37 H :    0.113510
  38 H :    0.116941
  39 H :    0.115268
  40 H :    0.134399
Sum of atomic charges:    0.0000000

LOEWDIN ATOMIC CHARGES
----------------------
   0 C :   -0.350525
   1 C :   -0.122474
   2 O :   -0.261811
   3 P :    0.570555
   4 S :   -0.303360
   5 O :   -0.239520
   6 C :   -0.122656
   7 C :   -0.368387
   8 S :    0.087779
   9 C :   -0.475336
  10 S :    0.071274
  11 P :    0.559512
  12 S :   -0.282536
  13 O :   -0.236728
  14 C :   -0.112105
  15 C :   -0.356330
  16 O :   -0.251127
  17 C :   -0.114838
  18 C :   -0.371863
  19 H :    0.123601
  20 H :    0.128738
  21 H :    0.129444
  22 H :    0.110412
  23 H :    0.105664
  24 H :    0.122023
  25 H :    0.111559
  26 H :    0.124399
  27 H :    0.130495
  28 H :    0.117368
  29 H :    0.137075
  30 H :    0.126102
  31 H :    0.120335
  32 H :    0.106700
  33 H :    0.126552
  34 H :    0.129683
  35 H :    0.118977
  36 H :    0.118564
  37 H :    0.114310
  38 H :    0.122277
  39 H :    0.132229
  40 H :    0.123966

  Mayer bond orders larger than 0.100000
B(  0-C ,  1-C ) :   1.1572 B(  0-C , 19-H ) :   0.9519 B(  0-C , 20-H ) :   0.9496
B(  0-C , 21-H ) :   0.9425 B(  1-C ,  2-O ) :   0.9105 B(  1-C , 22-H ) :   0.9182
B(  1-C , 23-H ) :   0.9224 B(  2-O ,  3-P ) :   1.0741 B(  3-P ,  4-S ) :   1.6424
B(  3-P ,  5-O ) :   1.1101 B(  3-P ,  8-S ) :   0.9539 B(  4-S ,  8-S ) :   0.1104
B(  5-O ,  6-C ) :   0.9035 B(  6-C ,  7-C ) :   1.1590 B(  6-C , 24-H ) :   0.9345
B(  6-C , 25-H ) :   0.9053 B(  7-C , 26-H ) :   0.9424 B(  7-C , 27-H ) :   0.9362
B(  7-C , 28-H ) :   0.9349 B(  8-S ,  9-C ) :   0.9985 B(  9-C , 10-S ) :   1.0025
B(  9-C , 29-H ) :   0.9102 B(  9-C , 30-H ) :   0.8472 B( 10-S , 11-P ) :   0.9336
B( 10-S , 12-S ) :   0.1084 B( 11-P , 12-S ) :   1.6591 B( 11-P , 13-O ) :   1.1113
B( 11-P , 16-O ) :   1.0901 B( 13-O , 14-C ) :   0.8851 B( 14-C , 15-C ) :   1.1649
B( 14-C , 31-H ) :   0.9340 B( 14-C , 32-H ) :   0.9144 B( 15-C , 33-H ) :   0.9471
B( 15-C , 34-H ) :   0.9394 B( 15-C , 35-H ) :   0.9371 B( 16-O , 17-C ) :   0.9051
B( 17-C , 18-C ) :   1.1668 B( 17-C , 36-H ) :   0.9348 B( 17-C , 37-H ) :   0.9192
B( 18-C , 38-H ) :   0.9431 B( 18-C , 39-H ) :   0.9367 B( 18-C , 40-H ) :   0.9343

Dispersion correction           -0.067468972
FINAL SINGLE POINT ENERGY     -2929.515026447074

DIPOLE MOMENT
-------------

Method             : SCF
Type of density    : Electron Density
Multiplicity       :   1
Irrep              :   0
Energy             : -2929.6333839389699278 Eh
Relativity type    :
Basis              : AO
                                X                 Y                 Z
Electronic contribution:     -6.172036095      -1.686117096     -12.954227342
Nuclear contribution   :      5.726250786       1.448952526      14.655197990
                        -----------------------------------------
Total Dipole Moment    :     -0.445785309      -0.237164571       1.700970647
                        -----------------------------------------
Magnitude (a.u.)       :      1.774337262
Magnitude (Debye)      :      4.510006903

Rotational constants in cm-1:             0.013332             0.005238             0.004700
Rotational constants in MHz :           399.672256           157.034171           140.906120

                             ****ORCA TERMINATED NORMALLY****
TOTAL RUN TIME: 0 days 0 hours 0 minutes 21 seconds 652 msec
