                         Program Version 6.0.0  -   RELEASE  -
|  1> ! pbe def2-sv(p) def2/J RI DEFGRID1 loosescf d4 GCP(DFT/SV(P)) printgap
|  2> %output
|  3>     printlevel normal
|  4> end
|  5> * xyz 0 1
|  6> C 2.9538930815 -1.8879564292 -2.4029519634
|  7> C 2.1778537011 -0.5964088578 -2.5392019143
|  8> O 2.4784649996 0.3502861424 -1.4876270721
|  9> P 2.3782333588 0.1024245577 0.0621367738
| 10> S 2.1957762966 1.7575242791 1.0943210034
| 11> O 3.7614928137 -0.6483493244 0.3312538998
| 12> C 4.3821714293 -0.7194631821 1.623418063
| 13> C 3.5581206438 -1.5075100107 2.6222806095
| 14> S 0.9030005648 -1.3955075599 0.3797840097
| 15> C -0.1627603197 -0.5496910998 1.5957799603
| 16> S -1.9204458786 -0.7555251741 1.2589459187
| 17> P -2.2107045581 0.6571605194 -0.3111588515
| 18> S -0.591091177 1.2411683916 -1.2565383047
| 19> O -2.9103143697 1.9397109861 0.2837298143
| 20> C -4.2975102391 2.0460272139 0.6880769775
| 21> C -4.6392016833 1.1478046042 1.8584873239
| 22> O -3.3822873814 0.0228004681 -1.1736422996
| 23> C -3.4245934003 -1.3392537653 -1.644179916
| 24> C -2.1511963079 -1.7618465371 -2.3455814448
| 25> H 2.6546450877 -2.4132041167 -1.4971182174
| 26> H 2.7451117102 -2.5175089672 -3.262203497
| 27> H 4.0197481955 -1.6808659473 -2.3542798352
| 28> H 1.0989017955 -0.773260641 -2.5321206978
| 29> H 2.447908554 -0.0509738719 -3.444594118
| 30> H 5.3407212979 -1.2004547472 1.4234459945
| 31> H 4.5460641969 0.301170884 1.9841102218
| 32> H 4.1364188191 -1.6486191023 3.5297090444
| 33> H 2.6518060327 -0.9550795128 2.8669781791
| 34> H 3.2870489526 -2.4765582108 2.2111746831
| 35> H 0.1040450658 0.5105370407 1.6039295737
| 36> H -0.0025343383 -1.0052565418 2.5700257858
| 37> H -4.3969038361 3.1007583631 0.9499856917
| 38> H -4.9215138413 1.8183516217 -0.1778708891
| 39> H -3.9576686271 1.3272674945 2.6860968805
| 40> H -5.6536780329 1.3624644101 2.1799747792
| 41> H -4.5726148381 0.100522805 1.5707528939
| 42> H -3.6247019177 -1.9870951276 -0.7866832704
| 43> H -4.2772087016 -1.3470806777 -2.3253706924
| 44> H -1.3219977618 -1.7854912399 -1.6386803089
| 45> H -2.282229021 -2.7544711903 -2.7639821751
| 46> H -1.9079855536 -1.0624967953 -3.1425723755
| 47> *
| 48>
| 49>                          ****END OF INPUT****

CARTESIAN COORDINATES (ANGSTROEM)
---------------------------------
  C      2.953893   -1.887956   -2.402952
  C      2.177854   -0.596409   -2.539202
  O      2.478465    0.350286   -1.487627
  P      2.378233    0.102425    0.062137
  S      2.195776    1.757524    1.094321
  O      3.761493   -0.648349    0.331254
  C      4.382171   -0.719463    1.623418
  C      3.558121   -1.507510    2.622281
  S      0.903001   -1.395508    0.379784
  C     -0.162760   -0.549691    1.595780
  S     -1.920446   -0.755525    1.258946
  P     -2.210705    0.657161   -0.311159
  S     -0.591091    1.241168   -1.256538
  O     -2.910314    1.939711    0.283730
  C     -4.297510    2.046027    0.688077
  C     -4.639202    1.147805    1.858487
  O     -3.382287    0.022800   -1.173642
  C     -3.424593   -1.339254   -1.644180
  C     -2.151196   -1.761847   -2.345581
  H      2.654645   -2.413204   -1.497118
  H      2.745112   -2.517509   -3.262203
  H      4.019748   -1.680866   -2.354280
  H      1.098902   -0.773261   -2.532121
  H      2.447909   -0.050974   -3.444594
  H      5.340721   -1.200455    1.423446
  H      4.546064    0.301171    1.984110
  H      4.136419   -1.648619    3.529709
  H      2.651806   -0.955080    2.866978
  H      3.287049   -2.476558    2.211175
  H      0.104045    0.510537    1.603930
  H     -0.002534   -1.005257    2.570026
  H     -4.396904    3.100758    0.949986
  H     -4.921514    1.818352   -0.177871
  H     -3.957669    1.327267    2.686097
  H     -5.653678    1.362464    2.179975
  H     -4.572615    0.100523    1.570753
  H     -3.624702   -1.987095   -0.786683
  H     -4.277209   -1.347081   -2.325371
  H     -1.321998   -1.785491   -1.638680
  H     -2.282229   -2.754471   -2.763982
  H     -1.907986   -1.062497   -3.142572

 Total Charge           Charge          ....    0
 Multiplicity           Mult            ....    1
 Number of Electrons    NEL             ....  202
 Basis Dimension        Dim             ....  334

ORBITAL ENERGIES
----------------

  NO   OCC          E(Eh)            E(eV)
   0   2.0000     -88.047535     -2395.8952
   1   2.0000     -88.039601     -2395.6793
   2   2.0000     -87.976906     -2393.9733
   3   2.0000     -87.976735     -2393.9687
   4   2.0000     -76.424277     -2079.6103
   5   2.0000     -76.419930     -2079.4920
   6   2.0000     -18.795652      -511.4557
   7   2.0000     -18.786439      -511.2050
   8   2.0000     -18.783424      -511.1230
   9   2.0000     -18.779276      -511.0101
  10   2.0000      -9.961022      -271.0532
  11   2.0000      -9.955706      -270.9085
  12   2.0000      -9.954690      -270.8809
  13   2.0000      -9.949022      -270.7267
  14   2.0000      -9.945632      -270.6344
  15   2.0000      -9.891114      -269.1509
  16   2.0000      -9.885069      -268.9864
  17   2.0000      -9.884999      -268.9845
  18   2.0000      -9.881168      -268.8803
  19   2.0000      -7.692200      -209.3154
  20   2.0000      -7.683779      -209.0863
  21   2.0000      -7.621864      -207.4015
  22   2.0000      -7.621583      -207.3938
  23   2.0000      -6.421291      -174.7322
  24   2.0000      -6.416801      -174.6100
  25   2.0000      -5.719992      -155.6489
  26   2.0000      -5.716464      -155.5529
  27   2.0000      -5.711678      -155.4227
  28   2.0000      -5.709569      -155.3653
  29   2.0000      -5.708395      -155.3333
  30   2.0000      -5.700735      -155.1249
  31   2.0000      -5.650889      -153.7685
  32   2.0000      -5.650772      -153.7653
  33   2.0000      -5.642613      -153.5433
  34   2.0000      -5.642152      -153.5308
  35   2.0000      -5.641740      -153.5196
  36   2.0000      -5.641588      -153.5154
  37   2.0000      -4.644304      -126.3779
  38   2.0000      -4.643221      -126.3485
  39   2.0000      -4.641241      -126.2946
  40   2.0000      -4.639460      -126.2461
  41   2.0000      -4.638566      -126.2218
  42   2.0000      -4.637296      -126.1872
  43   2.0000      -0.988035       -26.8858
  44   2.0000      -0.977837       -26.6083
  45   2.0000      -0.943037       -25.6613
  46   2.0000      -0.935309       -25.4510
  47   2.0000      -0.760748       -20.7010
  48   2.0000      -0.718307       -19.5461
  49   2.0000      -0.709427       -19.3045
  50   2.0000      -0.693286       -18.8653
  51   2.0000      -0.684842       -18.6355
  52   2.0000      -0.678570       -18.4648
  53   2.0000      -0.649345       -17.6696
  54   2.0000      -0.631118       -17.1736
  55   2.0000      -0.594999       -16.1907
  56   2.0000      -0.587784       -15.9944
  57   2.0000      -0.582375       -15.8472
  58   2.0000      -0.570169       -15.5151
  59   2.0000      -0.563134       -15.3237
  60   2.0000      -0.499608       -13.5950
  61   2.0000      -0.486446       -13.2369
  62   2.0000      -0.469747       -12.7825
  63   2.0000      -0.463672       -12.6172
  64   2.0000      -0.454199       -12.3594
  65   2.0000      -0.449172       -12.2226
  66   2.0000      -0.438772       -11.9396
  67   2.0000      -0.434773       -11.8308
  68   2.0000      -0.433509       -11.7964
  69   2.0000      -0.420412       -11.4400
  70   2.0000      -0.413150       -11.2424
  71   2.0000      -0.410197       -11.1620
  72   2.0000      -0.393515       -10.7081
  73   2.0000      -0.387185       -10.5358
  74   2.0000      -0.384752       -10.4696
  75   2.0000      -0.362788        -9.8720
  76   2.0000      -0.358554        -9.7567
  77   2.0000      -0.355815        -9.6822
  78   2.0000      -0.351640        -9.5686
  79   2.0000      -0.350812        -9.5461
  80   2.0000      -0.349208        -9.5024
  81   2.0000      -0.343443        -9.3456
  82   2.0000      -0.341782        -9.3004
  83   2.0000      -0.340045        -9.2531
  84   2.0000      -0.334852        -9.1118
  85   2.0000      -0.319442        -8.6925
  86   2.0000      -0.304216        -8.2781
  87   2.0000      -0.299609        -8.1528
  88   2.0000      -0.291311        -7.9270
  89   2.0000      -0.287145        -7.8136
  90   2.0000      -0.283640        -7.7182
  91   2.0000      -0.277311        -7.5460
  92   2.0000      -0.268683        -7.3112
  93   2.0000      -0.258282        -7.0282
  94   2.0000      -0.254410        -6.9229
  95   2.0000      -0.238292        -6.4843
  96   2.0000      -0.215466        -5.8631
  97   2.0000      -0.206255        -5.6125
  98   2.0000      -0.196972        -5.3599
  99   2.0000      -0.185415        -5.0454
 100   2.0000      -0.180907        -4.9227
 101   0.0000      -0.041881        -1.1396
 102   0.0000      -0.031231        -0.8498
 103   0.0000      -0.017484        -0.4758
 104   0.0000       0.000237         0.0064
 105   0.0000       0.019690         0.5358

MULLIKEN ATOMIC CHARGES
-----------------------
   0 C :   -0.313943
   1 C :   -0.015503
   2 O :   -0.355040
   3 P :    0.607620
   4 S :   -0.298635
   5 O :   -0.375782
   6 C :    0.006179
   7 C :   -0.319450
   8 S :   -0.121603
   9 C :   -0.326926
  10 S :   -0.133931
  11 P :    0.597693
  12 S :   -0.290879
  13 O :   -0.353870
  14 C :    0.002940
  15 C :   -0.318343
  16 O :   -0.384532
  17 C :    0.003783
  18 C :   -0.346884
  19 H :    0.124414
  20 H :    0.112290
  21 H :    0.123707
  22 H :    0.130991
  23 H :    0.109989
  24 H :    0.100914
  25 H :    0.110201
  26 H :    0.110304
  27 H :    0.117829
  28 H :    0.117054
  29 H :    0.204167
  30 H :    0.183216
  31 H :    0.112569
  32 H :    0.109738
  33 H :    0.126221
  34 H :    0.114836
  35 H :    0.120641
  36 H :    0.109011
  37 H :    0.108043
  38 H :    0.150858
  39 H :    0.110150
  40 H :    0.129962
Sum of atomic charges:   -0.0000000

LOEWDIN ATOMIC CHARGES
----------------------
   0 C :   -0.366882
   1 C :   -0.116256
   2 O :   -0.226930
   3 P :    0.575986
   4 S :   -0.297726
   5 O :   -0.250635
   6 C :   -0.117971
   7 C :   -0.371502
   8 S :    0.068283
   9 C :   -0.479298
  10 S :    0.072289
  11 P :    0.561504
  12 S :   -0.286073
  13 O :   -0.236094
  14 C :   -0.110094
  15 C :   -0.367667
  16 O :   -0.246280
  17 C :   -0.113479
  18 C :   -0.376631
  19 H :    0.115255
  20 H :    0.131096
  21 H :    0.129668
  22 H :    0.110704
  23 H :    0.123787
  24 H :    0.116913
  25 H :    0.110842
  26 H :    0.129178
  27 H :    0.117709
  28 H :    0.122561
  29 H :    0.126221
  30 H :    0.133672
  31 H :    0.123704
  32 H :    0.114168
  33 H :    0.128821
  34 H :    0.131739
  35 H :    0.114725
  36 H :    0.107727
  37 H :    0.120664
  38 H :    0.116894
  39 H :    0.129785
  40 H :    0.129625

  Mayer bond orders larger than 0.100000
B(  0-C ,  1-C ) :   1.1658 B(  0-C , 19-H ) :   0.9365 B(  0-C , 20-H ) :   0.9360
B(  0-C , 21-H ) :   0.9416 B(  1-C ,  2-O ) :   0.8989 B(  1-C , 22-H ) :   0.9113
B(  1-C , 23-H ) :   0.9336 B(  2-O ,  3-P ) :   1.1490 B(  3-P ,  4-S ) :   1.6140
B(  3-P ,  5-O ) :   1.0771 B(  3-P ,  8-S ) :   0.9370 B(  4-S ,  8-S ) :   0.1134
B(  4-S , 29-H ) :   0.1136 B(  5-O ,  6-C ) :   0.9215 B(  6-C ,  7-C ) :   1.1630
B(  6-C , 24-H ) :   0.9346 B(  6-C , 25-H ) :   0.9162 B(  7-C , 26-H ) :   0.9374
B(  7-C , 27-H ) :   0.9356 B(  7-C , 28-H ) :   0.9424 B(  8-S ,  9-C ) :   0.9927
B(  9-C , 10-S ) :   1.0020 B(  9-C , 29-H ) :   0.8469 B(  9-C , 30-H ) :   0.9030
B( 10-S , 11-P ) :   0.9291 B( 10-S , 12-S ) :   0.1150 B( 11-P , 12-S ) :   1.6694
B( 11-P , 13-O ) :   1.1351 B( 11-P , 16-O ) :   1.0773 B( 13-O , 14-C ) :   0.9054
B( 14-C , 15-C ) :   1.1681 B( 14-C , 31-H ) :   0.9342 B( 14-C , 32-H ) :   0.9275
B( 15-C , 33-H ) :   0.9433 B( 15-C , 34-H ) :   0.9362 B( 15-C , 35-H ) :   0.9396
B( 16-O , 17-C ) :   0.9107 B( 17-C , 18-C ) :   1.1681 B( 17-C , 36-H ) :   0.9261
B( 17-C , 37-H ) :   0.9331 B( 18-C , 38-H ) :   0.9190 B( 18-C , 39-H ) :   0.9327
B( 18-C , 40-H ) :   0.9399

Dispersion correction           -0.067536381
FINAL SINGLE POINT ENERGY     -2929.507495297344

DIPOLE MOMENT
-------------

Method             : SCF
Type of density    : Electron Density
Multiplicity       :   1
Irrep              :   0
Energy             : -2929.6256035012538632 Eh
Relativity type    :
Basis              : AO
                                X                 Y                 Z
Electronic contribution:      2.700959013      13.160562861       0.297571729
Nuclear contribution   :     -3.813780860     -14.880009279      -0.178240617
                        -----------------------------------------
Total Dipole Moment    :     -1.112821847      -1.719446418       0.119331111
                        -----------------------------------------
Magnitude (a.u.)       :      2.051611163
Magnitude (Debye)      :      5.214781150

Rotational constants in cm-1:             0.013083             0.005081             0.004617
Rotational constants in MHz :           392.233114           152.312701           138.400183

                             ****ORCA TERMINATED NORMALLY****
TOTAL RUN TIME: 0 days 0 hours 0 minutes 21 seconds 551 msec
