                         Program Version 6.0.0  -   RELEASE  -
|  1> ! r2scan-3c def2/J RI DEFGRID2 scfconv6 printgap
|  2> %output
|  3>     printlevel normal
|  4> end
|  5> * xyz 0 1
|  6> C 5.7467512389 -0.2237478642 0.2563084414
|  7> C 4.4160289822 -0.6803669944 -0.30680816
|  8> O 3.376951269 0.0934835206 0.3239712846
|  9> P 1.916717071 0.1884157054 -0.299677252
| 10> S 1.8889092259 0.5973754409 -2.2213860896
| 11> O 1.2309141461 1.2090452995 0.6949405635
| 12> C 1.255655846 2.6331117544 0.4800738794
| 13> C 2.6545011137 3.1986268399 0.5928444851
| 14> S 1.0943900034 -1.6499838238 0.2895806681
| 15> C -0.2062151399 -1.8881260561 -0.9703120234
| 16> S -1.8651628602 -1.9759401526 -0.264214148
| 17> P -2.1153376023 0.0866723778 0.183570797
| 18> S -1.4922664039 1.3341749205 -1.1895359069
| 19> O -1.4293004696 0.3448209314 1.5799526105
| 20> C -1.8455324572 -0.298486267 2.8165302241
| 21> C -0.8307375188 -1.3381122439 3.2465865905
| 22> O -3.6572684101 0.1961894965 0.5560966228
| 23> C -4.6857186274 0.4250859809 -0.4244391937
| 24> C -4.8470537012 -0.7403501967 -1.3784097375
| 25> H 6.5408354445 -0.818558606 -0.1827083752
| 26> H 5.9136964644 0.8241874158 0.0236892085
| 27> H 5.7542363 -0.3508767682 1.3348237632
| 28> H 4.2328149955 -1.7364292451 -0.0908699753
| 29> H 4.3593984478 -0.5214203175 -1.3891690003
| 30> H 0.8254787892 2.8422976527 -0.5054989434
| 31> H 0.5900949581 3.0209935752 1.2530229312
| 32> H 3.2709236795 2.8192855717 -0.2213861275
| 33> H 2.6091696114 4.2812181561 0.5267031949
| 34> H 3.1011194255 2.907752908 1.5400113334
| 35> H -0.0307178235 -2.8466959792 -1.4512625749
| 36> H -0.147715385 -1.0681890149 -1.6914904991
| 37> H -1.9056724727 0.5177382222 3.5382225153
| 38> H -2.8344362651 -0.7371339076 2.6741478158
| 39> H 0.1625027925 -0.897508194 3.2818208698
| 40> H -1.0970618397 -1.7008224922 4.2342852603
| 41> H -0.8127273625 -2.1755056572 2.5532400863
| 42> H -5.5823613711 0.5808794077 0.1772236751
| 43> H -4.4408790056 1.3402750423 -0.9721175759
| 44> H -4.9621973187 -1.6698342643 -0.8266828398
| 45> H -5.7239955245 -0.5754860107 -1.9961933495
| 46> H -3.9735031848 -0.8195779861 -2.0233766999
| 47> *
| 48>
| 49>                          ****END OF INPUT****

CARTESIAN COORDINATES (ANGSTROEM)
---------------------------------
  C      5.746751   -0.223748    0.256308
  C      4.416029   -0.680367   -0.306808
  O      3.376951    0.093484    0.323971
  P      1.916717    0.188416   -0.299677
  S      1.888909    0.597375   -2.221386
  O      1.230914    1.209045    0.694941
  C      1.255656    2.633112    0.480074
  C      2.654501    3.198627    0.592844
  S      1.094390   -1.649984    0.289581
  C     -0.206215   -1.888126   -0.970312
  S     -1.865163   -1.975940   -0.264214
  P     -2.115338    0.086672    0.183571
  S     -1.492266    1.334175   -1.189536
  O     -1.429300    0.344821    1.579953
  C     -1.845532   -0.298486    2.816530
  C     -0.830738   -1.338112    3.246587
  O     -3.657268    0.196189    0.556097
  C     -4.685719    0.425086   -0.424439
  C     -4.847054   -0.740350   -1.378410
  H      6.540835   -0.818559   -0.182708
  H      5.913696    0.824187    0.023689
  H      5.754236   -0.350877    1.334824
  H      4.232815   -1.736429   -0.090870
  H      4.359398   -0.521420   -1.389169
  H      0.825479    2.842298   -0.505499
  H      0.590095    3.020994    1.253023
  H      3.270924    2.819286   -0.221386
  H      2.609170    4.281218    0.526703
  H      3.101119    2.907753    1.540011
  H     -0.030718   -2.846696   -1.451263
  H     -0.147715   -1.068189   -1.691490
  H     -1.905672    0.517738    3.538223
  H     -2.834436   -0.737134    2.674148
  H      0.162503   -0.897508    3.281821
  H     -1.097062   -1.700822    4.234285
  H     -0.812727   -2.175506    2.553240
  H     -5.582361    0.580879    0.177224
  H     -4.440879    1.340275   -0.972118
  H     -4.962197   -1.669834   -0.826683
  H     -5.723996   -0.575486   -1.996193
  H     -3.973503   -0.819578   -2.023377

 Total Charge           Charge          ....    0
 Multiplicity           Mult            ....    1
 Number of Electrons    NEL             ....  202
 Basis Dimension        Dim             ....  539

ORBITAL ENERGIES
----------------

  NO   OCC          E(Eh)            E(eV)
   0   2.0000     -88.575529     -2410.2627
   1   2.0000     -88.571200     -2410.1449
   2   2.0000     -88.514868     -2408.6120
   3   2.0000     -88.511223     -2408.5128
   4   2.0000     -76.911843     -2092.8776
   5   2.0000     -76.906464     -2092.7313
   6   2.0000     -18.992704      -516.8178
   7   2.0000     -18.986505      -516.6491
   8   2.0000     -18.985071      -516.6100
   9   2.0000     -18.979424      -516.4564
  10   2.0000     -10.105273      -274.9785
  11   2.0000     -10.100196      -274.8403
  12   2.0000     -10.099524      -274.8220
  13   2.0000     -10.092409      -274.6284
  14   2.0000     -10.084665      -274.4177
  15   2.0000     -10.029601      -272.9193
  16   2.0000     -10.028876      -272.8996
  17   2.0000     -10.025586      -272.8101
  18   2.0000     -10.019729      -272.6507
  19   2.0000      -7.870113      -214.1567
  20   2.0000      -7.865961      -214.0437
  21   2.0000      -7.809688      -212.5124
  22   2.0000      -7.805929      -212.4101
  23   2.0000      -6.590178      -179.3279
  24   2.0000      -6.584941      -179.1854
  25   2.0000      -5.816946      -158.2871
  26   2.0000      -5.813837      -158.2025
  27   2.0000      -5.812776      -158.1737
  28   2.0000      -5.809751      -158.0914
  29   2.0000      -5.807350      -158.0260
  30   2.0000      -5.803099      -157.9104
  31   2.0000      -5.757480      -156.6690
  32   2.0000      -5.753591      -156.5632
  33   2.0000      -5.749826      -156.4607
  34   2.0000      -5.749680      -156.4567
  35   2.0000      -5.746415      -156.3679
  36   2.0000      -5.745725      -156.3491
  37   2.0000      -4.736085      -128.8754
  38   2.0000      -4.735034      -128.8468
  39   2.0000      -4.733624      -128.8085
  40   2.0000      -4.730280      -128.7175
  41   2.0000      -4.729833      -128.7053
  42   2.0000      -4.728851      -128.6786
  43   2.0000      -1.049246       -28.5514
  44   2.0000      -1.041882       -28.3510
  45   2.0000      -1.007151       -27.4060
  46   2.0000      -1.001818       -27.2609
  47   2.0000      -0.798279       -21.7223
  48   2.0000      -0.755854       -20.5678
  49   2.0000      -0.747022       -20.3275
  50   2.0000      -0.732739       -19.9389
  51   2.0000      -0.725571       -19.7438
  52   2.0000      -0.708521       -19.2798
  53   2.0000      -0.682358       -18.5679
  54   2.0000      -0.660639       -17.9769
  55   2.0000      -0.628356       -17.0984
  56   2.0000      -0.619075       -16.8459
  57   2.0000      -0.606776       -16.5112
  58   2.0000      -0.594005       -16.1637
  59   2.0000      -0.588501       -16.0139
  60   2.0000      -0.526324       -14.3220
  61   2.0000      -0.520099       -14.1526
  62   2.0000      -0.491344       -13.3702
  63   2.0000      -0.486331       -13.2337
  64   2.0000      -0.467597       -12.7240
  65   2.0000      -0.463040       -12.6000
  66   2.0000      -0.459020       -12.4906
  67   2.0000      -0.448915       -12.2156
  68   2.0000      -0.443341       -12.0639
  69   2.0000      -0.433809       -11.8046
  70   2.0000      -0.426369       -11.6021
  71   2.0000      -0.410908       -11.1814
  72   2.0000      -0.404552       -11.0084
  73   2.0000      -0.394378       -10.7316
  74   2.0000      -0.389485       -10.5984
  75   2.0000      -0.385899       -10.5009
  76   2.0000      -0.382780       -10.4160
  77   2.0000      -0.370058       -10.0698
  78   2.0000      -0.368637       -10.0311
  79   2.0000      -0.364389        -9.9155
  80   2.0000      -0.358053        -9.7431
  81   2.0000      -0.355014        -9.6604
  82   2.0000      -0.351083        -9.5534
  83   2.0000      -0.349995        -9.5239
  84   2.0000      -0.344503        -9.3744
  85   2.0000      -0.327832        -8.9208
  86   2.0000      -0.319786        -8.7018
  87   2.0000      -0.314645        -8.5619
  88   2.0000      -0.309578        -8.4240
  89   2.0000      -0.307680        -8.3724
  90   2.0000      -0.290408        -7.9024
  91   2.0000      -0.283680        -7.7193
  92   2.0000      -0.277182        -7.5425
  93   2.0000      -0.275388        -7.4937
  94   2.0000      -0.269736        -7.3399
  95   2.0000      -0.245366        -6.6768
  96   2.0000      -0.231963        -6.3120
  97   2.0000      -0.227208        -6.1826
  98   2.0000      -0.214624        -5.8402
  99   2.0000      -0.204395        -5.5619
 100   2.0000      -0.196607        -5.3500
 101   0.0000      -0.040562        -1.1037
 102   0.0000      -0.029461        -0.8017
 103   0.0000      -0.008472        -0.2305
 104   0.0000       0.014033         0.3819
 105   0.0000       0.016208         0.4410

MULLIKEN ATOMIC CHARGES
-----------------------
   0 C :   -0.442158
   1 C :   -0.159539
   2 O :   -0.279965
   3 P :    0.660373
   4 S :   -0.468421
   5 O :   -0.268350
   6 C :   -0.150959
   7 C :   -0.452292
   8 S :   -0.140330
   9 C :   -0.224883
  10 S :   -0.146856
  11 P :    0.668866
  12 S :   -0.415959
  13 O :   -0.253815
  14 C :   -0.132142
  15 C :   -0.442813
  16 O :   -0.314517
  17 C :   -0.166669
  18 C :   -0.455449
  19 H :    0.145830
  20 H :    0.154769
  21 H :    0.152503
  22 H :    0.150731
  23 H :    0.172674
  24 H :    0.181416
  25 H :    0.154969
  26 H :    0.167780
  27 H :    0.145904
  28 H :    0.153706
  29 H :    0.198089
  30 H :    0.218306
  31 H :    0.151280
  32 H :    0.159947
  33 H :    0.164030
  34 H :    0.141721
  35 H :    0.165228
  36 H :    0.147275
  37 H :    0.175181
  38 H :    0.152900
  39 H :    0.148496
  40 H :    0.183142
Sum of atomic charges:    0.0000000

LOEWDIN ATOMIC CHARGES
----------------------
   0 C :   -0.386910
   1 C :    0.015574
   2 O :   -0.671867
   3 P :    0.365175
   4 S :   -0.131554
   5 O :   -0.663343
   6 C :    0.013125
   7 C :   -0.401562
   8 S :    0.167244
   9 C :   -0.412966
  10 S :    0.131290
  11 P :    0.380637
  12 S :   -0.070180
  13 O :   -0.647864
  14 C :    0.029168
  15 C :   -0.405191
  16 O :   -0.677807
  17 C :    0.021867
  18 C :   -0.409164
  19 H :    0.159236
  20 H :    0.159844
  21 H :    0.159238
  22 H :    0.171165
  23 H :    0.180981
  24 H :    0.184716
  25 H :    0.182743
  26 H :    0.164959
  27 H :    0.158562
  28 H :    0.159997
  29 H :    0.180930
  30 H :    0.203071
  31 H :    0.180410
  32 H :    0.178835
  33 H :    0.164957
  34 H :    0.156076
  35 H :    0.162350
  36 H :    0.179223
  37 H :    0.180867
  38 H :    0.159229
  39 H :    0.159717
  40 H :    0.167223

  Mayer bond orders larger than 0.100000
B(  0-C ,  1-C ) :   0.9543 B(  0-C , 19-H ) :   0.9654 B(  0-C , 20-H ) :   0.9717
B(  0-C , 21-H ) :   0.9721 B(  1-C ,  2-O ) :   0.7888 B(  1-C , 22-H ) :   0.9467
B(  1-C , 23-H ) :   0.9502 B(  2-O ,  3-P ) :   1.0749 B(  3-P ,  4-S ) :   1.7523
B(  3-P ,  5-O ) :   1.1868 B(  3-P ,  8-S ) :   1.1045 B(  5-O ,  6-C ) :   0.8015
B(  6-C ,  7-C ) :   0.9121 B(  6-C , 24-H ) :   0.9626 B(  6-C , 25-H ) :   0.9622
B(  7-C , 26-H ) :   0.9629 B(  7-C , 27-H ) :   0.9613 B(  7-C , 28-H ) :   0.9723
B(  8-S ,  9-C ) :   0.8962 B(  9-C , 10-S ) :   0.9116 B(  9-C , 29-H ) :   0.9132
B(  9-C , 30-H ) :   0.9059 B( 10-S , 11-P ) :   1.0029 B( 11-P , 12-S ) :   1.8324
B( 11-P , 13-O ) :   1.1188 B( 11-P , 16-O ) :   1.0598 B( 13-O , 14-C ) :   0.7422
B( 14-C , 15-C ) :   0.9528 B( 14-C , 31-H ) :   0.9603 B( 14-C , 32-H ) :   0.9755
B( 15-C , 33-H ) :   0.9647 B( 15-C , 34-H ) :   0.9622 B( 15-C , 35-H ) :   0.9620
B( 16-O , 17-C ) :   0.8256 B( 17-C , 18-C ) :   0.9165 B( 17-C , 36-H ) :   0.9613
B( 17-C , 37-H ) :   0.9678 B( 18-C , 38-H ) :   0.9675 B( 18-C , 39-H ) :   0.9571
B( 18-C , 40-H ) :   0.9627

Dispersion correction           -0.022147998
FINAL SINGLE POINT ENERGY     -2932.458664467073

DIPOLE MOMENT
-------------

Method             : SCF
Type of density    : Electron Density
Multiplicity       :   1
Irrep              :   0
Energy             : -2932.4831035274391979 Eh
Relativity type    :
Basis              : AO
                                X                 Y                 Z
Electronic contribution:     -6.033331506      -3.408499295      -8.204979200
Nuclear contribution   :      5.668578706       2.848271524       9.429826846
                        -----------------------------------------
Total Dipole Moment    :     -0.364752801      -0.560227771       1.224847646
                        -----------------------------------------
Magnitude (a.u.)       :      1.395403711
Magnitude (Debye)      :      3.546834362

Rotational constants in cm-1:             0.013339             0.005124             0.004960
Rotational constants in MHz :           399.893930           153.611586           148.683668

                             ****ORCA TERMINATED NORMALLY****
TOTAL RUN TIME: 0 days 0 hours 1 minutes 25 seconds 458 msec
