                         Program Version 6.0.0  -   RELEASE  -
|  1> ! r2scan-3c def2/J RI DEFGRID2 scfconv6 printgap
|  2> %output
|  3>     printlevel normal
|  4> end
|  5> %cpcm
|  6>     smd true
|  7>     smdsolvent "water"
|  8> end
|  9> * xyz 0 1
| 10> C 5.7467512389 -0.2237478642 0.2563084414
| 11> C 4.4160289822 -0.6803669944 -0.30680816
| 12> O 3.376951269 0.0934835206 0.3239712846
| 13> P 1.916717071 0.1884157054 -0.299677252
| 14> S 1.8889092259 0.5973754409 -2.2213860896
| 15> O 1.2309141461 1.2090452995 0.6949405635
| 16> C 1.255655846 2.6331117544 0.4800738794
| 17> C 2.6545011137 3.1986268399 0.5928444851
| 18> S 1.0943900034 -1.6499838238 0.2895806681
| 19> C -0.2062151399 -1.8881260561 -0.9703120234
| 20> S -1.8651628602 -1.9759401526 -0.264214148
| 21> P -2.1153376023 0.0866723778 0.183570797
| 22> S -1.4922664039 1.3341749205 -1.1895359069
| 23> O -1.4293004696 0.3448209314 1.5799526105
| 24> C -1.8455324572 -0.298486267 2.8165302241
| 25> C -0.8307375188 -1.3381122439 3.2465865905
| 26> O -3.6572684101 0.1961894965 0.5560966228
| 27> C -4.6857186274 0.4250859809 -0.4244391937
| 28> C -4.8470537012 -0.7403501967 -1.3784097375
| 29> H 6.5408354445 -0.818558606 -0.1827083752
| 30> H 5.9136964644 0.8241874158 0.0236892085
| 31> H 5.7542363 -0.3508767682 1.3348237632
| 32> H 4.2328149955 -1.7364292451 -0.0908699753
| 33> H 4.3593984478 -0.5214203175 -1.3891690003
| 34> H 0.8254787892 2.8422976527 -0.5054989434
| 35> H 0.5900949581 3.0209935752 1.2530229312
| 36> H 3.2709236795 2.8192855717 -0.2213861275
| 37> H 2.6091696114 4.2812181561 0.5267031949
| 38> H 3.1011194255 2.907752908 1.5400113334
| 39> H -0.0307178235 -2.8466959792 -1.4512625749
| 40> H -0.147715385 -1.0681890149 -1.6914904991
| 41> H -1.9056724727 0.5177382222 3.5382225153
| 42> H -2.8344362651 -0.7371339076 2.6741478158
| 43> H 0.1625027925 -0.897508194 3.2818208698
| 44> H -1.0970618397 -1.7008224922 4.2342852603
| 45> H -0.8127273625 -2.1755056572 2.5532400863
| 46> H -5.5823613711 0.5808794077 0.1772236751
| 47> H -4.4408790056 1.3402750423 -0.9721175759
| 48> H -4.9621973187 -1.6698342643 -0.8266828398
| 49> H -5.7239955245 -0.5754860107 -1.9961933495
| 50> H -3.9735031848 -0.8195779861 -2.0233766999
| 51> *
| 52>
| 53>                          ****END OF INPUT****

CARTESIAN COORDINATES (ANGSTROEM)
---------------------------------
  C      5.746751   -0.223748    0.256308
  C      4.416029   -0.680367   -0.306808
  O      3.376951    0.093484    0.323971
  P      1.916717    0.188416   -0.299677
  S      1.888909    0.597375   -2.221386
  O      1.230914    1.209045    0.694941
  C      1.255656    2.633112    0.480074
  C      2.654501    3.198627    0.592844
  S      1.094390   -1.649984    0.289581
  C     -0.206215   -1.888126   -0.970312
  S     -1.865163   -1.975940   -0.264214
  P     -2.115338    0.086672    0.183571
  S     -1.492266    1.334175   -1.189536
  O     -1.429300    0.344821    1.579953
  C     -1.845532   -0.298486    2.816530
  C     -0.830738   -1.338112    3.246587
  O     -3.657268    0.196189    0.556097
  C     -4.685719    0.425086   -0.424439
  C     -4.847054   -0.740350   -1.378410
  H      6.540835   -0.818559   -0.182708
  H      5.913696    0.824187    0.023689
  H      5.754236   -0.350877    1.334824
  H      4.232815   -1.736429   -0.090870
  H      4.359398   -0.521420   -1.389169
  H      0.825479    2.842298   -0.505499
  H      0.590095    3.020994    1.253023
  H      3.270924    2.819286   -0.221386
  H      2.609170    4.281218    0.526703
  H      3.101119    2.907753    1.540011
  H     -0.030718   -2.846696   -1.451263
  H     -0.147715   -1.068189   -1.691490
  H     -1.905672    0.517738    3.538223
  H     -2.834436   -0.737134    2.674148
  H      0.162503   -0.897508    3.281821
  H     -1.097062   -1.700822    4.234285
  H     -0.812727   -2.175506    2.553240
  H     -5.582361    0.580879    0.177224
  H     -4.440879    1.340275   -0.972118
  H     -4.962197   -1.669834   -0.826683
  H     -5.723996   -0.575486   -1.996193
  H     -3.973503   -0.819578   -2.023377

 Total Charge           Charge          ....    0
 Multiplicity           Mult            ....    1
 Number of Electrons    NEL             ....  202
 Basis Dimension        Dim             ....  539

ORBITAL ENERGIES
----------------

  NO   OCC          E(Eh)            E(eV)
   0   2.0000     -88.578269     -2410.3372
   1   2.0000     -88.577044     -2410.3039
   2   2.0000     -88.524439     -2408.8725
   3   2.0000     -88.523799     -2408.8550
   4   2.0000     -76.917843     -2093.0409
   5   2.0000     -76.916725     -2093.0105
   6   2.0000     -18.994050      -516.8544
   7   2.0000     -18.992122      -516.8019
   8   2.0000     -18.991517      -516.7854
   9   2.0000     -18.990495      -516.7576
  10   2.0000     -10.105061      -274.9727
  11   2.0000     -10.091325      -274.5989
  12   2.0000     -10.090030      -274.5637
  13   2.0000     -10.087898      -274.5057
  14   2.0000     -10.086683      -274.4726
  15   2.0000     -10.019023      -272.6315
  16   2.0000     -10.018371      -272.6137
  17   2.0000     -10.017532      -272.5909
  18   2.0000     -10.016539      -272.5639
  19   2.0000      -7.872760      -214.2287
  20   2.0000      -7.871721      -214.2004
  21   2.0000      -7.819606      -212.7823
  22   2.0000      -7.818846      -212.7616
  23   2.0000      -6.596223      -179.4924
  24   2.0000      -6.595256      -179.4661
  25   2.0000      -5.819622      -158.3600
  26   2.0000      -5.818537      -158.3304
  27   2.0000      -5.816512      -158.2753
  28   2.0000      -5.815511      -158.2481
  29   2.0000      -5.809953      -158.0969
  30   2.0000      -5.808879      -158.0676
  31   2.0000      -5.767291      -156.9360
  32   2.0000      -5.766429      -156.9125
  33   2.0000      -5.759739      -156.7305
  34   2.0000      -5.759641      -156.7278
  35   2.0000      -5.759324      -156.7192
  36   2.0000      -5.758662      -156.7012
  37   2.0000      -4.742081      -129.0386
  38   2.0000      -4.741049      -129.0105
  39   2.0000      -4.740567      -128.9974
  40   2.0000      -4.740149      -128.9860
  41   2.0000      -4.739782      -128.9760
  42   2.0000      -4.739223      -128.9608
  43   2.0000      -1.052181       -28.6313
  44   2.0000      -1.050423       -28.5835
  45   2.0000      -1.010762       -27.5042
  46   2.0000      -1.009122       -27.4596
  47   2.0000      -0.800847       -21.7922
  48   2.0000      -0.755729       -20.5644
  49   2.0000      -0.744329       -20.2542
  50   2.0000      -0.724695       -19.7200
  51   2.0000      -0.723226       -19.6800
  52   2.0000      -0.709965       -19.3191
  53   2.0000      -0.688154       -18.7256
  54   2.0000      -0.669142       -18.2083
  55   2.0000      -0.630335       -17.1523
  56   2.0000      -0.618230       -16.8229
  57   2.0000      -0.602303       -16.3895
  58   2.0000      -0.591501       -16.0956
  59   2.0000      -0.588755       -16.0208
  60   2.0000      -0.524750       -14.2792
  61   2.0000      -0.520315       -14.1585
  62   2.0000      -0.492258       -13.3950
  63   2.0000      -0.486814       -13.2469
  64   2.0000      -0.470621       -12.8062
  65   2.0000      -0.464800       -12.6479
  66   2.0000      -0.455802       -12.4030
  67   2.0000      -0.445971       -12.1355
  68   2.0000      -0.440898       -11.9974
  69   2.0000      -0.435046       -11.8382
  70   2.0000      -0.424761       -11.5583
  71   2.0000      -0.411573       -11.1995
  72   2.0000      -0.403354       -10.9758
  73   2.0000      -0.396026       -10.7764
  74   2.0000      -0.388478       -10.5710
  75   2.0000      -0.385938       -10.5019
  76   2.0000      -0.382688       -10.4135
  77   2.0000      -0.365729        -9.9520
  78   2.0000      -0.361725        -9.8430
  79   2.0000      -0.359299        -9.7770
  80   2.0000      -0.353916        -9.6305
  81   2.0000      -0.352267        -9.5857
  82   2.0000      -0.350063        -9.5257
  83   2.0000      -0.345005        -9.3881
  84   2.0000      -0.343995        -9.3606
  85   2.0000      -0.326337        -8.8801
  86   2.0000      -0.321564        -8.7502
  87   2.0000      -0.311693        -8.4816
  88   2.0000      -0.310042        -8.4367
  89   2.0000      -0.303826        -8.2675
  90   2.0000      -0.296083        -8.0568
  91   2.0000      -0.287411        -7.8209
  92   2.0000      -0.281002        -7.6465
  93   2.0000      -0.276981        -7.5370
  94   2.0000      -0.273624        -7.4457
  95   2.0000      -0.249896        -6.8000
  96   2.0000      -0.240650        -6.5484
  97   2.0000      -0.237252        -6.4560
  98   2.0000      -0.225607        -6.1391
  99   2.0000      -0.214282        -5.8309
 100   2.0000      -0.208762        -5.6807
 101   0.0000      -0.045287        -1.2323
 102   0.0000      -0.036701        -0.9987
 103   0.0000      -0.012356        -0.3362
 104   0.0000       0.007973         0.2169
 105   0.0000       0.013915         0.3787

MULLIKEN ATOMIC CHARGES
-----------------------
   0 C :   -0.484110
   1 C :   -0.150770
   2 O :   -0.307639
   3 P :    0.691286
   4 S :   -0.525328
   5 O :   -0.298071
   6 C :   -0.147536
   7 C :   -0.495891
   8 S :   -0.136190
   9 C :   -0.225754
  10 S :   -0.141392
  11 P :    0.684013
  12 S :   -0.468684
  13 O :   -0.288762
  14 C :   -0.126775
  15 C :   -0.479496
  16 O :   -0.335013
  17 C :   -0.160286
  18 C :   -0.491190
  19 H :    0.169049
  20 H :    0.165560
  21 H :    0.165455
  22 H :    0.170108
  23 H :    0.172504
  24 H :    0.180516
  25 H :    0.177809
  26 H :    0.169305
  27 H :    0.171597
  28 H :    0.169374
  29 H :    0.238972
  30 H :    0.211298
  31 H :    0.176733
  32 H :    0.178485
  33 H :    0.166243
  34 H :    0.167439
  35 H :    0.166520
  36 H :    0.174864
  37 H :    0.178217
  38 H :    0.168898
  39 H :    0.172751
  40 H :    0.175889
Sum of atomic charges:   -0.0000000

LOEWDIN ATOMIC CHARGES
----------------------
   0 C :   -0.390103
   1 C :    0.020285
   2 O :   -0.685340
   3 P :    0.368585
   4 S :   -0.168002
   5 O :   -0.682990
   6 C :    0.013918
   7 C :   -0.403472
   8 S :    0.172171
   9 C :   -0.407583
  10 S :    0.142572
  11 P :    0.382793
  12 S :   -0.108082
  13 O :   -0.670216
  14 C :    0.035129
  15 C :   -0.406608
  16 O :   -0.683850
  17 C :    0.026985
  18 C :   -0.411765
  19 H :    0.168487
  20 H :    0.162222
  21 H :    0.162969
  22 H :    0.178939
  23 H :    0.181268
  24 H :    0.183530
  25 H :    0.190780
  26 H :    0.163256
  27 H :    0.168418
  28 H :    0.164163
  29 H :    0.197273
  30 H :    0.200023
  31 H :    0.190955
  32 H :    0.186469
  33 H :    0.163478
  34 H :    0.166189
  35 H :    0.160743
  36 H :    0.190987
  37 H :    0.181304
  38 H :    0.163604
  39 H :    0.168500
  40 H :    0.162015

  Mayer bond orders larger than 0.100000
B(  0-C ,  1-C ) :   0.9513 B(  0-C , 19-H ) :   0.9589 B(  0-C , 20-H ) :   0.9694
B(  0-C , 21-H ) :   0.9691 B(  1-C ,  2-O ) :   0.7812 B(  1-C , 22-H ) :   0.9377
B(  1-C , 23-H ) :   0.9472 B(  2-O ,  3-P ) :   1.0819 B(  3-P ,  4-S ) :   1.6987
B(  3-P ,  5-O ) :   1.1823 B(  3-P ,  8-S ) :   1.1365 B(  5-O ,  6-C ) :   0.7861
B(  6-C ,  7-C ) :   0.9086 B(  6-C , 24-H ) :   0.9590 B(  6-C , 25-H ) :   0.9502
B(  7-C , 26-H ) :   0.9621 B(  7-C , 27-H ) :   0.9545 B(  7-C , 28-H ) :   0.9706
B(  8-S ,  9-C ) :   0.8890 B(  9-C , 10-S ) :   0.9074 B(  9-C , 29-H ) :   0.8970
B(  9-C , 30-H ) :   0.9105 B( 10-S , 11-P ) :   1.0208 B( 11-P , 12-S ) :   1.8055
B( 11-P , 13-O ) :   1.1196 B( 11-P , 16-O ) :   1.0690 B( 13-O , 14-C ) :   0.7309
B( 14-C , 15-C ) :   0.9424 B( 14-C , 31-H ) :   0.9497 B( 14-C , 32-H ) :   0.9654
B( 15-C , 33-H ) :   0.9651 B( 15-C , 34-H ) :   0.9569 B( 15-C , 35-H ) :   0.9624
B( 16-O , 17-C ) :   0.8145 B( 17-C , 18-C ) :   0.9048 B( 17-C , 36-H ) :   0.9510
B( 17-C , 37-H ) :   0.9662 B( 18-C , 38-H ) :   0.9644 B( 18-C , 39-H ) :   0.9519
B( 18-C , 40-H ) :   0.9651

Dispersion correction           -0.022147998
FINAL SINGLE POINT ENERGY     -2932.467941486130

DIPOLE MOMENT
-------------

Method             : SCF
Type of density    : Electron Density
Multiplicity       :   1
Irrep              :   0
Energy             : -2932.4923805464964062 Eh
Relativity type    :
Basis              : AO
                                X                 Y                 Z
Electronic contribution:     -6.246966560      -3.875646764      -7.792434994
Nuclear contribution   :      5.668578706       2.848271524       9.429826846
                        -----------------------------------------
Total Dipole Moment    :     -0.578387854      -1.027375240       1.637391852
                        -----------------------------------------
Magnitude (a.u.)       :      2.017692858
Magnitude (Debye)      :      5.128567672

Rotational constants in cm-1:             0.013339             0.005124             0.004960
Rotational constants in MHz :           399.893930           153.611586           148.683668

                             ****ORCA TERMINATED NORMALLY****
TOTAL RUN TIME: 0 days 0 hours 1 minutes 49 seconds 688 msec
