                         Program Version 6.0.0  -   RELEASE  -
|  1> ! pbe def2-sv(p) def2/J RI DEFGRID1 loosescf d4 GCP(DFT/SV(P)) printgap
|  2> %output
|  3>     printlevel normal
|  4> end
|  5> * xyz 0 1
|  6> C 4.598970613 -1.6579915235 -0.4652203969
|  7> C 4.6018762428 -0.1588930691 -0.2470540844
|  8> O 3.4380261689 0.2839660764 0.4713827469
|  9> P 1.9865685193 0.3060368941 -0.1834391289
| 10> S 1.995755793 0.7608753346 -2.0967937447
| 11> O 1.2114717256 1.2046347163 0.8654813334
| 12> C 1.6315185714 2.5062152204 1.3218858208
| 13> C 1.7952054283 3.4960290603 0.1876616962
| 14> S 1.1620060535 -1.569717861 0.2870564713
| 15> C -0.0384823343 -1.7639302692 -1.0725764428
| 16> S -1.7347406979 -1.9345443329 -0.4880230108
| 17> P -2.0410795152 0.06239912 0.185911772
| 18> S -1.3621898533 1.4556836452 -1.0112678551
| 19> O -1.4171918969 0.2446151719 1.6227659224
| 20> C -1.8657836172 -0.4124943402 2.8360124533
| 21> C -1.1416357575 -1.723424661 3.0692623964
| 22> O -3.5944928549 0.074909439 0.5201249359
| 23> C -4.6360389221 -0.4293896966 -0.3374759481
| 24> C -4.6197568172 0.2003846612 -1.7141043073
| 25> H 4.4404206014 -2.1770401484 0.4765087749
| 26> H 3.8026319163 -1.9303878826 -1.1560078633
| 27> H 5.5511301738 -1.9594339143 -0.8896368076
| 28> H 4.6369278791 0.3683829696 -1.205956951
| 29> H 5.434352093 0.1564239776 0.3834559299
| 30> H 0.8267406341 2.8063049091 1.9957911502
| 31> H 2.564161841 2.3861411879 1.8785785608
| 32> H 2.6176495075 3.195980035 -0.4607769431
| 33> H 0.8849025735 3.5335325319 -0.4089188889
| 34> H 2.001325223 4.4818797656 0.5921343685
| 35> H 0.190617164 -2.6872154066 -1.5982531998
| 36> H 0.0447073815 -0.8989287941 -1.7373060569
| 37> H -1.6322509788 0.3112452295 3.618794668
| 38> H -2.9458023001 -0.5563856899 2.7784282715
| 39> H -1.4212796034 -2.1069882785 4.045504707
| 40> H -1.4074219548 -2.4565386287 2.3118260673
| 41> H -0.0658421031 -1.5697496725 3.0404840411
| 42> H -4.5244638773 -1.5147279194 -0.4070754359
| 43> H -5.5519181687 -0.1819835143 0.2023214666
| 44> H -4.666149853 1.2841990987 -1.6369433791
| 45> H -3.7034222657 -0.0650957607 -2.2394316371
| 46> H -5.4708385989 -0.157377134 -2.2843767025
| 47> *
| 48>
| 49>                          ****END OF INPUT****

CARTESIAN COORDINATES (ANGSTROEM)
---------------------------------
  C      4.598971   -1.657992   -0.465220
  C      4.601876   -0.158893   -0.247054
  O      3.438026    0.283966    0.471383
  P      1.986569    0.306037   -0.183439
  S      1.995756    0.760875   -2.096794
  O      1.211472    1.204635    0.865481
  C      1.631519    2.506215    1.321886
  C      1.795205    3.496029    0.187662
  S      1.162006   -1.569718    0.287056
  C     -0.038482   -1.763930   -1.072576
  S     -1.734741   -1.934544   -0.488023
  P     -2.041080    0.062399    0.185912
  S     -1.362190    1.455684   -1.011268
  O     -1.417192    0.244615    1.622766
  C     -1.865784   -0.412494    2.836012
  C     -1.141636   -1.723425    3.069262
  O     -3.594493    0.074909    0.520125
  C     -4.636039   -0.429390   -0.337476
  C     -4.619757    0.200385   -1.714104
  H      4.440421   -2.177040    0.476509
  H      3.802632   -1.930388   -1.156008
  H      5.551130   -1.959434   -0.889637
  H      4.636928    0.368383   -1.205957
  H      5.434352    0.156424    0.383456
  H      0.826741    2.806305    1.995791
  H      2.564162    2.386141    1.878579
  H      2.617650    3.195980   -0.460777
  H      0.884903    3.533533   -0.408919
  H      2.001325    4.481880    0.592134
  H      0.190617   -2.687215   -1.598253
  H      0.044707   -0.898929   -1.737306
  H     -1.632251    0.311245    3.618795
  H     -2.945802   -0.556386    2.778428
  H     -1.421280   -2.106988    4.045505
  H     -1.407422   -2.456539    2.311826
  H     -0.065842   -1.569750    3.040484
  H     -4.524464   -1.514728   -0.407075
  H     -5.551918   -0.181984    0.202321
  H     -4.666150    1.284199   -1.636943
  H     -3.703422   -0.065096   -2.239432
  H     -5.470839   -0.157377   -2.284377

 Total Charge           Charge          ....    0
 Multiplicity           Mult            ....    1
 Number of Electrons    NEL             ....  202
 Basis Dimension        Dim             ....  334

ORBITAL ENERGIES
----------------

  NO   OCC          E(Eh)            E(eV)
   0   2.0000     -88.044080     -2395.8012
   1   2.0000     -88.038468     -2395.6485
   2   2.0000     -87.979077     -2394.0324
   3   2.0000     -87.974545     -2393.9091
   4   2.0000     -76.422284     -2079.5561
   5   2.0000     -76.420517     -2079.5080
   6   2.0000     -18.793826      -511.4060
   7   2.0000     -18.790150      -511.3060
   8   2.0000     -18.784412      -511.1498
   9   2.0000     -18.776747      -510.9413
  10   2.0000      -9.958904      -270.9955
  11   2.0000      -9.953535      -270.8494
  12   2.0000      -9.951146      -270.7845
  13   2.0000      -9.948027      -270.6996
  14   2.0000      -9.944143      -270.5939
  15   2.0000      -9.881315      -268.8843
  16   2.0000      -9.880846      -268.8715
  17   2.0000      -9.879651      -268.8390
  18   2.0000      -9.870784      -268.5977
  19   2.0000      -7.689003      -209.2284
  20   2.0000      -7.683629      -209.0822
  21   2.0000      -7.623991      -207.4593
  22   2.0000      -7.619587      -207.3395
  23   2.0000      -6.419301      -174.6780
  24   2.0000      -6.417664      -174.6335
  25   2.0000      -5.716732      -155.5602
  26   2.0000      -5.713353      -155.4682
  27   2.0000      -5.711507      -155.4180
  28   2.0000      -5.708136      -155.3263
  29   2.0000      -5.706310      -155.2766
  30   2.0000      -5.700494      -155.1183
  31   2.0000      -5.652882      -153.8227
  32   2.0000      -5.648681      -153.7084
  33   2.0000      -5.644771      -153.6020
  34   2.0000      -5.644029      -153.5818
  35   2.0000      -5.640118      -153.4754
  36   2.0000      -5.639621      -153.4619
  37   2.0000      -4.642255      -126.3222
  38   2.0000      -4.641338      -126.2972
  39   2.0000      -4.640457      -126.2733
  40   2.0000      -4.639212      -126.2394
  41   2.0000      -4.639161      -126.2380
  42   2.0000      -4.638239      -126.2129
  43   2.0000      -0.985396       -26.8140
  44   2.0000      -0.980497       -26.6807
  45   2.0000      -0.940208       -25.5844
  46   2.0000      -0.935146       -25.4466
  47   2.0000      -0.761337       -20.7170
  48   2.0000      -0.717526       -19.5249
  49   2.0000      -0.706308       -19.2196
  50   2.0000      -0.688092       -18.7239
  51   2.0000      -0.682610       -18.5748
  52   2.0000      -0.671253       -18.2657
  53   2.0000      -0.647469       -17.6185
  54   2.0000      -0.629801       -17.1378
  55   2.0000      -0.592915       -16.1340
  56   2.0000      -0.584988       -15.9183
  57   2.0000      -0.575728       -15.6663
  58   2.0000      -0.569703       -15.5024
  59   2.0000      -0.559328       -15.2201
  60   2.0000      -0.499686       -13.5971
  61   2.0000      -0.489528       -13.3207
  62   2.0000      -0.469433       -12.7739
  63   2.0000      -0.463020       -12.5994
  64   2.0000      -0.449703       -12.2370
  65   2.0000      -0.446918       -12.1613
  66   2.0000      -0.436464       -11.8768
  67   2.0000      -0.430658       -11.7188
  68   2.0000      -0.425780       -11.5861
  69   2.0000      -0.412373       -11.2212
  70   2.0000      -0.409927       -11.1547
  71   2.0000      -0.402399       -10.9498
  72   2.0000      -0.398012       -10.8305
  73   2.0000      -0.384665       -10.4673
  74   2.0000      -0.379332       -10.3222
  75   2.0000      -0.365300        -9.9403
  76   2.0000      -0.353141        -9.6095
  77   2.0000      -0.352367        -9.5884
  78   2.0000      -0.348557        -9.4847
  79   2.0000      -0.343325        -9.3424
  80   2.0000      -0.340954        -9.2778
  81   2.0000      -0.339977        -9.2512
  82   2.0000      -0.337220        -9.1762
  83   2.0000      -0.334067        -9.0904
  84   2.0000      -0.325911        -8.8685
  85   2.0000      -0.316321        -8.6075
  86   2.0000      -0.309423        -8.4198
  87   2.0000      -0.296420        -8.0660
  88   2.0000      -0.291216        -7.9244
  89   2.0000      -0.290541        -7.9060
  90   2.0000      -0.274742        -7.4761
  91   2.0000      -0.271794        -7.3959
  92   2.0000      -0.269049        -7.3212
  93   2.0000      -0.259131        -7.0513
  94   2.0000      -0.254727        -6.9315
  95   2.0000      -0.233260        -6.3473
  96   2.0000      -0.218817        -5.9543
  97   2.0000      -0.209359        -5.6969
  98   2.0000      -0.194483        -5.2921
  99   2.0000      -0.186363        -5.0712
 100   2.0000      -0.179681        -4.8894
 101   0.0000      -0.039705        -1.0804
 102   0.0000      -0.029395        -0.7999
 103   0.0000      -0.010156        -0.2764
 104   0.0000       0.014403         0.3919
 105   0.0000       0.018660         0.5078

MULLIKEN ATOMIC CHARGES
-----------------------
   0 C :   -0.308184
   1 C :   -0.003910
   2 O :   -0.383209
   3 P :    0.625620
   4 S :   -0.315249
   5 O :   -0.351174
   6 C :    0.009836
   7 C :   -0.323060
   8 S :   -0.093201
   9 C :   -0.349048
  10 S :   -0.129979
  11 P :    0.606391
  12 S :   -0.289145
  13 O :   -0.344019
  14 C :   -0.010138
  15 C :   -0.302353
  16 O :   -0.384117
  17 C :   -0.014797
  18 C :   -0.305550
  19 H :    0.114430
  20 H :    0.121204
  21 H :    0.110817
  22 H :    0.109887
  23 H :    0.100828
  24 H :    0.103508
  25 H :    0.100689
  26 H :    0.121293
  27 H :    0.138244
  28 H :    0.104170
  29 H :    0.180500
  30 H :    0.211608
  31 H :    0.105741
  32 H :    0.103424
  33 H :    0.104573
  34 H :    0.119529
  35 H :    0.128522
  36 H :    0.113925
  37 H :    0.108328
  38 H :    0.126445
  39 H :    0.127843
  40 H :    0.109779
Sum of atomic charges:    0.0000000

LOEWDIN ATOMIC CHARGES
----------------------
   0 C :   -0.368267
   1 C :   -0.122071
   2 O :   -0.248514
   3 P :    0.572210
   4 S :   -0.305096
   5 O :   -0.231147
   6 C :   -0.108184
   7 C :   -0.370218
   8 S :    0.091519
   9 C :   -0.478716
  10 S :    0.064718
  11 P :    0.561827
  12 S :   -0.290394
  13 O :   -0.228623
  14 C :   -0.110578
  15 C :   -0.369219
  16 O :   -0.246721
  17 C :   -0.115394
  18 C :   -0.369005
  19 H :    0.123380
  20 H :    0.120003
  21 H :    0.129798
  22 H :    0.108795
  23 H :    0.116192
  24 H :    0.119796
  25 H :    0.108802
  26 H :    0.118817
  27 H :    0.131131
  28 H :    0.126235
  29 H :    0.136384
  30 H :    0.126863
  31 H :    0.119994
  32 H :    0.109062
  33 H :    0.126792
  34 H :    0.114724
  35 H :    0.124861
  36 H :    0.107007
  37 H :    0.120678
  38 H :    0.130787
  39 H :    0.122421
  40 H :    0.129352

  Mayer bond orders larger than 0.100000
B(  0-C ,  1-C ) :   1.1673 B(  0-C , 19-H ) :   0.9455 B(  0-C , 20-H ) :   0.9364
B(  0-C , 21-H ) :   0.9386 B(  1-C ,  2-O ) :   0.9120 B(  1-C , 22-H ) :   0.9110
B(  1-C , 23-H ) :   0.9332 B(  2-O ,  3-P ) :   1.0812 B(  3-P ,  4-S ) :   1.5976
B(  3-P ,  5-O ) :   1.1430 B(  3-P ,  8-S ) :   0.9627 B(  4-S ,  8-S ) :   0.1187
B(  5-O ,  6-C ) :   0.9091 B(  6-C ,  7-C ) :   1.1664 B(  6-C , 24-H ) :   0.9323
B(  6-C , 25-H ) :   0.9320 B(  7-C , 26-H ) :   0.9362 B(  7-C , 27-H ) :   0.9392
B(  7-C , 28-H ) :   0.9360 B(  8-S ,  9-C ) :   0.9982 B(  9-C , 10-S ) :   1.0087
B(  9-C , 29-H ) :   0.9111 B(  9-C , 30-H ) :   0.8435 B( 10-S , 11-P ) :   0.9218
B( 10-S , 12-S ) :   0.1069 B( 11-P , 12-S ) :   1.6673 B( 11-P , 13-O ) :   1.1391
B( 11-P , 16-O ) :   1.0763 B( 13-O , 14-C ) :   0.9034 B( 14-C , 15-C ) :   1.1690
B( 14-C , 31-H ) :   0.9353 B( 14-C , 32-H ) :   0.9206 B( 15-C , 33-H ) :   0.9370
B( 15-C , 34-H ) :   0.9347 B( 15-C , 35-H ) :   0.9398 B( 16-O , 17-C ) :   0.9132
B( 17-C , 18-C ) :   1.1674 B( 17-C , 36-H ) :   0.9254 B( 17-C , 37-H ) :   0.9333
B( 18-C , 38-H ) :   0.9431 B( 18-C , 39-H ) :   0.9315 B( 18-C , 40-H ) :   0.9348

Dispersion correction           -0.068737339
FINAL SINGLE POINT ENERGY     -2929.512110897970

DIPOLE MOMENT
-------------

Method             : SCF
Type of density    : Electron Density
Multiplicity       :   1
Irrep              :   0
Energy             : -2929.6291700944962031 Eh
Relativity type    :
Basis              : AO
                                X                 Y                 Z
Electronic contribution:     -1.805210490      -0.738506812      -5.806075416
Nuclear contribution   :      1.548451082      -0.019122063       6.992964997
                        -----------------------------------------
Total Dipole Moment    :     -0.256759408      -0.757628875       1.186889582
                        -----------------------------------------
Magnitude (a.u.)       :      1.431304924
Magnitude (Debye)      :      3.638087993

Rotational constants in cm-1:             0.012603             0.005504             0.005240
Rotational constants in MHz :           377.834638           165.005117           157.099442

                             ****ORCA TERMINATED NORMALLY****
TOTAL RUN TIME: 0 days 0 hours 0 minutes 21 seconds 201 msec
