                         Program Version 6.0.0  -   RELEASE  -
|  1> ! r2scan-3c def2/J RI DEFGRID2 scfconv6 printgap
|  2> %output
|  3>     printlevel normal
|  4> end
|  5> * xyz 0 1
|  6> C 0.7232681081 -0.6336712042 0.004520975
|  7> C -0.6094838568 0.0298595144 0.4134501976
|  8> F -1.165701653 -0.6922099013 1.4100373261
|  9> Cl -1.7142073444 0.0369449574 -0.9645528977
| 10> Cl -0.2991059273 1.6649690393 1.0044134748
| 11> F 1.5478296787 -0.702074595 1.0596037455
| 12> F 0.5089789637 -1.8988028901 -0.3841716161
| 13> Cl 1.4972420042 0.2673339504 -1.2990152173
| 14> *
| 15>
| 16>                          ****END OF INPUT****

CARTESIAN COORDINATES (ANGSTROEM)
---------------------------------
  C      0.723268   -0.633671    0.004521
  C     -0.609484    0.029860    0.413450
  F     -1.165702   -0.692210    1.410037
  Cl    -1.714207    0.036945   -0.964553
  Cl    -0.299106    1.664969    1.004413
  F      1.547830   -0.702075    1.059604
  F      0.508979   -1.898803   -0.384172
  Cl     1.497242    0.267334   -1.299015

 Total Charge           Charge          ....    0
 Multiplicity           Mult            ....    1
 Number of Electrons    NEL             ....   90
 Basis Dimension        Dim             ....  191

ORBITAL ENERGIES
----------------

  NO   OCC          E(Eh)            E(eV)
   0   2.0000    -101.256974     -2755.3423
   1   2.0000    -101.256965     -2755.3421
   2   2.0000    -101.252806     -2755.2289
   3   2.0000     -24.552137      -668.0976
   4   2.0000     -24.549978      -668.0389
   5   2.0000     -24.549946      -668.0380
   6   2.0000     -10.302281      -280.3393
   7   2.0000     -10.281000      -279.7602
   8   2.0000      -9.413099      -256.1434
   9   2.0000      -9.413090      -256.1432
  10   2.0000      -9.409336      -256.0410
  11   2.0000      -7.160121      -194.8368
  12   2.0000      -7.160115      -194.8366
  13   2.0000      -7.156105      -194.7275
  14   2.0000      -7.148720      -194.5266
  15   2.0000      -7.148708      -194.5262
  16   2.0000      -7.148691      -194.5258
  17   2.0000      -7.148682      -194.5255
  18   2.0000      -7.145047      -194.4266
  19   2.0000      -7.144994      -194.4252
  20   2.0000      -1.284447       -34.9516
  21   2.0000      -1.246166       -33.9099
  22   2.0000      -1.215437       -33.0737
  23   2.0000      -0.913494       -24.8574
  24   2.0000      -0.854513       -23.2525
  25   2.0000      -0.829358       -22.5680
  26   2.0000      -0.726442       -19.7675
  27   2.0000      -0.635965       -17.3055
  28   2.0000      -0.582355       -15.8467
  29   2.0000      -0.576447       -15.6859
  30   2.0000      -0.548211       -14.9176
  31   2.0000      -0.512920       -13.9573
  32   2.0000      -0.510688       -13.8965
  33   2.0000      -0.453156       -12.3310
  34   2.0000      -0.433702       -11.8016
  35   2.0000      -0.416622       -11.3369
  36   2.0000      -0.414502       -11.2792
  37   2.0000      -0.398343       -10.8395
  38   2.0000      -0.379893       -10.3374
  39   2.0000      -0.354498        -9.6464
  40   2.0000      -0.338183        -9.2024
  41   2.0000      -0.329419        -8.9639
  42   2.0000      -0.315519        -8.5857
  43   2.0000      -0.310324        -8.4443
  44   2.0000      -0.308417        -8.3925
  45   0.0000      -0.065306        -1.7771
  46   0.0000      -0.036940        -1.0052
  47   0.0000      -0.033777        -0.9191
  48   0.0000       0.029374         0.7993
  49   0.0000       0.079172         2.1544

MULLIKEN ATOMIC CHARGES
-----------------------
   0 C :    0.352975
   1 C :    0.249404
   2 F :   -0.141130
   3 Cl:   -0.046191
   4 Cl:   -0.046187
   5 F :   -0.157221
   6 F :   -0.157159
   7 Cl:   -0.054491
Sum of atomic charges:   -0.0000000

LOEWDIN ATOMIC CHARGES
----------------------
   0 C :    0.199264
   1 C :   -0.071352
   2 F :   -0.270078
   3 Cl:    0.195334
   4 Cl:    0.195422
   5 F :   -0.227337
   6 F :   -0.227236
   7 Cl:    0.205984

  Mayer bond orders larger than 0.100000
B(  0-C ,  1-C ) :   0.9173 B(  0-C ,  5-F ) :   0.9885 B(  0-C ,  6-F ) :   0.9886
B(  0-C ,  7-Cl) :   1.1399 B(  1-C ,  2-F ) :   0.9315 B(  1-C ,  3-Cl) :   1.0947
B(  1-C ,  4-Cl) :   1.0947

Dispersion correction           -0.003059460
FINAL SINGLE POINT ENERGY     -1756.245152568188

DIPOLE MOMENT
-------------

Method             : SCF
Type of density    : Electron Density
Multiplicity       :   1
Irrep              :   0
Energy             : -1756.2570550374573486 Eh
Relativity type    :
Basis              : AO
                                X                 Y                 Z
Electronic contribution:      0.086827407      -0.183354145       0.089357188
Nuclear contribution   :     -0.132979155       0.408064334      -0.242240543
                        -----------------------------------------
Total Dipole Moment    :     -0.046151748       0.224710189      -0.152883355
                        -----------------------------------------
Magnitude (a.u.)       :      0.275677299
Magnitude (Debye)      :      0.700716006

Rotational constants in cm-1:             0.046816             0.036319             0.034139
Rotational constants in MHz :          1403.519636          1088.807690          1023.453905

                             ****ORCA TERMINATED NORMALLY****
TOTAL RUN TIME: 0 days 0 hours 0 minutes 15 seconds 393 msec
