                         Program Version 6.0.0  -   RELEASE  -
|  1> ! r2scan-3c def2/J RI DEFGRID2 scfconv6 printgap
|  2> %output
|  3>     printlevel normal
|  4> end
|  5> %cpcm
|  6>     smd true
|  7>     smdsolvent "water"
|  8> end
|  9> * xyz 0 1
| 10> C 0.7232681081 -0.6336712042 0.004520975
| 11> C -0.6094838568 0.0298595144 0.4134501976
| 12> F -1.165701653 -0.6922099013 1.4100373261
| 13> Cl -1.7142073444 0.0369449574 -0.9645528977
| 14> Cl -0.2991059273 1.6649690393 1.0044134748
| 15> F 1.5478296787 -0.702074595 1.0596037455
| 16> F 0.5089789637 -1.8988028901 -0.3841716161
| 17> Cl 1.4972420042 0.2673339504 -1.2990152173
| 18> *
| 19>
| 20>                          ****END OF INPUT****

CARTESIAN COORDINATES (ANGSTROEM)
---------------------------------
  C      0.723268   -0.633671    0.004521
  C     -0.609484    0.029860    0.413450
  F     -1.165702   -0.692210    1.410037
  Cl    -1.714207    0.036945   -0.964553
  Cl    -0.299106    1.664969    1.004413
  F      1.547830   -0.702075    1.059604
  F      0.508979   -1.898803   -0.384172
  Cl     1.497242    0.267334   -1.299015

 Total Charge           Charge          ....    0
 Multiplicity           Mult            ....    1
 Number of Electrons    NEL             ....   90
 Basis Dimension        Dim             ....  191

ORBITAL ENERGIES
----------------

  NO   OCC          E(Eh)            E(eV)
   0   2.0000    -101.256568     -2755.3313
   1   2.0000    -101.256565     -2755.3312
   2   2.0000    -101.252937     -2755.2325
   3   2.0000     -24.552105      -668.0967
   4   2.0000     -24.550568      -668.0549
   5   2.0000     -24.550529      -668.0539
   6   2.0000     -10.302292      -280.3396
   7   2.0000     -10.280379      -279.7433
   8   2.0000      -9.412641      -256.1310
   9   2.0000      -9.412638      -256.1309
  10   2.0000      -9.409412      -256.0431
  11   2.0000      -7.159665      -194.8244
  12   2.0000      -7.159659      -194.8242
  13   2.0000      -7.156182      -194.7296
  14   2.0000      -7.148266      -194.5142
  15   2.0000      -7.148265      -194.5142
  16   2.0000      -7.148240      -194.5135
  17   2.0000      -7.148237      -194.5134
  18   2.0000      -7.145121      -194.4286
  19   2.0000      -7.145083      -194.4276
  20   2.0000      -1.284925       -34.9646
  21   2.0000      -1.246196       -33.9107
  22   2.0000      -1.216086       -33.0914
  23   2.0000      -0.913158       -24.8483
  24   2.0000      -0.854425       -23.2501
  25   2.0000      -0.828814       -22.5532
  26   2.0000      -0.726401       -19.7664
  27   2.0000      -0.636236       -17.3129
  28   2.0000      -0.582527       -15.8514
  29   2.0000      -0.577135       -15.7046
  30   2.0000      -0.548002       -14.9119
  31   2.0000      -0.512695       -13.9511
  32   2.0000      -0.510352       -13.8874
  33   2.0000      -0.453569       -12.3422
  34   2.0000      -0.434342       -11.8190
  35   2.0000      -0.416802       -11.3417
  36   2.0000      -0.415103       -11.2955
  37   2.0000      -0.398222       -10.8362
  38   2.0000      -0.379848       -10.3362
  39   2.0000      -0.354327        -9.6417
  40   2.0000      -0.338179        -9.2023
  41   2.0000      -0.329106        -8.9554
  42   2.0000      -0.315383        -8.5820
  43   2.0000      -0.310150        -8.4396
  44   2.0000      -0.308052        -8.3825
  45   0.0000      -0.064237        -1.7480
  46   0.0000      -0.036084        -0.9819
  47   0.0000      -0.033048        -0.8993
  48   0.0000       0.029585         0.8051
  49   0.0000       0.079112         2.1527

MULLIKEN ATOMIC CHARGES
-----------------------
   0 C :    0.352051
   1 C :    0.247669
   2 F :   -0.142487
   3 Cl:   -0.043806
   4 Cl:   -0.043829
   5 F :   -0.158804
   6 F :   -0.158748
   7 Cl:   -0.052048
Sum of atomic charges:   -0.0000000

LOEWDIN ATOMIC CHARGES
----------------------
   0 C :    0.198957
   1 C :   -0.072175
   2 F :   -0.271570
   3 Cl:    0.197150
   4 Cl:    0.197253
   5 F :   -0.228757
   6 F :   -0.228666
   7 Cl:    0.207809

  Mayer bond orders larger than 0.100000
B(  0-C ,  1-C ) :   0.9170 B(  0-C ,  5-F ) :   0.9874 B(  0-C ,  6-F ) :   0.9874
B(  0-C ,  7-Cl) :   1.1426 B(  1-C ,  2-F ) :   0.9306 B(  1-C ,  3-Cl) :   1.0960
B(  1-C ,  4-Cl) :   1.0958

Dispersion correction           -0.003059460
FINAL SINGLE POINT ENERGY     -1756.240495273239

DIPOLE MOMENT
-------------

Method             : SCF
Type of density    : Electron Density
Multiplicity       :   1
Irrep              :   0
Energy             : -1756.2523977425082649 Eh
Relativity type    :
Basis              : AO
                                X                 Y                 Z
Electronic contribution:      0.080578768      -0.152623695       0.068849678
Nuclear contribution   :     -0.132979155       0.408064334      -0.242240543
                        -----------------------------------------
Total Dipole Moment    :     -0.052400387       0.255440639      -0.173390865
                        -----------------------------------------
Magnitude (a.u.)       :      0.313145513
Magnitude (Debye)      :      0.795952640

Rotational constants in cm-1:             0.046816             0.036319             0.034139
Rotational constants in MHz :          1403.519636          1088.807690          1023.453905

                             ****ORCA TERMINATED NORMALLY****
TOTAL RUN TIME: 0 days 0 hours 0 minutes 18 seconds 165 msec
