                         Program Version 6.0.0  -   RELEASE  -
|  1> ! pbe def2-sv(p) def2/J RI DEFGRID1 loosescf d4 GCP(DFT/SV(P)) printgap
|  2> %output
|  3>     printlevel normal
|  4> end
|  5> * xyz 0 1
|  6> C 4.0562301424 -1.7828260375 1.0412115056
|  7> C 4.0101380244 -0.3762082221 0.4784143869
|  8> O 2.659014155 0.0672652418 0.2650214043
|  9> P 1.8249132966 -0.3564447468 -1.0243881063
| 10> S 2.8714307762 -0.4884903252 -2.6740903836
| 11> O 0.6599354392 0.7337315562 -1.0550878799
| 12> C 0.8432707701 1.9802293301 -1.7601057467
| 13> C 1.8566861829 2.8742574687 -1.0793756458
| 14> S 0.7629375017 -2.1031236737 -0.5489790636
| 15> C 0.2055977265 -1.837010775 1.185971245
| 16> S -0.0111017349 -0.1218898098 1.6958460604
| 17> P -1.8066348617 0.3823218484 0.6939359246
| 18> S -2.1114528847 2.2717751651 0.2775575701
| 19> O -2.9641198125 -0.2755597869 1.581913448
| 20> C -3.6025736996 0.4312084673 2.6541007214
| 21> C -2.6666131737 0.6585496643 3.8246026873
| 22> O -1.7772492157 -0.6418077731 -0.5147357664
| 23> C -2.510820164 -0.4088439004 -1.7297301739
| 24> C -4.002570986 -0.5638828355 -1.5223848388
| 25> H 3.6259011855 -2.4855309923 0.3287237071
| 26> H 5.0897994392 -2.058722857 1.2244755605
| 27> H 3.5030012537 -1.8318427908 1.975266228
| 28> H 4.5487316455 -0.3212133225 -0.4738752276
| 29> H 4.4205144416 0.3507145038 1.1805774809
| 30> H 1.1483925911 1.7513108247 -2.7862245411
| 31> H -0.1500212672 2.4336178007 -1.7573279804
| 32> H 1.8703601509 3.8383419493 -1.5779729645
| 33> H 1.5882784994 3.0126646506 -0.0345890995
| 34> H 2.8481358853 2.4279407626 -1.1385495779
| 35> H 0.9578855868 -2.2494781835 1.8536659125
| 36> H -0.7351182704 -2.3758296704 1.2695916627
| 37> H -3.9702353754 1.387525896 2.2674445994
| 38> H -4.4447135241 -0.2058023901 2.9281140738
| 39> H -3.2144548942 1.1259948479 4.6364974014
| 40> H -2.2483358268 -0.2843301392 4.1666400365
| 41> H -1.8501532121 1.3156472585 3.5244673897
| 42> H -2.2715718272 0.59498102 -2.0958795082
| 43> H -2.1144351201 -1.1551491194 -2.4210918582
| 44> H -4.220696746 -1.5305859489 -1.0766599888
| 45> H -4.3677338836 0.2216170098 -0.8621353238
| 46> H -4.5072909412 -0.483586142 -2.4799523195
| 47> *
| 48>
| 49>                          ****END OF INPUT****

CARTESIAN COORDINATES (ANGSTROEM)
---------------------------------
  C      4.056230   -1.782826    1.041212
  C      4.010138   -0.376208    0.478414
  O      2.659014    0.067265    0.265021
  P      1.824913   -0.356445   -1.024388
  S      2.871431   -0.488490   -2.674090
  O      0.659935    0.733732   -1.055088
  C      0.843271    1.980229   -1.760106
  C      1.856686    2.874257   -1.079376
  S      0.762938   -2.103124   -0.548979
  C      0.205598   -1.837011    1.185971
  S     -0.011102   -0.121890    1.695846
  P     -1.806635    0.382322    0.693936
  S     -2.111453    2.271775    0.277558
  O     -2.964120   -0.275560    1.581913
  C     -3.602574    0.431208    2.654101
  C     -2.666613    0.658550    3.824603
  O     -1.777249   -0.641808   -0.514736
  C     -2.510820   -0.408844   -1.729730
  C     -4.002571   -0.563883   -1.522385
  H      3.625901   -2.485531    0.328724
  H      5.089799   -2.058723    1.224476
  H      3.503001   -1.831843    1.975266
  H      4.548732   -0.321213   -0.473875
  H      4.420514    0.350715    1.180577
  H      1.148393    1.751311   -2.786225
  H     -0.150021    2.433618   -1.757328
  H      1.870360    3.838342   -1.577973
  H      1.588278    3.012665   -0.034589
  H      2.848136    2.427941   -1.138550
  H      0.957886   -2.249478    1.853666
  H     -0.735118   -2.375830    1.269592
  H     -3.970235    1.387526    2.267445
  H     -4.444714   -0.205802    2.928114
  H     -3.214455    1.125995    4.636497
  H     -2.248336   -0.284330    4.166640
  H     -1.850153    1.315647    3.524467
  H     -2.271572    0.594981   -2.095880
  H     -2.114435   -1.155149   -2.421092
  H     -4.220697   -1.530586   -1.076660
  H     -4.367734    0.221617   -0.862135
  H     -4.507291   -0.483586   -2.479952

 Total Charge           Charge          ....    0
 Multiplicity           Mult            ....    1
 Number of Electrons    NEL             ....  202
 Basis Dimension        Dim             ....  334

ORBITAL ENERGIES
----------------

  NO   OCC          E(Eh)            E(eV)
   0   2.0000     -88.046152     -2395.8576
   1   2.0000     -88.040094     -2395.6928
   2   2.0000     -87.994430     -2394.4502
   3   2.0000     -87.982736     -2394.1320
   4   2.0000     -76.430189     -2079.7712
   5   2.0000     -76.423419     -2079.5870
   6   2.0000     -18.791916      -511.3540
   7   2.0000     -18.791417      -511.3405
   8   2.0000     -18.790985      -511.3287
   9   2.0000     -18.782439      -511.0961
  10   2.0000      -9.965136      -271.1651
  11   2.0000      -9.953159      -270.8392
  12   2.0000      -9.951887      -270.8046
  13   2.0000      -9.951284      -270.7882
  14   2.0000      -9.937280      -270.4071
  15   2.0000      -9.887765      -269.0598
  16   2.0000      -9.886773      -269.0328
  17   2.0000      -9.884058      -268.9589
  18   2.0000      -9.872878      -268.6547
  19   2.0000      -7.691220      -209.2887
  20   2.0000      -7.685116      -209.1227
  21   2.0000      -7.639319      -207.8764
  22   2.0000      -7.627902      -207.5658
  23   2.0000      -6.427493      -174.9010
  24   2.0000      -6.420906      -174.7217
  25   2.0000      -5.719695      -155.6408
  26   2.0000      -5.715636      -155.5304
  27   2.0000      -5.713697      -155.4776
  28   2.0000      -5.709317      -155.3584
  29   2.0000      -5.707535      -155.3099
  30   2.0000      -5.701675      -155.1505
  31   2.0000      -5.668199      -154.2395
  32   2.0000      -5.660223      -154.0225
  33   2.0000      -5.659244      -153.9958
  34   2.0000      -5.656805      -153.9295
  35   2.0000      -5.648473      -153.7028
  36   2.0000      -5.648117      -153.6931
  37   2.0000      -4.649889      -126.5299
  38   2.0000      -4.649401      -126.5166
  39   2.0000      -4.648073      -126.4805
  40   2.0000      -4.643223      -126.3485
  41   2.0000      -4.642870      -126.3389
  42   2.0000      -4.641443      -126.3001
  43   2.0000      -0.988280       -26.8925
  44   2.0000      -0.980734       -26.6871
  45   2.0000      -0.946303       -25.7502
  46   2.0000      -0.939814       -25.5737
  47   2.0000      -0.764492       -20.8029
  48   2.0000      -0.720226       -19.5984
  49   2.0000      -0.705844       -19.2070
  50   2.0000      -0.687509       -18.7081
  51   2.0000      -0.684428       -18.6242
  52   2.0000      -0.673504       -18.3270
  53   2.0000      -0.657640       -17.8953
  54   2.0000      -0.637798       -17.3554
  55   2.0000      -0.601635       -16.3713
  56   2.0000      -0.595251       -16.1976
  57   2.0000      -0.572526       -15.5792
  58   2.0000      -0.571842       -15.5606
  59   2.0000      -0.561868       -15.2892
  60   2.0000      -0.496509       -13.5107
  61   2.0000      -0.489548       -13.3213
  62   2.0000      -0.474607       -12.9147
  63   2.0000      -0.469050       -12.7635
  64   2.0000      -0.460698       -12.5362
  65   2.0000      -0.442316       -12.0360
  66   2.0000      -0.441317       -12.0088
  67   2.0000      -0.433963       -11.8087
  68   2.0000      -0.424738       -11.5577
  69   2.0000      -0.418801       -11.3961
  70   2.0000      -0.411380       -11.1942
  71   2.0000      -0.396579       -10.7915
  72   2.0000      -0.394507       -10.7351
  73   2.0000      -0.393303       -10.7023
  74   2.0000      -0.384179       -10.4540
  75   2.0000      -0.374977       -10.2036
  76   2.0000      -0.366978        -9.9860
  77   2.0000      -0.358611        -9.7583
  78   2.0000      -0.351854        -9.5744
  79   2.0000      -0.350159        -9.5283
  80   2.0000      -0.349241        -9.5033
  81   2.0000      -0.345155        -9.3921
  82   2.0000      -0.340620        -9.2687
  83   2.0000      -0.334852        -9.1118
  84   2.0000      -0.328356        -8.9350
  85   2.0000      -0.320853        -8.7309
  86   2.0000      -0.312233        -8.4963
  87   2.0000      -0.297837        -8.1046
  88   2.0000      -0.294582        -8.0160
  89   2.0000      -0.290419        -7.9027
  90   2.0000      -0.282638        -7.6910
  91   2.0000      -0.271729        -7.3941
  92   2.0000      -0.265216        -7.2169
  93   2.0000      -0.263780        -7.1778
  94   2.0000      -0.259329        -7.0567
  95   2.0000      -0.225259        -6.1296
  96   2.0000      -0.216985        -5.9045
  97   2.0000      -0.212990        -5.7958
  98   2.0000      -0.207221        -5.6388
  99   2.0000      -0.201902        -5.4940
 100   2.0000      -0.197684        -5.3793
 101   0.0000      -0.045202        -1.2300
 102   0.0000      -0.032983        -0.8975
 103   0.0000      -0.018853        -0.5130
 104   0.0000      -0.001301        -0.0354
 105   0.0000       0.017929         0.4879

MULLIKEN ATOMIC CHARGES
-----------------------
   0 C :   -0.319428
   1 C :   -0.010214
   2 O :   -0.375046
   3 P :    0.628953
   4 S :   -0.327778
   5 O :   -0.378183
   6 C :   -0.016678
   7 C :   -0.300917
   8 S :   -0.086509
   9 C :   -0.325355
  10 S :   -0.080823
  11 P :    0.638699
  12 S :   -0.324414
  13 O :   -0.374697
  14 C :   -0.007817
  15 C :   -0.308324
  16 O :   -0.371732
  17 C :   -0.005103
  18 C :   -0.303511
  19 H :    0.129811
  20 H :    0.114349
  21 H :    0.113842
  22 H :    0.112656
  23 H :    0.106213
  24 H :    0.107547
  25 H :    0.116005
  26 H :    0.107659
  27 H :    0.117845
  28 H :    0.114728
  29 H :    0.188697
  30 H :    0.183914
  31 H :    0.109978
  32 H :    0.104165
  33 H :    0.113146
  34 H :    0.114005
  35 H :    0.122456
  36 H :    0.114451
  37 H :    0.108865
  38 H :    0.115122
  39 H :    0.120764
  40 H :    0.112663
Sum of atomic charges:   -0.0000000

LOEWDIN ATOMIC CHARGES
----------------------
   0 C :   -0.366347
   1 C :   -0.122568
   2 O :   -0.243914
   3 P :    0.565197
   4 S :   -0.324320
   5 O :   -0.246400
   6 C :   -0.127554
   7 C :   -0.363900
   8 S :    0.087399
   9 C :   -0.468094
  10 S :    0.114140
  11 P :    0.583385
  12 S :   -0.305434
  13 O :   -0.252549
  14 C :   -0.122755
  15 C :   -0.367224
  16 O :   -0.234782
  17 C :   -0.114379
  18 C :   -0.363940
  19 H :    0.123245
  20 H :    0.132262
  21 H :    0.120156
  22 H :    0.109133
  23 H :    0.118723
  24 H :    0.107008
  25 H :    0.109479
  26 H :    0.129086
  27 H :    0.126956
  28 H :    0.118362
  29 H :    0.134277
  30 H :    0.136148
  31 H :    0.108414
  32 H :    0.117978
  33 H :    0.130687
  34 H :    0.123110
  35 H :    0.118567
  36 H :    0.111655
  37 H :    0.120185
  38 H :    0.125954
  39 H :    0.121971
  40 H :    0.130682

  Mayer bond orders larger than 0.100000
B(  0-C ,  1-C ) :   1.1646 B(  0-C , 19-H ) :   0.9363 B(  0-C , 20-H ) :   0.9384
B(  0-C , 21-H ) :   0.9420 B(  1-C ,  2-O ) :   0.9131 B(  1-C , 22-H ) :   0.9070
B(  1-C , 23-H ) :   0.9331 B(  2-O ,  3-P ) :   1.0683 B(  3-P ,  4-S ) :   1.6294
B(  3-P ,  5-O ) :   1.0949 B(  3-P ,  8-S ) :   1.0034 B(  5-O ,  6-C ) :   0.9009
B(  6-C ,  7-C ) :   1.1693 B(  6-C , 24-H ) :   0.9159 B(  6-C , 25-H ) :   0.9098
B(  7-C , 26-H ) :   0.9387 B(  7-C , 27-H ) :   0.9443 B(  7-C , 28-H ) :   0.9374
B(  8-S ,  9-C ) :   0.9490 B(  9-C , 10-S ) :   1.0264 B(  9-C , 29-H ) :   0.9016
B(  9-C , 30-H ) :   0.9052 B( 10-S , 11-P ) :   0.9546 B( 11-P , 12-S ) :   1.6136
B( 11-P , 13-O ) :   1.0742 B( 11-P , 16-O ) :   1.1170 B( 13-O , 14-C ) :   0.9207
B( 14-C , 15-C ) :   1.1638 B( 14-C , 31-H ) :   0.9147 B( 14-C , 32-H ) :   0.9336
B( 15-C , 33-H ) :   0.9386 B( 15-C , 34-H ) :   0.9447 B( 15-C , 35-H ) :   0.9374
B( 16-O , 17-C ) :   0.8996 B( 17-C , 18-C ) :   1.1641 B( 17-C , 36-H ) :   0.9178
B( 17-C , 37-H ) :   0.9315 B( 18-C , 38-H ) :   0.9460 B( 18-C , 39-H ) :   0.9377
B( 18-C , 40-H ) :   0.9395

Dispersion correction           -0.069433215
FINAL SINGLE POINT ENERGY     -2929.514542340757

DIPOLE MOMENT
-------------

Method             : SCF
Type of density    : Electron Density
Multiplicity       :   1
Irrep              :   0
Energy             : -2929.6325697446882259 Eh
Relativity type    :
Basis              : AO
                                X                 Y                 Z
Electronic contribution:      3.727887284      -3.680108172      -7.190132925
Nuclear contribution   :     -4.297080057       3.251170988       8.451856306
                        -----------------------------------------
Total Dipole Moment    :     -0.569192773      -0.428937185       1.261723381
                        -----------------------------------------
Magnitude (a.u.)       :      1.449107799
Magnitude (Debye)      :      3.683339305

Rotational constants in cm-1:             0.012300             0.005732             0.005319
Rotational constants in MHz :           368.738612           171.831434           159.474149

                             ****ORCA TERMINATED NORMALLY****
TOTAL RUN TIME: 0 days 0 hours 0 minutes 22 seconds 107 msec
