                         Program Version 6.0.1  -  RELEASE   -
|  1> ! pbe def2-sv(p) def2/J RI DEFGRID1 loosescf d4 GCP(DFT/SV(P)) printgap
|  2> %output
|  3>     printlevel normal
|  4> end
|  5> * xyz 0 1
|  6> C 3.4861494051 -3.0390285844 0.5349779161
|  7> C 2.8811560449 -1.7255791547 1.0033506788
|  8> O 2.6620652103 -0.8315180483 -0.1045811288
|  9> C 1.5857105625 -0.9883859021 -0.8451867193
| 10> O 0.7247174733 -1.8237172774 -0.6538124313
| 11> C 1.5247586904 0.0252943763 -1.969798222
| 12> C 0.2948412179 0.9229808138 -1.8074564365
| 13> H 0.227407765 1.6057291984 -2.6591891078
| 14> C 0.3378948894 1.7397890077 -0.5323733575
| 15> O -0.6303868115 1.8581087243 0.1986116864
| 16> O 1.5007633474 2.275890242 -0.3121225245
| 17> C 1.6866351685 3.0231695436 0.9115677499
| 18> C 3.1634351021 3.3363285933 1.0367782777
| 19> S -1.2800199204 -0.0057069594 -1.8292358005
| 20> P -1.7512828224 -0.3579987154 0.2164326199
| 21> S -0.5633291041 -0.5430040598 1.7805121452
| 22> O -3.0420489876 0.5381617538 0.4671749113
| 23> C -3.154075202 1.5793586536 1.436006053
| 24> O -2.6113643039 -1.6945456347 -0.0028874522
| 25> C -2.0338825174 -2.9789962055 -0.2310986659
| 26> H 3.7003227384 -3.6595605019 1.3986915396
| 27> H 2.7867278991 -3.5649258402 -0.1109660276
| 28> H 4.4062607218 -2.8528326398 -0.0121494953
| 29> H 3.5643183298 -1.1826434874 1.6561292398
| 30> H 1.9283092409 -1.8880684501 1.516013117
| 31> H 1.4353323364 -0.5137926663 -2.9130915915
| 32> H 2.4282611469 0.6332999241 -1.9563252721
| 33> H 1.0790446517 3.9305567827 0.8521803079
| 34> H 1.3209982967 2.412176558 1.7429972578
| 35> H 3.7372859791 2.4151448173 1.0706410091
| 36> H 3.4922955658 3.9270037393 0.1874909239
| 37> H 3.3321659232 3.8958356503 1.9505570332
| 38> H -2.9699220576 2.5386937598 0.9552580869
| 39> H -2.4324877203 1.4292046233 2.2414490939
| 40> H -4.1700076426 1.5244087212 1.8206669067
| 41> H -1.5838018106 -3.0221531895 -1.2225854482
| 42> H -2.85553922 -3.6857681571 -0.146681214
| 43> H -1.2685915892 -3.18594323 0.5183501763
| 44> *
| 45>
| 46>                          ****END OF INPUT****

CARTESIAN COORDINATES (ANGSTROEM)
---------------------------------
  C      3.486149   -3.039029    0.534978
  C      2.881156   -1.725579    1.003351
  O      2.662065   -0.831518   -0.104581
  C      1.585711   -0.988386   -0.845187
  O      0.724717   -1.823717   -0.653812
  C      1.524759    0.025294   -1.969798
  C      0.294841    0.922981   -1.807456
  H      0.227408    1.605729   -2.659189
  C      0.337895    1.739789   -0.532373
  O     -0.630387    1.858109    0.198612
  O      1.500763    2.275890   -0.312123
  C      1.686635    3.023170    0.911568
  C      3.163435    3.336329    1.036778
  S     -1.280020   -0.005707   -1.829236
  P     -1.751283   -0.357999    0.216433
  S     -0.563329   -0.543004    1.780512
  O     -3.042049    0.538162    0.467175
  C     -3.154075    1.579359    1.436006
  O     -2.611364   -1.694546   -0.002887
  C     -2.033883   -2.978996   -0.231099
  H      3.700323   -3.659561    1.398692
  H      2.786728   -3.564926   -0.110966
  H      4.406261   -2.852833   -0.012149
  H      3.564318   -1.182643    1.656129
  H      1.928309   -1.888068    1.516013
  H      1.435332   -0.513793   -2.913092
  H      2.428261    0.633300   -1.956325
  H      1.079045    3.930557    0.852180
  H      1.320998    2.412177    1.742997
  H      3.737286    2.415145    1.070641
  H      3.492296    3.927004    0.187491
  H      3.332166    3.895836    1.950557
  H     -2.969922    2.538694    0.955258
  H     -2.432488    1.429205    2.241449
  H     -4.170008    1.524409    1.820667
  H     -1.583802   -3.022153   -1.222585
  H     -2.855539   -3.685768   -0.146681
  H     -1.268592   -3.185943    0.518350

 Total Charge           Charge          ....    0
 Multiplicity           Mult            ....    1
 Number of Electrons    NEL             ....  174
 Basis Dimension        Dim             ....  316

ORBITAL ENERGIES
----------------

  NO   OCC          E(Eh)            E(eV)
   0   2.0000     -88.026340     -2395.3185
   1   2.0000     -87.964638     -2393.6395
   2   2.0000     -76.412381     -2079.2866
   3   2.0000     -18.826450      -512.2938
   4   2.0000     -18.805224      -511.7162
   5   2.0000     -18.765173      -510.6263
   6   2.0000     -18.763104      -510.5700
   7   2.0000     -18.763059      -510.5688
   8   2.0000     -18.736757      -509.8531
   9   2.0000     -10.030859      -272.9536
  10   2.0000     -10.010541      -272.4007
  11   2.0000      -9.960904      -271.0500
  12   2.0000      -9.956134      -270.9202
  13   2.0000      -9.942813      -270.5577
  14   2.0000      -9.922139      -269.9951
  15   2.0000      -9.917210      -269.8610
  16   2.0000      -9.914950      -269.7995
  17   2.0000      -9.898421      -269.3497
  18   2.0000      -9.884899      -268.9818
  19   2.0000      -7.671551      -208.7535
  20   2.0000      -7.609661      -207.0694
  21   2.0000      -6.407251      -174.3502
  22   2.0000      -5.699973      -155.1042
  23   2.0000      -5.696250      -155.0028
  24   2.0000      -5.687704      -154.7703
  25   2.0000      -5.638835      -153.4405
  26   2.0000      -5.630271      -153.2075
  27   2.0000      -5.629481      -153.1860
  28   2.0000      -4.629882      -125.9855
  29   2.0000      -4.629453      -125.9738
  30   2.0000      -4.627795      -125.9287
  31   2.0000      -1.037312       -28.2267
  32   2.0000      -1.010651       -27.5012
  33   2.0000      -0.960423       -26.1344
  34   2.0000      -0.939728       -25.5713
  35   2.0000      -0.915833       -24.9211
  36   2.0000      -0.913708       -24.8633
  37   2.0000      -0.767788       -20.8926
  38   2.0000      -0.719867       -19.5886
  39   2.0000      -0.707398       -19.2493
  40   2.0000      -0.681841       -18.5538
  41   2.0000      -0.650545       -17.7022
  42   2.0000      -0.623264       -16.9599
  43   2.0000      -0.613089       -16.6830
  44   2.0000      -0.599248       -16.3064
  45   2.0000      -0.596134       -16.2216
  46   2.0000      -0.566754       -15.4222
  47   2.0000      -0.524601       -14.2751
  48   2.0000      -0.501386       -13.6434
  49   2.0000      -0.495236       -13.4761
  50   2.0000      -0.482995       -13.1430
  51   2.0000      -0.464699       -12.6451
  52   2.0000      -0.456875       -12.4322
  53   2.0000      -0.451055       -12.2738
  54   2.0000      -0.438299       -11.9267
  55   2.0000      -0.435223       -11.8430
  56   2.0000      -0.422460       -11.4957
  57   2.0000      -0.406134       -11.0515
  58   2.0000      -0.405544       -11.0354
  59   2.0000      -0.398734       -10.8501
  60   2.0000      -0.390367       -10.6224
  61   2.0000      -0.388565       -10.5734
  62   2.0000      -0.384713       -10.4686
  63   2.0000      -0.376500       -10.2451
  64   2.0000      -0.374024       -10.1777
  65   2.0000      -0.370882       -10.0922
  66   2.0000      -0.368905       -10.0384
  67   2.0000      -0.361425        -9.8349
  68   2.0000      -0.354045        -9.6341
  69   2.0000      -0.338872        -9.2212
  70   2.0000      -0.336511        -9.1569
  71   2.0000      -0.328943        -8.9510
  72   2.0000      -0.323614        -8.8060
  73   2.0000      -0.318366        -8.6632
  74   2.0000      -0.297346        -8.0912
  75   2.0000      -0.292900        -7.9702
  76   2.0000      -0.287156        -7.8139
  77   2.0000      -0.279315        -7.6005
  78   2.0000      -0.267016        -7.2659
  79   2.0000      -0.262477        -7.1424
  80   2.0000      -0.253809        -6.9065
  81   2.0000      -0.241751        -6.5784
  82   2.0000      -0.236355        -6.4315
  83   2.0000      -0.229371        -6.2415
  84   2.0000      -0.196372        -5.3436
  85   2.0000      -0.180181        -4.9030
  86   2.0000      -0.176208        -4.7949
  87   0.0000      -0.050779        -1.3818
  88   0.0000      -0.038380        -1.0444
  89   0.0000      -0.029437        -0.8010
  90   0.0000       0.007889         0.2147
  91   0.0000       0.026405         0.7185

MULLIKEN ATOMIC CHARGES
-----------------------
   0 C :   -0.307240
   1 C :   -0.028291
   2 O :   -0.226177
   3 C :    0.089779
   4 O :   -0.191258
   5 C :   -0.019029
   6 C :   -0.321680
   7 H :    0.157071
   8 C :    0.215560
   9 O :   -0.195714
  10 O :   -0.215185
  11 C :   -0.034361
  12 C :   -0.278481
  13 S :   -0.081475
  14 P :    0.641292
  15 S :   -0.357012
  16 O :   -0.372774
  17 C :   -0.082978
  18 O :   -0.378545
  19 C :   -0.090161
  20 H :    0.113913
  21 H :    0.127222
  22 H :    0.108691
  23 H :    0.096879
  24 H :    0.135235
  25 H :    0.121483
  26 H :    0.112059
  27 H :    0.109334
  28 H :    0.128045
  29 H :    0.123839
  30 H :    0.115956
  31 H :    0.116761
  32 H :    0.106780
  33 H :    0.110822
  34 H :    0.113681
  35 H :    0.111733
  36 H :    0.111697
  37 H :    0.112528
Sum of atomic charges:    0.0000000

LOEWDIN ATOMIC CHARGES
----------------------
   0 C :   -0.357300
   1 C :   -0.115793
   2 O :   -0.051237
   3 C :    0.023032
   4 O :   -0.163787
   5 C :   -0.249099
   6 C :   -0.261645
   7 H :    0.152991
   8 C :    0.019150
   9 O :   -0.148884
  10 O :   -0.034198
  11 C :   -0.103313
  12 C :   -0.350518
  13 S :    0.109805
  14 P :    0.596023
  15 S :   -0.332370
  16 O :   -0.246204
  17 C :   -0.210902
  18 O :   -0.256134
  19 C :   -0.215373
  20 H :    0.131454
  21 H :    0.129955
  22 H :    0.122004
  23 H :    0.115516
  24 H :    0.120850
  25 H :    0.145370
  26 H :    0.137085
  27 H :    0.119248
  28 H :    0.126470
  29 H :    0.130226
  30 H :    0.127104
  31 H :    0.133950
  32 H :    0.108255
  33 H :    0.104733
  34 H :    0.114879
  35 H :    0.106860
  36 H :    0.114309
  37 H :    0.107488

  Mayer bond orders larger than 0.100000
B(  0-C ,  1-C ) :   1.1676 B(  0-C , 20-H ) :   0.9445 B(  0-C , 21-H ) :   0.9454
B(  0-C , 22-H ) :   0.9479 B(  1-C ,  2-O ) :   0.9099 B(  1-C , 23-H ) :   0.9382
B(  1-C , 24-H ) :   0.9045 B(  2-O ,  3-C ) :   1.2435 B(  3-C ,  4-O ) :   1.9850
B(  3-C ,  5-C ) :   1.0037 B(  5-C ,  6-C ) :   1.0228 B(  5-C , 25-H ) :   0.8901
B(  5-C , 26-H ) :   0.8840 B(  6-C ,  7-H ) :   0.8722 B(  6-C ,  8-C ) :   0.9110
B(  6-C , 13-S ) :   1.0477 B(  8-C ,  9-O ) :   1.9241 B(  8-C , 10-O ) :   1.2848
B(  9-O , 14-P ) :   0.1186 B( 10-O , 11-C ) :   0.8829 B( 11-C , 12-C ) :   1.1563
B( 11-C , 27-H ) :   0.9330 B( 11-C , 28-H ) :   0.9226 B( 12-C , 29-H ) :   0.9487
B( 12-C , 30-H ) :   0.9490 B( 12-C , 31-H ) :   0.9421 B( 13-S , 14-P ) :   0.9198
B( 13-S , 15-S ) :   0.1234 B( 14-P , 15-S ) :   1.5154 B( 14-P , 16-O ) :   1.1227
B( 14-P , 18-O ) :   1.0947 B( 16-O , 17-C ) :   0.9385 B( 17-C , 32-H ) :   0.9534
B( 17-C , 33-H ) :   0.9296 B( 17-C , 34-H ) :   0.9561 B( 18-O , 19-C ) :   0.9431
B( 19-C , 35-H ) :   0.9465 B( 19-C , 36-H ) :   0.9575 B( 19-C , 37-H ) :   0.9387

Dispersion correction           -0.055263502
FINAL SINGLE POINT ENERGY     -1979.001067371279

DIPOLE MOMENT
-------------

Method             : SCF
Type of density    : Electron Density
Multiplicity       :   1
Irrep              :   0
Energy             : -1979.1301730309965023 Eh
Relativity type    :
Basis              : AO
                                X                 Y                 Z
Electronic contribution:    -16.904242616      -0.071665278      -6.571581707
Nuclear contribution   :     18.633138484       1.050133732       6.265461394
                        -----------------------------------------
Total Dipole Moment    :      1.728895868       0.978468454      -0.306120313
                        -----------------------------------------
Magnitude (a.u.)       :      2.010022657
Magnitude (Debye)      :      5.109071571

Rotational constants in cm-1:             0.011893             0.009382             0.007141
Rotational constants in MHz :           356.547038           281.256119           214.073733

                             ****ORCA TERMINATED NORMALLY****
TOTAL RUN TIME: 0 days 0 hours 0 minutes 41 seconds 756 msec
