                         Program Version 6.0.0  -   RELEASE  -
|  1> ! r2scan-3c def2/J RI DEFGRID2 scfconv6 printgap
|  2> %output
|  3>     printlevel normal
|  4> end
|  5> * xyz 0 1
|  6> C 5.4606768882 -1.5463539906 -0.1659394544
|  7> C 4.8234205102 -0.9693561776 -1.4124735132
|  8> O 3.3890395725 -1.1178275385 -1.3908451697
|  9> P 2.4749110081 -0.2799516926 -0.4106197931
| 10> S 3.1469663639 1.5162629642 0.013240881
| 11> O 2.3235454639 -1.3201731657 0.7858145777
| 12> C 1.4190863963 -1.2423656942 1.8996543177
| 13> C 1.7566253612 -0.1138922986 2.8539193528
| 14> S 0.6617912285 -0.3840314181 -1.5105073286
| 15> C 0.0530435198 1.2903836868 -1.1601483057
| 16> S -0.6856704456 1.4500145018 0.487928114
| 17> P -2.3771112894 0.2464584391 0.0992209569
| 18> S -3.1971564841 0.4008636995 -1.6790335966
| 19> O -3.3491373063 0.5156162242 1.3249886019
| 20> C -4.3496581262 1.5489959979 1.305712712
| 21> C -3.7385898374 2.9353102135 1.303018898
| 22> O -1.7808926354 -1.1757823831 0.4725708548
| 23> C -2.3541681968 -2.4007425965 -0.0277351681
| 24> C -3.7147948879 -2.6704778772 0.5790743465
| 25> H 5.1590000767 -2.5820666067 -0.0349684436
| 26> H 6.5412065348 -1.4898474657 -0.2524556412
| 27> H 5.1427935908 -0.9747966363 0.7051586093
| 28> H 5.1289170888 -1.5046153739 -2.3122706586
| 29> H 5.0624629195 0.0943885909 -1.5119535635
| 30> H 0.3963568797 -1.1411203663 1.5243995533
| 31> H 1.5327596071 -2.2146083886 2.383740463
| 32> H 2.7946755464 -0.1835784961 3.1688080481
| 33> H 1.5994034697 0.8521637539 2.3784182431
| 34> H 1.1120691443 -0.182165836 3.7243583083
| 35> H -0.7001656661 1.5106680043 -1.9159272984
| 36> H 0.8812678513 1.9979716638 -1.1998917705
| 37> H -4.9781548048 1.4051386316 0.4209595999
| 38> H -4.9315813196 1.3663321322 2.2099913623
| 39> H -3.2164479665 3.1110741763 0.3632551831
| 40> H -4.5249651356 3.6754291819 1.4113694905
| 41> H -3.0293514546 3.0379505152 2.1204802115
| 42> H -2.4191250833 -2.3311060169 -1.1184101086
| 43> H -1.625982753 -3.1645437212 0.2483387109
| 44> H -4.4239328099 -1.9131836184 0.2469264674
| 45> H -4.0653015327 -3.6463945375 0.2581547084
| 46> H -3.6540861718 -2.6438528309 1.6638346678
| 47> *
| 48>
| 49>                          ****END OF INPUT****

CARTESIAN COORDINATES (ANGSTROEM)
---------------------------------
  C      5.460677   -1.546354   -0.165939
  C      4.823421   -0.969356   -1.412474
  O      3.389040   -1.117828   -1.390845
  P      2.474911   -0.279952   -0.410620
  S      3.146966    1.516263    0.013241
  O      2.323545   -1.320173    0.785815
  C      1.419086   -1.242366    1.899654
  C      1.756625   -0.113892    2.853919
  S      0.661791   -0.384031   -1.510507
  C      0.053044    1.290384   -1.160148
  S     -0.685670    1.450015    0.487928
  P     -2.377111    0.246458    0.099221
  S     -3.197156    0.400864   -1.679034
  O     -3.349137    0.515616    1.324989
  C     -4.349658    1.548996    1.305713
  C     -3.738590    2.935310    1.303019
  O     -1.780893   -1.175782    0.472571
  C     -2.354168   -2.400743   -0.027735
  C     -3.714795   -2.670478    0.579074
  H      5.159000   -2.582067   -0.034968
  H      6.541207   -1.489847   -0.252456
  H      5.142794   -0.974797    0.705159
  H      5.128917   -1.504615   -2.312271
  H      5.062463    0.094389   -1.511954
  H      0.396357   -1.141120    1.524400
  H      1.532760   -2.214608    2.383740
  H      2.794676   -0.183578    3.168808
  H      1.599403    0.852164    2.378418
  H      1.112069   -0.182166    3.724358
  H     -0.700166    1.510668   -1.915927
  H      0.881268    1.997972   -1.199892
  H     -4.978155    1.405139    0.420960
  H     -4.931581    1.366332    2.209991
  H     -3.216448    3.111074    0.363255
  H     -4.524965    3.675429    1.411369
  H     -3.029351    3.037951    2.120480
  H     -2.419125   -2.331106   -1.118410
  H     -1.625983   -3.164544    0.248339
  H     -4.423933   -1.913184    0.246926
  H     -4.065302   -3.646395    0.258155
  H     -3.654086   -2.643853    1.663835

 Total Charge           Charge          ....    0
 Multiplicity           Mult            ....    1
 Number of Electrons    NEL             ....  202
 Basis Dimension        Dim             ....  539

ORBITAL ENERGIES
----------------

  NO   OCC          E(Eh)            E(eV)
   0   2.0000     -88.577508     -2410.3165
   1   2.0000     -88.572850     -2410.1898
   2   2.0000     -88.526398     -2408.9258
   3   2.0000     -88.521623     -2408.7958
   4   2.0000     -76.917831     -2093.0406
   5   2.0000     -76.913346     -2092.9185
   6   2.0000     -18.998211      -516.9676
   7   2.0000     -18.993106      -516.8287
   8   2.0000     -18.987172      -516.6672
   9   2.0000     -18.986806      -516.6573
  10   2.0000     -10.103586      -274.9326
  11   2.0000     -10.103146      -274.9206
  12   2.0000     -10.099725      -274.8275
  13   2.0000     -10.095921      -274.7240
  14   2.0000     -10.093109      -274.6475
  15   2.0000     -10.031886      -272.9815
  16   2.0000     -10.031610      -272.9740
  17   2.0000     -10.026690      -272.8401
  18   2.0000     -10.019981      -272.6576
  19   2.0000      -7.871931      -214.2061
  20   2.0000      -7.866974      -214.0712
  21   2.0000      -7.821069      -212.8221
  22   2.0000      -7.816491      -212.6975
  23   2.0000      -6.596507      -179.5001
  24   2.0000      -6.591614      -179.3669
  25   2.0000      -5.818742      -158.3360
  26   2.0000      -5.815816      -158.2564
  27   2.0000      -5.813916      -158.2047
  28   2.0000      -5.810927      -158.1234
  29   2.0000      -5.809068      -158.0728
  30   2.0000      -5.803959      -157.9337
  31   2.0000      -5.768657      -156.9731
  32   2.0000      -5.764125      -156.8498
  33   2.0000      -5.761367      -156.7748
  34   2.0000      -5.761136      -156.7685
  35   2.0000      -5.756961      -156.6549
  36   2.0000      -5.756301      -156.6369
  37   2.0000      -4.741876      -129.0330
  38   2.0000      -4.741396      -129.0200
  39   2.0000      -4.740365      -128.9919
  40   2.0000      -4.736948      -128.8989
  41   2.0000      -4.736649      -128.8908
  42   2.0000      -4.735434      -128.8577
  43   2.0000      -1.054640       -28.6982
  44   2.0000      -1.046400       -28.4740
  45   2.0000      -1.015769       -27.6405
  46   2.0000      -1.006075       -27.3767
  47   2.0000      -0.801376       -21.8066
  48   2.0000      -0.759450       -20.6657
  49   2.0000      -0.748084       -20.3564
  50   2.0000      -0.734684       -19.9918
  51   2.0000      -0.727094       -19.7852
  52   2.0000      -0.711564       -19.3626
  53   2.0000      -0.688284       -18.7292
  54   2.0000      -0.671121       -18.2621
  55   2.0000      -0.636960       -17.3326
  56   2.0000      -0.626427       -17.0459
  57   2.0000      -0.609127       -16.5752
  58   2.0000      -0.601872       -16.3778
  59   2.0000      -0.590840       -16.0776
  60   2.0000      -0.524641       -14.2762
  61   2.0000      -0.514779       -14.0079
  62   2.0000      -0.496199       -13.5023
  63   2.0000      -0.487818       -13.2742
  64   2.0000      -0.478070       -13.0090
  65   2.0000      -0.462265       -12.5789
  66   2.0000      -0.461447       -12.5566
  67   2.0000      -0.452680       -12.3180
  68   2.0000      -0.445436       -12.1209
  69   2.0000      -0.434076       -11.8118
  70   2.0000      -0.423325       -11.5192
  71   2.0000      -0.414277       -11.2731
  72   2.0000      -0.409606       -11.1459
  73   2.0000      -0.406631       -11.0650
  74   2.0000      -0.401294       -10.9198
  75   2.0000      -0.390594       -10.6286
  76   2.0000      -0.386989       -10.5305
  77   2.0000      -0.376005       -10.2316
  78   2.0000      -0.371441       -10.1074
  79   2.0000      -0.366175        -9.9641
  80   2.0000      -0.362431        -9.8622
  81   2.0000      -0.357032        -9.7153
  82   2.0000      -0.355136        -9.6637
  83   2.0000      -0.351680        -9.5697
  84   2.0000      -0.347820        -9.4647
  85   2.0000      -0.333880        -9.0853
  86   2.0000      -0.323606        -8.8058
  87   2.0000      -0.313728        -8.5370
  88   2.0000      -0.307509        -8.3677
  89   2.0000      -0.304730        -8.2921
  90   2.0000      -0.297284        -8.0895
  91   2.0000      -0.291184        -7.9235
  92   2.0000      -0.287458        -7.8221
  93   2.0000      -0.282963        -7.6998
  94   2.0000      -0.272036        -7.4025
  95   2.0000      -0.248062        -6.7501
  96   2.0000      -0.231417        -6.2972
  97   2.0000      -0.228308        -6.2126
  98   2.0000      -0.221054        -6.0152
  99   2.0000      -0.218340        -5.9413
 100   2.0000      -0.213577        -5.8117
 101   0.0000      -0.049275        -1.3408
 102   0.0000      -0.030025        -0.8170
 103   0.0000      -0.003488        -0.0949
 104   0.0000      -0.000021        -0.0006
 105   0.0000       0.013394         0.3645

MULLIKEN ATOMIC CHARGES
-----------------------
   0 C :   -0.439106
   1 C :   -0.156465
   2 O :   -0.301265
   3 P :    0.660273
   4 S :   -0.474437
   5 O :   -0.244159
   6 C :   -0.173133
   7 C :   -0.424802
   8 S :   -0.121901
   9 C :   -0.240997
  10 S :   -0.126147
  11 P :    0.675650
  12 S :   -0.477133
  13 O :   -0.304949
  14 C :   -0.151248
  15 C :   -0.451121
  16 O :   -0.275134
  17 C :   -0.151747
  18 C :   -0.439655
  19 H :    0.155136
  20 H :    0.146943
  21 H :    0.167179
  22 H :    0.149590
  23 H :    0.172829
  24 H :    0.179169
  25 H :    0.145877
  26 H :    0.148840
  27 H :    0.175120
  28 H :    0.143097
  29 H :    0.216514
  30 H :    0.215496
  31 H :    0.171355
  32 H :    0.149245
  33 H :    0.177689
  34 H :    0.149245
  35 H :    0.156865
  36 H :    0.174707
  37 H :    0.152169
  38 H :    0.166810
  39 H :    0.148144
  40 H :    0.155458
Sum of atomic charges:    0.0000000

LOEWDIN ATOMIC CHARGES
----------------------
   0 C :   -0.399640
   1 C :    0.022840
   2 O :   -0.664847
   3 P :    0.392517
   4 S :   -0.128951
   5 O :   -0.661077
   6 C :    0.020911
   7 C :   -0.411316
   8 S :    0.181607
   9 C :   -0.422326
  10 S :    0.164437
  11 P :    0.376650
  12 S :   -0.128660
  13 O :   -0.660447
  14 C :    0.020867
  15 C :   -0.406065
  16 O :   -0.696057
  17 C :    0.018787
  18 C :   -0.398605
  19 H :    0.160599
  20 H :    0.159208
  21 H :    0.165238
  22 H :    0.179901
  23 H :    0.179814
  24 H :    0.192157
  25 H :    0.178752
  26 H :    0.159132
  27 H :    0.166551
  28 H :    0.158445
  29 H :    0.191500
  30 H :    0.193911
  31 H :    0.179563
  32 H :    0.180072
  33 H :    0.166016
  34 H :    0.160050
  35 H :    0.160857
  36 H :    0.181884
  37 H :    0.180426
  38 H :    0.164596
  39 H :    0.159958
  40 H :    0.160747

  Mayer bond orders larger than 0.100000
B(  0-C ,  1-C ) :   0.9266 B(  0-C , 19-H ) :   0.9704 B(  0-C , 20-H ) :   0.9628
B(  0-C , 21-H ) :   0.9603 B(  1-C ,  2-O ) :   0.8063 B(  1-C , 22-H ) :   0.9612
B(  1-C , 23-H ) :   0.9653 B(  2-O ,  3-P ) :   1.1810 B(  3-P ,  4-S ) :   1.7340
B(  3-P ,  5-O ) :   1.0849 B(  3-P ,  8-S ) :   1.0746 B(  5-O ,  6-C ) :   0.7980
B(  6-C ,  7-C ) :   0.9234 B(  6-C , 24-H ) :   0.9514 B(  6-C , 25-H ) :   0.9670
B(  7-C , 26-H ) :   0.9700 B(  7-C , 27-H ) :   0.9534 B(  7-C , 28-H ) :   0.9638
B(  8-S ,  9-C ) :   0.9158 B(  9-C , 10-S ) :   0.8976 B(  9-C , 29-H ) :   0.9075
B(  9-C , 30-H ) :   0.9009 B( 10-S , 11-P ) :   1.0914 B( 11-P , 12-S ) :   1.7550
B( 11-P , 13-O ) :   1.0707 B( 11-P , 16-O ) :   1.1336 B( 13-O , 14-C ) :   0.8125
B( 14-C , 15-C ) :   0.9225 B( 14-C , 31-H ) :   0.9665 B( 14-C , 32-H ) :   0.9578
B( 15-C , 33-H ) :   0.9618 B( 15-C , 34-H ) :   0.9580 B( 15-C , 35-H ) :   0.9684
B( 16-O , 17-C ) :   0.7946 B( 17-C , 18-C ) :   0.9233 B( 17-C , 36-H ) :   0.9637
B( 17-C , 37-H ) :   0.9612 B( 18-C , 38-H ) :   0.9599 B( 18-C , 39-H ) :   0.9619
B( 18-C , 40-H ) :   0.9716

Dispersion correction           -0.021617815
FINAL SINGLE POINT ENERGY     -2932.463694838892

DIPOLE MOMENT
-------------

Method             : SCF
Type of density    : Electron Density
Multiplicity       :   1
Irrep              :   0
Energy             : -2932.4887056810498507 Eh
Relativity type    :
Basis              : AO
                                X                 Y                 Z
Electronic contribution:      1.735852992       5.820019369     -13.001042820
Nuclear contribution   :     -2.157648554      -6.595175746      13.960619630
                        -----------------------------------------
Total Dipole Moment    :     -0.421795562      -0.775156377       0.959576810
                        -----------------------------------------
Magnitude (a.u.)       :      1.303674253
Magnitude (Debye)      :      3.313676610

Rotational constants in cm-1:             0.014284             0.004489             0.004320
Rotational constants in MHz :           428.208763           134.586760           129.511651

                             ****ORCA TERMINATED NORMALLY****
TOTAL RUN TIME: 0 days 0 hours 1 minutes 19 seconds 116 msec
