                         Program Version 6.0.0  -   RELEASE  -
|  1> ! r2scan-3c def2/J RI DEFGRID2 scfconv6 printgap
|  2> %output
|  3>     printlevel normal
|  4> end
|  5> %cpcm
|  6>     smd true
|  7>     smdsolvent "water"
|  8> end
|  9> * xyz 0 1
| 10> C 5.4606768882 -1.5463539906 -0.1659394544
| 11> C 4.8234205102 -0.9693561776 -1.4124735132
| 12> O 3.3890395725 -1.1178275385 -1.3908451697
| 13> P 2.4749110081 -0.2799516926 -0.4106197931
| 14> S 3.1469663639 1.5162629642 0.013240881
| 15> O 2.3235454639 -1.3201731657 0.7858145777
| 16> C 1.4190863963 -1.2423656942 1.8996543177
| 17> C 1.7566253612 -0.1138922986 2.8539193528
| 18> S 0.6617912285 -0.3840314181 -1.5105073286
| 19> C 0.0530435198 1.2903836868 -1.1601483057
| 20> S -0.6856704456 1.4500145018 0.487928114
| 21> P -2.3771112894 0.2464584391 0.0992209569
| 22> S -3.1971564841 0.4008636995 -1.6790335966
| 23> O -3.3491373063 0.5156162242 1.3249886019
| 24> C -4.3496581262 1.5489959979 1.305712712
| 25> C -3.7385898374 2.9353102135 1.303018898
| 26> O -1.7808926354 -1.1757823831 0.4725708548
| 27> C -2.3541681968 -2.4007425965 -0.0277351681
| 28> C -3.7147948879 -2.6704778772 0.5790743465
| 29> H 5.1590000767 -2.5820666067 -0.0349684436
| 30> H 6.5412065348 -1.4898474657 -0.2524556412
| 31> H 5.1427935908 -0.9747966363 0.7051586093
| 32> H 5.1289170888 -1.5046153739 -2.3122706586
| 33> H 5.0624629195 0.0943885909 -1.5119535635
| 34> H 0.3963568797 -1.1411203663 1.5243995533
| 35> H 1.5327596071 -2.2146083886 2.383740463
| 36> H 2.7946755464 -0.1835784961 3.1688080481
| 37> H 1.5994034697 0.8521637539 2.3784182431
| 38> H 1.1120691443 -0.182165836 3.7243583083
| 39> H -0.7001656661 1.5106680043 -1.9159272984
| 40> H 0.8812678513 1.9979716638 -1.1998917705
| 41> H -4.9781548048 1.4051386316 0.4209595999
| 42> H -4.9315813196 1.3663321322 2.2099913623
| 43> H -3.2164479665 3.1110741763 0.3632551831
| 44> H -4.5249651356 3.6754291819 1.4113694905
| 45> H -3.0293514546 3.0379505152 2.1204802115
| 46> H -2.4191250833 -2.3311060169 -1.1184101086
| 47> H -1.625982753 -3.1645437212 0.2483387109
| 48> H -4.4239328099 -1.9131836184 0.2469264674
| 49> H -4.0653015327 -3.6463945375 0.2581547084
| 50> H -3.6540861718 -2.6438528309 1.6638346678
| 51> *
| 52>
| 53>                          ****END OF INPUT****

CARTESIAN COORDINATES (ANGSTROEM)
---------------------------------
  C      5.460677   -1.546354   -0.165939
  C      4.823421   -0.969356   -1.412474
  O      3.389040   -1.117828   -1.390845
  P      2.474911   -0.279952   -0.410620
  S      3.146966    1.516263    0.013241
  O      2.323545   -1.320173    0.785815
  C      1.419086   -1.242366    1.899654
  C      1.756625   -0.113892    2.853919
  S      0.661791   -0.384031   -1.510507
  C      0.053044    1.290384   -1.160148
  S     -0.685670    1.450015    0.487928
  P     -2.377111    0.246458    0.099221
  S     -3.197156    0.400864   -1.679034
  O     -3.349137    0.515616    1.324989
  C     -4.349658    1.548996    1.305713
  C     -3.738590    2.935310    1.303019
  O     -1.780893   -1.175782    0.472571
  C     -2.354168   -2.400743   -0.027735
  C     -3.714795   -2.670478    0.579074
  H      5.159000   -2.582067   -0.034968
  H      6.541207   -1.489847   -0.252456
  H      5.142794   -0.974797    0.705159
  H      5.128917   -1.504615   -2.312271
  H      5.062463    0.094389   -1.511954
  H      0.396357   -1.141120    1.524400
  H      1.532760   -2.214608    2.383740
  H      2.794676   -0.183578    3.168808
  H      1.599403    0.852164    2.378418
  H      1.112069   -0.182166    3.724358
  H     -0.700166    1.510668   -1.915927
  H      0.881268    1.997972   -1.199892
  H     -4.978155    1.405139    0.420960
  H     -4.931581    1.366332    2.209991
  H     -3.216448    3.111074    0.363255
  H     -4.524965    3.675429    1.411369
  H     -3.029351    3.037951    2.120480
  H     -2.419125   -2.331106   -1.118410
  H     -1.625983   -3.164544    0.248339
  H     -4.423933   -1.913184    0.246926
  H     -4.065302   -3.646395    0.258155
  H     -3.654086   -2.643853    1.663835

 Total Charge           Charge          ....    0
 Multiplicity           Mult            ....    1
 Number of Electrons    NEL             ....  202
 Basis Dimension        Dim             ....  539

ORBITAL ENERGIES
----------------

  NO   OCC          E(Eh)            E(eV)
   0   2.0000     -88.579841     -2410.3800
   1   2.0000     -88.579540     -2410.3718
   2   2.0000     -88.530526     -2409.0381
   3   2.0000     -88.530526     -2409.0381
   4   2.0000     -76.920824     -2093.1220
   5   2.0000     -76.919819     -2093.0947
   6   2.0000     -18.997300      -516.9428
   7   2.0000     -18.993149      -516.8298
   8   2.0000     -18.993046      -516.8270
   9   2.0000     -18.992267      -516.8059
  10   2.0000     -10.104947      -274.9696
  11   2.0000     -10.090595      -274.5791
  12   2.0000     -10.089965      -274.5619
  13   2.0000     -10.089048      -274.5369
  14   2.0000     -10.088423      -274.5199
  15   2.0000     -10.019083      -272.6331
  16   2.0000     -10.018716      -272.6231
  17   2.0000     -10.018640      -272.6211
  18   2.0000     -10.015296      -272.5301
  19   2.0000      -7.874300      -214.2706
  20   2.0000      -7.873734      -214.2552
  21   2.0000      -7.825625      -212.9461
  22   2.0000      -7.825477      -212.9421
  23   2.0000      -6.599175      -179.5727
  24   2.0000      -6.598526      -179.5550
  25   2.0000      -5.821108      -158.4004
  26   2.0000      -5.820639      -158.3877
  27   2.0000      -5.818200      -158.3213
  28   2.0000      -5.817638      -158.3060
  29   2.0000      -5.811423      -158.1369
  30   2.0000      -5.810809      -158.1202
  31   2.0000      -5.773218      -157.0972
  32   2.0000      -5.773008      -157.0915
  33   2.0000      -5.766032      -156.9017
  34   2.0000      -5.765760      -156.8943
  35   2.0000      -5.765564      -156.8890
  36   2.0000      -5.765497      -156.8871
  37   2.0000      -4.744508      -129.1046
  38   2.0000      -4.744184      -129.0958
  39   2.0000      -4.743837      -129.0864
  40   2.0000      -4.743407      -129.0747
  41   2.0000      -4.743033      -129.0645
  42   2.0000      -4.742479      -129.0494
  43   2.0000      -1.053431       -28.6653
  44   2.0000      -1.052279       -28.6340
  45   2.0000      -1.013852       -27.5883
  46   2.0000      -1.011225       -27.5168
  47   2.0000      -0.804307       -21.8863
  48   2.0000      -0.757179       -20.6039
  49   2.0000      -0.743033       -20.2189
  50   2.0000      -0.723836       -19.6966
  51   2.0000      -0.722737       -19.6667
  52   2.0000      -0.710671       -19.3384
  53   2.0000      -0.691619       -18.8199
  54   2.0000      -0.676672       -18.4132
  55   2.0000      -0.634568       -17.2675
  56   2.0000      -0.624903       -17.0045
  57   2.0000      -0.599913       -16.3245
  58   2.0000      -0.599590       -16.3157
  59   2.0000      -0.590162       -16.0591
  60   2.0000      -0.521161       -14.1815
  61   2.0000      -0.511631       -13.9222
  62   2.0000      -0.490574       -13.3492
  63   2.0000      -0.487915       -13.2768
  64   2.0000      -0.477547       -12.9947
  65   2.0000      -0.458598       -12.4791
  66   2.0000      -0.455004       -12.3813
  67   2.0000      -0.451547       -12.2872
  68   2.0000      -0.442673       -12.0457
  69   2.0000      -0.431062       -11.7298
  70   2.0000      -0.422321       -11.4919
  71   2.0000      -0.409186       -11.1345
  72   2.0000      -0.405628       -11.0377
  73   2.0000      -0.404488       -11.0067
  74   2.0000      -0.400559       -10.8998
  75   2.0000      -0.389828       -10.6078
  76   2.0000      -0.386862       -10.5270
  77   2.0000      -0.371419       -10.1068
  78   2.0000      -0.365330        -9.9411
  79   2.0000      -0.357074        -9.7165
  80   2.0000      -0.353674        -9.6239
  81   2.0000      -0.351839        -9.5740
  82   2.0000      -0.349488        -9.5101
  83   2.0000      -0.348501        -9.4832
  84   2.0000      -0.344985        -9.3875
  85   2.0000      -0.331907        -9.0317
  86   2.0000      -0.320960        -8.7338
  87   2.0000      -0.306952        -8.3526
  88   2.0000      -0.305167        -8.3040
  89   2.0000      -0.302138        -8.2216
  90   2.0000      -0.296691        -8.0734
  91   2.0000      -0.291064        -7.9203
  92   2.0000      -0.287083        -7.8119
  93   2.0000      -0.280762        -7.6399
  94   2.0000      -0.275675        -7.5015
  95   2.0000      -0.251114        -6.8332
  96   2.0000      -0.238035        -6.4773
  97   2.0000      -0.234525        -6.3817
  98   2.0000      -0.227912        -6.2018
  99   2.0000      -0.224213        -6.1011
 100   2.0000      -0.221726        -6.0335
 101   0.0000      -0.055327        -1.5055
 102   0.0000      -0.035661        -0.9704
 103   0.0000      -0.007149        -0.1945
 104   0.0000      -0.004390        -0.1194
 105   0.0000       0.011397         0.3101

MULLIKEN ATOMIC CHARGES
-----------------------
   0 C :   -0.480552
   1 C :   -0.148064
   2 O :   -0.333328
   3 P :    0.679258
   4 S :   -0.506455
   5 O :   -0.272507
   6 C :   -0.156600
   7 C :   -0.471170
   8 S :   -0.143247
   9 C :   -0.252243
  10 S :   -0.130653
  11 P :    0.717421
  12 S :   -0.525383
  13 O :   -0.329587
  14 C :   -0.151608
  15 C :   -0.487873
  16 O :   -0.296073
  17 C :   -0.147541
  18 C :   -0.482758
  19 H :    0.169596
  20 H :    0.172891
  21 H :    0.167000
  22 H :    0.175679
  23 H :    0.176876
  24 H :    0.176591
  25 H :    0.175040
  26 H :    0.164355
  27 H :    0.167877
  28 H :    0.169504
  29 H :    0.236293
  30 H :    0.231308
  31 H :    0.178396
  32 H :    0.176183
  33 H :    0.172975
  34 H :    0.173630
  35 H :    0.170221
  36 H :    0.176571
  37 H :    0.177903
  38 H :    0.168097
  39 H :    0.171925
  40 H :    0.170053
Sum of atomic charges:    0.0000000

LOEWDIN ATOMIC CHARGES
----------------------
   0 C :   -0.402826
   1 C :    0.027158
   2 O :   -0.682517
   3 P :    0.393421
   4 S :   -0.150837
   5 O :   -0.672833
   6 C :    0.026571
   7 C :   -0.415725
   8 S :    0.168312
   9 C :   -0.417175
  10 S :    0.162745
  11 P :    0.382610
  12 S :   -0.157678
  13 O :   -0.670383
  14 C :    0.026731
  15 C :   -0.409480
  16 O :   -0.703338
  17 C :    0.022837
  18 C :   -0.402093
  19 H :    0.163991
  20 H :    0.169148
  21 H :    0.162558
  22 H :    0.190734
  23 H :    0.181573
  24 H :    0.191960
  25 H :    0.191045
  26 H :    0.162133
  27 H :    0.161306
  28 H :    0.167950
  29 H :    0.197351
  30 H :    0.198486
  31 H :    0.181839
  32 H :    0.191511
  33 H :    0.161681
  34 H :    0.168868
  35 H :    0.163895
  36 H :    0.182029
  37 H :    0.190665
  38 H :    0.162663
  39 H :    0.168719
  40 H :    0.164394

  Mayer bond orders larger than 0.100000
B(  0-C ,  1-C ) :   0.9137 B(  0-C , 19-H ) :   0.9694 B(  0-C , 20-H ) :   0.9562
B(  0-C , 21-H ) :   0.9600 B(  1-C ,  2-O ) :   0.7961 B(  1-C , 22-H ) :   0.9515
B(  1-C , 23-H ) :   0.9602 B(  2-O ,  3-P ) :   1.1787 B(  3-P ,  4-S ) :   1.7193
B(  3-P ,  5-O ) :   1.0863 B(  3-P ,  8-S ) :   1.0862 B(  5-O ,  6-C ) :   0.7901
B(  6-C ,  7-C ) :   0.9098 B(  6-C , 24-H ) :   0.9489 B(  6-C , 25-H ) :   0.9568
B(  7-C , 26-H ) :   0.9697 B(  7-C , 27-H ) :   0.9559 B(  7-C , 28-H ) :   0.9585
B(  8-S ,  9-C ) :   0.9058 B(  9-C , 10-S ) :   0.8953 B(  9-C , 29-H ) :   0.9018
B(  9-C , 30-H ) :   0.8981 B( 10-S , 11-P ) :   1.0976 B( 11-P , 12-S ) :   1.7098
B( 11-P , 13-O ) :   1.0799 B( 11-P , 16-O ) :   1.1446 B( 13-O , 14-C ) :   0.8008
B( 14-C , 15-C ) :   0.9082 B( 14-C , 31-H ) :   0.9655 B( 14-C , 32-H ) :   0.9481
B( 15-C , 33-H ) :   0.9633 B( 15-C , 34-H ) :   0.9528 B( 15-C , 35-H ) :   0.9656
B( 16-O , 17-C ) :   0.7824 B( 17-C , 18-C ) :   0.9139 B( 17-C , 36-H ) :   0.9603
B( 17-C , 37-H ) :   0.9513 B( 18-C , 38-H ) :   0.9594 B( 18-C , 39-H ) :   0.9560
B( 18-C , 40-H ) :   0.9705

Dispersion correction           -0.021617815
FINAL SINGLE POINT ENERGY     -2932.469727071048

DIPOLE MOMENT
-------------

Method             : SCF
Type of density    : Electron Density
Multiplicity       :   1
Irrep              :   0
Energy             : -2932.4947379132049718 Eh
Relativity type    :
Basis              : AO
                                X                 Y                 Z
Electronic contribution:      1.607065625       5.606004005     -12.650713029
Nuclear contribution   :     -2.157648554      -6.595175746      13.960619630
                        -----------------------------------------
Total Dipole Moment    :     -0.550582929      -0.989171741       1.309906600
                        -----------------------------------------
Magnitude (a.u.)       :      1.731316723
Magnitude (Debye)      :      4.400657384

Rotational constants in cm-1:             0.014284             0.004489             0.004320
Rotational constants in MHz :           428.208763           134.586760           129.511651

                             ****ORCA TERMINATED NORMALLY****
TOTAL RUN TIME: 0 days 0 hours 1 minutes 54 seconds 212 msec
