                         Program Version 6.0.0  -   RELEASE  -
|  1> ! r2scan-3c def2/J RI DEFGRID2 scfconv6 printgap
|  2> %output
|  3>     printlevel normal
|  4> end
|  5> * xyz 0 1
|  6> C 1.1253704474 -1.7262450929 3.026488731
|  7> C 1.8082340153 -0.3915339578 2.8025652253
|  8> O 1.4075087951 0.1806172642 1.5340933228
|  9> P 2.2928709994 0.0248350392 0.2302472926
| 10> S 3.0859663198 -1.740635477 -0.1085685991
| 11> O 3.3588516974 1.1859202644 0.4463585848
| 12> C 4.579635469 1.2602010772 -0.3097366986
| 13> C 4.325250586 1.5978301842 -1.7645066272
| 14> S 0.9386346614 0.7670357662 -1.2080457502
| 15> C 0.1052424935 -0.8159133696 -1.5082924521
| 16> S -0.9542654322 -1.322862903 -0.1382143384
| 17> P -2.4312111896 0.1921590421 -0.432373026
| 18> S -2.7960535951 0.6652852486 -2.2942872424
| 19> O -1.9649936256 1.4755945061 0.3529695515
| 20> C -1.6903651696 1.4929860247 1.7760442173
| 21> C -0.8142061429 2.6948881222 2.0612266348
| 22> O -3.6315885113 -0.3086549686 0.4821248988
| 23> C -4.2145461207 -1.6257263926 0.4496703058
| 24> C -4.6740075039 -2.0308587843 -0.9348804148
| 25> H 1.4410714525 -2.4422341856 2.2707403192
| 26> H 1.3935979097 -2.1045788356 4.0075862198
| 27> H 0.0462784541 -1.6156768546 2.9650957545
| 28> H 2.8957846699 -0.5008532923 2.8204939723
| 29> H 1.5022871057 0.3462933139 3.5459672528
| 30> H 5.1527524998 2.0407988107 0.1921764116
| 31> H 5.0991510486 0.300323979 -0.2233524734
| 32> H 5.2729395132 1.7536619081 -2.2698646732
| 33> H 3.7968849833 0.7780445514 -2.2501504462
| 34> H 3.7202664458 2.497685412 -1.8442778336
| 35> H 0.8501936284 -1.6006620634 -1.641952946
| 36> H -0.5037895919 -0.6811608266 -2.4028956296
| 37> H -2.6472057266 1.5562320032 2.2975333057
| 38> H -1.1873838306 0.5602917491 2.047211808
| 39> H -0.6538343082 2.774810708 3.1316345881
| 40> H 0.1447823523 2.5868877743 1.5600256178
| 41> H -1.2965828479 3.5984474587 1.699539037
| 42> H -3.4757309796 -2.334224769 0.8342135817
| 43> H -5.0541104966 -1.5499103015 1.1429209992
| 44> H -5.3523683393 -1.2855100016 -1.3432385623
| 45> H -3.8194896616 -2.1188530481 -1.6042516065
| 46> H -5.1813023939 -2.9886604789 -0.8805194624
| 47> *
| 48>
| 49>                          ****END OF INPUT****

CARTESIAN COORDINATES (ANGSTROEM)
---------------------------------
  C      1.125370   -1.726245    3.026489
  C      1.808234   -0.391534    2.802565
  O      1.407509    0.180617    1.534093
  P      2.292871    0.024835    0.230247
  S      3.085966   -1.740635   -0.108569
  O      3.358852    1.185920    0.446359
  C      4.579635    1.260201   -0.309737
  C      4.325251    1.597830   -1.764507
  S      0.938635    0.767036   -1.208046
  C      0.105242   -0.815913   -1.508292
  S     -0.954265   -1.322863   -0.138214
  P     -2.431211    0.192159   -0.432373
  S     -2.796054    0.665285   -2.294287
  O     -1.964994    1.475595    0.352970
  C     -1.690365    1.492986    1.776044
  C     -0.814206    2.694888    2.061227
  O     -3.631589   -0.308655    0.482125
  C     -4.214546   -1.625726    0.449670
  C     -4.674008   -2.030859   -0.934880
  H      1.441071   -2.442234    2.270740
  H      1.393598   -2.104579    4.007586
  H      0.046278   -1.615677    2.965096
  H      2.895785   -0.500853    2.820494
  H      1.502287    0.346293    3.545967
  H      5.152752    2.040799    0.192176
  H      5.099151    0.300324   -0.223352
  H      5.272940    1.753662   -2.269865
  H      3.796885    0.778045   -2.250150
  H      3.720266    2.497685   -1.844278
  H      0.850194   -1.600662   -1.641953
  H     -0.503790   -0.681161   -2.402896
  H     -2.647206    1.556232    2.297533
  H     -1.187384    0.560292    2.047212
  H     -0.653834    2.774811    3.131635
  H      0.144782    2.586888    1.560026
  H     -1.296583    3.598447    1.699539
  H     -3.475731   -2.334225    0.834214
  H     -5.054110   -1.549910    1.142921
  H     -5.352368   -1.285510   -1.343239
  H     -3.819490   -2.118853   -1.604252
  H     -5.181302   -2.988660   -0.880519

 Total Charge           Charge          ....    0
 Multiplicity           Mult            ....    1
 Number of Electrons    NEL             ....  202
 Basis Dimension        Dim             ....  539

ORBITAL ENERGIES
----------------

  NO   OCC          E(Eh)            E(eV)
   0   2.0000     -88.577238     -2410.3092
   1   2.0000     -88.575365     -2410.2582
   2   2.0000     -88.524536     -2408.8751
   3   2.0000     -88.515541     -2408.6303
   4   2.0000     -76.917248     -2093.0247
   5   2.0000     -76.912478     -2092.8949
   6   2.0000     -18.996744      -516.9277
   7   2.0000     -18.994774      -516.8741
   8   2.0000     -18.993665      -516.8439
   9   2.0000     -18.986775      -516.6564
  10   2.0000     -10.105686      -274.9897
  11   2.0000     -10.105309      -274.9794
  12   2.0000     -10.104164      -274.9483
  13   2.0000     -10.100484      -274.8481
  14   2.0000     -10.097451      -274.7656
  15   2.0000     -10.030351      -272.9397
  16   2.0000     -10.029960      -272.9291
  17   2.0000     -10.028023      -272.8764
  18   2.0000     -10.027862      -272.8720
  19   2.0000      -7.871408      -214.1919
  20   2.0000      -7.869791      -214.1479
  21   2.0000      -7.819353      -212.7754
  22   2.0000      -7.810375      -212.5311
  23   2.0000      -6.595862      -179.4825
  24   2.0000      -6.590763      -179.3438
  25   2.0000      -5.818323      -158.3246
  26   2.0000      -5.816518      -158.2755
  27   2.0000      -5.815377      -158.2445
  28   2.0000      -5.813552      -158.1948
  29   2.0000      -5.808392      -158.0544
  30   2.0000      -5.807134      -158.0202
  31   2.0000      -5.766945      -156.9265
  32   2.0000      -5.759740      -156.7305
  33   2.0000      -5.759299      -156.7185
  34   2.0000      -5.758185      -156.6882
  35   2.0000      -5.750619      -156.4823
  36   2.0000      -5.750254      -156.4724
  37   2.0000      -4.741431      -129.0209
  38   2.0000      -4.740690      -129.0007
  39   2.0000      -4.739604      -128.9712
  40   2.0000      -4.736588      -128.8891
  41   2.0000      -4.735972      -128.8723
  42   2.0000      -4.733978      -128.8181
  43   2.0000      -1.054055       -28.6823
  44   2.0000      -1.050466       -28.5846
  45   2.0000      -1.014341       -27.6016
  46   2.0000      -1.008146       -27.4331
  47   2.0000      -0.803821       -21.8731
  48   2.0000      -0.760492       -20.6940
  49   2.0000      -0.751993       -20.4628
  50   2.0000      -0.733848       -19.9690
  51   2.0000      -0.733464       -19.9586
  52   2.0000      -0.713528       -19.4161
  53   2.0000      -0.686063       -18.6687
  54   2.0000      -0.670121       -18.2349
  55   2.0000      -0.631989       -17.1973
  56   2.0000      -0.620356       -16.8807
  57   2.0000      -0.611510       -16.6400
  58   2.0000      -0.602309       -16.3897
  59   2.0000      -0.593089       -16.1388
  60   2.0000      -0.533760       -14.5244
  61   2.0000      -0.526256       -14.3202
  62   2.0000      -0.494229       -13.4487
  63   2.0000      -0.493076       -13.4173
  64   2.0000      -0.480995       -13.0886
  65   2.0000      -0.467037       -12.7087
  66   2.0000      -0.460406       -12.5283
  67   2.0000      -0.452219       -12.3055
  68   2.0000      -0.446827       -12.1588
  69   2.0000      -0.436713       -11.8836
  70   2.0000      -0.432672       -11.7736
  71   2.0000      -0.418280       -11.3820
  72   2.0000      -0.411053       -11.1853
  73   2.0000      -0.400796       -10.9062
  74   2.0000      -0.398606       -10.8466
  75   2.0000      -0.391329       -10.6486
  76   2.0000      -0.380378       -10.3506
  77   2.0000      -0.372626       -10.1397
  78   2.0000      -0.368910       -10.0385
  79   2.0000      -0.363967        -9.9041
  80   2.0000      -0.362249        -9.8573
  81   2.0000      -0.361007        -9.8235
  82   2.0000      -0.358045        -9.7429
  83   2.0000      -0.352425        -9.5900
  84   2.0000      -0.352011        -9.5787
  85   2.0000      -0.333815        -9.0836
  86   2.0000      -0.326279        -8.8785
  87   2.0000      -0.313039        -8.5182
  88   2.0000      -0.312372        -8.5001
  89   2.0000      -0.310278        -8.4431
  90   2.0000      -0.306450        -8.3389
  91   2.0000      -0.297000        -8.0818
  92   2.0000      -0.289116        -7.8673
  93   2.0000      -0.282061        -7.6753
  94   2.0000      -0.272216        -7.4074
  95   2.0000      -0.248063        -6.7501
  96   2.0000      -0.232690        -6.3318
  97   2.0000      -0.226785        -6.1711
  98   2.0000      -0.217742        -5.9251
  99   2.0000      -0.213242        -5.8026
 100   2.0000      -0.210594        -5.7306
 101   0.0000      -0.047424        -1.2905
 102   0.0000      -0.026462        -0.7201
 103   0.0000      -0.005540        -0.1507
 104   0.0000      -0.003456        -0.0940
 105   0.0000       0.012859         0.3499

MULLIKEN ATOMIC CHARGES
-----------------------
   0 C :   -0.440845
   1 C :   -0.143798
   2 O :   -0.260404
   3 P :    0.657112
   4 S :   -0.481327
   5 O :   -0.306010
   6 C :   -0.148750
   7 C :   -0.454478
   8 S :   -0.091803
   9 C :   -0.246529
  10 S :   -0.177383
  11 P :    0.655819
  12 S :   -0.433203
  13 O :   -0.255658
  14 C :   -0.107840
  15 C :   -0.466405
  16 O :   -0.295627
  17 C :   -0.159767
  18 C :   -0.427737
  19 H :    0.183585
  20 H :    0.146134
  21 H :    0.146265
  22 H :    0.153819
  23 H :    0.153396
  24 H :    0.148051
  25 H :    0.171774
  26 H :    0.148499
  27 H :    0.177370
  28 H :    0.157720
  29 H :    0.214447
  30 H :    0.221383
  31 H :    0.153529
  32 H :    0.156265
  33 H :    0.140278
  34 H :    0.174697
  35 H :    0.156091
  36 H :    0.150747
  37 H :    0.149466
  38 H :    0.165223
  39 H :    0.169710
  40 H :    0.146184
Sum of atomic charges:   -0.0000000

LOEWDIN ATOMIC CHARGES
----------------------
   0 C :   -0.403993
   1 C :    0.023760
   2 O :   -0.687087
   3 P :    0.375088
   4 S :   -0.135819
   5 O :   -0.660569
   6 C :    0.019355
   7 C :   -0.405570
   8 S :    0.191299
   9 C :   -0.423580
  10 S :    0.138593
  11 P :    0.378437
  12 S :   -0.101538
  13 O :   -0.653212
  14 C :    0.023715
  15 C :   -0.388923
  16 O :   -0.663510
  17 C :    0.023694
  18 C :   -0.405764
  19 H :    0.169759
  20 H :    0.157957
  21 H :    0.156412
  22 H :    0.177481
  23 H :    0.178230
  24 H :    0.179476
  25 H :    0.179865
  26 H :    0.160001
  27 H :    0.166040
  28 H :    0.160821
  29 H :    0.191812
  30 H :    0.194369
  31 H :    0.172465
  32 H :    0.178103
  33 H :    0.158074
  34 H :    0.168746
  35 H :    0.162433
  36 H :    0.171161
  37 H :    0.181110
  38 H :    0.165945
  39 H :    0.167087
  40 H :    0.158278

  Mayer bond orders larger than 0.100000
B(  0-C ,  1-C ) :   0.9412 B(  0-C , 19-H ) :   0.9590 B(  0-C , 20-H ) :   0.9657
B(  0-C , 21-H ) :   0.9700 B(  1-C ,  2-O ) :   0.7439 B(  1-C , 22-H ) :   0.9599
B(  1-C , 23-H ) :   0.9665 B(  2-O ,  3-P ) :   1.1307 B(  3-P ,  4-S ) :   1.7542
B(  3-P ,  5-O ) :   1.0682 B(  3-P ,  8-S ) :   1.1126 B(  5-O ,  6-C ) :   0.8170
B(  6-C ,  7-C ) :   0.9229 B(  6-C , 24-H ) :   0.9581 B(  6-C , 25-H ) :   0.9648
B(  7-C , 26-H ) :   0.9587 B(  7-C , 27-H ) :   0.9610 B(  7-C , 28-H ) :   0.9688
B(  8-S ,  9-C ) :   0.9128 B(  9-C , 10-S ) :   0.9162 B(  9-C , 29-H ) :   0.9057
B(  9-C , 30-H ) :   0.9016 B( 10-S , 11-P ) :   0.9784 B( 11-P , 12-S ) :   1.8567
B( 11-P , 13-O ) :   1.1653 B( 11-P , 16-O ) :   1.0388 B( 13-O , 14-C ) :   0.7349
B( 14-C , 15-C ) :   0.9381 B( 14-C , 31-H ) :   0.9438 B( 14-C , 32-H ) :   0.9528
B( 15-C , 33-H ) :   0.9693 B( 15-C , 34-H ) :   0.9685 B( 15-C , 35-H ) :   0.9691
B( 16-O , 17-C ) :   0.8053 B( 17-C , 18-C ) :   0.9440 B( 17-C , 36-H ) :   0.9614
B( 17-C , 37-H ) :   0.9585 B( 18-C , 38-H ) :   0.9657 B( 18-C , 39-H ) :   0.9545
B( 18-C , 40-H ) :   0.9619

Dispersion correction           -0.021978077
FINAL SINGLE POINT ENERGY     -2932.462269313459

DIPOLE MOMENT
-------------

Method             : SCF
Type of density    : Electron Density
Multiplicity       :   1
Irrep              :   0
Energy             : -2932.4867644461555756 Eh
Relativity type    :
Basis              : AO
                                X                 Y                 Z
Electronic contribution:     -1.780595868       0.358813063     -11.844212730
Nuclear contribution   :      2.114992619      -0.511478183      13.516488238
                        -----------------------------------------
Total Dipole Moment    :      0.334396751      -0.152665120       1.672275508
                        -----------------------------------------
Magnitude (a.u.)       :      1.712201273
Magnitude (Debye)      :      4.352069771

Rotational constants in cm-1:             0.012599             0.005019             0.004791
Rotational constants in MHz :           377.716898           150.457412           143.644030

                             ****ORCA TERMINATED NORMALLY****
TOTAL RUN TIME: 0 days 0 hours 1 minutes 20 seconds 440 msec
