                         Program Version 6.0.0  -   RELEASE  -
|  1> ! r2scan-3c def2/J RI DEFGRID2 scfconv6 printgap
|  2> %output
|  3>     printlevel normal
|  4> end
|  5> %cpcm
|  6>     smd true
|  7>     smdsolvent "water"
|  8> end
|  9> * xyz 0 1
| 10> C 1.1253704474 -1.7262450929 3.026488731
| 11> C 1.8082340153 -0.3915339578 2.8025652253
| 12> O 1.4075087951 0.1806172642 1.5340933228
| 13> P 2.2928709994 0.0248350392 0.2302472926
| 14> S 3.0859663198 -1.740635477 -0.1085685991
| 15> O 3.3588516974 1.1859202644 0.4463585848
| 16> C 4.579635469 1.2602010772 -0.3097366986
| 17> C 4.325250586 1.5978301842 -1.7645066272
| 18> S 0.9386346614 0.7670357662 -1.2080457502
| 19> C 0.1052424935 -0.8159133696 -1.5082924521
| 20> S -0.9542654322 -1.322862903 -0.1382143384
| 21> P -2.4312111896 0.1921590421 -0.432373026
| 22> S -2.7960535951 0.6652852486 -2.2942872424
| 23> O -1.9649936256 1.4755945061 0.3529695515
| 24> C -1.6903651696 1.4929860247 1.7760442173
| 25> C -0.8142061429 2.6948881222 2.0612266348
| 26> O -3.6315885113 -0.3086549686 0.4821248988
| 27> C -4.2145461207 -1.6257263926 0.4496703058
| 28> C -4.6740075039 -2.0308587843 -0.9348804148
| 29> H 1.4410714525 -2.4422341856 2.2707403192
| 30> H 1.3935979097 -2.1045788356 4.0075862198
| 31> H 0.0462784541 -1.6156768546 2.9650957545
| 32> H 2.8957846699 -0.5008532923 2.8204939723
| 33> H 1.5022871057 0.3462933139 3.5459672528
| 34> H 5.1527524998 2.0407988107 0.1921764116
| 35> H 5.0991510486 0.300323979 -0.2233524734
| 36> H 5.2729395132 1.7536619081 -2.2698646732
| 37> H 3.7968849833 0.7780445514 -2.2501504462
| 38> H 3.7202664458 2.497685412 -1.8442778336
| 39> H 0.8501936284 -1.6006620634 -1.641952946
| 40> H -0.5037895919 -0.6811608266 -2.4028956296
| 41> H -2.6472057266 1.5562320032 2.2975333057
| 42> H -1.1873838306 0.5602917491 2.047211808
| 43> H -0.6538343082 2.774810708 3.1316345881
| 44> H 0.1447823523 2.5868877743 1.5600256178
| 45> H -1.2965828479 3.5984474587 1.699539037
| 46> H -3.4757309796 -2.334224769 0.8342135817
| 47> H -5.0541104966 -1.5499103015 1.1429209992
| 48> H -5.3523683393 -1.2855100016 -1.3432385623
| 49> H -3.8194896616 -2.1188530481 -1.6042516065
| 50> H -5.1813023939 -2.9886604789 -0.8805194624
| 51> *
| 52>
| 53>                          ****END OF INPUT****

CARTESIAN COORDINATES (ANGSTROEM)
---------------------------------
  C      1.125370   -1.726245    3.026489
  C      1.808234   -0.391534    2.802565
  O      1.407509    0.180617    1.534093
  P      2.292871    0.024835    0.230247
  S      3.085966   -1.740635   -0.108569
  O      3.358852    1.185920    0.446359
  C      4.579635    1.260201   -0.309737
  C      4.325251    1.597830   -1.764507
  S      0.938635    0.767036   -1.208046
  C      0.105242   -0.815913   -1.508292
  S     -0.954265   -1.322863   -0.138214
  P     -2.431211    0.192159   -0.432373
  S     -2.796054    0.665285   -2.294287
  O     -1.964994    1.475595    0.352970
  C     -1.690365    1.492986    1.776044
  C     -0.814206    2.694888    2.061227
  O     -3.631589   -0.308655    0.482125
  C     -4.214546   -1.625726    0.449670
  C     -4.674008   -2.030859   -0.934880
  H      1.441071   -2.442234    2.270740
  H      1.393598   -2.104579    4.007586
  H      0.046278   -1.615677    2.965096
  H      2.895785   -0.500853    2.820494
  H      1.502287    0.346293    3.545967
  H      5.152752    2.040799    0.192176
  H      5.099151    0.300324   -0.223352
  H      5.272940    1.753662   -2.269865
  H      3.796885    0.778045   -2.250150
  H      3.720266    2.497685   -1.844278
  H      0.850194   -1.600662   -1.641953
  H     -0.503790   -0.681161   -2.402896
  H     -2.647206    1.556232    2.297533
  H     -1.187384    0.560292    2.047212
  H     -0.653834    2.774811    3.131635
  H      0.144782    2.586888    1.560026
  H     -1.296583    3.598447    1.699539
  H     -3.475731   -2.334225    0.834214
  H     -5.054110   -1.549910    1.142921
  H     -5.352368   -1.285510   -1.343239
  H     -3.819490   -2.118853   -1.604252
  H     -5.181302   -2.988660   -0.880519

 Total Charge           Charge          ....    0
 Multiplicity           Mult            ....    1
 Number of Electrons    NEL             ....  202
 Basis Dimension        Dim             ....  539

ORBITAL ENERGIES
----------------

  NO   OCC          E(Eh)            E(eV)
   0   2.0000     -88.580298     -2410.3924
   1   2.0000     -88.578191     -2410.3351
   2   2.0000     -88.528280     -2408.9770
   3   2.0000     -88.527591     -2408.9582
   4   2.0000     -76.919882     -2093.0964
   5   2.0000     -76.919063     -2093.0741
   6   2.0000     -18.996487      -516.9207
   7   2.0000     -18.996163      -516.9119
   8   2.0000     -18.992843      -516.8215
   9   2.0000     -18.990698      -516.7632
  10   2.0000     -10.104196      -274.9492
  11   2.0000     -10.093433      -274.6563
  12   2.0000     -10.090336      -274.5720
  13   2.0000     -10.089863      -274.5591
  14   2.0000     -10.089254      -274.5426
  15   2.0000     -10.018892      -272.6279
  16   2.0000     -10.018736      -272.6237
  17   2.0000     -10.018710      -272.6230
  18   2.0000     -10.015985      -272.5488
  19   2.0000      -7.874595      -214.2786
  20   2.0000      -7.872533      -214.2225
  21   2.0000      -7.823377      -212.8849
  22   2.0000      -7.822823      -212.8698
  23   2.0000      -6.598217      -179.5466
  24   2.0000      -6.597671      -179.5318
  25   2.0000      -5.821468      -158.4102
  26   2.0000      -5.819304      -158.3513
  27   2.0000      -5.818550      -158.3308
  28   2.0000      -5.816322      -158.2702
  29   2.0000      -5.811631      -158.1425
  30   2.0000      -5.809813      -158.0930
  31   2.0000      -5.770923      -157.0348
  32   2.0000      -5.770492      -157.0231
  33   2.0000      -5.763771      -156.8402
  34   2.0000      -5.763310      -156.8276
  35   2.0000      -5.763070      -156.8211
  36   2.0000      -5.762762      -156.8127
  37   2.0000      -4.743981      -129.0903
  38   2.0000      -4.743374      -129.0738
  39   2.0000      -4.743155      -129.0678
  40   2.0000      -4.742507      -129.0502
  41   2.0000      -4.741584      -129.0251
  42   2.0000      -4.741526      -129.0235
  43   2.0000      -1.053813       -28.6757
  44   2.0000      -1.051952       -28.6251
  45   2.0000      -1.011478       -27.5237
  46   2.0000      -1.011037       -27.5117
  47   2.0000      -0.805579       -21.9209
  48   2.0000      -0.756872       -20.5955
  49   2.0000      -0.745279       -20.2801
  50   2.0000      -0.725854       -19.7515
  51   2.0000      -0.722356       -19.6563
  52   2.0000      -0.711404       -19.3583
  53   2.0000      -0.689076       -18.7507
  54   2.0000      -0.675173       -18.3724
  55   2.0000      -0.628331       -17.0978
  56   2.0000      -0.617066       -16.7912
  57   2.0000      -0.601805       -16.3760
  58   2.0000      -0.598754       -16.2929
  59   2.0000      -0.590241       -16.0613
  60   2.0000      -0.528867       -14.3912
  61   2.0000      -0.519987       -14.1496
  62   2.0000      -0.490653       -13.3514
  63   2.0000      -0.486137       -13.2285
  64   2.0000      -0.479919       -13.0592
  65   2.0000      -0.460644       -12.5348
  66   2.0000      -0.454435       -12.3658
  67   2.0000      -0.445679       -12.1275
  68   2.0000      -0.441591       -12.0163
  69   2.0000      -0.433378       -11.7928
  70   2.0000      -0.428314       -11.6550
  71   2.0000      -0.412356       -11.2208
  72   2.0000      -0.408155       -11.1065
  73   2.0000      -0.398365       -10.8401
  74   2.0000      -0.392343       -10.6762
  75   2.0000      -0.389350       -10.5948
  76   2.0000      -0.377974       -10.2852
  77   2.0000      -0.364512        -9.9189
  78   2.0000      -0.362156        -9.8548
  79   2.0000      -0.358390        -9.7523
  80   2.0000      -0.355868        -9.6837
  81   2.0000      -0.353611        -9.6222
  82   2.0000      -0.349949        -9.5226
  83   2.0000      -0.347096        -9.4450
  84   2.0000      -0.346294        -9.4231
  85   2.0000      -0.329823        -8.9749
  86   2.0000      -0.320575        -8.7233
  87   2.0000      -0.311432        -8.4745
  88   2.0000      -0.308315        -8.3897
  89   2.0000      -0.305359        -8.3093
  90   2.0000      -0.300834        -8.1861
  91   2.0000      -0.291239        -7.9250
  92   2.0000      -0.287544        -7.8245
  93   2.0000      -0.280286        -7.6270
  94   2.0000      -0.274002        -7.4560
  95   2.0000      -0.250910        -6.8276
  96   2.0000      -0.237370        -6.4592
  97   2.0000      -0.233021        -6.3408
  98   2.0000      -0.224548        -6.1103
  99   2.0000      -0.222511        -6.0548
 100   2.0000      -0.220699        -6.0055
 101   0.0000      -0.051783        -1.4091
 102   0.0000      -0.032026        -0.8715
 103   0.0000      -0.008501        -0.2313
 104   0.0000      -0.007100        -0.1932
 105   0.0000       0.013930         0.3790

MULLIKEN ATOMIC CHARGES
-----------------------
   0 C :   -0.483658
   1 C :   -0.138169
   2 O :   -0.281340
   3 P :    0.699017
   4 S :   -0.525125
   5 O :   -0.330238
   6 C :   -0.148644
   7 C :   -0.490903
   8 S :   -0.120329
   9 C :   -0.253447
  10 S :   -0.167291
  11 P :    0.672298
  12 S :   -0.497195
  13 O :   -0.286964
  14 C :   -0.109674
  15 C :   -0.504612
  16 O :   -0.317398
  17 C :   -0.159275
  18 C :   -0.466379
  19 H :    0.172096
  20 H :    0.169266
  21 H :    0.165237
  22 H :    0.168914
  23 H :    0.180001
  24 H :    0.174864
  25 H :    0.177084
  26 H :    0.172817
  27 H :    0.171982
  28 H :    0.170605
  29 H :    0.234028
  30 H :    0.235490
  31 H :    0.174605
  32 H :    0.176113
  33 H :    0.171897
  34 H :    0.169825
  35 H :    0.166378
  36 H :    0.172221
  37 H :    0.177351
  38 H :    0.170283
  39 H :    0.164779
  40 H :    0.173489
Sum of atomic charges:   -0.0000000

LOEWDIN ATOMIC CHARGES
----------------------
   0 C :   -0.407563
   1 C :    0.030298
   2 O :   -0.692609
   3 P :    0.381947
   4 S :   -0.162319
   5 O :   -0.670586
   6 C :    0.024532
   7 C :   -0.409472
   8 S :    0.174120
   9 C :   -0.419319
  10 S :    0.150398
  11 P :    0.380928
  12 S :   -0.149952
  13 O :   -0.677284
  14 C :    0.029855
  15 C :   -0.393139
  16 O :   -0.670941
  17 C :    0.031248
  18 C :   -0.409538
  19 H :    0.162809
  20 H :    0.166316
  21 H :    0.161479
  22 H :    0.181913
  23 H :    0.190167
  24 H :    0.190731
  25 H :    0.181493
  26 H :    0.168664
  27 H :    0.161533
  28 H :    0.163687
  29 H :    0.197578
  30 H :    0.198140
  31 H :    0.182181
  32 H :    0.185533
  33 H :    0.170704
  34 H :    0.164738
  35 H :    0.164098
  36 H :    0.179553
  37 H :    0.193092
  38 H :    0.164327
  39 H :    0.162026
  40 H :    0.168633

  Mayer bond orders larger than 0.100000
B(  0-C ,  1-C ) :   0.9256 B(  0-C , 19-H ) :   0.9640 B(  0-C , 20-H ) :   0.9609
B(  0-C , 21-H ) :   0.9687 B(  1-C ,  2-O ) :   0.7318 B(  1-C , 22-H ) :   0.9562
B(  1-C , 23-H ) :   0.9549 B(  2-O ,  3-P ) :   1.1456 B(  3-P ,  4-S ) :   1.7171
B(  3-P ,  5-O ) :   1.0758 B(  3-P ,  8-S ) :   1.1119 B(  5-O ,  6-C ) :   0.8057
B(  6-C ,  7-C ) :   0.9098 B(  6-C , 24-H ) :   0.9488 B(  6-C , 25-H ) :   0.9637
B(  7-C , 26-H ) :   0.9535 B(  7-C , 27-H ) :   0.9626 B(  7-C , 28-H ) :   0.9663
B(  8-S ,  9-C ) :   0.8990 B(  9-C , 10-S ) :   0.9039 B(  9-C , 29-H ) :   0.9023
B(  9-C , 30-H ) :   0.8979 B( 10-S , 11-P ) :   0.9963 B( 11-P , 12-S ) :   1.8219
B( 11-P , 13-O ) :   1.1714 B( 11-P , 16-O ) :   1.0576 B( 13-O , 14-C ) :   0.7246
B( 14-C , 15-C ) :   0.9281 B( 14-C , 31-H ) :   0.9345 B( 14-C , 32-H ) :   0.9446
B( 15-C , 33-H ) :   0.9613 B( 15-C , 34-H ) :   0.9691 B( 15-C , 35-H ) :   0.9681
B( 16-O , 17-C ) :   0.7937 B( 17-C , 18-C ) :   0.9221 B( 17-C , 36-H ) :   0.9572
B( 17-C , 37-H ) :   0.9489 B( 18-C , 38-H ) :   0.9668 B( 18-C , 39-H ) :   0.9578
B( 18-C , 40-H ) :   0.9559

Dispersion correction           -0.021978077
FINAL SINGLE POINT ENERGY     -2932.471932703581

DIPOLE MOMENT
-------------

Method             : SCF
Type of density    : Electron Density
Multiplicity       :   1
Irrep              :   0
Energy             : -2932.4964278362781442 Eh
Relativity type    :
Basis              : AO
                                X                 Y                 Z
Electronic contribution:     -1.642063714       0.073765285     -11.034226708
Nuclear contribution   :      2.114992619      -0.511478183      13.516488238
                        -----------------------------------------
Total Dipole Moment    :      0.472928905      -0.437712899       2.482261530
                        -----------------------------------------
Magnitude (a.u.)       :      2.564542188
Magnitude (Debye)      :      6.518548204

Rotational constants in cm-1:             0.012599             0.005019             0.004791
Rotational constants in MHz :           377.716898           150.457412           143.644030

                             ****ORCA TERMINATED NORMALLY****
TOTAL RUN TIME: 0 days 0 hours 1 minutes 58 seconds 894 msec
