                         Program Version 6.0.0  -   RELEASE  -
|  1> ! pbe def2-sv(p) def2/J RI DEFGRID1 loosescf d4 GCP(DFT/SV(P)) printgap
|  2> %output
|  3>     printlevel normal
|  4> end
|  5> * xyz 0 1
|  6> C 4.08791736 1.4563896504 -1.6519919639
|  7> C 2.7444511843 0.8773746396 -2.0393020053
|  8> O 2.4461388566 -0.3085806021 -1.2824456188
|  9> P 2.1388682728 -0.2784373002 0.272816509
| 10> S 1.1995286968 1.3382879424 0.8775889106
| 11> O 3.5835530029 -0.4972002538 0.8950927081
| 12> C 3.8640939598 -1.0519628224 2.1944285464
| 13> C 3.0252226811 -0.4387811767 3.2960824791
| 14> S 1.2521512537 -2.1786809014 0.5098246458
| 15> C -0.339196221 -1.9015637003 -0.3059202392
| 16> S -1.5024557271 -0.9412120815 0.7156378205
| 17> P -2.1410733553 0.4341322631 -0.7790853985
| 18> S -0.8312904952 0.907180333 -2.1537941825
| 19> O -2.8258636028 1.6220874302 0.016299676
| 20> C -2.1393518211 2.6169823251 0.8007392411
| 21> C -2.1528518632 2.2493406744 2.270741016
| 22> O -3.3918318284 -0.2332383177 -1.4667268457
| 23> C -4.5542535377 -0.7044671725 -0.7347292545
| 24> C -4.5961696767 -2.2195748539 -0.7428655568
| 25> H 4.8650878477 0.7046511054 -1.7612031299
| 26> H 4.3103736746 2.3076085424 -2.2875626116
| 27> H 4.0588033227 1.78389398 -0.6130816892
| 28> H 2.7229940661 0.5394843144 -3.0762083873
| 29> H 1.9405212713 1.6047359202 -1.8836568391
| 30> H 3.7011828067 -2.1318662401 2.139448277
| 31> H 4.9260168296 -0.8439304307 2.3377542205
| 32> H 1.9721453786 -0.6706680726 3.138526087
| 33> H 3.3364155769 -0.8444388814 4.2533311732
| 34> H 3.1421716484 0.6425066199 3.3072494906
| 35> H -0.7545699038 -2.8913320133 -0.4762193351
| 36> H -0.1802922065 -1.3663288878 -1.2457624717
| 37> H -1.1151905225 2.7293130804 0.4342329038
| 38> H -2.6947987693 3.5382863202 0.6157602338
| 39> H -3.1719787812 2.0809139948 2.6066858393
| 40> H -1.5651929871 1.3506122369 2.4422064617
| 41> H -1.7131692991 3.0629892306 2.8380127366
| 42> H -4.5216162755 -0.3109026869 0.282904273
| 43> H -5.4072898138 -0.279306025 -1.2654315678
| 44> H -3.7750779476 -2.6276607319 -0.1588816578
| 45> H -5.5352337726 -2.5488836321 -0.309707138
| 46> H -4.5238346902 -2.5870112438 -1.7627882877
| 47> *
| 48>
| 49>                          ****END OF INPUT****

CARTESIAN COORDINATES (ANGSTROEM)
---------------------------------
  C      4.087917    1.456390   -1.651992
  C      2.744451    0.877375   -2.039302
  O      2.446139   -0.308581   -1.282446
  P      2.138868   -0.278437    0.272817
  S      1.199529    1.338288    0.877589
  O      3.583553   -0.497200    0.895093
  C      3.864094   -1.051963    2.194429
  C      3.025223   -0.438781    3.296082
  S      1.252151   -2.178681    0.509825
  C     -0.339196   -1.901564   -0.305920
  S     -1.502456   -0.941212    0.715638
  P     -2.141073    0.434132   -0.779085
  S     -0.831290    0.907180   -2.153794
  O     -2.825864    1.622087    0.016300
  C     -2.139352    2.616982    0.800739
  C     -2.152852    2.249341    2.270741
  O     -3.391832   -0.233238   -1.466727
  C     -4.554254   -0.704467   -0.734729
  C     -4.596170   -2.219575   -0.742866
  H      4.865088    0.704651   -1.761203
  H      4.310374    2.307609   -2.287563
  H      4.058803    1.783894   -0.613082
  H      2.722994    0.539484   -3.076208
  H      1.940521    1.604736   -1.883657
  H      3.701183   -2.131866    2.139448
  H      4.926017   -0.843930    2.337754
  H      1.972145   -0.670668    3.138526
  H      3.336416   -0.844439    4.253331
  H      3.142172    0.642507    3.307249
  H     -0.754570   -2.891332   -0.476219
  H     -0.180292   -1.366329   -1.245762
  H     -1.115191    2.729313    0.434233
  H     -2.694799    3.538286    0.615760
  H     -3.171979    2.080914    2.606686
  H     -1.565193    1.350612    2.442206
  H     -1.713169    3.062989    2.838013
  H     -4.521616   -0.310903    0.282904
  H     -5.407290   -0.279306   -1.265432
  H     -3.775078   -2.627661   -0.158882
  H     -5.535234   -2.548884   -0.309707
  H     -4.523835   -2.587011   -1.762788

 Total Charge           Charge          ....    0
 Multiplicity           Mult            ....    1
 Number of Electrons    NEL             ....  202
 Basis Dimension        Dim             ....  334

ORBITAL ENERGIES
----------------

  NO   OCC          E(Eh)            E(eV)
   0   2.0000     -88.045323     -2395.8350
   1   2.0000     -88.040724     -2395.7099
   2   2.0000     -87.979989     -2394.0572
   3   2.0000     -87.979262     -2394.0374
   4   2.0000     -76.424041     -2079.6039
   5   2.0000     -76.422633     -2079.5656
   6   2.0000     -18.792280      -511.3639
   7   2.0000     -18.789686      -511.2933
   8   2.0000     -18.785117      -511.1690
   9   2.0000     -18.781691      -511.0758
  10   2.0000      -9.958409      -270.9821
  11   2.0000      -9.956675      -270.9349
  12   2.0000      -9.954704      -270.8813
  13   2.0000      -9.948704      -270.7180
  14   2.0000      -9.938854      -270.4500
  15   2.0000      -9.886529      -269.0261
  16   2.0000      -9.883041      -268.9312
  17   2.0000      -9.879998      -268.8484
  18   2.0000      -9.874945      -268.7109
  19   2.0000      -7.690772      -209.2765
  20   2.0000      -7.685411      -209.1307
  21   2.0000      -7.624772      -207.4806
  22   2.0000      -7.624433      -207.4714
  23   2.0000      -6.421223      -174.7304
  24   2.0000      -6.420192      -174.7023
  25   2.0000      -5.718569      -155.6102
  26   2.0000      -5.715241      -155.5196
  27   2.0000      -5.713204      -155.4642
  28   2.0000      -5.710066      -155.3788
  29   2.0000      -5.707791      -155.3169
  30   2.0000      -5.702363      -155.1692
  31   2.0000      -5.653593      -153.8421
  32   2.0000      -5.653498      -153.8395
  33   2.0000      -5.645529      -153.6226
  34   2.0000      -5.645194      -153.6135
  35   2.0000      -5.644897      -153.6055
  36   2.0000      -5.644225      -153.5872
  37   2.0000      -4.643785      -126.3638
  38   2.0000      -4.643268      -126.3498
  39   2.0000      -4.642989      -126.3421
  40   2.0000      -4.641995      -126.3151
  41   2.0000      -4.641517      -126.3021
  42   2.0000      -4.640407      -126.2719
  43   2.0000      -0.985142       -26.8071
  44   2.0000      -0.981910       -26.7191
  45   2.0000      -0.940661       -25.5967
  46   2.0000      -0.940551       -25.5937
  47   2.0000      -0.762194       -20.7404
  48   2.0000      -0.719618       -19.5818
  49   2.0000      -0.708127       -19.2691
  50   2.0000      -0.687474       -18.7071
  51   2.0000      -0.685310       -18.6482
  52   2.0000      -0.672307       -18.2944
  53   2.0000      -0.650226       -17.6935
  54   2.0000      -0.632829       -17.2202
  55   2.0000      -0.594072       -16.1655
  56   2.0000      -0.586923       -15.9710
  57   2.0000      -0.572819       -15.5872
  58   2.0000      -0.570978       -15.5371
  59   2.0000      -0.560985       -15.2652
  60   2.0000      -0.502745       -13.6804
  61   2.0000      -0.489774       -13.3274
  62   2.0000      -0.475485       -12.9386
  63   2.0000      -0.465427       -12.6649
  64   2.0000      -0.453857       -12.3501
  65   2.0000      -0.450075       -12.2472
  66   2.0000      -0.438745       -11.9389
  67   2.0000      -0.432597       -11.7716
  68   2.0000      -0.426460       -11.6046
  69   2.0000      -0.416341       -11.3292
  70   2.0000      -0.411766       -11.2047
  71   2.0000      -0.397450       -10.8152
  72   2.0000      -0.388869       -10.5817
  73   2.0000      -0.384821       -10.4715
  74   2.0000      -0.378870       -10.3096
  75   2.0000      -0.371085       -10.0977
  76   2.0000      -0.362016        -9.8509
  77   2.0000      -0.356227        -9.6934
  78   2.0000      -0.348575        -9.4852
  79   2.0000      -0.347293        -9.4503
  80   2.0000      -0.346226        -9.4213
  81   2.0000      -0.341588        -9.2951
  82   2.0000      -0.339004        -9.2248
  83   2.0000      -0.335384        -9.1263
  84   2.0000      -0.330328        -8.9887
  85   2.0000      -0.312992        -8.5169
  86   2.0000      -0.311487        -8.4760
  87   2.0000      -0.296701        -8.0737
  88   2.0000      -0.295326        -8.0362
  89   2.0000      -0.289567        -7.8795
  90   2.0000      -0.282247        -7.6803
  91   2.0000      -0.272083        -7.4037
  92   2.0000      -0.265866        -7.2346
  93   2.0000      -0.259592        -7.0639
  94   2.0000      -0.257542        -7.0081
  95   2.0000      -0.242562        -6.6005
  96   2.0000      -0.221402        -6.0247
  97   2.0000      -0.204866        -5.5747
  98   2.0000      -0.199559        -5.4303
  99   2.0000      -0.191026        -5.1981
 100   2.0000      -0.180004        -4.8982
 101   0.0000      -0.041198        -1.1211
 102   0.0000      -0.031393        -0.8542
 103   0.0000      -0.016121        -0.4387
 104   0.0000       0.001955         0.0532
 105   0.0000       0.018866         0.5134

MULLIKEN ATOMIC CHARGES
-----------------------
   0 C :   -0.300920
   1 C :   -0.016710
   2 O :   -0.364390
   3 P :    0.625039
   4 S :   -0.331958
   5 O :   -0.376112
   6 C :   -0.010732
   7 C :   -0.315098
   8 S :   -0.103780
   9 C :   -0.340071
  10 S :   -0.106644
  11 P :    0.605940
  12 S :   -0.304117
  13 O :   -0.379127
  14 C :   -0.011913
  15 C :   -0.309622
  16 O :   -0.359174
  17 C :   -0.007768
  18 C :   -0.289897
  19 H :    0.111805
  20 H :    0.109124
  21 H :    0.120519
  22 H :    0.103223
  23 H :    0.130299
  24 H :    0.114548
  25 H :    0.110657
  26 H :    0.127566
  27 H :    0.110814
  28 H :    0.127887
  29 H :    0.181688
  30 H :    0.197279
  31 H :    0.128913
  32 H :    0.105037
  33 H :    0.108519
  34 H :    0.139255
  35 H :    0.111840
  36 H :    0.102750
  37 H :    0.111207
  38 H :    0.115807
  39 H :    0.108554
  40 H :    0.119763
Sum of atomic charges:   -0.0000000

LOEWDIN ATOMIC CHARGES
----------------------
   0 C :   -0.364963
   1 C :   -0.122471
   2 O :   -0.238039
   3 P :    0.574687
   4 S :   -0.312602
   5 O :   -0.245283
   6 C :   -0.112650
   7 C :   -0.372617
   8 S :    0.081581
   9 C :   -0.476756
  10 S :    0.068505
  11 P :    0.568579
  12 S :   -0.296549
  13 O :   -0.241681
  14 C :   -0.114329
  15 C :   -0.365105
  16 O :   -0.242242
  17 C :   -0.113178
  18 C :   -0.360469
  19 H :    0.123968
  20 H :    0.129146
  21 H :    0.121585
  22 H :    0.118530
  23 H :    0.109120
  24 H :    0.110156
  25 H :    0.122318
  26 H :    0.120938
  27 H :    0.129655
  28 H :    0.129535
  29 H :    0.135296
  30 H :    0.124829
  31 H :    0.110293
  32 H :    0.118944
  33 H :    0.121714
  34 H :    0.121968
  35 H :    0.132129
  36 H :    0.107087
  37 H :    0.121935
  38 H :    0.118419
  39 H :    0.129204
  40 H :    0.128811

  Mayer bond orders larger than 0.100000
B(  0-C ,  1-C ) :   1.1616 B(  0-C , 19-H ) :   0.9457 B(  0-C , 20-H ) :   0.9399
B(  0-C , 21-H ) :   0.9353 B(  1-C ,  2-O ) :   0.9000 B(  1-C , 22-H ) :   0.9352
B(  1-C , 23-H ) :   0.9067 B(  2-O ,  3-P ) :   1.1287 B(  3-P ,  4-S ) :   1.6209
B(  3-P ,  5-O ) :   1.1016 B(  3-P ,  8-S ) :   0.9498 B(  4-S ,  8-S ) :   0.1174
B(  5-O ,  6-C ) :   0.9156 B(  6-C ,  7-C ) :   1.1650 B(  6-C , 24-H ) :   0.9290
B(  6-C , 25-H ) :   0.9342 B(  7-C , 26-H ) :   0.9319 B(  7-C , 27-H ) :   0.9336
B(  7-C , 28-H ) :   0.9404 B(  8-S ,  9-C ) :   1.0094 B(  9-C , 10-S ) :   0.9902
B(  9-C , 29-H ) :   0.9105 B(  9-C , 30-H ) :   0.8490 B( 10-S , 11-P ) :   0.9374
B( 10-S , 12-S ) :   0.1138 B( 11-P , 12-S ) :   1.6393 B( 11-P , 13-O ) :   1.1137
B( 11-P , 16-O ) :   1.1298 B( 12-S , 30-H ) :   0.1093 B( 13-O , 14-C ) :   0.8940
B( 14-C , 15-C ) :   1.1720 B( 14-C , 31-H ) :   0.9043 B( 14-C , 32-H ) :   0.9338
B( 15-C , 33-H ) :   0.9471 B( 15-C , 34-H ) :   0.9314 B( 15-C , 35-H ) :   0.9399
B( 16-O , 17-C ) :   0.8923 B( 17-C , 18-C ) :   1.1634 B( 17-C , 36-H ) :   0.9176
B( 17-C , 37-H ) :   0.9347 B( 18-C , 38-H ) :   0.9381 B( 18-C , 39-H ) :   0.9401
B( 18-C , 40-H ) :   0.9464

Dispersion correction           -0.066769469
FINAL SINGLE POINT ENERGY     -2929.513125122020

DIPOLE MOMENT
-------------

Method             : SCF
Type of density    : Electron Density
Multiplicity       :   1
Irrep              :   0
Energy             : -2929.6310635236591224 Eh
Relativity type    :
Basis              : AO
                                X                 Y                 Z
Electronic contribution:     -0.239238832      -3.454218438      -8.465807268
Nuclear contribution   :      0.012159509       2.937011587       9.391407530
                        -----------------------------------------
Total Dipole Moment    :     -0.227079323      -0.517206850       0.925600262
                        -----------------------------------------
Magnitude (a.u.)       :      1.084344867
Magnitude (Debye)      :      2.756185614

Rotational constants in cm-1:             0.012050             0.005162             0.005015
Rotational constants in MHz :           361.246500           154.761616           150.335717

                             ****ORCA TERMINATED NORMALLY****
TOTAL RUN TIME: 0 days 0 hours 0 minutes 21 seconds 127 msec
