                         Program Version 6.0.0  -   RELEASE  -
|  1> ! pbe def2-sv(p) def2/J RI DEFGRID1 loosescf d4 GCP(DFT/SV(P)) printgap
|  2> %output
|  3>     printlevel normal
|  4> end
|  5> * xyz 0 1
|  6> C 4.6507642632 -0.8276900184 -2.0860286953
|  7> C 3.3698549103 -1.6189777979 -1.9269444328
|  8> O 2.7781215136 -1.4172272216 -0.6265871107
|  9> P 2.099054051 -0.0483173243 -0.2134350251
| 10> S 1.2600568875 0.9413509235 -1.6900906713
| 11> O 3.2893394443 0.7458089918 0.479439062
| 12> C 3.2285804956 2.1533553713 0.7563159775
| 13> C 2.2881746225 2.4591229779 1.9042841684
| 14> S 1.0174304476 -0.7736509039 1.4566434973
| 15> C 0.0975158997 -2.1240869804 0.6652001485
| 16> S -0.9567691153 -1.5981297074 -0.7183997036
| 17> P -2.0944525824 -0.0940694018 0.2468061998
| 18> S -1.3755764436 1.6813830776 0.6882705055
| 19> O -2.5722524858 -0.9541766533 1.4859834698
| 20> C -3.0744565136 -0.3456652322 2.6942685001
| 21> C -4.4387953026 0.2745672772 2.4803929504
| 22> O -3.3958225997 -0.026883028 -0.6650145119
| 23> C -3.5217170543 0.8921599411 -1.7610600195
| 24> C -2.5928579152 0.5353068729 -2.9037842012
| 25> H 4.428771081 0.2386392184 -2.0820558795
| 26> H 5.3318526627 -1.0472965148 -1.2680869566
| 27> H 5.1200749707 -1.0871542556 -3.0297433184
| 28> H 3.5495855666 -2.6939664704 -1.968997189
| 29> H 2.6385585265 -1.330732238 -2.6889877933
| 30> H 4.2587303789 2.4198623063 0.9967789221
| 31> H 2.9088688054 2.6754270123 -0.1521113333
| 32> H 2.545105865 1.8587151652 2.773360535
| 33> H 2.3554692201 3.512122595 2.1577353445
| 34> H 1.2597148809 2.2373158458 1.6170348655
| 35> H -0.5189167021 -2.565446892 1.4449716495
| 36> H 0.7946929871 -2.8507562443 0.2542097922
| 37> H -3.1101353643 -1.1700041689 3.4074801293
| 38> H -2.3536832597 0.4076453932 3.0281984048
| 39> H -4.8242359274 0.6340435043 3.4292637459
| 40> H -4.3580223665 1.1134059481 1.7901869585
| 41> H -5.1238281906 -0.4585455788 2.0628745067
| 42> H -4.5699714274 0.8135872962 -2.0523186904
| 43> H -3.3089552379 1.9026264509 -1.3956173632
| 44> H -2.7392942676 -0.5000407744 -3.2015916017
| 45> H -2.7889057812 1.1872770499 -3.7488351127
| 46> H -1.5537391637 0.6670155462 -2.5979626951
| 47> *
| 48>
| 49>                          ****END OF INPUT****

CARTESIAN COORDINATES (ANGSTROEM)
---------------------------------
  C      4.650764   -0.827690   -2.086029
  C      3.369855   -1.618978   -1.926944
  O      2.778122   -1.417227   -0.626587
  P      2.099054   -0.048317   -0.213435
  S      1.260057    0.941351   -1.690091
  O      3.289339    0.745809    0.479439
  C      3.228580    2.153355    0.756316
  C      2.288175    2.459123    1.904284
  S      1.017430   -0.773651    1.456643
  C      0.097516   -2.124087    0.665200
  S     -0.956769   -1.598130   -0.718400
  P     -2.094453   -0.094069    0.246806
  S     -1.375576    1.681383    0.688271
  O     -2.572252   -0.954177    1.485983
  C     -3.074457   -0.345665    2.694269
  C     -4.438795    0.274567    2.480393
  O     -3.395823   -0.026883   -0.665015
  C     -3.521717    0.892160   -1.761060
  C     -2.592858    0.535307   -2.903784
  H      4.428771    0.238639   -2.082056
  H      5.331853   -1.047297   -1.268087
  H      5.120075   -1.087154   -3.029743
  H      3.549586   -2.693966   -1.968997
  H      2.638559   -1.330732   -2.688988
  H      4.258730    2.419862    0.996779
  H      2.908869    2.675427   -0.152111
  H      2.545106    1.858715    2.773361
  H      2.355469    3.512123    2.157735
  H      1.259715    2.237316    1.617035
  H     -0.518917   -2.565447    1.444972
  H      0.794693   -2.850756    0.254210
  H     -3.110135   -1.170004    3.407480
  H     -2.353683    0.407645    3.028198
  H     -4.824236    0.634044    3.429264
  H     -4.358022    1.113406    1.790187
  H     -5.123828   -0.458546    2.062875
  H     -4.569971    0.813587   -2.052319
  H     -3.308955    1.902626   -1.395617
  H     -2.739294   -0.500041   -3.201592
  H     -2.788906    1.187277   -3.748835
  H     -1.553739    0.667016   -2.597963

 Total Charge           Charge          ....    0
 Multiplicity           Mult            ....    1
 Number of Electrons    NEL             ....  202
 Basis Dimension        Dim             ....  334

ORBITAL ENERGIES
----------------

  NO   OCC          E(Eh)            E(eV)
   0   2.0000     -88.037873     -2395.6323
   1   2.0000     -88.036642     -2395.5988
   2   2.0000     -87.980172     -2394.0622
   3   2.0000     -87.980072     -2394.0595
   4   2.0000     -76.422383     -2079.5588
   5   2.0000     -76.422336     -2079.5575
   6   2.0000     -18.790364      -511.3118
   7   2.0000     -18.789997      -511.3018
   8   2.0000     -18.788701      -511.2665
   9   2.0000     -18.788122      -511.2508
  10   2.0000      -9.956624      -270.9335
  11   2.0000      -9.949678      -270.7445
  12   2.0000      -9.949653      -270.7438
  13   2.0000      -9.946497      -270.6580
  14   2.0000      -9.946375      -270.6546
  15   2.0000      -9.881775      -268.8968
  16   2.0000      -9.881594      -268.8918
  17   2.0000      -9.877069      -268.7687
  18   2.0000      -9.876306      -268.7479
  19   2.0000      -7.682943      -209.0635
  20   2.0000      -7.681792      -209.0322
  21   2.0000      -7.624755      -207.4801
  22   2.0000      -7.624652      -207.4773
  23   2.0000      -6.419807      -174.6918
  24   2.0000      -6.419766      -174.6907
  25   2.0000      -5.711023      -155.4048
  26   2.0000      -5.709924      -155.3749
  27   2.0000      -5.707547      -155.3102
  28   2.0000      -5.706381      -155.2785
  29   2.0000      -5.699577      -155.0934
  30   2.0000      -5.698380      -155.0608
  31   2.0000      -5.653607      -153.8425
  32   2.0000      -5.653476      -153.8389
  33   2.0000      -5.645297      -153.6163
  34   2.0000      -5.645250      -153.6151
  35   2.0000      -5.645099      -153.6110
  36   2.0000      -5.644975      -153.6076
  37   2.0000      -4.642432      -126.3270
  38   2.0000      -4.642410      -126.3264
  39   2.0000      -4.641610      -126.3046
  40   2.0000      -4.641598      -126.3043
  41   2.0000      -4.640168      -126.2654
  42   2.0000      -4.640113      -126.2639
  43   2.0000      -0.984207       -26.7816
  44   2.0000      -0.983988       -26.7757
  45   2.0000      -0.944577       -25.7033
  46   2.0000      -0.944538       -25.7022
  47   2.0000      -0.760758       -20.7013
  48   2.0000      -0.716549       -19.4983
  49   2.0000      -0.703408       -19.1407
  50   2.0000      -0.683178       -18.5902
  51   2.0000      -0.682770       -18.5791
  52   2.0000      -0.666093       -18.1253
  53   2.0000      -0.650510       -17.7013
  54   2.0000      -0.634091       -17.2545
  55   2.0000      -0.598206       -16.2780
  56   2.0000      -0.590086       -16.0571
  57   2.0000      -0.569556       -15.4984
  58   2.0000      -0.569244       -15.4899
  59   2.0000      -0.559110       -15.2142
  60   2.0000      -0.492842       -13.4109
  61   2.0000      -0.488468       -13.2919
  62   2.0000      -0.472292       -12.8517
  63   2.0000      -0.469215       -12.7680
  64   2.0000      -0.456276       -12.4159
  65   2.0000      -0.441588       -12.0162
  66   2.0000      -0.435625       -11.8540
  67   2.0000      -0.432883       -11.7794
  68   2.0000      -0.420698       -11.4478
  69   2.0000      -0.412175       -11.2159
  70   2.0000      -0.407498       -11.0886
  71   2.0000      -0.391843       -10.6626
  72   2.0000      -0.390573       -10.6280
  73   2.0000      -0.387973       -10.5573
  74   2.0000      -0.383682       -10.4405
  75   2.0000      -0.370961       -10.0944
  76   2.0000      -0.365781        -9.9534
  77   2.0000      -0.354317        -9.6415
  78   2.0000      -0.351133        -9.5548
  79   2.0000      -0.349076        -9.4988
  80   2.0000      -0.344372        -9.3708
  81   2.0000      -0.344056        -9.3622
  82   2.0000      -0.338884        -9.2215
  83   2.0000      -0.335031        -9.1167
  84   2.0000      -0.327968        -8.9245
  85   2.0000      -0.317161        -8.6304
  86   2.0000      -0.303208        -8.2507
  87   2.0000      -0.291822        -7.9409
  88   2.0000      -0.290232        -7.8976
  89   2.0000      -0.282861        -7.6970
  90   2.0000      -0.277542        -7.5523
  91   2.0000      -0.273178        -7.4335
  92   2.0000      -0.268495        -7.3061
  93   2.0000      -0.258644        -7.0381
  94   2.0000      -0.257730        -7.0132
  95   2.0000      -0.247075        -6.7233
  96   2.0000      -0.218722        -5.9517
  97   2.0000      -0.209130        -5.6907
  98   2.0000      -0.188379        -5.1261
  99   2.0000      -0.185922        -5.0592
 100   2.0000      -0.183393        -4.9904
 101   0.0000      -0.049020        -1.3339
 102   0.0000      -0.026578        -0.7232
 103   0.0000      -0.006064        -0.1650
 104   0.0000      -0.003228        -0.0878
 105   0.0000       0.026763         0.7283

MULLIKEN ATOMIC CHARGES
-----------------------
   0 C :   -0.303771
   1 C :   -0.004692
   2 O :   -0.375692
   3 P :    0.620808
   4 S :   -0.304760
   5 O :   -0.371376
   6 C :   -0.003107
   7 C :   -0.342927
   8 S :   -0.094877
   9 C :   -0.334340
  10 S :   -0.093207
  11 P :    0.618339
  12 S :   -0.307139
  13 O :   -0.375114
  14 C :   -0.004542
  15 C :   -0.303627
  16 O :   -0.370641
  17 C :   -0.001708
  18 C :   -0.343766
  19 H :    0.122605
  20 H :    0.116737
  21 H :    0.110957
  22 H :    0.100870
  23 H :    0.111672
  24 H :    0.102233
  25 H :    0.110099
  26 H :    0.115287
  27 H :    0.111605
  28 H :    0.157924
  29 H :    0.187673
  30 H :    0.186886
  31 H :    0.100778
  32 H :    0.112120
  33 H :    0.110843
  34 H :    0.122759
  35 H :    0.116575
  36 H :    0.102545
  37 H :    0.109899
  38 H :    0.117299
  39 H :    0.112671
  40 H :    0.156106
Sum of atomic charges:    0.0000000

LOEWDIN ATOMIC CHARGES
----------------------
   0 C :   -0.363788
   1 C :   -0.119567
   2 O :   -0.243764
   3 P :    0.571318
   4 S :   -0.303306
   5 O :   -0.242794
   6 C :   -0.120745
   7 C :   -0.374161
   8 S :    0.087580
   9 C :   -0.472570
  10 S :    0.086510
  11 P :    0.571980
  12 S :   -0.302219
  13 O :   -0.243058
  14 C :   -0.119285
  15 C :   -0.363983
  16 O :   -0.243530
  17 C :   -0.121107
  18 C :   -0.374101
  19 H :    0.123411
  20 H :    0.126588
  21 H :    0.129851
  22 H :    0.116246
  23 H :    0.110540
  24 H :    0.117024
  25 H :    0.109293
  26 H :    0.123481
  27 H :    0.131428
  28 H :    0.122325
  29 H :    0.134067
  30 H :    0.133673
  31 H :    0.116232
  32 H :    0.110677
  33 H :    0.129857
  34 H :    0.123307
  35 H :    0.126525
  36 H :    0.117293
  37 H :    0.109222
  38 H :    0.123659
  39 H :    0.131772
  40 H :    0.124118

  Mayer bond orders larger than 0.100000
B(  0-C ,  1-C ) :   1.1664 B(  0-C , 19-H ) :   0.9367 B(  0-C , 20-H ) :   0.9463
B(  0-C , 21-H ) :   0.9392 B(  1-C ,  2-O ) :   0.9048 B(  1-C , 22-H ) :   0.9340
B(  1-C , 23-H ) :   0.9129 B(  2-O ,  3-P ) :   1.1071 B(  3-P ,  4-S ) :   1.6230
B(  3-P ,  5-O ) :   1.1068 B(  3-P ,  8-S ) :   0.9520 B(  4-S ,  8-S ) :   0.1159
B(  5-O ,  6-C ) :   0.9077 B(  6-C ,  7-C ) :   1.1652 B(  6-C , 24-H ) :   0.9330
B(  6-C , 25-H ) :   0.9112 B(  7-C , 26-H ) :   0.9443 B(  7-C , 27-H ) :   0.9380
B(  7-C , 28-H ) :   0.9207 B(  8-S ,  9-C ) :   1.0032 B(  9-C , 10-S ) :   1.0008
B(  9-C , 29-H ) :   0.9037 B(  9-C , 30-H ) :   0.9029 B( 10-S , 11-P ) :   0.9561
B( 10-S , 12-S ) :   0.1149 B( 11-P , 12-S ) :   1.6120 B( 11-P , 13-O ) :   1.1098
B( 11-P , 16-O ) :   1.1063 B( 13-O , 14-C ) :   0.9035 B( 14-C , 15-C ) :   1.1660
B( 14-C , 31-H ) :   0.9340 B( 14-C , 32-H ) :   0.9131 B( 15-C , 33-H ) :   0.9393
B( 15-C , 34-H ) :   0.9360 B( 15-C , 35-H ) :   0.9462 B( 16-O , 17-C ) :   0.9085
B( 17-C , 18-C ) :   1.1645 B( 17-C , 36-H ) :   0.9328 B( 17-C , 37-H ) :   0.9123
B( 18-C , 38-H ) :   0.9438 B( 18-C , 39-H ) :   0.9379 B( 18-C , 40-H ) :   0.9228

Dispersion correction           -0.068351146
FINAL SINGLE POINT ENERGY     -2929.516642413083

DIPOLE MOMENT
-------------

Method             : SCF
Type of density    : Electron Density
Multiplicity       :   1
Irrep              :   0
Energy             : -2929.6329317189429275 Eh
Relativity type    :
Basis              : AO
                                X                 Y                 Z
Electronic contribution:      0.100952892      -6.207238327       1.383874964
Nuclear contribution   :     -0.055711989       5.690498363      -1.160730328
                        -----------------------------------------
Total Dipole Moment    :      0.045240903      -0.516739964       0.223144636
                        -----------------------------------------
Magnitude (a.u.)       :      0.564677305
Magnitude (Debye)      :      1.435295644

Rotational constants in cm-1:             0.012498             0.005471             0.005082
Rotational constants in MHz :           374.666721           164.005774           152.364709

                             ****ORCA TERMINATED NORMALLY****
TOTAL RUN TIME: 0 days 0 hours 0 minutes 21 seconds 632 msec
