                         Program Version 6.0.0  -   RELEASE  -
|  1> ! r2scan-3c def2/J RI DEFGRID2 scfconv6 printgap
|  2> %output
|  3>     printlevel normal
|  4> end
|  5> * xyz 0 1
|  6> C 4.2138005385 -2.6035607683 0.0122988566
|  7> C 4.5547828653 -1.1753397862 0.3857227444
|  8> O 3.3969913842 -0.4335122404 0.810019783
|  9> P 2.2252997181 -0.0398639563 -0.1891255181
| 10> S 2.8146757428 0.5023199222 -1.9830208833
| 11> O 1.4505977579 1.0543066455 0.6629802779
| 12> C 1.6876553329 2.4634931395 0.4966737222
| 13> C 3.037433195 2.8714910368 1.0482132889
| 14> S 0.8741912619 -1.6439536118 -0.0405202576
| 15> C -0.1467865126 -1.2340525258 -1.4846348885
| 16> S -0.7762696222 0.4744085674 -1.5153757302
| 17> P -2.1605636667 0.4034079329 0.078245671
| 18> S -3.2448315402 2.0168990219 0.309624064
| 19> O -1.2246384932 0.0056931912 1.287292453
| 20> C -1.6111469313 0.2320427124 2.6581361703
| 21> C -2.7437974355 -0.6806465272 3.0760467002
| 22> O -2.9767999276 -0.9438909114 -0.1655821162
| 23> C -4.1213134759 -0.9925426124 -1.0395912779
| 24> C -4.9393143685 -2.212346281 -0.6653614308
| 25> H 3.6622802916 -3.0834048741 0.8168328587
| 26> H 3.6020039403 -2.6168140519 -0.8885671739
| 27> H 5.1303681353 -3.1532774662 -0.1763081881
| 28> H 5.0056266357 -0.6536307606 -0.4645785262
| 29> H 5.2229877829 -1.1310608998 1.2467476559
| 30> H 1.6113477274 2.705923629 -0.5692595281
| 31> H 0.8649668021 2.9380204315 1.0353858405
| 32> H 3.1332697707 2.5478420394 2.0813105375
| 33> H 3.8296376842 2.4114241215 0.4586803101
| 34> H 3.13711779 3.9510006026 0.9939869034
| 35> H -0.9741789366 -1.9387589099 -1.4848549514
| 36> H 0.4530418656 -1.3234029695 -2.3894078832
| 37> H -0.6966458546 0.0348780844 3.219491891
| 38> H -1.8984225046 1.2829282435 2.7677197225
| 39> H -2.4848814107 -1.7161403293 2.8716098071
| 40> H -2.9337376642 -0.5555255087 4.1374726077
| 41> H -3.645419816 -0.4230755071 2.5219378991
| 42> H -4.6950488223 -0.0680957472 -0.9148716633
| 43> H -3.7664227763 -1.0500133735 -2.0725579378
| 44> H -4.3321687601 -3.1088408113 -0.7506429955
| 45> H -5.2962524947 -2.1257311839 0.356812907
| 46> H -5.7893945916 -2.2886867457 -1.335213268
| 47> *
| 48>
| 49>                          ****END OF INPUT****

CARTESIAN COORDINATES (ANGSTROEM)
---------------------------------
  C      4.213801   -2.603561    0.012299
  C      4.554783   -1.175340    0.385723
  O      3.396991   -0.433512    0.810020
  P      2.225300   -0.039864   -0.189126
  S      2.814676    0.502320   -1.983021
  O      1.450598    1.054307    0.662980
  C      1.687655    2.463493    0.496674
  C      3.037433    2.871491    1.048213
  S      0.874191   -1.643954   -0.040520
  C     -0.146787   -1.234053   -1.484635
  S     -0.776270    0.474409   -1.515376
  P     -2.160564    0.403408    0.078246
  S     -3.244832    2.016899    0.309624
  O     -1.224638    0.005693    1.287292
  C     -1.611147    0.232043    2.658136
  C     -2.743797   -0.680647    3.076047
  O     -2.976800   -0.943891   -0.165582
  C     -4.121313   -0.992543   -1.039591
  C     -4.939314   -2.212346   -0.665361
  H      3.662280   -3.083405    0.816833
  H      3.602004   -2.616814   -0.888567
  H      5.130368   -3.153277   -0.176308
  H      5.005627   -0.653631   -0.464579
  H      5.222988   -1.131061    1.246748
  H      1.611348    2.705924   -0.569260
  H      0.864967    2.938020    1.035386
  H      3.133270    2.547842    2.081311
  H      3.829638    2.411424    0.458680
  H      3.137118    3.951001    0.993987
  H     -0.974179   -1.938759   -1.484855
  H      0.453042   -1.323403   -2.389408
  H     -0.696646    0.034878    3.219492
  H     -1.898423    1.282928    2.767720
  H     -2.484881   -1.716140    2.871610
  H     -2.933738   -0.555526    4.137473
  H     -3.645420   -0.423076    2.521938
  H     -4.695049   -0.068096   -0.914872
  H     -3.766423   -1.050013   -2.072558
  H     -4.332169   -3.108841   -0.750643
  H     -5.296252   -2.125731    0.356813
  H     -5.789395   -2.288687   -1.335213

 Total Charge           Charge          ....    0
 Multiplicity           Mult            ....    1
 Number of Electrons    NEL             ....  202
 Basis Dimension        Dim             ....  539

ORBITAL ENERGIES
----------------

  NO   OCC          E(Eh)            E(eV)
   0   2.0000     -88.574137     -2410.2248
   1   2.0000     -88.573339     -2410.2031
   2   2.0000     -88.520530     -2408.7661
   3   2.0000     -88.519715     -2408.7439
   4   2.0000     -76.912918     -2092.9069
   5   2.0000     -76.912181     -2092.8868
   6   2.0000     -18.992613      -516.8153
   7   2.0000     -18.992588      -516.8146
   8   2.0000     -18.985873      -516.6319
   9   2.0000     -18.983158      -516.5580
  10   2.0000     -10.110885      -275.1312
  11   2.0000     -10.100571      -274.8505
  12   2.0000     -10.098977      -274.8071
  13   2.0000     -10.096105      -274.7290
  14   2.0000     -10.090241      -274.5694
  15   2.0000     -10.036441      -273.1054
  16   2.0000     -10.029452      -272.9153
  17   2.0000     -10.028431      -272.8875
  18   2.0000     -10.024230      -272.7732
  19   2.0000      -7.868170      -214.1038
  20   2.0000      -7.868110      -214.1022
  21   2.0000      -7.815209      -212.6626
  22   2.0000      -7.814386      -212.6402
  23   2.0000      -6.591348      -179.3597
  24   2.0000      -6.590633      -179.3403
  25   2.0000      -5.815478      -158.2472
  26   2.0000      -5.815137      -158.2379
  27   2.0000      -5.812078      -158.1547
  28   2.0000      -5.811508      -158.1392
  29   2.0000      -5.805230      -157.9684
  30   2.0000      -5.805023      -157.9627
  31   2.0000      -5.762802      -156.8138
  32   2.0000      -5.761950      -156.7906
  33   2.0000      -5.755565      -156.6169
  34   2.0000      -5.755217      -156.6074
  35   2.0000      -5.754729      -156.5941
  36   2.0000      -5.754418      -156.5857
  37   2.0000      -4.736687      -128.8918
  38   2.0000      -4.736252      -128.8800
  39   2.0000      -4.735949      -128.8717
  40   2.0000      -4.735748      -128.8663
  41   2.0000      -4.735279      -128.8535
  42   2.0000      -4.734374      -128.8289
  43   2.0000      -1.049075       -28.5468
  44   2.0000      -1.047024       -28.4910
  45   2.0000      -1.010416       -27.4948
  46   2.0000      -1.007466       -27.4145
  47   2.0000      -0.801466       -21.8090
  48   2.0000      -0.759040       -20.6545
  49   2.0000      -0.747548       -20.3418
  50   2.0000      -0.733615       -19.9627
  51   2.0000      -0.728578       -19.8256
  52   2.0000      -0.709579       -19.3086
  53   2.0000      -0.688322       -18.7302
  54   2.0000      -0.668054       -18.1787
  55   2.0000      -0.632178       -17.2024
  56   2.0000      -0.626492       -17.0477
  57   2.0000      -0.602911       -16.4060
  58   2.0000      -0.601312       -16.3625
  59   2.0000      -0.593417       -16.1477
  60   2.0000      -0.530178       -14.4269
  61   2.0000      -0.515901       -14.0384
  62   2.0000      -0.495835       -13.4924
  63   2.0000      -0.489753       -13.3269
  64   2.0000      -0.477332       -12.9889
  65   2.0000      -0.461205       -12.5500
  66   2.0000      -0.456307       -12.4167
  67   2.0000      -0.453384       -12.3372
  68   2.0000      -0.443701       -12.0737
  69   2.0000      -0.434569       -11.8252
  70   2.0000      -0.428102       -11.6492
  71   2.0000      -0.415476       -11.3057
  72   2.0000      -0.405858       -11.0440
  73   2.0000      -0.403524       -10.9805
  74   2.0000      -0.396765       -10.7965
  75   2.0000      -0.389598       -10.6015
  76   2.0000      -0.381628       -10.3846
  77   2.0000      -0.375139       -10.2080
  78   2.0000      -0.374003       -10.1771
  79   2.0000      -0.367461        -9.9991
  80   2.0000      -0.362522        -9.8647
  81   2.0000      -0.361026        -9.8240
  82   2.0000      -0.357433        -9.7262
  83   2.0000      -0.353724        -9.6253
  84   2.0000      -0.345565        -9.4033
  85   2.0000      -0.334044        -9.0898
  86   2.0000      -0.326487        -8.8842
  87   2.0000      -0.311979        -8.4894
  88   2.0000      -0.309011        -8.4086
  89   2.0000      -0.304956        -8.2983
  90   2.0000      -0.294105        -8.0030
  91   2.0000      -0.288665        -7.8550
  92   2.0000      -0.280393        -7.6299
  93   2.0000      -0.277707        -7.5568
  94   2.0000      -0.275109        -7.4861
  95   2.0000      -0.242688        -6.6039
  96   2.0000      -0.230889        -6.2828
  97   2.0000      -0.221997        -6.0408
  98   2.0000      -0.219835        -5.9820
  99   2.0000      -0.213609        -5.8126
 100   2.0000      -0.212395        -5.7796
 101   0.0000      -0.044560        -1.2125
 102   0.0000      -0.015380        -0.4185
 103   0.0000      -0.009265        -0.2521
 104   0.0000       0.005052         0.1375
 105   0.0000       0.007968         0.2168

MULLIKEN ATOMIC CHARGES
-----------------------
   0 C :   -0.456094
   1 C :   -0.150365
   2 O :   -0.304756
   3 P :    0.680331
   4 S :   -0.477384
   5 O :   -0.270719
   6 C :   -0.151820
   7 C :   -0.446118
   8 S :   -0.108494
   9 C :   -0.246238
  10 S :   -0.137448
  11 P :    0.688680
  12 S :   -0.476460
  13 O :   -0.227976
  14 C :   -0.173443
  15 C :   -0.435881
  16 O :   -0.289295
  17 C :   -0.153825
  18 C :   -0.435311
  19 H :    0.155074
  20 H :    0.178118
  21 H :    0.148181
  22 H :    0.173377
  23 H :    0.148392
  24 H :    0.176420
  25 H :    0.159388
  26 H :    0.153904
  27 H :    0.164840
  28 H :    0.147372
  29 H :    0.186790
  30 H :    0.206533
  31 H :    0.157334
  32 H :    0.170965
  33 H :    0.156424
  34 H :    0.147004
  35 H :    0.164409
  36 H :    0.173498
  37 H :    0.150993
  38 H :    0.149876
  39 H :    0.155043
  40 H :    0.148681
Sum of atomic charges:   -0.0000000

LOEWDIN ATOMIC CHARGES
----------------------
   0 C :   -0.407983
   1 C :    0.019144
   2 O :   -0.660714
   3 P :    0.374380
   4 S :   -0.128152
   5 O :   -0.673261
   6 C :    0.018902
   7 C :   -0.399053
   8 S :    0.192520
   9 C :   -0.409982
  10 S :    0.189009
  11 P :    0.367651
  12 S :   -0.118832
  13 O :   -0.681759
  14 C :    0.024221
  15 C :   -0.399374
  16 O :   -0.684678
  17 C :    0.019389
  18 C :   -0.385760
  19 H :    0.159994
  20 H :    0.165459
  21 H :    0.159163
  22 H :    0.179749
  23 H :    0.179444
  24 H :    0.182371
  25 H :    0.182511
  26 H :    0.159709
  27 H :    0.163384
  28 H :    0.159306
  29 H :    0.185272
  30 H :    0.189691
  31 H :    0.182074
  32 H :    0.180113
  33 H :    0.161244
  34 H :    0.159072
  35 H :    0.163944
  36 H :    0.182716
  37 H :    0.170259
  38 H :    0.158344
  39 H :    0.160125
  40 H :    0.160388

  Mayer bond orders larger than 0.100000
B(  0-C ,  1-C ) :   0.9200 B(  0-C , 19-H ) :   0.9681 B(  0-C , 20-H ) :   0.9636
B(  0-C , 21-H ) :   0.9586 B(  1-C ,  2-O ) :   0.8140 B(  1-C , 22-H ) :   0.9687
B(  1-C , 23-H ) :   0.9581 B(  2-O ,  3-P ) :   1.0647 B(  3-P ,  4-S ) :   1.7445
B(  3-P ,  5-O ) :   1.1514 B(  3-P ,  8-S ) :   1.1081 B(  5-O ,  6-C ) :   0.7862
B(  6-C ,  7-C ) :   0.9196 B(  6-C , 24-H ) :   0.9630 B(  6-C , 25-H ) :   0.9605
B(  7-C , 26-H ) :   0.9735 B(  7-C , 27-H ) :   0.9620 B(  7-C , 28-H ) :   0.9632
B(  8-S ,  9-C ) :   0.9198 B(  9-C , 10-S ) :   0.9052 B(  9-C , 29-H ) :   0.9165
B(  9-C , 30-H ) :   0.9169 B( 10-S , 11-P ) :   1.0431 B( 11-P , 12-S ) :   1.7859
B( 11-P , 13-O ) :   1.1565 B( 11-P , 16-O ) :   1.0497 B( 13-O , 14-C ) :   0.7881
B( 14-C , 15-C ) :   0.9229 B( 14-C , 31-H ) :   0.9638 B( 14-C , 32-H ) :   0.9608
B( 15-C , 33-H ) :   0.9732 B( 15-C , 34-H ) :   0.9625 B( 15-C , 35-H ) :   0.9610
B( 16-O , 17-C ) :   0.7755 B( 17-C , 18-C ) :   0.9516 B( 17-C , 36-H ) :   0.9478
B( 17-C , 37-H ) :   0.9469 B( 18-C , 38-H ) :   0.9720 B( 18-C , 39-H ) :   0.9714
B( 18-C , 40-H ) :   0.9662

Dispersion correction           -0.021623541
FINAL SINGLE POINT ENERGY     -2932.460408140256

DIPOLE MOMENT
-------------

Method             : SCF
Type of density    : Electron Density
Multiplicity       :   1
Irrep              :   0
Energy             : -2932.4851478204341220 Eh
Relativity type    :
Basis              : AO
                                X                 Y                 Z
Electronic contribution:      0.940342509       7.834255831     -10.167623894
Nuclear contribution   :     -0.845412682      -9.154053862      10.984047861
                        -----------------------------------------
Total Dipole Moment    :      0.094929827      -1.319798032       0.816423967
                        -----------------------------------------
Magnitude (a.u.)       :      1.554807580
Magnitude (Debye)      :      3.952006796

Rotational constants in cm-1:             0.012785             0.004964             0.004660
Rotational constants in MHz :           383.288861           148.830421           139.695065

                             ****ORCA TERMINATED NORMALLY****
TOTAL RUN TIME: 0 days 0 hours 1 minutes 23 seconds 810 msec
