                         Program Version 6.0.0  -   RELEASE  -
|  1> ! r2scan-3c def2/J RI DEFGRID2 scfconv6 printgap
|  2> %output
|  3>     printlevel normal
|  4> end
|  5> %cpcm
|  6>     smd true
|  7>     smdsolvent "water"
|  8> end
|  9> * xyz 0 1
| 10> C 4.2138005385 -2.6035607683 0.0122988566
| 11> C 4.5547828653 -1.1753397862 0.3857227444
| 12> O 3.3969913842 -0.4335122404 0.810019783
| 13> P 2.2252997181 -0.0398639563 -0.1891255181
| 14> S 2.8146757428 0.5023199222 -1.9830208833
| 15> O 1.4505977579 1.0543066455 0.6629802779
| 16> C 1.6876553329 2.4634931395 0.4966737222
| 17> C 3.037433195 2.8714910368 1.0482132889
| 18> S 0.8741912619 -1.6439536118 -0.0405202576
| 19> C -0.1467865126 -1.2340525258 -1.4846348885
| 20> S -0.7762696222 0.4744085674 -1.5153757302
| 21> P -2.1605636667 0.4034079329 0.078245671
| 22> S -3.2448315402 2.0168990219 0.309624064
| 23> O -1.2246384932 0.0056931912 1.287292453
| 24> C -1.6111469313 0.2320427124 2.6581361703
| 25> C -2.7437974355 -0.6806465272 3.0760467002
| 26> O -2.9767999276 -0.9438909114 -0.1655821162
| 27> C -4.1213134759 -0.9925426124 -1.0395912779
| 28> C -4.9393143685 -2.212346281 -0.6653614308
| 29> H 3.6622802916 -3.0834048741 0.8168328587
| 30> H 3.6020039403 -2.6168140519 -0.8885671739
| 31> H 5.1303681353 -3.1532774662 -0.1763081881
| 32> H 5.0056266357 -0.6536307606 -0.4645785262
| 33> H 5.2229877829 -1.1310608998 1.2467476559
| 34> H 1.6113477274 2.705923629 -0.5692595281
| 35> H 0.8649668021 2.9380204315 1.0353858405
| 36> H 3.1332697707 2.5478420394 2.0813105375
| 37> H 3.8296376842 2.4114241215 0.4586803101
| 38> H 3.13711779 3.9510006026 0.9939869034
| 39> H -0.9741789366 -1.9387589099 -1.4848549514
| 40> H 0.4530418656 -1.3234029695 -2.3894078832
| 41> H -0.6966458546 0.0348780844 3.219491891
| 42> H -1.8984225046 1.2829282435 2.7677197225
| 43> H -2.4848814107 -1.7161403293 2.8716098071
| 44> H -2.9337376642 -0.5555255087 4.1374726077
| 45> H -3.645419816 -0.4230755071 2.5219378991
| 46> H -4.6950488223 -0.0680957472 -0.9148716633
| 47> H -3.7664227763 -1.0500133735 -2.0725579378
| 48> H -4.3321687601 -3.1088408113 -0.7506429955
| 49> H -5.2962524947 -2.1257311839 0.356812907
| 50> H -5.7893945916 -2.2886867457 -1.335213268
| 51> *
| 52>
| 53>                          ****END OF INPUT****

CARTESIAN COORDINATES (ANGSTROEM)
---------------------------------
  C      4.213801   -2.603561    0.012299
  C      4.554783   -1.175340    0.385723
  O      3.396991   -0.433512    0.810020
  P      2.225300   -0.039864   -0.189126
  S      2.814676    0.502320   -1.983021
  O      1.450598    1.054307    0.662980
  C      1.687655    2.463493    0.496674
  C      3.037433    2.871491    1.048213
  S      0.874191   -1.643954   -0.040520
  C     -0.146787   -1.234053   -1.484635
  S     -0.776270    0.474409   -1.515376
  P     -2.160564    0.403408    0.078246
  S     -3.244832    2.016899    0.309624
  O     -1.224638    0.005693    1.287292
  C     -1.611147    0.232043    2.658136
  C     -2.743797   -0.680647    3.076047
  O     -2.976800   -0.943891   -0.165582
  C     -4.121313   -0.992543   -1.039591
  C     -4.939314   -2.212346   -0.665361
  H      3.662280   -3.083405    0.816833
  H      3.602004   -2.616814   -0.888567
  H      5.130368   -3.153277   -0.176308
  H      5.005627   -0.653631   -0.464579
  H      5.222988   -1.131061    1.246748
  H      1.611348    2.705924   -0.569260
  H      0.864967    2.938020    1.035386
  H      3.133270    2.547842    2.081311
  H      3.829638    2.411424    0.458680
  H      3.137118    3.951001    0.993987
  H     -0.974179   -1.938759   -1.484855
  H      0.453042   -1.323403   -2.389408
  H     -0.696646    0.034878    3.219492
  H     -1.898423    1.282928    2.767720
  H     -2.484881   -1.716140    2.871610
  H     -2.933738   -0.555526    4.137473
  H     -3.645420   -0.423076    2.521938
  H     -4.695049   -0.068096   -0.914872
  H     -3.766423   -1.050013   -2.072558
  H     -4.332169   -3.108841   -0.750643
  H     -5.296252   -2.125731    0.356813
  H     -5.789395   -2.288687   -1.335213

 Total Charge           Charge          ....    0
 Multiplicity           Mult            ....    1
 Number of Electrons    NEL             ....  202
 Basis Dimension        Dim             ....  539

ORBITAL ENERGIES
----------------

  NO   OCC          E(Eh)            E(eV)
   0   2.0000     -88.578212     -2410.3357
   1   2.0000     -88.576128     -2410.2790
   2   2.0000     -88.528969     -2408.9957
   3   2.0000     -88.527532     -2408.9566
   4   2.0000     -76.918130     -2093.0487
   5   2.0000     -76.917979     -2093.0446
   6   2.0000     -18.994973      -516.8795
   7   2.0000     -18.992763      -516.8194
   8   2.0000     -18.989949      -516.7428
   9   2.0000     -18.989078      -516.7191
  10   2.0000     -10.107083      -275.0277
  11   2.0000     -10.089393      -274.5464
  12   2.0000     -10.089350      -274.5452
  13   2.0000     -10.089052      -274.5371
  14   2.0000     -10.087500      -274.4948
  15   2.0000     -10.019339      -272.6401
  16   2.0000     -10.018544      -272.6184
  17   2.0000     -10.018392      -272.6143
  18   2.0000     -10.017893      -272.6007
  19   2.0000      -7.872326      -214.2169
  20   2.0000      -7.870886      -214.1777
  21   2.0000      -7.824015      -212.9023
  22   2.0000      -7.822503      -212.8611
  23   2.0000      -6.596639      -179.5037
  24   2.0000      -6.596469      -179.4991
  25   2.0000      -5.819630      -158.3602
  26   2.0000      -5.817842      -158.3115
  27   2.0000      -5.815693      -158.2530
  28   2.0000      -5.814793      -158.2286
  29   2.0000      -5.809537      -158.0856
  30   2.0000      -5.807778      -158.0377
  31   2.0000      -5.771476      -157.0499
  32   2.0000      -5.770041      -157.0108
  33   2.0000      -5.764380      -156.8568
  34   2.0000      -5.764057      -156.8480
  35   2.0000      -5.762835      -156.8147
  36   2.0000      -5.762536      -156.8066
  37   2.0000      -4.741958      -129.0352
  38   2.0000      -4.741699      -129.0282
  39   2.0000      -4.741598      -129.0255
  40   2.0000      -4.741560      -129.0244
  41   2.0000      -4.740590      -128.9980
  42   2.0000      -4.740320      -128.9907
  43   2.0000      -1.051430       -28.6109
  44   2.0000      -1.050060       -28.5736
  45   2.0000      -1.011951       -27.5366
  46   2.0000      -1.010589       -27.4995
  47   2.0000      -0.801928       -21.8216
  48   2.0000      -0.756007       -20.5720
  49   2.0000      -0.742091       -20.1933
  50   2.0000      -0.723990       -19.7008
  51   2.0000      -0.722402       -19.6575
  52   2.0000      -0.709074       -19.2949
  53   2.0000      -0.692202       -18.8358
  54   2.0000      -0.674223       -18.3465
  55   2.0000      -0.631242       -17.1770
  56   2.0000      -0.622464       -16.9381
  57   2.0000      -0.597963       -16.2714
  58   2.0000      -0.594480       -16.1766
  59   2.0000      -0.589622       -16.0444
  60   2.0000      -0.526199       -14.3186
  61   2.0000      -0.513697       -13.9784
  62   2.0000      -0.493076       -13.4173
  63   2.0000      -0.488512       -13.2931
  64   2.0000      -0.475910       -12.9502
  65   2.0000      -0.458670       -12.4811
  66   2.0000      -0.453179       -12.3316
  67   2.0000      -0.445500       -12.1227
  68   2.0000      -0.441228       -12.0064
  69   2.0000      -0.433414       -11.7938
  70   2.0000      -0.423147       -11.5144
  71   2.0000      -0.411344       -11.1932
  72   2.0000      -0.405355       -11.0303
  73   2.0000      -0.403196       -10.9715
  74   2.0000      -0.391824       -10.6621
  75   2.0000      -0.385742       -10.4966
  76   2.0000      -0.379029       -10.3139
  77   2.0000      -0.369897       -10.0654
  78   2.0000      -0.364391        -9.9156
  79   2.0000      -0.361952        -9.8492
  80   2.0000      -0.353643        -9.6231
  81   2.0000      -0.353249        -9.6124
  82   2.0000      -0.349432        -9.5085
  83   2.0000      -0.347398        -9.4532
  84   2.0000      -0.343272        -9.3409
  85   2.0000      -0.330023        -8.9804
  86   2.0000      -0.322577        -8.7778
  87   2.0000      -0.308658        -8.3990
  88   2.0000      -0.304320        -8.2810
  89   2.0000      -0.303871        -8.2688
  90   2.0000      -0.295309        -8.0358
  91   2.0000      -0.289579        -7.8799
  92   2.0000      -0.280654        -7.6370
  93   2.0000      -0.278258        -7.5718
  94   2.0000      -0.274408        -7.4670
  95   2.0000      -0.247367        -6.7312
  96   2.0000      -0.237368        -6.4591
  97   2.0000      -0.231378        -6.2961
  98   2.0000      -0.229635        -6.2487
  99   2.0000      -0.220817        -6.0087
 100   2.0000      -0.218604        -5.9485
 101   0.0000      -0.048041        -1.3073
 102   0.0000      -0.021967        -0.5977
 103   0.0000      -0.013583        -0.3696
 104   0.0000       0.001379         0.0375
 105   0.0000       0.005003         0.1361

MULLIKEN ATOMIC CHARGES
-----------------------
   0 C :   -0.490822
   1 C :   -0.150919
   2 O :   -0.331606
   3 P :    0.717194
   4 S :   -0.526146
   5 O :   -0.298711
   6 C :   -0.149181
   7 C :   -0.489669
   8 S :   -0.114226
   9 C :   -0.254766
  10 S :   -0.169768
  11 P :    0.712757
  12 S :   -0.535077
  13 O :   -0.256539
  14 C :   -0.166989
  15 C :   -0.473825
  16 O :   -0.302916
  17 C :   -0.137269
  18 C :   -0.483756
  19 H :    0.169048
  20 H :    0.174282
  21 H :    0.172863
  22 H :    0.178712
  23 H :    0.175144
  24 H :    0.177765
  25 H :    0.178214
  26 H :    0.169418
  27 H :    0.167570
  28 H :    0.171298
  29 H :    0.228619
  30 H :    0.230708
  31 H :    0.178879
  32 H :    0.176486
  33 H :    0.169585
  34 H :    0.172404
  35 H :    0.167393
  36 H :    0.170768
  37 H :    0.171828
  38 H :    0.166178
  39 H :    0.165811
  40 H :    0.169256
Sum of atomic charges:   -0.0000000

LOEWDIN ATOMIC CHARGES
----------------------
   0 C :   -0.410579
   1 C :    0.024773
   2 O :   -0.673517
   3 P :    0.379005
   4 S :   -0.157618
   5 O :   -0.690820
   6 C :    0.020389
   7 C :   -0.402302
   8 S :    0.192539
   9 C :   -0.397832
  10 S :    0.171069
  11 P :    0.371234
  12 S :   -0.159619
  13 O :   -0.695759
  14 C :    0.028120
  15 C :   -0.401969
  16 O :   -0.688309
  17 C :    0.025554
  18 C :   -0.389470
  19 H :    0.163564
  20 H :    0.161655
  21 H :    0.168271
  22 H :    0.181464
  23 H :    0.190800
  24 H :    0.182138
  25 H :    0.189772
  26 H :    0.163867
  27 H :    0.162238
  28 H :    0.168187
  29 H :    0.201066
  30 H :    0.198432
  31 H :    0.190695
  32 H :    0.182127
  33 H :    0.164458
  34 H :    0.168663
  35 H :    0.162856
  36 H :    0.181841
  37 H :    0.179167
  38 H :    0.163109
  39 H :    0.162225
  40 H :    0.168513

  Mayer bond orders larger than 0.100000
B(  0-C ,  1-C ) :   0.9076 B(  0-C , 19-H ) :   0.9651 B(  0-C , 20-H ) :   0.9644
B(  0-C , 21-H ) :   0.9533 B(  1-C ,  2-O ) :   0.8017 B(  1-C , 22-H ) :   0.9670
B(  1-C , 23-H ) :   0.9483 B(  2-O ,  3-P ) :   1.0726 B(  3-P ,  4-S ) :   1.6988
B(  3-P ,  5-O ) :   1.1504 B(  3-P ,  8-S ) :   1.1256 B(  5-O ,  6-C ) :   0.7729
B(  6-C ,  7-C ) :   0.9131 B(  6-C , 24-H ) :   0.9591 B(  6-C , 25-H ) :   0.9519
B(  7-C , 26-H ) :   0.9720 B(  7-C , 27-H ) :   0.9609 B(  7-C , 28-H ) :   0.9571
B(  8-S ,  9-C ) :   0.9133 B(  9-C , 10-S ) :   0.8983 B(  9-C , 29-H ) :   0.9042
B(  9-C , 30-H ) :   0.9085 B( 10-S , 11-P ) :   1.0581 B( 11-P , 12-S ) :   1.7460
B( 11-P , 13-O ) :   1.1611 B( 11-P , 16-O ) :   1.0656 B( 13-O , 14-C ) :   0.7795
B( 14-C , 15-C ) :   0.9125 B( 14-C , 31-H ) :   0.9543 B( 14-C , 32-H ) :   0.9556
B( 15-C , 33-H ) :   0.9715 B( 15-C , 34-H ) :   0.9565 B( 15-C , 35-H ) :   0.9591
B( 16-O , 17-C ) :   0.7683 B( 17-C , 18-C ) :   0.9463 B( 17-C , 36-H ) :   0.9462
B( 17-C , 37-H ) :   0.9375 B( 18-C , 38-H ) :   0.9697 B( 18-C , 39-H ) :   0.9695
B( 18-C , 40-H ) :   0.9599

Dispersion correction           -0.021623541
FINAL SINGLE POINT ENERGY     -2932.470321788810

DIPOLE MOMENT
-------------

Method             : SCF
Type of density    : Electron Density
Multiplicity       :   1
Irrep              :   0
Energy             : -2932.4950614689878421 Eh
Relativity type    :
Basis              : AO
                                X                 Y                 Z
Electronic contribution:      0.982735971       7.251966542     -10.025107341
Nuclear contribution   :     -0.845412682      -9.154053862      10.984047861
                        -----------------------------------------
Total Dipole Moment    :      0.137323289      -1.902087320       0.958940520
                        -----------------------------------------
Magnitude (a.u.)       :      2.134563370
Magnitude (Debye)      :      5.425628905

Rotational constants in cm-1:             0.012785             0.004964             0.004660
Rotational constants in MHz :           383.288861           148.830421           139.695065

                             ****ORCA TERMINATED NORMALLY****
TOTAL RUN TIME: 0 days 0 hours 1 minutes 57 seconds 812 msec
