                         Program Version 6.0.0  -   RELEASE  -
|  1> ! pbe def2-sv(p) def2/J RI DEFGRID1 loosescf d4 GCP(DFT/SV(P)) printgap
|  2> %output
|  3>     printlevel normal
|  4> end
|  5> * xyz 0 1
|  6> C 2.5858628004 0.7431612356 -3.4128904111
|  7> C 2.9847431517 0.123163119 -2.09094208
|  8> O 2.2955567668 0.8485033386 -1.0398096855
|  9> P 2.0657963854 0.26476433 0.3994510373
| 10> S 1.0855089949 1.4664411753 1.5868282952
| 11> O 3.5801561412 0.0060901276 0.8453435866
| 12> C 3.9906774475 -0.1663439855 2.2108269772
| 13> C 3.4388652403 -1.4347162857 2.8302234894
| 14> S 1.2742305124 -1.7000053313 0.1257390159
| 15> C -0.1153214314 -1.6654692194 1.3009124242
| 16> S -1.7399536155 -1.8993795233 0.5292626279
| 17> P -2.0524716053 0.0357398517 -0.2531194896
| 18> S -0.7962379109 0.643395694 -1.6396523584
| 19> O -2.1345054082 0.828783196 1.1142454367
| 20> C -2.7912505519 2.0984382328 1.3090306418
| 21> C -2.2241308256 3.1886024442 0.4249728102
| 22> O -3.567505496 0.036001574 -0.7302799698
| 23> C -3.9490105952 -0.3424806498 -2.0639956815
| 24> C -3.7621106057 -1.826758639 -2.3001027079
| 25> H 2.8834770665 1.7872656066 -3.4408861584
| 26> H 3.0683529657 0.204110353 -4.2213943887
| 27> H 1.5061003401 0.6877483497 -3.531731902
| 28> H 4.0570384303 0.2093672751 -1.9039534988
| 29> H 2.6885489885 -0.9288547341 -2.0398813043
| 30> H 5.079786979 -0.1899048198 2.1504975676
| 31> H 3.6693578027 0.7116802195 2.7801058379
| 32> H 3.6471702963 -2.2894417351 2.191690778
| 33> H 3.9012593945 -1.5872759232 3.8001352016
| 34> H 2.362065937 -1.3449128716 2.9652334279
| 35> H -0.1024672896 -0.7123892156 1.8362566665
| 36> H 0.0051387246 -2.5090681621 1.97540036
| 37> H -3.8590080528 1.9583492957 1.1259945424
| 38> H -2.6130811328 2.3125058959 2.3642908446
| 39> H -2.6915670695 4.1360580781 0.6732371554
| 40> H -1.1488935093 3.2686620029 0.5756254057
| 41> H -2.4107123725 2.9611800342 -0.6240679608
| 42> H -4.9973675342 -0.0489282808 -2.1307077642
| 43> H -3.3504403042 0.2388020135 -2.7731920737
| 44> H -4.1586713876 -2.0897761922 -3.2753704332
| 45> H -2.7016076668 -2.0748132885 -2.2702675005
| 46> H -4.275329685 -2.3994458832 -1.5319474375
| 47> *
| 48>
| 49>                          ****END OF INPUT****

CARTESIAN COORDINATES (ANGSTROEM)
---------------------------------
  C      2.585863    0.743161   -3.412890
  C      2.984743    0.123163   -2.090942
  O      2.295557    0.848503   -1.039810
  P      2.065796    0.264764    0.399451
  S      1.085509    1.466441    1.586828
  O      3.580156    0.006090    0.845344
  C      3.990677   -0.166344    2.210827
  C      3.438865   -1.434716    2.830223
  S      1.274231   -1.700005    0.125739
  C     -0.115321   -1.665469    1.300912
  S     -1.739954   -1.899380    0.529263
  P     -2.052472    0.035740   -0.253119
  S     -0.796238    0.643396   -1.639652
  O     -2.134505    0.828783    1.114245
  C     -2.791251    2.098438    1.309031
  C     -2.224131    3.188602    0.424973
  O     -3.567505    0.036002   -0.730280
  C     -3.949011   -0.342481   -2.063996
  C     -3.762111   -1.826759   -2.300103
  H      2.883477    1.787266   -3.440886
  H      3.068353    0.204110   -4.221394
  H      1.506100    0.687748   -3.531732
  H      4.057038    0.209367   -1.903953
  H      2.688549   -0.928855   -2.039881
  H      5.079787   -0.189905    2.150498
  H      3.669358    0.711680    2.780106
  H      3.647170   -2.289442    2.191691
  H      3.901259   -1.587276    3.800135
  H      2.362066   -1.344913    2.965233
  H     -0.102467   -0.712389    1.836257
  H      0.005139   -2.509068    1.975400
  H     -3.859008    1.958349    1.125995
  H     -2.613081    2.312506    2.364291
  H     -2.691567    4.136058    0.673237
  H     -1.148894    3.268662    0.575625
  H     -2.410712    2.961180   -0.624068
  H     -4.997368   -0.048928   -2.130708
  H     -3.350440    0.238802   -2.773192
  H     -4.158671   -2.089776   -3.275370
  H     -2.701608   -2.074813   -2.270268
  H     -4.275330   -2.399446   -1.531947

 Total Charge           Charge          ....    0
 Multiplicity           Mult            ....    1
 Number of Electrons    NEL             ....  202
 Basis Dimension        Dim             ....  334

ORBITAL ENERGIES
----------------

  NO   OCC          E(Eh)            E(eV)
   0   2.0000     -88.036217     -2395.5872
   1   2.0000     -88.035961     -2395.5803
   2   2.0000     -87.983471     -2394.1520
   3   2.0000     -87.977999     -2394.0031
   4   2.0000     -76.420996     -2079.5210
   5   2.0000     -76.420768     -2079.5148
   6   2.0000     -18.791243      -511.3357
   7   2.0000     -18.784649      -511.1563
   8   2.0000     -18.781303      -511.0652
   9   2.0000     -18.780665      -511.0479
  10   2.0000      -9.953328      -270.8438
  11   2.0000      -9.952224      -270.8138
  12   2.0000      -9.950609      -270.7698
  13   2.0000      -9.948455      -270.7112
  14   2.0000      -9.947423      -270.6832
  15   2.0000      -9.883393      -268.9408
  16   2.0000      -9.883365      -268.9400
  17   2.0000      -9.881225      -268.8818
  18   2.0000      -9.871187      -268.6087
  19   2.0000      -7.681650      -209.0283
  20   2.0000      -7.681044      -209.0118
  21   2.0000      -7.628558      -207.5836
  22   2.0000      -7.622599      -207.4215
  23   2.0000      -6.418311      -174.6511
  24   2.0000      -6.418116      -174.6458
  25   2.0000      -5.709496      -155.3633
  26   2.0000      -5.708934      -155.3480
  27   2.0000      -5.706294      -155.2761
  28   2.0000      -5.705639      -155.2583
  29   2.0000      -5.698401      -155.0614
  30   2.0000      -5.697959      -155.0493
  31   2.0000      -5.657388      -153.9454
  32   2.0000      -5.651420      -153.7830
  33   2.0000      -5.649399      -153.7280
  34   2.0000      -5.648481      -153.7030
  35   2.0000      -5.643232      -153.5602
  36   2.0000      -5.642903      -153.5512
  37   2.0000      -4.641345      -126.2974
  38   2.0000      -4.640792      -126.2824
  39   2.0000      -4.639949      -126.2594
  40   2.0000      -4.639717      -126.2531
  41   2.0000      -4.638695      -126.2253
  42   2.0000      -4.638492      -126.2198
  43   2.0000      -0.983117       -26.7520
  44   2.0000      -0.980757       -26.6878
  45   2.0000      -0.939481       -25.5646
  46   2.0000      -0.935859       -25.4660
  47   2.0000      -0.756917       -20.5968
  48   2.0000      -0.716829       -19.5059
  49   2.0000      -0.705809       -19.2060
  50   2.0000      -0.684653       -18.6304
  51   2.0000      -0.684597       -18.6288
  52   2.0000      -0.669772       -18.2254
  53   2.0000      -0.648851       -17.6561
  54   2.0000      -0.631641       -17.1878
  55   2.0000      -0.593122       -16.1397
  56   2.0000      -0.584861       -15.9149
  57   2.0000      -0.571996       -15.5648
  58   2.0000      -0.567166       -15.4334
  59   2.0000      -0.558374       -15.1941
  60   2.0000      -0.501331       -13.6419
  61   2.0000      -0.491545       -13.3756
  62   2.0000      -0.467920       -12.7327
  63   2.0000      -0.466025       -12.6812
  64   2.0000      -0.451190       -12.2775
  65   2.0000      -0.448967       -12.2170
  66   2.0000      -0.432975       -11.7818
  67   2.0000      -0.428936       -11.6719
  68   2.0000      -0.424817       -11.5599
  69   2.0000      -0.413295       -11.2463
  70   2.0000      -0.409997       -11.1566
  71   2.0000      -0.403291       -10.9741
  72   2.0000      -0.389253       -10.5921
  73   2.0000      -0.383927       -10.4472
  74   2.0000      -0.376648       -10.2491
  75   2.0000      -0.365243        -9.9388
  76   2.0000      -0.358755        -9.7622
  77   2.0000      -0.351953        -9.5771
  78   2.0000      -0.350950        -9.5498
  79   2.0000      -0.348123        -9.4729
  80   2.0000      -0.340625        -9.2689
  81   2.0000      -0.338814        -9.2196
  82   2.0000      -0.334639        -9.1060
  83   2.0000      -0.329539        -8.9672
  84   2.0000      -0.327717        -8.9176
  85   2.0000      -0.312763        -8.5107
  86   2.0000      -0.311062        -8.4644
  87   2.0000      -0.294916        -8.0251
  88   2.0000      -0.292882        -7.9697
  89   2.0000      -0.290246        -7.8980
  90   2.0000      -0.282312        -7.6821
  91   2.0000      -0.271493        -7.3877
  92   2.0000      -0.266325        -7.2471
  93   2.0000      -0.256220        -6.9721
  94   2.0000      -0.252239        -6.8638
  95   2.0000      -0.233558        -6.3554
  96   2.0000      -0.216090        -5.8801
  97   2.0000      -0.204139        -5.5549
  98   2.0000      -0.197504        -5.3744
  99   2.0000      -0.188613        -5.1324
 100   2.0000      -0.185472        -5.0469
 101   0.0000      -0.035915        -0.9773
 102   0.0000      -0.030075        -0.8184
 103   0.0000      -0.012303        -0.3348
 104   0.0000       0.002480         0.0675
 105   0.0000       0.020164         0.5487

MULLIKEN ATOMIC CHARGES
-----------------------
   0 C :   -0.285953
   1 C :   -0.015730
   2 O :   -0.351373
   3 P :    0.611923
   4 S :   -0.301247
   5 O :   -0.387809
   6 C :    0.006163
   7 C :   -0.319928
   8 S :   -0.106966
   9 C :   -0.363406
  10 S :   -0.086879
  11 P :    0.628407
  12 S :   -0.321244
  13 O :   -0.369578
  14 C :    0.007793
  15 C :   -0.323588
  16 O :   -0.379494
  17 C :   -0.003048
  18 C :   -0.323053
  19 H :    0.119349
  20 H :    0.107207
  21 H :    0.136412
  22 H :    0.107622
  23 H :    0.110581
  24 H :    0.101651
  25 H :    0.107928
  26 H :    0.119133
  27 H :    0.110821
  28 H :    0.121458
  29 H :    0.206196
  30 H :    0.183174
  31 H :    0.103953
  32 H :    0.105152
  33 H :    0.103998
  34 H :    0.141375
  35 H :    0.121114
  36 H :    0.103254
  37 H :    0.110288
  38 H :    0.114190
  39 H :    0.131215
  40 H :    0.118940
Sum of atomic charges:    0.0000000

LOEWDIN ATOMIC CHARGES
----------------------
   0 C :   -0.351425
   1 C :   -0.111195
   2 O :   -0.228079
   3 P :    0.573321
   4 S :   -0.291944
   5 O :   -0.257849
   6 C :   -0.116656
   7 C :   -0.370208
   8 S :    0.065706
   9 C :   -0.481899
  10 S :    0.081048
  11 P :    0.570817
  12 S :   -0.308346
  13 O :   -0.240817
  14 C :   -0.106575
  15 C :   -0.371307
  16 O :   -0.244935
  17 C :   -0.121914
  18 C :   -0.370893
  19 H :    0.129148
  20 H :    0.128701
  21 H :    0.129744
  22 H :    0.114584
  23 H :    0.105999
  24 H :    0.117407
  25 H :    0.109832
  26 H :    0.124198
  27 H :    0.129478
  28 H :    0.119080
  29 H :    0.124580
  30 H :    0.136096
  31 H :    0.110776
  32 H :    0.120503
  33 H :    0.126362
  34 H :    0.130613
  35 H :    0.119323
  36 H :    0.117537
  37 H :    0.109327
  38 H :    0.131943
  39 H :    0.123016
  40 H :    0.124905

  Mayer bond orders larger than 0.100000
B(  0-C ,  1-C ) :   1.1643 B(  0-C , 19-H ) :   0.9497 B(  0-C , 20-H ) :   0.9403
B(  0-C , 21-H ) :   0.9431 B(  1-C ,  2-O ) :   0.8912 B(  1-C , 22-H ) :   0.9296
B(  1-C , 23-H ) :   0.9140 B(  2-O ,  3-P ) :   1.1484 B(  3-P ,  4-S ) :   1.6213
B(  3-P ,  5-O ) :   1.0652 B(  3-P ,  8-S ) :   0.9475 B(  4-S ,  8-S ) :   0.1142
B(  4-S , 29-H ) :   0.1046 B(  5-O ,  6-C ) :   0.9251 B(  6-C ,  7-C ) :   1.1632
B(  6-C , 24-H ) :   0.9349 B(  6-C , 25-H ) :   0.9180 B(  7-C , 26-H ) :   0.9414
B(  7-C , 27-H ) :   0.9372 B(  7-C , 28-H ) :   0.9387 B(  8-S ,  9-C ) :   1.0006
B(  9-C , 10-S ) :   1.0017 B(  9-C , 29-H ) :   0.8461 B(  9-C , 30-H ) :   0.9091
B( 10-S , 11-P ) :   0.9561 B( 10-S , 12-S ) :   0.1181 B( 11-P , 12-S ) :   1.6319
B( 11-P , 13-O ) :   1.1190 B( 11-P , 16-O ) :   1.0838 B( 13-O , 14-C ) :   0.9037
B( 14-C , 15-C ) :   1.1682 B( 14-C , 31-H ) :   0.9320 B( 14-C , 32-H ) :   0.9345
B( 15-C , 33-H ) :   0.9352 B( 15-C , 34-H ) :   0.9358 B( 15-C , 35-H ) :   0.9351
B( 16-O , 17-C ) :   0.9080 B( 17-C , 18-C ) :   1.1654 B( 17-C , 36-H ) :   0.9324
B( 17-C , 37-H ) :   0.9107 B( 18-C , 38-H ) :   0.9384 B( 18-C , 39-H ) :   0.9325
B( 18-C , 40-H ) :   0.9449

Dispersion correction           -0.067526122
FINAL SINGLE POINT ENERGY     -2929.513302534956

DIPOLE MOMENT
-------------

Method             : SCF
Type of density    : Electron Density
Multiplicity       :   1
Irrep              :   0
Energy             : -2929.6307291755242659 Eh
Relativity type    :
Basis              : AO
                                X                 Y                 Z
Electronic contribution:     -0.546271545      -2.501965555       5.083975739
Nuclear contribution   :      0.520354192       1.958736944      -5.122311137
                        -----------------------------------------
Total Dipole Moment    :     -0.025917353      -0.543228612      -0.038335398
                        -----------------------------------------
Magnitude (a.u.)       :      0.545195961
Magnitude (Debye)      :      1.385778004

Rotational constants in cm-1:             0.011423             0.005498             0.005294
Rotational constants in MHz :           342.458778           164.833946           158.703713

                             ****ORCA TERMINATED NORMALLY****
TOTAL RUN TIME: 0 days 0 hours 0 minutes 21 seconds 614 msec
