                         Program Version 6.0.0  -   RELEASE  -
|  1> ! pbe def2-sv(p) def2/J RI DEFGRID1 loosescf d4 GCP(DFT/SV(P)) printgap
|  2> %output
|  3>     printlevel normal
|  4> end
|  5> * xyz 0 1
|  6> C 3.1924136116 2.3482936468 -1.3911031121
|  7> C 3.8910770826 1.8154157932 -0.1565343646
|  8> O 3.6133787085 0.4216105301 0.0464230829
|  9> P 2.1690617835 -0.0965943566 0.4699655119
| 10> S 1.3109367231 1.0465046436 1.8172677588
| 11> O 2.4541221442 -1.5938940912 0.8930407409
| 12> C 2.698246075 -1.9609959522 2.267654197
| 13> C 4.0429325513 -1.4580888473 2.7478361341
| 14> S 1.2418523889 -0.4655085933 -1.4082843741
| 15> C 0.2085444441 -1.8949548137 -0.9824511481
| 16> S -0.8966627102 -1.5936945839 0.4239211199
| 17> P -2.0495458254 -0.0857612689 -0.5012964358
| 18> S -2.4253216821 -0.340259505 -2.4109186698
| 19> O -1.2445127117 1.2100443125 -0.0990226292
| 20> C -1.3358241022 2.4448614418 -0.8382552931
| 21> C -2.7147596272 3.0587568238 -0.7322056947
| 22> O -3.3284303546 0.015202096 0.4315256783
| 23> C -4.4250286353 -0.9160533249 0.3243359077
| 24> C -5.6597273503 -0.2540681643 0.9019556148
| 25> H 2.1117562919 2.2824158495 -1.2573859802
| 26> H 3.4672068991 3.3863659995 -1.5474138769
| 27> H 3.4671422737 1.7629902886 -2.2648528563
| 28> H 3.5710027186 2.365643469 0.7349865015
| 29> H 4.9764197678 1.86021274 -0.2533214058
| 30> H 1.8885850897 -1.5567930327 2.883872605
| 31> H 2.649324684 -3.0505814562 2.2603668115
| 32> H 4.2338671466 -1.8381435678 3.7464751686
| 33> H 4.8296433257 -1.7895565142 2.0753819377
| 34> H 4.0401410162 -0.3692585949 2.7772303048
| 35> H 0.8374687988 -2.7404847904 -0.7180115412
| 36> H -0.3867601719 -2.1021519724 -1.8727238794
| 37> H -0.5727788283 3.0755124903 -0.3782434315
| 38> H -1.0757482635 2.2414293373 -1.8825016719
| 39> H -2.9887790604 3.1822791017 0.3123504314
| 40> H -2.7184807013 4.024867121 -1.2269501696
| 41> H -3.4437979035 2.4086184726 -1.215180361
| 42> H -4.5633405211 -1.1722166742 -0.7317157213
| 43> H -4.1582245566 -1.8185843677 0.8805388037
| 44> H -6.4871390864 -0.9551601647 0.8685657028
| 45> H -5.4747006514 0.0375365041 1.9317274518
| 46> H -5.9161240457 0.630806611 0.3262777619
| 47> *
| 48>
| 49>                          ****END OF INPUT****

CARTESIAN COORDINATES (ANGSTROEM)
---------------------------------
  C      3.192414    2.348294   -1.391103
  C      3.891077    1.815416   -0.156534
  O      3.613379    0.421611    0.046423
  P      2.169062   -0.096594    0.469966
  S      1.310937    1.046505    1.817268
  O      2.454122   -1.593894    0.893041
  C      2.698246   -1.960996    2.267654
  C      4.042933   -1.458089    2.747836
  S      1.241852   -0.465509   -1.408284
  C      0.208544   -1.894955   -0.982451
  S     -0.896663   -1.593695    0.423921
  P     -2.049546   -0.085761   -0.501296
  S     -2.425322   -0.340260   -2.410919
  O     -1.244513    1.210044   -0.099023
  C     -1.335824    2.444861   -0.838255
  C     -2.714760    3.058757   -0.732206
  O     -3.328430    0.015202    0.431526
  C     -4.425029   -0.916053    0.324336
  C     -5.659727   -0.254068    0.901956
  H      2.111756    2.282416   -1.257386
  H      3.467207    3.386366   -1.547414
  H      3.467142    1.762990   -2.264853
  H      3.571003    2.365643    0.734987
  H      4.976420    1.860213   -0.253321
  H      1.888585   -1.556793    2.883873
  H      2.649325   -3.050581    2.260367
  H      4.233867   -1.838144    3.746475
  H      4.829643   -1.789557    2.075382
  H      4.040141   -0.369259    2.777230
  H      0.837469   -2.740485   -0.718012
  H     -0.386760   -2.102152   -1.872724
  H     -0.572779    3.075512   -0.378243
  H     -1.075748    2.241429   -1.882502
  H     -2.988779    3.182279    0.312350
  H     -2.718481    4.024867   -1.226950
  H     -3.443798    2.408618   -1.215180
  H     -4.563341   -1.172217   -0.731716
  H     -4.158225   -1.818584    0.880539
  H     -6.487139   -0.955160    0.868566
  H     -5.474701    0.037537    1.931727
  H     -5.916124    0.630807    0.326278

 Total Charge           Charge          ....    0
 Multiplicity           Mult            ....    1
 Number of Electrons    NEL             ....  202
 Basis Dimension        Dim             ....  334

ORBITAL ENERGIES
----------------

  NO   OCC          E(Eh)            E(eV)
   0   2.0000     -88.039412     -2395.6742
   1   2.0000     -88.037303     -2395.6168
   2   2.0000     -87.985535     -2394.2081
   3   2.0000     -87.981358     -2394.0945
   4   2.0000     -76.423384     -2079.5860
   5   2.0000     -76.423361     -2079.5854
   6   2.0000     -18.793410      -511.3947
   7   2.0000     -18.792157      -511.3606
   8   2.0000     -18.789004      -511.2748
   9   2.0000     -18.783824      -511.1338
  10   2.0000      -9.953760      -270.8556
  11   2.0000      -9.952038      -270.8087
  12   2.0000      -9.951990      -270.8074
  13   2.0000      -9.951034      -270.7814
  14   2.0000      -9.945288      -270.6250
  15   2.0000      -9.887613      -269.0556
  16   2.0000      -9.886720      -269.0313
  17   2.0000      -9.883208      -268.9358
  18   2.0000      -9.879117      -268.8244
  19   2.0000      -7.684710      -209.1116
  20   2.0000      -7.682262      -209.0450
  21   2.0000      -7.630525      -207.6371
  22   2.0000      -7.626328      -207.5229
  23   2.0000      -6.421033      -174.7252
  24   2.0000      -6.420885      -174.7212
  25   2.0000      -5.712547      -155.4463
  26   2.0000      -5.710408      -155.3881
  27   2.0000      -5.709313      -155.3583
  28   2.0000      -5.706794      -155.2898
  29   2.0000      -5.701567      -155.1475
  30   2.0000      -5.698955      -155.0765
  31   2.0000      -5.659256      -153.9962
  32   2.0000      -5.655134      -153.8840
  33   2.0000      -5.651239      -153.7780
  34   2.0000      -5.650790      -153.7658
  35   2.0000      -5.647133      -153.6663
  36   2.0000      -5.646442      -153.6475
  37   2.0000      -4.643569      -126.3579
  38   2.0000      -4.643386      -126.3529
  39   2.0000      -4.642777      -126.3364
  40   2.0000      -4.642672      -126.3335
  41   2.0000      -4.641686      -126.3067
  42   2.0000      -4.641205      -126.2936
  43   2.0000      -0.986523       -26.8447
  44   2.0000      -0.984083       -26.7783
  45   2.0000      -0.946793       -25.7636
  46   2.0000      -0.942750       -25.6535
  47   2.0000      -0.761778       -20.7290
  48   2.0000      -0.719233       -19.5713
  49   2.0000      -0.706783       -19.2325
  50   2.0000      -0.687558       -18.7094
  51   2.0000      -0.685167       -18.6443
  52   2.0000      -0.669742       -18.2246
  53   2.0000      -0.649117       -17.6634
  54   2.0000      -0.636418       -17.3178
  55   2.0000      -0.599283       -16.3073
  56   2.0000      -0.592842       -16.1321
  57   2.0000      -0.572865       -15.5884
  58   2.0000      -0.564740       -15.3674
  59   2.0000      -0.559053       -15.2126
  60   2.0000      -0.502320       -13.6688
  61   2.0000      -0.492577       -13.4037
  62   2.0000      -0.474895       -12.9225
  63   2.0000      -0.471357       -12.8263
  64   2.0000      -0.456313       -12.4169
  65   2.0000      -0.442919       -12.0524
  66   2.0000      -0.438656       -11.9364
  67   2.0000      -0.432714       -11.7747
  68   2.0000      -0.424892       -11.5619
  69   2.0000      -0.414407       -11.2766
  70   2.0000      -0.405631       -11.0378
  71   2.0000      -0.393678       -10.7125
  72   2.0000      -0.391427       -10.6513
  73   2.0000      -0.388425       -10.5696
  74   2.0000      -0.378241       -10.2925
  75   2.0000      -0.372983       -10.1494
  76   2.0000      -0.370235       -10.0746
  77   2.0000      -0.357458        -9.7269
  78   2.0000      -0.356019        -9.6878
  79   2.0000      -0.351105        -9.5541
  80   2.0000      -0.348221        -9.4756
  81   2.0000      -0.345269        -9.3952
  82   2.0000      -0.341178        -9.2839
  83   2.0000      -0.339044        -9.2259
  84   2.0000      -0.329251        -8.9594
  85   2.0000      -0.318905        -8.6778
  86   2.0000      -0.306261        -8.3338
  87   2.0000      -0.298493        -8.1224
  88   2.0000      -0.294718        -8.0197
  89   2.0000      -0.284641        -7.7455
  90   2.0000      -0.280705        -7.6384
  91   2.0000      -0.273216        -7.4346
  92   2.0000      -0.270545        -7.3619
  93   2.0000      -0.260792        -7.0965
  94   2.0000      -0.259906        -7.0724
  95   2.0000      -0.234479        -6.3805
  96   2.0000      -0.216366        -5.8876
  97   2.0000      -0.207312        -5.6413
  98   2.0000      -0.203111        -5.5269
  99   2.0000      -0.195311        -5.3147
 100   2.0000      -0.190337        -5.1793
 101   0.0000      -0.045464        -1.2371
 102   0.0000      -0.020610        -0.5608
 103   0.0000      -0.014830        -0.4036
 104   0.0000       0.008877         0.2416
 105   0.0000       0.022077         0.6007

MULLIKEN ATOMIC CHARGES
-----------------------
   0 C :   -0.338405
   1 C :   -0.001589
   2 O :   -0.368551
   3 P :    0.615083
   4 S :   -0.313634
   5 O :   -0.376537
   6 C :   -0.005770
   7 C :   -0.303733
   8 S :   -0.097898
   9 C :   -0.343287
  10 S :   -0.091817
  11 P :    0.622262
  12 S :   -0.343890
  13 O :   -0.342290
  14 C :   -0.013432
  15 C :   -0.303193
  16 O :   -0.373005
  17 C :   -0.011396
  18 C :   -0.282513
  19 H :    0.139608
  20 H :    0.115426
  21 H :    0.124513
  22 H :    0.107586
  23 H :    0.105598
  24 H :    0.116070
  25 H :    0.102279
  26 H :    0.111820
  27 H :    0.116842
  28 H :    0.122805
  29 H :    0.186456
  30 H :    0.192289
  31 H :    0.112049
  32 H :    0.112229
  33 H :    0.118276
  34 H :    0.109501
  35 H :    0.121054
  36 H :    0.105875
  37 H :    0.102693
  38 H :    0.111742
  39 H :    0.118912
  40 H :    0.119974
Sum of atomic charges:   -0.0000000

LOEWDIN ATOMIC CHARGES
----------------------
   0 C :   -0.371035
   1 C :   -0.122327
   2 O :   -0.244882
   3 P :    0.570767
   4 S :   -0.309301
   5 O :   -0.241284
   6 C :   -0.117752
   7 C :   -0.364219
   8 S :    0.083867
   9 C :   -0.476960
  10 S :    0.080972
  11 P :    0.573651
  12 S :   -0.329114
  13 O :   -0.224476
  14 C :   -0.117111
  15 C :   -0.365804
  16 O :   -0.244835
  17 C :   -0.120154
  18 C :   -0.350394
  19 H :    0.120505
  20 H :    0.132248
  21 H :    0.127254
  22 H :    0.107687
  23 H :    0.118978
  24 H :    0.112544
  25 H :    0.117024
  26 H :    0.130430
  27 H :    0.126731
  28 H :    0.123176
  29 H :    0.133440
  30 H :    0.130072
  31 H :    0.117854
  32 H :    0.110176
  33 H :    0.127175
  34 H :    0.129471
  35 H :    0.120230
  36 H :    0.107714
  37 H :    0.110885
  38 H :    0.130756
  39 H :    0.127965
  40 H :    0.128074

  Mayer bond orders larger than 0.100000
B(  0-C ,  1-C ) :   1.1626 B(  0-C , 19-H ) :   0.9290 B(  0-C , 20-H ) :   0.9386
B(  0-C , 21-H ) :   0.9430 B(  1-C ,  2-O ) :   0.9148 B(  1-C , 22-H ) :   0.9111
B(  1-C , 23-H ) :   0.9323 B(  2-O ,  3-P ) :   1.0956 B(  3-P ,  4-S ) :   1.6247
B(  3-P ,  5-O ) :   1.1116 B(  3-P ,  8-S ) :   0.9469 B(  4-S ,  8-S ) :   0.1077
B(  5-O ,  6-C ) :   0.9007 B(  6-C ,  7-C ) :   1.1656 B(  6-C , 24-H ) :   0.9149
B(  6-C , 25-H ) :   0.9343 B(  7-C , 26-H ) :   0.9389 B(  7-C , 27-H ) :   0.9459
B(  7-C , 28-H ) :   0.9354 B(  8-S ,  9-C ) :   1.0029 B(  9-C , 10-S ) :   1.0088
B(  9-C , 29-H ) :   0.9017 B(  9-C , 30-H ) :   0.8800 B( 10-S , 11-P ) :   0.9542
B( 10-S , 12-S ) :   0.1094 B( 11-P , 12-S ) :   1.5907 B( 11-P , 13-O ) :   1.1540
B( 11-P , 16-O ) :   1.1128 B( 13-O , 14-C ) :   0.9039 B( 14-C , 15-C ) :   1.1631
B( 14-C , 31-H ) :   0.9257 B( 14-C , 32-H ) :   0.9184 B( 15-C , 33-H ) :   0.9449
B( 15-C , 34-H ) :   0.9389 B( 15-C , 35-H ) :   0.9335 B( 16-O , 17-C ) :   0.9037
B( 17-C , 18-C ) :   1.1614 B( 17-C , 36-H ) :   0.9075 B( 17-C , 37-H ) :   0.9301
B( 18-C , 38-H ) :   0.9417 B( 18-C , 39-H ) :   0.9502 B( 18-C , 40-H ) :   0.9513

Dispersion correction           -0.066362439
FINAL SINGLE POINT ENERGY     -2929.521903480640

DIPOLE MOMENT
-------------

Method             : SCF
Type of density    : Electron Density
Multiplicity       :   1
Irrep              :   0
Energy             : -2929.6396895109446632 Eh
Relativity type    :
Basis              : AO
                                X                 Y                 Z
Electronic contribution:      1.928196942      -9.519535565      -4.780086094
Nuclear contribution   :     -1.669771932       9.458650019       5.205053095
                        -----------------------------------------
Total Dipole Moment    :      0.258425010      -0.060885546       0.424967000
                        -----------------------------------------
Magnitude (a.u.)       :      0.501086307
Magnitude (Debye)      :      1.273660172

Rotational constants in cm-1:             0.012788             0.005105             0.004637
Rotational constants in MHz :           383.366720           153.050125           139.014967

                             ****ORCA TERMINATED NORMALLY****
TOTAL RUN TIME: 0 days 0 hours 0 minutes 20 seconds 958 msec
