                         Program Version 6.0.0  -   RELEASE  -
|  1> ! r2scan-3c def2/J RI DEFGRID2 scfconv6 printgap
|  2> %output
|  3>     printlevel normal
|  4> end
|  5> * xyz 0 1
|  6> C 2.0941771173 -3.7661246269 0.3764805538
|  7> C 1.5242271475 -2.6068107436 1.1665027813
|  8> O 1.1158784412 -1.5175484371 0.3087044882
|  9> P 2.1155883871 -0.5864068942 -0.492950671
| 10> S 2.8932475843 -1.2564111139 -2.1627246251
| 11> O 3.1798345886 -0.2213119168 0.6415538785
| 12> C 4.4706180564 0.3161122189 0.3143550899
| 13> C 4.3799226065 1.7566734638 -0.1470661745
| 14> S 0.8728288517 1.1074719955 -0.7408957381
| 15> C 0.410659778 1.3922411734 0.9961912539
| 16> S -0.9044252644 0.3008200343 1.5995320582
| 17> P -2.3385685858 0.780447031 0.105165717
| 18> S -2.3973842599 2.6445365824 -0.4775575351
| 19> O -3.6944316257 0.1907309026 0.6951282195
| 20> C -4.5697482958 0.9547870711 1.5464821368
| 21> C -3.9349595971 1.2833449078 2.8818768809
| 22> O -2.0591869407 -0.2163614496 -1.0886392835
| 23> C -2.0930746967 -1.6566866576 -0.9376170923
| 24> C -1.3438288969 -2.2642001105 -2.1049575524
| 25> H 3.0047466724 -3.4605763713 -0.1365368126
| 26> H 2.3241443837 -4.5835902801 1.0524727554
| 27> H 1.3792768018 -4.1053338089 -0.3688360273
| 28> H 2.250218842 -2.227899412 1.8882990971
| 29> H 0.6030337398 -2.883247286 1.6826559751
| 30> H 5.0416056028 0.2224154345 1.2391041256
| 31> H 4.9175482013 -0.3070725242 -0.4668634755
| 32> H 3.8883798255 2.3708330044 0.6030591488
| 33> H 5.3791677649 2.1405792602 -0.3254217555
| 34> H 3.8110364249 1.8128401316 -1.0749989383
| 35> H 0.0624901601 2.4234712179 1.0342656348
| 36> H 1.2710902552 1.2349091842 1.6417024034
| 37> H -4.8487146264 1.8708716572 1.017274903
| 38> H -5.4427851935 0.3107746428 1.6613781124
| 39> H -3.5507396638 0.3816133616 3.3517869235
| 40> H -3.1148480953 1.9852850626 2.7408986205
| 41> H -4.679142706 1.7385717389 3.5274151822
| 42> H -1.6271916836 -1.9186719538 0.0171920789
| 43> H -3.1399899466 -1.965809723 -0.9271868336
| 44> H -1.7829891259 -1.9347547426 -3.0423178881
| 45> H -0.2994135334 -1.9565621643 -2.0894075367
| 46> H -1.3974000833 -3.3463296974 -2.0416002671
| 47> *
| 48>
| 49>                          ****END OF INPUT****

CARTESIAN COORDINATES (ANGSTROEM)
---------------------------------
  C      2.094177   -3.766125    0.376481
  C      1.524227   -2.606811    1.166503
  O      1.115878   -1.517548    0.308704
  P      2.115588   -0.586407   -0.492951
  S      2.893248   -1.256411   -2.162725
  O      3.179835   -0.221312    0.641554
  C      4.470618    0.316112    0.314355
  C      4.379923    1.756673   -0.147066
  S      0.872829    1.107472   -0.740896
  C      0.410660    1.392241    0.996191
  S     -0.904425    0.300820    1.599532
  P     -2.338569    0.780447    0.105166
  S     -2.397384    2.644537   -0.477558
  O     -3.694432    0.190731    0.695128
  C     -4.569748    0.954787    1.546482
  C     -3.934960    1.283345    2.881877
  O     -2.059187   -0.216361   -1.088639
  C     -2.093075   -1.656687   -0.937617
  C     -1.343829   -2.264200   -2.104958
  H      3.004747   -3.460576   -0.136537
  H      2.324144   -4.583590    1.052473
  H      1.379277   -4.105334   -0.368836
  H      2.250219   -2.227899    1.888299
  H      0.603034   -2.883247    1.682656
  H      5.041606    0.222415    1.239104
  H      4.917548   -0.307073   -0.466863
  H      3.888380    2.370833    0.603059
  H      5.379168    2.140579   -0.325422
  H      3.811036    1.812840   -1.074999
  H      0.062490    2.423471    1.034266
  H      1.271090    1.234909    1.641702
  H     -4.848715    1.870872    1.017275
  H     -5.442785    0.310775    1.661378
  H     -3.550740    0.381613    3.351787
  H     -3.114848    1.985285    2.740899
  H     -4.679143    1.738572    3.527415
  H     -1.627192   -1.918672    0.017192
  H     -3.139990   -1.965810   -0.927187
  H     -1.782989   -1.934755   -3.042318
  H     -0.299414   -1.956562   -2.089408
  H     -1.397400   -3.346330   -2.041600

 Total Charge           Charge          ....    0
 Multiplicity           Mult            ....    1
 Number of Electrons    NEL             ....  202
 Basis Dimension        Dim             ....  539

ORBITAL ENERGIES
----------------

  NO   OCC          E(Eh)            E(eV)
   0   2.0000     -88.574532     -2410.2356
   1   2.0000     -88.573255     -2410.2008
   2   2.0000     -88.521751     -2408.7993
   3   2.0000     -88.519623     -2408.7414
   4   2.0000     -76.916517     -2093.0048
   5   2.0000     -76.912652     -2092.8997
   6   2.0000     -18.997956      -516.9607
   7   2.0000     -18.994302      -516.8612
   8   2.0000     -18.993337      -516.8350
   9   2.0000     -18.984800      -516.6027
  10   2.0000     -10.109248      -275.0866
  11   2.0000     -10.106482      -275.0114
  12   2.0000     -10.101645      -274.8797
  13   2.0000     -10.100192      -274.8402
  14   2.0000     -10.094630      -274.6889
  15   2.0000     -10.032650      -273.0023
  16   2.0000     -10.031057      -272.9589
  17   2.0000     -10.029976      -272.9295
  18   2.0000     -10.022023      -272.7131
  19   2.0000      -7.868319      -214.1079
  20   2.0000      -7.867917      -214.0969
  21   2.0000      -7.816319      -212.6929
  22   2.0000      -7.814325      -212.6386
  23   2.0000      -6.594624      -179.4488
  24   2.0000      -6.590997      -179.3501
  25   2.0000      -5.815703      -158.2533
  26   2.0000      -5.814787      -158.2284
  27   2.0000      -5.811831      -158.1480
  28   2.0000      -5.811742      -158.1455
  29   2.0000      -5.805342      -157.9714
  30   2.0000      -5.805007      -157.9623
  31   2.0000      -5.763988      -156.8461
  32   2.0000      -5.762044      -156.7932
  33   2.0000      -5.756573      -156.6443
  34   2.0000      -5.756381      -156.6391
  35   2.0000      -5.754580      -156.5901
  36   2.0000      -5.754298      -156.5824
  37   2.0000      -4.740515      -128.9960
  38   2.0000      -4.739535      -128.9693
  39   2.0000      -4.738061      -128.9292
  40   2.0000      -4.736853      -128.8963
  41   2.0000      -4.735883      -128.8699
  42   2.0000      -4.734499      -128.8323
  43   2.0000      -1.055584       -28.7239
  44   2.0000      -1.048472       -28.5304
  45   2.0000      -1.014708       -27.6116
  46   2.0000      -1.006307       -27.3830
  47   2.0000      -0.801132       -21.7999
  48   2.0000      -0.760046       -20.6819
  49   2.0000      -0.749414       -20.3926
  50   2.0000      -0.736226       -20.0337
  51   2.0000      -0.731271       -19.8989
  52   2.0000      -0.712500       -19.3881
  53   2.0000      -0.689121       -18.7519
  54   2.0000      -0.668397       -18.1880
  55   2.0000      -0.628639       -17.1061
  56   2.0000      -0.622489       -16.9388
  57   2.0000      -0.615255       -16.7419
  58   2.0000      -0.598559       -16.2876
  59   2.0000      -0.594489       -16.1769
  60   2.0000      -0.530529       -14.4364
  61   2.0000      -0.525287       -14.2938
  62   2.0000      -0.495252       -13.4765
  63   2.0000      -0.492190       -13.3932
  64   2.0000      -0.483431       -13.1548
  65   2.0000      -0.465055       -12.6548
  66   2.0000      -0.458357       -12.4725
  67   2.0000      -0.453708       -12.3460
  68   2.0000      -0.444180       -12.0867
  69   2.0000      -0.439877       -11.9697
  70   2.0000      -0.434366       -11.8197
  71   2.0000      -0.420527       -11.4431
  72   2.0000      -0.406174       -11.0526
  73   2.0000      -0.404633       -11.0106
  74   2.0000      -0.393767       -10.7149
  75   2.0000      -0.385754       -10.4969
  76   2.0000      -0.379886       -10.3372
  77   2.0000      -0.377613       -10.2754
  78   2.0000      -0.373352       -10.1594
  79   2.0000      -0.364643        -9.9225
  80   2.0000      -0.363310        -9.8862
  81   2.0000      -0.359050        -9.7702
  82   2.0000      -0.355293        -9.6680
  83   2.0000      -0.350724        -9.5437
  84   2.0000      -0.347646        -9.4599
  85   2.0000      -0.337288        -9.1781
  86   2.0000      -0.325853        -8.8669
  87   2.0000      -0.315947        -8.5973
  88   2.0000      -0.312776        -8.5111
  89   2.0000      -0.309899        -8.4328
  90   2.0000      -0.308388        -8.3917
  91   2.0000      -0.296014        -8.0550
  92   2.0000      -0.282043        -7.6748
  93   2.0000      -0.279358        -7.6017
  94   2.0000      -0.272285        -7.4093
  95   2.0000      -0.243941        -6.6380
  96   2.0000      -0.229332        -6.2405
  97   2.0000      -0.221166        -6.0182
  98   2.0000      -0.219735        -5.9793
  99   2.0000      -0.214300        -5.8314
 100   2.0000      -0.212719        -5.7884
 101   0.0000      -0.044518        -1.2114
 102   0.0000      -0.020332        -0.5533
 103   0.0000      -0.008829        -0.2402
 104   0.0000      -0.001092        -0.0297
 105   0.0000       0.005448         0.1482

MULLIKEN ATOMIC CHARGES
-----------------------
   0 C :   -0.423183
   1 C :   -0.173373
   2 O :   -0.254840
   3 P :    0.653482
   4 S :   -0.445688
   5 O :   -0.316918
   6 C :   -0.160153
   7 C :   -0.433836
   8 S :   -0.097256
   9 C :   -0.258911
  10 S :   -0.159667
  11 P :    0.666072
  12 S :   -0.436702
  13 O :   -0.291633
  14 C :   -0.164932
  15 C :   -0.447266
  16 O :   -0.262366
  17 C :   -0.104228
  18 C :   -0.470429
  19 H :    0.170016
  20 H :    0.146658
  21 H :    0.156462
  22 H :    0.158855
  23 H :    0.156052
  24 H :    0.146257
  25 H :    0.173181
  26 H :    0.147062
  27 H :    0.148074
  28 H :    0.177751
  29 H :    0.216604
  30 H :    0.195197
  31 H :    0.175385
  32 H :    0.147970
  33 H :    0.152553
  34 H :    0.179183
  35 H :    0.147791
  36 H :    0.153687
  37 H :    0.152907
  38 H :    0.155521
  39 H :    0.184049
  40 H :    0.140613
Sum of atomic charges:   -0.0000000

LOEWDIN ATOMIC CHARGES
----------------------
   0 C :   -0.399351
   1 C :    0.025611
   2 O :   -0.694986
   3 P :    0.365410
   4 S :   -0.113095
   5 O :   -0.690138
   6 C :    0.017405
   7 C :   -0.401844
   8 S :    0.199795
   9 C :   -0.414756
  10 S :    0.150491
  11 P :    0.373569
  12 S :   -0.095176
  13 O :   -0.666783
  14 C :    0.021988
  15 C :   -0.409633
  16 O :   -0.654591
  17 C :    0.022020
  18 C :   -0.388719
  19 H :    0.166865
  20 H :    0.157841
  21 H :    0.162419
  22 H :    0.176831
  23 H :    0.180954
  24 H :    0.177554
  25 H :    0.181614
  26 H :    0.156659
  27 H :    0.160151
  28 H :    0.168406
  29 H :    0.191635
  30 H :    0.186352
  31 H :    0.180475
  32 H :    0.179404
  33 H :    0.159342
  34 H :    0.166062
  35 H :    0.159203
  36 H :    0.176059
  37 H :    0.172523
  38 H :    0.162452
  39 H :    0.171909
  40 H :    0.158072

  Mayer bond orders larger than 0.100000
B(  0-C ,  1-C ) :   0.9377 B(  0-C , 19-H ) :   0.9534 B(  0-C , 20-H ) :   0.9662
B(  0-C , 21-H ) :   0.9689 B(  1-C ,  2-O ) :   0.7685 B(  1-C , 22-H ) :   0.9631
B(  1-C , 23-H ) :   0.9630 B(  2-O ,  3-P ) :   1.1044 B(  3-P ,  4-S ) :   1.8325
B(  3-P ,  5-O ) :   1.0046 B(  3-P ,  8-S ) :   1.0872 B(  5-O ,  6-C ) :   0.8143
B(  6-C ,  7-C ) :   0.9347 B(  6-C , 24-H ) :   0.9595 B(  6-C , 25-H ) :   0.9593
B(  7-C , 26-H ) :   0.9701 B(  7-C , 27-H ) :   0.9607 B(  7-C , 28-H ) :   0.9590
B(  8-S ,  9-C ) :   0.8981 B(  9-C , 10-S ) :   0.9097 B(  9-C , 29-H ) :   0.9167
B(  9-C , 30-H ) :   0.9186 B( 10-S , 11-P ) :   0.9937 B( 11-P , 12-S ) :   1.8306
B( 11-P , 13-O ) :   1.0377 B( 11-P , 16-O ) :   1.1722 B( 13-O , 14-C ) :   0.8193
B( 14-C , 15-C ) :   0.9163 B( 14-C , 31-H ) :   0.9703 B( 14-C , 32-H ) :   0.9614
B( 15-C , 33-H ) :   0.9675 B( 15-C , 34-H ) :   0.9644 B( 15-C , 35-H ) :   0.9564
B( 16-O , 17-C ) :   0.7320 B( 17-C , 18-C ) :   0.9395 B( 17-C , 36-H ) :   0.9527
B( 17-C , 37-H ) :   0.9425 B( 18-C , 38-H ) :   0.9697 B( 18-C , 39-H ) :   0.9613
B( 18-C , 40-H ) :   0.9680

Dispersion correction           -0.022107680
FINAL SINGLE POINT ENERGY     -2932.460677211813

DIPOLE MOMENT
-------------

Method             : SCF
Type of density    : Electron Density
Multiplicity       :   1
Irrep              :   0
Energy             : -2932.4849390469212267 Eh
Relativity type    :
Basis              : AO
                                X                 Y                 Z
Electronic contribution:     -3.734827299      10.717402657      -8.630222813
Nuclear contribution   :      3.963352090     -11.723979404      10.711500893
                        -----------------------------------------
Total Dipole Moment    :      0.228524791      -1.006576747       2.081278080
                        -----------------------------------------
Magnitude (a.u.)       :      2.323174288
Magnitude (Debye)      :      5.905039760

Rotational constants in cm-1:             0.012817             0.005080             0.004647
Rotational constants in MHz :           384.239805           152.280563           139.325541

                             ****ORCA TERMINATED NORMALLY****
TOTAL RUN TIME: 0 days 0 hours 1 minutes 22 seconds 624 msec
