                         Program Version 6.0.0  -   RELEASE  -
|  1> ! r2scan-3c def2/J RI DEFGRID2 scfconv6 printgap
|  2> %output
|  3>     printlevel normal
|  4> end
|  5> %cpcm
|  6>     smd true
|  7>     smdsolvent "water"
|  8> end
|  9> * xyz 0 1
| 10> C 2.0941771173 -3.7661246269 0.3764805538
| 11> C 1.5242271475 -2.6068107436 1.1665027813
| 12> O 1.1158784412 -1.5175484371 0.3087044882
| 13> P 2.1155883871 -0.5864068942 -0.492950671
| 14> S 2.8932475843 -1.2564111139 -2.1627246251
| 15> O 3.1798345886 -0.2213119168 0.6415538785
| 16> C 4.4706180564 0.3161122189 0.3143550899
| 17> C 4.3799226065 1.7566734638 -0.1470661745
| 18> S 0.8728288517 1.1074719955 -0.7408957381
| 19> C 0.410659778 1.3922411734 0.9961912539
| 20> S -0.9044252644 0.3008200343 1.5995320582
| 21> P -2.3385685858 0.780447031 0.105165717
| 22> S -2.3973842599 2.6445365824 -0.4775575351
| 23> O -3.6944316257 0.1907309026 0.6951282195
| 24> C -4.5697482958 0.9547870711 1.5464821368
| 25> C -3.9349595971 1.2833449078 2.8818768809
| 26> O -2.0591869407 -0.2163614496 -1.0886392835
| 27> C -2.0930746967 -1.6566866576 -0.9376170923
| 28> C -1.3438288969 -2.2642001105 -2.1049575524
| 29> H 3.0047466724 -3.4605763713 -0.1365368126
| 30> H 2.3241443837 -4.5835902801 1.0524727554
| 31> H 1.3792768018 -4.1053338089 -0.3688360273
| 32> H 2.250218842 -2.227899412 1.8882990971
| 33> H 0.6030337398 -2.883247286 1.6826559751
| 34> H 5.0416056028 0.2224154345 1.2391041256
| 35> H 4.9175482013 -0.3070725242 -0.4668634755
| 36> H 3.8883798255 2.3708330044 0.6030591488
| 37> H 5.3791677649 2.1405792602 -0.3254217555
| 38> H 3.8110364249 1.8128401316 -1.0749989383
| 39> H 0.0624901601 2.4234712179 1.0342656348
| 40> H 1.2710902552 1.2349091842 1.6417024034
| 41> H -4.8487146264 1.8708716572 1.017274903
| 42> H -5.4427851935 0.3107746428 1.6613781124
| 43> H -3.5507396638 0.3816133616 3.3517869235
| 44> H -3.1148480953 1.9852850626 2.7408986205
| 45> H -4.679142706 1.7385717389 3.5274151822
| 46> H -1.6271916836 -1.9186719538 0.0171920789
| 47> H -3.1399899466 -1.965809723 -0.9271868336
| 48> H -1.7829891259 -1.9347547426 -3.0423178881
| 49> H -0.2994135334 -1.9565621643 -2.0894075367
| 50> H -1.3974000833 -3.3463296974 -2.0416002671
| 51> *
| 52>
| 53>                          ****END OF INPUT****

CARTESIAN COORDINATES (ANGSTROEM)
---------------------------------
  C      2.094177   -3.766125    0.376481
  C      1.524227   -2.606811    1.166503
  O      1.115878   -1.517548    0.308704
  P      2.115588   -0.586407   -0.492951
  S      2.893248   -1.256411   -2.162725
  O      3.179835   -0.221312    0.641554
  C      4.470618    0.316112    0.314355
  C      4.379923    1.756673   -0.147066
  S      0.872829    1.107472   -0.740896
  C      0.410660    1.392241    0.996191
  S     -0.904425    0.300820    1.599532
  P     -2.338569    0.780447    0.105166
  S     -2.397384    2.644537   -0.477558
  O     -3.694432    0.190731    0.695128
  C     -4.569748    0.954787    1.546482
  C     -3.934960    1.283345    2.881877
  O     -2.059187   -0.216361   -1.088639
  C     -2.093075   -1.656687   -0.937617
  C     -1.343829   -2.264200   -2.104958
  H      3.004747   -3.460576   -0.136537
  H      2.324144   -4.583590    1.052473
  H      1.379277   -4.105334   -0.368836
  H      2.250219   -2.227899    1.888299
  H      0.603034   -2.883247    1.682656
  H      5.041606    0.222415    1.239104
  H      4.917548   -0.307073   -0.466863
  H      3.888380    2.370833    0.603059
  H      5.379168    2.140579   -0.325422
  H      3.811036    1.812840   -1.074999
  H      0.062490    2.423471    1.034266
  H      1.271090    1.234909    1.641702
  H     -4.848715    1.870872    1.017275
  H     -5.442785    0.310775    1.661378
  H     -3.550740    0.381613    3.351787
  H     -3.114848    1.985285    2.740899
  H     -4.679143    1.738572    3.527415
  H     -1.627192   -1.918672    0.017192
  H     -3.139990   -1.965810   -0.927187
  H     -1.782989   -1.934755   -3.042318
  H     -0.299414   -1.956562   -2.089408
  H     -1.397400   -3.346330   -2.041600

 Total Charge           Charge          ....    0
 Multiplicity           Mult            ....    1
 Number of Electrons    NEL             ....  202
 Basis Dimension        Dim             ....  539

ORBITAL ENERGIES
----------------

  NO   OCC          E(Eh)            E(eV)
   0   2.0000     -88.577348     -2410.3122
   1   2.0000     -88.574147     -2410.2251
   2   2.0000     -88.529982     -2409.0233
   3   2.0000     -88.527837     -2408.9649
   4   2.0000     -76.919034     -2093.0733
   5   2.0000     -76.918584     -2093.0611
   6   2.0000     -18.995157      -516.8845
   7   2.0000     -18.993873      -516.8496
   8   2.0000     -18.991498      -516.7849
   9   2.0000     -18.990463      -516.7568
  10   2.0000     -10.104644      -274.9613
  11   2.0000     -10.090269      -274.5702
  12   2.0000     -10.090253      -274.5697
  13   2.0000     -10.090038      -274.5639
  14   2.0000     -10.088141      -274.5123
  15   2.0000     -10.018789      -272.6251
  16   2.0000     -10.018261      -272.6107
  17   2.0000     -10.017818      -272.5987
  18   2.0000     -10.017712      -272.5958
  19   2.0000      -7.871373      -214.1910
  20   2.0000      -7.868649      -214.1168
  21   2.0000      -7.825068      -212.9309
  22   2.0000      -7.822835      -212.8702
  23   2.0000      -6.597457      -179.5259
  24   2.0000      -6.596663      -179.5043
  25   2.0000      -5.818677      -158.3343
  26   2.0000      -5.815563      -158.2495
  27   2.0000      -5.814843      -158.2299
  28   2.0000      -5.812503      -158.1662
  29   2.0000      -5.808510      -158.0576
  30   2.0000      -5.805695      -157.9810
  31   2.0000      -5.772661      -157.0821
  32   2.0000      -5.770390      -157.0203
  33   2.0000      -5.765281      -156.8813
  34   2.0000      -5.765136      -156.8773
  35   2.0000      -5.763107      -156.8221
  36   2.0000      -5.762913      -156.8168
  37   2.0000      -4.743288      -129.0714
  38   2.0000      -4.742439      -129.0483
  39   2.0000      -4.742278      -129.0440
  40   2.0000      -4.741555      -129.0243
  41   2.0000      -4.741071      -129.0111
  42   2.0000      -4.740293      -128.9899
  43   2.0000      -1.052367       -28.6364
  44   2.0000      -1.050972       -28.5984
  45   2.0000      -1.010213       -27.4893
  46   2.0000      -1.009392       -27.4669
  47   2.0000      -0.800179       -21.7740
  48   2.0000      -0.755555       -20.5597
  49   2.0000      -0.743595       -20.2342
  50   2.0000      -0.724683       -19.7196
  51   2.0000      -0.723243       -19.6804
  52   2.0000      -0.709682       -19.3114
  53   2.0000      -0.692369       -18.8403
  54   2.0000      -0.673821       -18.3356
  55   2.0000      -0.625040       -17.0082
  56   2.0000      -0.616640       -16.7796
  57   2.0000      -0.603955       -16.4344
  58   2.0000      -0.597991       -16.2722
  59   2.0000      -0.590464       -16.0673
  60   2.0000      -0.526468       -14.3259
  61   2.0000      -0.517812       -14.0904
  62   2.0000      -0.490068       -13.3354
  63   2.0000      -0.486336       -13.2339
  64   2.0000      -0.478671       -13.0253
  65   2.0000      -0.460121       -12.5205
  66   2.0000      -0.451151       -12.2764
  67   2.0000      -0.449143       -12.2218
  68   2.0000      -0.435183       -11.8419
  69   2.0000      -0.434216       -11.8156
  70   2.0000      -0.427571       -11.6348
  71   2.0000      -0.412045       -11.2123
  72   2.0000      -0.406597       -11.0641
  73   2.0000      -0.399266       -10.8646
  74   2.0000      -0.390386       -10.6229
  75   2.0000      -0.381852       -10.3907
  76   2.0000      -0.377699       -10.2777
  77   2.0000      -0.372394       -10.1333
  78   2.0000      -0.362155        -9.8547
  79   2.0000      -0.357756        -9.7350
  80   2.0000      -0.353352        -9.6152
  81   2.0000      -0.350790        -9.5455
  82   2.0000      -0.349049        -9.4981
  83   2.0000      -0.346710        -9.4345
  84   2.0000      -0.342001        -9.3063
  85   2.0000      -0.334226        -9.0948
  86   2.0000      -0.322838        -8.7849
  87   2.0000      -0.315565        -8.5870
  88   2.0000      -0.306002        -8.3267
  89   2.0000      -0.305342        -8.3088
  90   2.0000      -0.299623        -8.1532
  91   2.0000      -0.288148        -7.8409
  92   2.0000      -0.280707        -7.6384
  93   2.0000      -0.278585        -7.5807
  94   2.0000      -0.273983        -7.4554
  95   2.0000      -0.247816        -6.7434
  96   2.0000      -0.235095        -6.3973
  97   2.0000      -0.230890        -6.2828
  98   2.0000      -0.228258        -6.2112
  99   2.0000      -0.220986        -6.0133
 100   2.0000      -0.218988        -5.9590
 101   0.0000      -0.047201        -1.2844
 102   0.0000      -0.024611        -0.6697
 103   0.0000      -0.011858        -0.3227
 104   0.0000      -0.003936        -0.1071
 105   0.0000       0.005066         0.1379

MULLIKEN ATOMIC CHARGES
-----------------------
   0 C :   -0.477197
   1 C :   -0.155641
   2 O :   -0.276775
   3 P :    0.710364
   4 S :   -0.519757
   5 O :   -0.326097
   6 C :   -0.153680
   7 C :   -0.472927
   8 S :   -0.149494
   9 C :   -0.258293
  10 S :   -0.146552
  11 P :    0.671873
  12 S :   -0.495903
  13 O :   -0.312945
  14 C :   -0.158144
  15 C :   -0.483317
  16 O :   -0.291923
  17 C :   -0.101461
  18 C :   -0.514591
  19 H :    0.166751
  20 H :    0.171139
  21 H :    0.169517
  22 H :    0.175621
  23 H :    0.177873
  24 H :    0.174000
  25 H :    0.174354
  26 H :    0.168513
  27 H :    0.170490
  28 H :    0.165984
  29 H :    0.234636
  30 H :    0.234936
  31 H :    0.179496
  32 H :    0.175151
  33 H :    0.168125
  34 H :    0.174335
  35 H :    0.172354
  36 H :    0.174389
  37 H :    0.174407
  38 H :    0.167551
  39 H :    0.169936
  40 H :    0.172903
Sum of atomic charges:   -0.0000000

LOEWDIN ATOMIC CHARGES
----------------------
   0 C :   -0.403879
   1 C :    0.034409
   2 O :   -0.698954
   3 P :    0.375010
   4 S :   -0.161562
   5 O :   -0.685695
   6 C :    0.023928
   7 C :   -0.406478
   8 S :    0.170907
   9 C :   -0.402683
  10 S :    0.165835
  11 P :    0.374884
  12 S :   -0.140606
  13 O :   -0.674778
  14 C :    0.027453
  15 C :   -0.411684
  16 O :   -0.680244
  17 C :    0.027601
  18 C :   -0.395099
  19 H :    0.162618
  20 H :    0.167511
  21 H :    0.163008
  22 H :    0.184022
  23 H :    0.190736
  24 H :    0.189653
  25 H :    0.181336
  26 H :    0.162867
  27 H :    0.167713
  28 H :    0.161480
  29 H :    0.197944
  30 H :    0.201821
  31 H :    0.181436
  32 H :    0.191085
  33 H :    0.163590
  34 H :    0.161819
  35 H :    0.168267
  36 H :    0.183632
  37 H :    0.182247
  38 H :    0.164026
  39 H :    0.164237
  40 H :    0.170586

  Mayer bond orders larger than 0.100000
B(  0-C ,  1-C ) :   0.9170 B(  0-C , 19-H ) :   0.9578 B(  0-C , 20-H ) :   0.9593
B(  0-C , 21-H ) :   0.9714 B(  1-C ,  2-O ) :   0.7590 B(  1-C , 22-H ) :   0.9563
B(  1-C , 23-H ) :   0.9544 B(  2-O ,  3-P ) :   1.1290 B(  3-P ,  4-S ) :   1.7632
B(  3-P ,  5-O ) :   1.0270 B(  3-P ,  8-S ) :   1.0886 B(  5-O ,  6-C ) :   0.8015
B(  6-C ,  7-C ) :   0.9224 B(  6-C , 24-H ) :   0.9497 B(  6-C , 25-H ) :   0.9601
B(  7-C , 26-H ) :   0.9668 B(  7-C , 27-H ) :   0.9564 B(  7-C , 28-H ) :   0.9624
B(  8-S ,  9-C ) :   0.8928 B(  9-C , 10-S ) :   0.9034 B(  9-C , 29-H ) :   0.9092
B(  9-C , 30-H ) :   0.9069 B( 10-S , 11-P ) :   1.0183 B( 11-P , 12-S ) :   1.8055
B( 11-P , 13-O ) :   1.0468 B( 11-P , 16-O ) :   1.1714 B( 13-O , 14-C ) :   0.8072
B( 14-C , 15-C ) :   0.9057 B( 14-C , 31-H ) :   0.9684 B( 14-C , 32-H ) :   0.9506
B( 15-C , 33-H ) :   0.9644 B( 15-C , 34-H ) :   0.9655 B( 15-C , 35-H ) :   0.9512
B( 16-O , 17-C ) :   0.7235 B( 17-C , 18-C ) :   0.9274 B( 17-C , 36-H ) :   0.9451
B( 17-C , 37-H ) :   0.9336 B( 18-C , 38-H ) :   0.9686 B( 18-C , 39-H ) :   0.9666
B( 18-C , 40-H ) :   0.9601

Dispersion correction           -0.022107680
FINAL SINGLE POINT ENERGY     -2932.471966828767

DIPOLE MOMENT
-------------

Method             : SCF
Type of density    : Electron Density
Multiplicity       :   1
Irrep              :   0
Energy             : -2932.4962286638747173 Eh
Relativity type    :
Basis              : AO
                                X                 Y                 Z
Electronic contribution:     -3.649803166      10.305711776      -7.416573950
Nuclear contribution   :      3.963352090     -11.723979404      10.711500893
                        -----------------------------------------
Total Dipole Moment    :      0.313548924      -1.418267628       3.294926943
                        -----------------------------------------
Magnitude (a.u.)       :      3.600880385
Magnitude (Debye)      :      9.152710561

Rotational constants in cm-1:             0.012817             0.005080             0.004647
Rotational constants in MHz :           384.239805           152.280563           139.325541

                             ****ORCA TERMINATED NORMALLY****
TOTAL RUN TIME: 0 days 0 hours 1 minutes 52 seconds 409 msec
