                         Program Version 6.0.1  -  RELEASE   -
|  1> ! pbe def2-sv(p) def2/J RI DEFGRID1 loosescf d4 GCP(DFT/SV(P)) printgap
|  2> %output
|  3>     printlevel normal
|  4> end
|  5> * xyz 0 1
|  6> C 4.7167759019 -3.3041771942 -1.8666639104
|  7> C 3.7412535691 -3.6075083064 -0.7403850361
|  8> O 3.3565889868 -2.4014624451 -0.0525028333
|  9> C 2.3463302861 -1.7007223158 -0.5291373256
| 10> O 1.6863677388 -2.0091135807 -1.4957760773
| 11> C 2.120825063 -0.4467304865 0.2955481715
| 12> C 0.7226431051 0.0976874386 0.0593310959
| 13> H 0.5147451467 0.1154616405 -1.0193487092
| 14> C 0.4849508617 1.4943812195 0.5898519681
| 15> O -0.5894801194 1.8289356936 1.0536598781
| 16> O 1.5137677531 2.2802201976 0.4645658438
| 17> C 1.3619496397 3.6602022134 0.8724613783
| 18> C 2.6727952298 4.3709094899 0.6048204122
| 19> S -0.540121409 -0.9886992846 0.8225621072
| 20> P -2.2626766821 0.0437029798 0.1489368466
| 21> S -2.1230114846 1.140562092 -1.4785433362
| 22> O -3.2520685948 -1.2026051227 -0.0577346908
| 23> C -3.0320024819 -2.1434564468 -1.1102876806
| 24> O -3.0691845342 0.6140970536 1.3867779179
| 25> C -3.3170121141 1.9969555602 1.6529649439
| 26> H 5.0421575172 -4.2347856526 -2.3197164614
| 27> H 4.2333041342 -2.6933801057 -2.6256732419
| 28> H 5.5814266584 -2.7721348612 -1.4798758371
| 29> H 4.20282822 -4.2246911951 0.0303520081
| 30> H 2.8398228766 -4.0906757922 -1.1275788252
| 31> H 2.8538262277 0.3009477629 -0.0155473523
| 32> H 2.2851959162 -0.6820507054 1.3465410152
| 33> H 0.5356432415 4.0940400817 0.3017117964
| 34> H 1.0973624221 3.6746550788 1.9335320587
| 35> H 2.5781188661 5.411895051 0.8948882149
| 36> H 3.472264198 3.9114511464 1.1776659272
| 37> H 2.9180040417 4.3161362112 -0.4514116937
| 38> H -2.9828368513 -1.6261409944 -2.070626684
| 39> H -3.8850235575 -2.8162835435 -1.0838363367
| 40> H -2.1046513368 -2.6941242363 -0.9436662353
| 41> H -2.6266182083 2.3405407954 2.4205862224
| 42> H -4.347069932 2.0565906231 1.9977563384
| 43> H -3.1833376966 2.5898907675 0.7467203516
| 44> *
| 45>
| 46>                          ****END OF INPUT****

CARTESIAN COORDINATES (ANGSTROEM)
---------------------------------
  C      4.716776   -3.304177   -1.866664
  C      3.741254   -3.607508   -0.740385
  O      3.356589   -2.401462   -0.052503
  C      2.346330   -1.700722   -0.529137
  O      1.686368   -2.009114   -1.495776
  C      2.120825   -0.446730    0.295548
  C      0.722643    0.097687    0.059331
  H      0.514745    0.115462   -1.019349
  C      0.484951    1.494381    0.589852
  O     -0.589480    1.828936    1.053660
  O      1.513768    2.280220    0.464566
  C      1.361950    3.660202    0.872461
  C      2.672795    4.370909    0.604820
  S     -0.540121   -0.988699    0.822562
  P     -2.262677    0.043703    0.148937
  S     -2.123011    1.140562   -1.478543
  O     -3.252069   -1.202605   -0.057735
  C     -3.032002   -2.143456   -1.110288
  O     -3.069185    0.614097    1.386778
  C     -3.317012    1.996956    1.652965
  H      5.042158   -4.234786   -2.319716
  H      4.233304   -2.693380   -2.625673
  H      5.581427   -2.772135   -1.479876
  H      4.202828   -4.224691    0.030352
  H      2.839823   -4.090676   -1.127579
  H      2.853826    0.300948   -0.015547
  H      2.285196   -0.682051    1.346541
  H      0.535643    4.094040    0.301712
  H      1.097362    3.674655    1.933532
  H      2.578119    5.411895    0.894888
  H      3.472264    3.911451    1.177666
  H      2.918004    4.316136   -0.451412
  H     -2.982837   -1.626141   -2.070627
  H     -3.885024   -2.816284   -1.083836
  H     -2.104651   -2.694124   -0.943666
  H     -2.626618    2.340541    2.420586
  H     -4.347070    2.056591    1.997756
  H     -3.183338    2.589891    0.746720

 Total Charge           Charge          ....    0
 Multiplicity           Mult            ....    1
 Number of Electrons    NEL             ....  174
 Basis Dimension        Dim             ....  316

ORBITAL ENERGIES
----------------

  NO   OCC          E(Eh)            E(eV)
   0   2.0000     -88.030125     -2395.4215
   1   2.0000     -87.968440     -2393.7430
   2   2.0000     -76.413424     -2079.3150
   3   2.0000     -18.826201      -512.2870
   4   2.0000     -18.808894      -511.8160
   5   2.0000     -18.775026      -510.8944
   6   2.0000     -18.767618      -510.6929
   7   2.0000     -18.754083      -510.3245
   8   2.0000     -18.746038      -510.1056
   9   2.0000     -10.026458      -272.8338
  10   2.0000     -10.017168      -272.5810
  11   2.0000      -9.963230      -271.1133
  12   2.0000      -9.953421      -270.8464
  13   2.0000      -9.944217      -270.5959
  14   2.0000      -9.928694      -270.1735
  15   2.0000      -9.924167      -270.0503
  16   2.0000      -9.919657      -269.9276
  17   2.0000      -9.900697      -269.4117
  18   2.0000      -9.892352      -269.1846
  19   2.0000      -7.675192      -208.8526
  20   2.0000      -7.613590      -207.1763
  21   2.0000      -6.409237      -174.4042
  22   2.0000      -5.703073      -155.1885
  23   2.0000      -5.700013      -155.1052
  24   2.0000      -5.691887      -154.8841
  25   2.0000      -5.642664      -153.5447
  26   2.0000      -5.634451      -153.3212
  27   2.0000      -5.633331      -153.2907
  28   2.0000      -4.631518      -126.0300
  29   2.0000      -4.631426      -126.0275
  30   2.0000      -4.629870      -125.9852
  31   2.0000      -1.034618       -28.1534
  32   2.0000      -1.017036       -27.6750
  33   2.0000      -0.967370       -26.3235
  34   2.0000      -0.934556       -25.4306
  35   2.0000      -0.923216       -25.1220
  36   2.0000      -0.921537       -25.0763
  37   2.0000      -0.765544       -20.8315
  38   2.0000      -0.722280       -19.6542
  39   2.0000      -0.713970       -19.4281
  40   2.0000      -0.686761       -18.6877
  41   2.0000      -0.654071       -17.7982
  42   2.0000      -0.626734       -17.0543
  43   2.0000      -0.616340       -16.7715
  44   2.0000      -0.605195       -16.4682
  45   2.0000      -0.599284       -16.3074
  46   2.0000      -0.564371       -15.3573
  47   2.0000      -0.524490       -14.2721
  48   2.0000      -0.504527       -13.7289
  49   2.0000      -0.497555       -13.5392
  50   2.0000      -0.481613       -13.1054
  51   2.0000      -0.465768       -12.6742
  52   2.0000      -0.456806       -12.4303
  53   2.0000      -0.454828       -12.3765
  54   2.0000      -0.451941       -12.2979
  55   2.0000      -0.435087       -11.8393
  56   2.0000      -0.419466       -11.4143
  57   2.0000      -0.414840       -11.2884
  58   2.0000      -0.409569       -11.1449
  59   2.0000      -0.403104       -10.9690
  60   2.0000      -0.397208       -10.8086
  61   2.0000      -0.393566       -10.7095
  62   2.0000      -0.391409       -10.6508
  63   2.0000      -0.380885       -10.3644
  64   2.0000      -0.376717       -10.2510
  65   2.0000      -0.371462       -10.1080
  66   2.0000      -0.366557        -9.9745
  67   2.0000      -0.362086        -9.8529
  68   2.0000      -0.352117        -9.5816
  69   2.0000      -0.346031        -9.4160
  70   2.0000      -0.336770        -9.1640
  71   2.0000      -0.331125        -9.0104
  72   2.0000      -0.329623        -8.9695
  73   2.0000      -0.318040        -8.6543
  74   2.0000      -0.302991        -8.2448
  75   2.0000      -0.299743        -8.1564
  76   2.0000      -0.289273        -7.8715
  77   2.0000      -0.282506        -7.6874
  78   2.0000      -0.274404        -7.4669
  79   2.0000      -0.267221        -7.2714
  80   2.0000      -0.255975        -6.9654
  81   2.0000      -0.242129        -6.5887
  82   2.0000      -0.237854        -6.4723
  83   2.0000      -0.232285        -6.3208
  84   2.0000      -0.210702        -5.7335
  85   2.0000      -0.191072        -5.1993
  86   2.0000      -0.182426        -4.9641
  87   0.0000      -0.045633        -1.2417
  88   0.0000      -0.031595        -0.8597
  89   0.0000      -0.023714        -0.6453
  90   0.0000       0.014157         0.3852
  91   0.0000       0.029101         0.7919

MULLIKEN ATOMIC CHARGES
-----------------------
   0 C :   -0.306198
   1 C :   -0.012786
   2 O :   -0.230922
   3 C :    0.135709
   4 O :   -0.193924
   5 C :   -0.125738
   6 C :   -0.315675
   7 H :    0.168728
   8 C :    0.244568
   9 O :   -0.196427
  10 O :   -0.222681
  11 C :   -0.032502
  12 C :   -0.275474
  13 S :   -0.098271
  14 P :    0.630685
  15 S :   -0.358289
  16 O :   -0.373985
  17 C :   -0.100520
  18 O :   -0.367473
  19 C :   -0.083159
  20 H :    0.116042
  21 H :    0.128042
  22 H :    0.114227
  23 H :    0.105465
  24 H :    0.113747
  25 H :    0.137371
  26 H :    0.118247
  27 H :    0.121477
  28 H :    0.111849
  29 H :    0.117402
  30 H :    0.117762
  31 H :    0.122255
  32 H :    0.112844
  33 H :    0.118005
  34 H :    0.113771
  35 H :    0.114395
  36 H :    0.117008
  37 H :    0.114424
Sum of atomic charges:   -0.0000000

LOEWDIN ATOMIC CHARGES
----------------------
   0 C :   -0.356032
   1 C :   -0.109986
   2 O :   -0.060235
   3 C :    0.031715
   4 O :   -0.157144
   5 C :   -0.255746
   6 C :   -0.269242
   7 H :    0.151123
   8 C :    0.024395
   9 O :   -0.155819
  10 O :   -0.040173
  11 C :   -0.102254
  12 C :   -0.350439
  13 S :    0.101300
  14 P :    0.589165
  15 S :   -0.344503
  16 O :   -0.259027
  17 C :   -0.222122
  18 O :   -0.237938
  19 C :   -0.207229
  20 H :    0.132213
  21 H :    0.131008
  22 H :    0.124829
  23 H :    0.119185
  24 H :    0.122286
  25 H :    0.153858
  26 H :    0.140156
  27 H :    0.124935
  28 H :    0.120210
  29 H :    0.134412
  30 H :    0.127788
  31 H :    0.130158
  32 H :    0.108281
  33 H :    0.118511
  34 H :    0.105350
  35 H :    0.112223
  36 H :    0.116105
  37 H :    0.108679

  Mayer bond orders larger than 0.100000
B(  0-C ,  1-C ) :   1.1741 B(  0-C , 20-H ) :   0.9441 B(  0-C , 21-H ) :   0.9462
B(  0-C , 22-H ) :   0.9489 B(  1-C ,  2-O ) :   0.9128 B(  1-C , 23-H ) :   0.9370
B(  1-C , 24-H ) :   0.9145 B(  2-O ,  3-C ) :   1.2418 B(  3-C ,  4-O ) :   2.0418
B(  3-C ,  5-C ) :   0.9952 B(  5-C ,  6-C ) :   1.0912 B(  5-C , 25-H ) :   0.8705
B(  5-C , 26-H ) :   0.9011 B(  6-C ,  7-H ) :   0.8236 B(  6-C ,  8-C ) :   0.9147
B(  6-C , 13-S ) :   1.0259 B(  8-C ,  9-O ) :   1.9524 B(  8-C , 10-O ) :   1.2792
B( 10-O , 11-C ) :   0.8878 B( 11-C , 12-C ) :   1.1551 B( 11-C , 27-H ) :   0.9303
B( 11-C , 28-H ) :   0.9314 B( 12-C , 29-H ) :   0.9421 B( 12-C , 30-H ) :   0.9497
B( 12-C , 31-H ) :   0.9491 B( 13-S , 14-P ) :   0.9341 B( 13-S , 15-S ) :   0.1159
B( 14-P , 15-S ) :   1.5703 B( 14-P , 16-O ) :   1.0883 B( 14-P , 18-O ) :   1.1408
B( 16-O , 17-C ) :   0.9449 B( 17-C , 32-H ) :   0.9369 B( 17-C , 33-H ) :   0.9593
B( 17-C , 34-H ) :   0.9404 B( 18-O , 19-C ) :   0.9274 B( 19-C , 35-H ) :   0.9538
B( 19-C , 36-H ) :   0.9546 B( 19-C , 37-H ) :   0.9341

Dispersion correction           -0.049193301
FINAL SINGLE POINT ENERGY     -1979.016777657906

DIPOLE MOMENT
-------------

Method             : SCF
Type of density    : Electron Density
Multiplicity       :   1
Irrep              :   0
Energy             : -1979.1489226736985074 Eh
Relativity type    :
Basis              : AO
                                X                 Y                 Z
Electronic contribution:    -17.962351514      -2.356251562       2.887148963
Nuclear contribution   :     19.942429031       2.736631937      -2.240940542
                        -----------------------------------------
Total Dipole Moment    :      1.980077517       0.380380375       0.646208421
                        -----------------------------------------
Magnitude (a.u.)       :      2.117305251
Magnitude (Debye)      :      5.381762253

Rotational constants in cm-1:             0.011183             0.006673             0.004720
Rotational constants in MHz :           335.272130           200.056957           141.487193

                             ****ORCA TERMINATED NORMALLY****
TOTAL RUN TIME: 0 days 0 hours 0 minutes 32 seconds 424 msec
