                         Program Version 6.0.0  -   RELEASE  -
|  1> ! pbe def2-sv(p) def2/J RI DEFGRID1 loosescf d4 GCP(DFT/SV(P)) printgap
|  2> %output
|  3>     printlevel normal
|  4> end
|  5> * xyz 0 1
|  6> C 5.5387153197 -0.3379377668 -0.7098634674
|  7> C 4.2574642999 0.275226084 -1.2359675054
|  8> O 3.4219600396 0.7429808704 -0.1465205922
|  9> P 2.281746341 -0.1126177659 0.5277725902
| 10> S 1.5311584995 0.7934329717 2.0861214894
| 11> O 2.9848325492 -1.5034805627 0.8450181201
| 12> C 2.4226010564 -2.4484750335 1.7714796773
| 13> C 1.247930152 -3.1983750966 1.1753911898
| 14> S 0.9884306336 -0.6250364822 -1.1004059799
| 15> C 0.4653817334 1.0452558308 -1.5656899416
| 16> S -0.7307249387 1.7936227117 -0.4246761068
| 17> P -2.1737888081 0.2176274013 -0.4947686195
| 18> S -2.3052592372 -0.7188283538 -2.204610109
| 19> O -3.4707484979 0.945243624 0.0636180603
| 20> C -4.1097749784 2.0598155807 -0.5895348241
| 21> C -5.0655518845 1.6011706517 -1.6733408438
| 22> O -1.8258260973 -0.7763941569 0.6775152333
| 23> C -1.8495967218 -0.4016045829 2.0772887045
| 24> C -3.1461139689 -0.8446652185 2.7204433658
| 25> H 6.0544605573 0.3713261629 -0.0682583727
| 26> H 5.3214389595 -1.2356325823 -0.1378261237
| 27> H 6.1784857993 -0.5937055399 -1.54881336
| 28> H 3.6913611702 -0.4433466469 -1.8349524819
| 29> H 4.4611992705 1.1723835347 -1.8237067873
| 30> H 3.2501772808 -3.1224110725 1.9976515651
| 31> H 2.125207099 -1.9095929826 2.6772756997
| 32> H 0.9237645014 -3.9674540625 1.8692099949
| 33> H 0.4153126901 -2.5215577935 0.9866390721
| 34> H 1.5331517118 -3.6605714884 0.2336712267
| 35> H 0.0039536967 0.9435928475 -2.5474442454
| 36> H 1.3215300191 1.7160970672 -1.5935546606
| 37> H -4.6405748076 2.5698961568 0.2168774609
| 38> H -3.3412133791 2.7234726352 -0.995553867
| 39> H -5.5711591009 2.4655513018 -2.0915994044
| 40> H -4.5242306321 1.0872959353 -2.4645148385
| 41> H -5.8026935582 0.918974739 -1.2587620715
| 42> H -0.9892519771 -0.9080240713 2.5199341165
| 43> H -1.7031617776 0.6784815838 2.1636638667
| 44> H -3.1107484069 -0.6128203331 3.7801896275
| 45> H -3.9870835024 -0.3283310742 2.265416381
| 46> H -3.2778282933 -1.9150828965 2.5887184208
| 47> *
| 48>
| 49>                          ****END OF INPUT****

CARTESIAN COORDINATES (ANGSTROEM)
---------------------------------
  C      5.538715   -0.337938   -0.709863
  C      4.257464    0.275226   -1.235968
  O      3.421960    0.742981   -0.146521
  P      2.281746   -0.112618    0.527773
  S      1.531158    0.793433    2.086121
  O      2.984833   -1.503481    0.845018
  C      2.422601   -2.448475    1.771480
  C      1.247930   -3.198375    1.175391
  S      0.988431   -0.625036   -1.100406
  C      0.465382    1.045256   -1.565690
  S     -0.730725    1.793623   -0.424676
  P     -2.173789    0.217627   -0.494769
  S     -2.305259   -0.718828   -2.204610
  O     -3.470748    0.945244    0.063618
  C     -4.109775    2.059816   -0.589535
  C     -5.065552    1.601171   -1.673341
  O     -1.825826   -0.776394    0.677515
  C     -1.849597   -0.401605    2.077289
  C     -3.146114   -0.844665    2.720443
  H      6.054461    0.371326   -0.068258
  H      5.321439   -1.235633   -0.137826
  H      6.178486   -0.593706   -1.548813
  H      3.691361   -0.443347   -1.834952
  H      4.461199    1.172384   -1.823707
  H      3.250177   -3.122411    1.997652
  H      2.125207   -1.909593    2.677276
  H      0.923765   -3.967454    1.869210
  H      0.415313   -2.521558    0.986639
  H      1.533152   -3.660571    0.233671
  H      0.003954    0.943593   -2.547444
  H      1.321530    1.716097   -1.593555
  H     -4.640575    2.569896    0.216877
  H     -3.341213    2.723473   -0.995554
  H     -5.571159    2.465551   -2.091599
  H     -4.524231    1.087296   -2.464515
  H     -5.802694    0.918975   -1.258762
  H     -0.989252   -0.908024    2.519934
  H     -1.703162    0.678482    2.163664
  H     -3.110748   -0.612820    3.780190
  H     -3.987084   -0.328331    2.265416
  H     -3.277828   -1.915083    2.588718

 Total Charge           Charge          ....    0
 Multiplicity           Mult            ....    1
 Number of Electrons    NEL             ....  202
 Basis Dimension        Dim             ....  334

ORBITAL ENERGIES
----------------

  NO   OCC          E(Eh)            E(eV)
   0   2.0000     -88.041667     -2395.7356
   1   2.0000     -88.037419     -2395.6200
   2   2.0000     -87.983395     -2394.1499
   3   2.0000     -87.982892     -2394.1362
   4   2.0000     -76.425324     -2079.6388
   5   2.0000     -76.425027     -2079.6307
   6   2.0000     -18.795934      -511.4634
   7   2.0000     -18.795595      -511.4541
   8   2.0000     -18.795059      -511.4396
   9   2.0000     -18.787946      -511.2460
  10   2.0000      -9.958286      -270.9788
  11   2.0000      -9.957225      -270.9499
  12   2.0000      -9.956413      -270.9278
  13   2.0000      -9.953935      -270.8603
  14   2.0000      -9.946161      -270.6488
  15   2.0000      -9.887683      -269.0575
  16   2.0000      -9.884387      -268.9678
  17   2.0000      -9.880765      -268.8693
  18   2.0000      -9.880481      -268.8616
  19   2.0000      -7.685776      -209.1406
  20   2.0000      -7.682389      -209.0484
  21   2.0000      -7.628555      -207.5835
  22   2.0000      -7.628181      -207.5733
  23   2.0000      -6.423022      -174.7793
  24   2.0000      -6.422174      -174.7562
  25   2.0000      -5.713556      -155.4738
  26   2.0000      -5.710360      -155.3868
  27   2.0000      -5.710170      -155.3816
  28   2.0000      -5.706937      -155.2937
  29   2.0000      -5.702901      -155.1838
  30   2.0000      -5.699424      -155.0892
  31   2.0000      -5.657540      -153.9495
  32   2.0000      -5.657189      -153.9399
  33   2.0000      -5.649167      -153.7217
  34   2.0000      -5.648646      -153.7075
  35   2.0000      -5.648605      -153.7064
  36   2.0000      -5.648356      -153.6996
  37   2.0000      -4.646172      -126.4288
  38   2.0000      -4.645099      -126.3996
  39   2.0000      -4.644759      -126.3903
  40   2.0000      -4.644050      -126.3710
  41   2.0000      -4.642948      -126.3410
  42   2.0000      -4.642292      -126.3232
  43   2.0000      -0.990336       -26.9484
  44   2.0000      -0.987938       -26.8832
  45   2.0000      -0.949029       -25.8244
  46   2.0000      -0.943289       -25.6682
  47   2.0000      -0.761694       -20.7267
  48   2.0000      -0.719822       -19.5873
  49   2.0000      -0.709785       -19.3142
  50   2.0000      -0.691881       -18.8270
  51   2.0000      -0.688248       -18.7282
  52   2.0000      -0.671207       -18.2645
  53   2.0000      -0.649230       -17.6665
  54   2.0000      -0.639175       -17.3928
  55   2.0000      -0.594214       -16.1694
  56   2.0000      -0.586446       -15.9580
  57   2.0000      -0.578843       -15.7511
  58   2.0000      -0.569629       -15.5004
  59   2.0000      -0.564103       -15.3500
  60   2.0000      -0.506136       -13.7727
  61   2.0000      -0.499741       -13.5986
  62   2.0000      -0.479013       -13.0346
  63   2.0000      -0.475870       -12.9491
  64   2.0000      -0.457458       -12.4481
  65   2.0000      -0.449668       -12.2361
  66   2.0000      -0.444265       -12.0891
  67   2.0000      -0.430961       -11.7270
  68   2.0000      -0.424754       -11.5582
  69   2.0000      -0.414439       -11.2775
  70   2.0000      -0.408636       -11.1196
  71   2.0000      -0.398754       -10.8507
  72   2.0000      -0.392746       -10.6872
  73   2.0000      -0.382875       -10.4186
  74   2.0000      -0.380095       -10.3429
  75   2.0000      -0.373651       -10.1676
  76   2.0000      -0.362994        -9.8776
  77   2.0000      -0.357939        -9.7400
  78   2.0000      -0.354880        -9.6568
  79   2.0000      -0.353779        -9.6268
  80   2.0000      -0.350037        -9.5250
  81   2.0000      -0.347406        -9.4534
  82   2.0000      -0.339759        -9.2453
  83   2.0000      -0.336729        -9.1629
  84   2.0000      -0.332668        -9.0524
  85   2.0000      -0.319748        -8.7008
  86   2.0000      -0.316760        -8.6195
  87   2.0000      -0.298693        -8.1278
  88   2.0000      -0.296142        -8.0584
  89   2.0000      -0.292470        -7.9585
  90   2.0000      -0.288512        -7.8508
  91   2.0000      -0.274154        -7.4601
  92   2.0000      -0.272828        -7.4240
  93   2.0000      -0.264861        -7.2072
  94   2.0000      -0.257464        -7.0060
  95   2.0000      -0.239292        -6.5115
  96   2.0000      -0.217709        -5.9242
  97   2.0000      -0.207145        -5.6367
  98   2.0000      -0.201130        -5.4730
  99   2.0000      -0.196858        -5.3568
 100   2.0000      -0.187142        -5.0924
 101   0.0000      -0.041911        -1.1405
 102   0.0000      -0.024753        -0.6736
 103   0.0000      -0.003927        -0.1069
 104   0.0000       0.000505         0.0137
 105   0.0000       0.016845         0.4584

MULLIKEN ATOMIC CHARGES
-----------------------
   0 C :   -0.289806
   1 C :   -0.015838
   2 O :   -0.364028
   3 P :    0.596078
   4 S :   -0.306685
   5 O :   -0.381466
   6 C :   -0.006560
   7 C :   -0.345508
   8 S :   -0.079841
   9 C :   -0.345820
  10 S :   -0.085343
  11 P :    0.604601
  12 S :   -0.316082
  13 O :   -0.378966
  14 C :   -0.013029
  15 C :   -0.296996
  16 O :   -0.351736
  17 C :   -0.017054
  18 C :   -0.283084
  19 H :    0.120207
  20 H :    0.124767
  21 H :    0.110089
  22 H :    0.104321
  23 H :    0.107240
  24 H :    0.104724
  25 H :    0.110836
  26 H :    0.113657
  27 H :    0.161599
  28 H :    0.119516
  29 H :    0.192593
  30 H :    0.180079
  31 H :    0.106623
  32 H :    0.105987
  33 H :    0.107542
  34 H :    0.130712
  35 H :    0.114997
  36 H :    0.111575
  37 H :    0.109257
  38 H :    0.108932
  39 H :    0.117291
  40 H :    0.114620
Sum of atomic charges:   -0.0000000

LOEWDIN ATOMIC CHARGES
----------------------
   0 C :   -0.359206
   1 C :   -0.117372
   2 O :   -0.240410
   3 P :    0.562657
   4 S :   -0.302908
   5 O :   -0.246912
   6 C :   -0.120269
   7 C :   -0.372846
   8 S :    0.093194
   9 C :   -0.479433
  10 S :    0.071594
  11 P :    0.566304
  12 S :   -0.312278
  13 O :   -0.243831
  14 C :   -0.116866
  15 C :   -0.365344
  16 O :   -0.230918
  17 C :   -0.116934
  18 C :   -0.359060
  19 H :    0.128929
  20 H :    0.127122
  21 H :    0.129929
  22 H :    0.104525
  23 H :    0.119130
  24 H :    0.118107
  25 H :    0.108529
  26 H :    0.131918
  27 H :    0.127510
  28 H :    0.126920
  29 H :    0.132887
  30 H :    0.131850
  31 H :    0.118540
  32 H :    0.105148
  33 H :    0.128856
  34 H :    0.124092
  35 H :    0.126948
  36 H :    0.112446
  37 H :    0.107596
  38 H :    0.129178
  39 H :    0.124149
  40 H :    0.126528

  Mayer bond orders larger than 0.100000
B(  0-C ,  1-C ) :   1.1692 B(  0-C , 19-H ) :   0.9472 B(  0-C , 20-H ) :   0.9412
B(  0-C , 21-H ) :   0.9394 B(  1-C ,  2-O ) :   0.8923 B(  1-C , 22-H ) :   0.9073
B(  1-C , 23-H ) :   0.9352 B(  2-O ,  3-P ) :   1.1178 B(  3-P ,  4-S ) :   1.6717
B(  3-P ,  5-O ) :   1.0754 B(  3-P ,  8-S ) :   0.9505 B(  4-S ,  8-S ) :   0.1123
B(  5-O ,  6-C ) :   0.9069 B(  6-C ,  7-C ) :   1.1639 B(  6-C , 24-H ) :   0.9325
B(  6-C , 25-H ) :   0.9115 B(  7-C , 26-H ) :   0.9385 B(  7-C , 27-H ) :   0.9231
B(  7-C , 28-H ) :   0.9438 B(  8-S ,  9-C ) :   0.9972 B(  9-C , 10-S ) :   1.0040
B(  9-C , 29-H ) :   0.8891 B(  9-C , 30-H ) :   0.9005 B( 10-S , 11-P ) :   0.9593
B( 10-S , 12-S ) :   0.1133 B( 11-P , 12-S ) :   1.6359 B( 11-P , 13-O ) :   1.0787
B( 11-P , 16-O ) :   1.1337 B( 13-O , 14-C ) :   0.9066 B( 14-C , 15-C ) :   1.1670
B( 14-C , 31-H ) :   0.9356 B( 14-C , 32-H ) :   0.9145 B( 15-C , 33-H ) :   0.9382
B( 15-C , 34-H ) :   0.9298 B( 15-C , 35-H ) :   0.9475 B( 16-O , 17-C ) :   0.8835
B( 17-C , 18-C ) :   1.1581 B( 17-C , 36-H ) :   0.9228 B( 17-C , 37-H ) :   0.9193
B( 18-C , 38-H ) :   0.9410 B( 18-C , 39-H ) :   0.9426 B( 18-C , 40-H ) :   0.9466

Dispersion correction           -0.065836753
FINAL SINGLE POINT ENERGY     -2929.519896658637

DIPOLE MOMENT
-------------

Method             : SCF
Type of density    : Electron Density
Multiplicity       :   1
Irrep              :   0
Energy             : -2929.6390513860847022 Eh
Relativity type    :
Basis              : AO
                                X                 Y                 Z
Electronic contribution:      2.021136586       6.352190722      -4.587265698
Nuclear contribution   :     -1.629849151      -6.303733150       4.668593596
                        -----------------------------------------
Total Dipole Moment    :      0.391287435       0.048457572       0.081327898
                        -----------------------------------------
Magnitude (a.u.)       :      0.402576974
Magnitude (Debye)      :      1.023269347

Rotational constants in cm-1:             0.013410             0.004947             0.004511
Rotational constants in MHz :           402.022998           148.292717           135.235639

                             ****ORCA TERMINATED NORMALLY****
TOTAL RUN TIME: 0 days 0 hours 0 minutes 21 seconds 163 msec
