                         Program Version 6.0.0  -   RELEASE  -
|  1> ! pbe def2-sv(p) def2/J RI DEFGRID1 loosescf d4 GCP(DFT/SV(P)) printgap
|  2> %output
|  3>     printlevel normal
|  4> end
|  5> * xyz 0 1
|  6> C 1.5490621114 -0.093594062 -3.3366956406
|  7> C 2.2759166158 0.137333356 -2.0297130274
|  8> O 1.5306284118 -0.5393760361 -0.9923907834
|  9> P 1.942410224 -0.4168596044 0.527002064
| 10> S 2.4544711734 1.3472605041 1.2249025942
| 11> O 3.1236880489 -1.4830468059 0.5887706829
| 12> C 3.9588508526 -1.6385498056 1.7534677186
| 13> C 5.2961003932 -2.1937163766 1.305726061
| 14> S 0.3669812089 -1.4014135063 1.4978589113
| 15> C -0.5697107247 0.0284091271 2.146278897
| 16> S -2.2590539157 0.094417561 1.5259684722
| 17> P -1.8118159426 0.6177199131 -0.4914188357
| 18> S -0.4732099233 2.0233293935 -0.7448776328
| 19> O -3.2563694538 0.8504821665 -1.1087605808
| 20> C -4.2872400563 1.6699656904 -0.52489934
| 21> C -3.8230059552 3.0812679189 -0.2341466527
| 22> O -1.3485171739 -0.6977204156 -1.222211317
| 23> C -2.1212314345 -1.92386766 -1.2419923228
| 24> C -2.85934386 -2.0633827387 -2.5572030553
| 25> H 1.4913865097 -1.1575486845 -3.5464720943
| 26> H 0.541241416 0.3090837298 -3.2682833758
| 27> H 2.0835473021 0.4093899911 -4.1358492142
| 28> H 2.3211293642 1.2028634893 -1.7788034563
| 29> H 3.2888222923 -0.2728127912 -2.0491105339
| 30> H 4.0711421934 -0.6609260706 2.2346700458
| 31> H 3.4520966751 -2.3221981655 2.4390777221
| 32> H 5.1500604753 -3.134512637 0.7829137047
| 33> H 5.78952633 -1.4918397041 0.6390027769
| 34> H 5.9213149407 -2.3580979677 2.177062573
| 35> H -0.0342216565 0.9444782559 1.8800412727
| 36> H -0.6462520142 -0.0823469365 3.2247942355
| 37> H -5.0793897056 1.6587617975 -1.2756045922
| 38> H -4.6323981287 1.18055393 0.3898123533
| 39> H -3.419816862 3.5420388323 -1.1330087323
| 40> H -4.6601595676 3.6693482636 0.1277182702
| 41> H -3.0417685172 3.0723025552 0.5247946478
| 42> H -1.3818346711 -2.716347356 -1.1085554631
| 43> H -2.8137891408 -1.9237815626 -0.3954385852
| 44> H -2.1556604385 -2.0427960284 -3.3847772701
| 45> H -3.3944127309 -3.007776494 -2.5644439144
| 46> H -3.5665249536 -1.2472375362 -2.6794134057
| 47> *
| 48>
| 49>                          ****END OF INPUT****

CARTESIAN COORDINATES (ANGSTROEM)
---------------------------------
  C      1.549062   -0.093594   -3.336696
  C      2.275917    0.137333   -2.029713
  O      1.530628   -0.539376   -0.992391
  P      1.942410   -0.416860    0.527002
  S      2.454471    1.347261    1.224903
  O      3.123688   -1.483047    0.588771
  C      3.958851   -1.638550    1.753468
  C      5.296100   -2.193716    1.305726
  S      0.366981   -1.401414    1.497859
  C     -0.569711    0.028409    2.146279
  S     -2.259054    0.094418    1.525968
  P     -1.811816    0.617720   -0.491419
  S     -0.473210    2.023329   -0.744878
  O     -3.256369    0.850482   -1.108761
  C     -4.287240    1.669966   -0.524899
  C     -3.823006    3.081268   -0.234147
  O     -1.348517   -0.697720   -1.222211
  C     -2.121231   -1.923868   -1.241992
  C     -2.859344   -2.063383   -2.557203
  H      1.491387   -1.157549   -3.546472
  H      0.541241    0.309084   -3.268283
  H      2.083547    0.409390   -4.135849
  H      2.321129    1.202863   -1.778803
  H      3.288822   -0.272813   -2.049111
  H      4.071142   -0.660926    2.234670
  H      3.452097   -2.322198    2.439078
  H      5.150060   -3.134513    0.782914
  H      5.789526   -1.491840    0.639003
  H      5.921315   -2.358098    2.177063
  H     -0.034222    0.944478    1.880041
  H     -0.646252   -0.082347    3.224794
  H     -5.079390    1.658762   -1.275605
  H     -4.632398    1.180554    0.389812
  H     -3.419817    3.542039   -1.133009
  H     -4.660160    3.669348    0.127718
  H     -3.041769    3.072303    0.524795
  H     -1.381835   -2.716347   -1.108555
  H     -2.813789   -1.923782   -0.395439
  H     -2.155660   -2.042796   -3.384777
  H     -3.394413   -3.007776   -2.564444
  H     -3.566525   -1.247238   -2.679413

 Total Charge           Charge          ....    0
 Multiplicity           Mult            ....    1
 Number of Electrons    NEL             ....  202
 Basis Dimension        Dim             ....  334

ORBITAL ENERGIES
----------------

  NO   OCC          E(Eh)            E(eV)
   0   2.0000     -88.046267     -2395.8607
   1   2.0000     -88.040889     -2395.7144
   2   2.0000     -87.978941     -2394.0287
   3   2.0000     -87.977403     -2393.9868
   4   2.0000     -76.424696     -2079.6217
   5   2.0000     -76.417601     -2079.4286
   6   2.0000     -18.796605      -511.4816
   7   2.0000     -18.787764      -511.2410
   8   2.0000     -18.785499      -511.1794
   9   2.0000     -18.778053      -510.9768
  10   2.0000      -9.960917      -271.0503
  11   2.0000      -9.955401      -270.9002
  12   2.0000      -9.951535      -270.7950
  13   2.0000      -9.945788      -270.6387
  14   2.0000      -9.939450      -270.4662
  15   2.0000      -9.885169      -268.9891
  16   2.0000      -9.884200      -268.9627
  17   2.0000      -9.883473      -268.9430
  18   2.0000      -9.872470      -268.6436
  19   2.0000      -7.691302      -209.2910
  20   2.0000      -7.686333      -209.1558
  21   2.0000      -7.623894      -207.4567
  22   2.0000      -7.622420      -207.4166
  23   2.0000      -6.421883      -174.7483
  24   2.0000      -6.415470      -174.5738
  25   2.0000      -5.719055      -155.6234
  26   2.0000      -5.715588      -155.5290
  27   2.0000      -5.714168      -155.4904
  28   2.0000      -5.710820      -155.3993
  29   2.0000      -5.708642      -155.3400
  30   2.0000      -5.703269      -155.1938
  31   2.0000      -5.652992      -153.8257
  32   2.0000      -5.651301      -153.7797
  33   2.0000      -5.644462      -153.5936
  34   2.0000      -5.643907      -153.5785
  35   2.0000      -5.643168      -153.5584
  36   2.0000      -5.642482      -153.5397
  37   2.0000      -4.644738      -126.3897
  38   2.0000      -4.644019      -126.3702
  39   2.0000      -4.641767      -126.3089
  40   2.0000      -4.637791      -126.2007
  41   2.0000      -4.637113      -126.1823
  42   2.0000      -4.636196      -126.1573
  43   2.0000      -0.988711       -26.9042
  44   2.0000      -0.978019       -26.6133
  45   2.0000      -0.944768       -25.7084
  46   2.0000      -0.934531       -25.4299
  47   2.0000      -0.763033       -20.7632
  48   2.0000      -0.719757       -19.5856
  49   2.0000      -0.708613       -19.2823
  50   2.0000      -0.691214       -18.8089
  51   2.0000      -0.681636       -18.5483
  52   2.0000      -0.672585       -18.3020
  53   2.0000      -0.647392       -17.6164
  54   2.0000      -0.628990       -17.1157
  55   2.0000      -0.590617       -16.0715
  56   2.0000      -0.585411       -15.9298
  57   2.0000      -0.573428       -15.6038
  58   2.0000      -0.566717       -15.4212
  59   2.0000      -0.554458       -15.0876
  60   2.0000      -0.504197       -13.7199
  61   2.0000      -0.498127       -13.5547
  62   2.0000      -0.474752       -12.9187
  63   2.0000      -0.472398       -12.8546
  64   2.0000      -0.453725       -12.3465
  65   2.0000      -0.442092       -12.0299
  66   2.0000      -0.436556       -11.8793
  67   2.0000      -0.433339       -11.7918
  68   2.0000      -0.428458       -11.6589
  69   2.0000      -0.416255       -11.3269
  70   2.0000      -0.410821       -11.1790
  71   2.0000      -0.396949       -10.8015
  72   2.0000      -0.388365       -10.5679
  73   2.0000      -0.384366       -10.4591
  74   2.0000      -0.377466       -10.2714
  75   2.0000      -0.362509        -9.8644
  76   2.0000      -0.357238        -9.7210
  77   2.0000      -0.355917        -9.6850
  78   2.0000      -0.352418        -9.5898
  79   2.0000      -0.347070        -9.4443
  80   2.0000      -0.344715        -9.3802
  81   2.0000      -0.341372        -9.2892
  82   2.0000      -0.338851        -9.2206
  83   2.0000      -0.333809        -9.0834
  84   2.0000      -0.324173        -8.8212
  85   2.0000      -0.318814        -8.6754
  86   2.0000      -0.308617        -8.3979
  87   2.0000      -0.297894        -8.1061
  88   2.0000      -0.294312        -8.0086
  89   2.0000      -0.290252        -7.8981
  90   2.0000      -0.278961        -7.5909
  91   2.0000      -0.275558        -7.4983
  92   2.0000      -0.263971        -7.1830
  93   2.0000      -0.258814        -7.0427
  94   2.0000      -0.255324        -6.9477
  95   2.0000      -0.238213        -6.4821
  96   2.0000      -0.221792        -6.0353
  97   2.0000      -0.210813        -5.7365
  98   2.0000      -0.199219        -5.4210
  99   2.0000      -0.190593        -5.1863
 100   2.0000      -0.180208        -4.9037
 101   0.0000      -0.039748        -1.0816
 102   0.0000      -0.027935        -0.7601
 103   0.0000      -0.012750        -0.3470
 104   0.0000       0.013151         0.3579
 105   0.0000       0.021387         0.5820

MULLIKEN ATOMIC CHARGES
-----------------------
   0 C :   -0.279898
   1 C :   -0.002309
   2 O :   -0.353671
   3 P :    0.616043
   4 S :   -0.323441
   5 O :   -0.384664
   6 C :   -0.006603
   7 C :   -0.281869
   8 S :   -0.100155
   9 C :   -0.351988
  10 S :   -0.118277
  11 P :    0.586858
  12 S :   -0.287237
  13 O :   -0.379930
  14 C :   -0.014926
  15 C :   -0.307535
  16 O :   -0.337530
  17 C :   -0.007100
  18 C :   -0.286529
  19 H :    0.104875
  20 H :    0.127330
  21 H :    0.103329
  22 H :    0.113137
  23 H :    0.095340
  24 H :    0.102991
  25 H :    0.096738
  26 H :    0.114575
  27 H :    0.117441
  28 H :    0.110110
  29 H :    0.210945
  30 H :    0.183055
  31 H :    0.109453
  32 H :    0.114208
  33 H :    0.127466
  34 H :    0.111137
  35 H :    0.128433
  36 H :    0.109890
  37 H :    0.095116
  38 H :    0.119314
  39 H :    0.107875
  40 H :    0.118004
Sum of atomic charges:   -0.0000000

LOEWDIN ATOMIC CHARGES
----------------------
   0 C :   -0.353091
   1 C :   -0.115145
   2 O :   -0.232024
   3 P :    0.566087
   4 S :   -0.314027
   5 O :   -0.253963
   6 C :   -0.122840
   7 C :   -0.351068
   8 S :    0.074879
   9 C :   -0.477660
  10 S :    0.063579
  11 P :    0.561164
  12 S :   -0.285218
  13 O :   -0.246988
  14 C :   -0.115305
  15 C :   -0.369243
  16 O :   -0.222858
  17 C :   -0.117402
  18 C :   -0.358288
  19 H :    0.121508
  20 H :    0.127002
  21 H :    0.127095
  22 H :    0.110887
  23 H :    0.106857
  24 H :    0.105233
  25 H :    0.108724
  26 H :    0.125629
  27 H :    0.127255
  28 H :    0.129857
  29 H :    0.127484
  30 H :    0.137638
  31 H :    0.121161
  32 H :    0.107813
  33 H :    0.130970
  34 H :    0.130057
  35 H :    0.122461
  36 H :    0.119121
  37 H :    0.100978
  38 H :    0.127899
  39 H :    0.128538
  40 H :    0.125243

  Mayer bond orders larger than 0.100000
B(  0-C ,  1-C ) :   1.1659 B(  0-C , 19-H ) :   0.9500 B(  0-C , 20-H ) :   0.9407
B(  0-C , 21-H ) :   0.9409 B(  1-C ,  2-O ) :   0.8925 B(  1-C , 22-H ) :   0.9139
B(  1-C , 23-H ) :   0.9281 B(  2-O ,  3-P ) :   1.1551 B(  3-P ,  4-S ) :   1.6148
B(  3-P ,  5-O ) :   1.0935 B(  3-P ,  8-S ) :   0.9688 B(  4-S ,  8-S ) :   0.1182
B(  5-O ,  6-C ) :   0.9093 B(  6-C ,  7-C ) :   1.1611 B(  6-C , 24-H ) :   0.9026
B(  6-C , 25-H ) :   0.9305 B(  7-C , 26-H ) :   0.9510 B(  7-C , 27-H ) :   0.9511
B(  7-C , 28-H ) :   0.9424 B(  8-S ,  9-C ) :   0.9927 B(  9-C , 10-S ) :   1.0043
B(  9-C , 29-H ) :   0.8447 B(  9-C , 30-H ) :   0.9117 B( 10-S , 11-P ) :   0.9336
B( 10-S , 12-S ) :   0.1052 B( 11-P , 12-S ) :   1.6565 B( 11-P , 13-O ) :   1.0761
B( 11-P , 16-O ) :   1.1415 B( 13-O , 14-C ) :   0.9130 B( 14-C , 15-C ) :   1.1672
B( 14-C , 31-H ) :   0.9332 B( 14-C , 32-H ) :   0.9261 B( 15-C , 33-H ) :   0.9427
B( 15-C , 34-H ) :   0.9346 B( 15-C , 35-H ) :   0.9316 B( 16-O , 17-C ) :   0.8905
B( 17-C , 18-C ) :   1.1634 B( 17-C , 36-H ) :   0.9316 B( 17-C , 37-H ) :   0.9119
B( 18-C , 38-H ) :   0.9475 B( 18-C , 39-H ) :   0.9407 B( 18-C , 40-H ) :   0.9433

Dispersion correction           -0.066657172
FINAL SINGLE POINT ENERGY     -2929.518957940086

DIPOLE MOMENT
-------------

Method             : SCF
Type of density    : Electron Density
Multiplicity       :   1
Irrep              :   0
Energy             : -2929.6374072140092721 Eh
Relativity type    :
Basis              : AO
                                X                 Y                 Z
Electronic contribution:     -0.118928299       5.183013307      12.189922489
Nuclear contribution   :     -0.790230784      -6.298777913     -12.276017521
                        -----------------------------------------
Total Dipole Moment    :     -0.909159083      -1.115764606      -0.086095032
                        -----------------------------------------
Magnitude (a.u.)       :      1.441843698
Magnitude (Debye)      :      3.664875428

Rotational constants in cm-1:             0.012777             0.005177             0.004976
Rotational constants in MHz :           383.058241           155.206008           149.186333

                             ****ORCA TERMINATED NORMALLY****
TOTAL RUN TIME: 0 days 0 hours 0 minutes 21 seconds 733 msec
