                         Program Version 6.0.1  -  RELEASE   -
|  1> ! pbe def2-sv(p) def2/J RI DEFGRID1 loosescf d4 GCP(DFT/SV(P)) printgap
|  2> %output
|  3>     printlevel normal
|  4> end
|  5> * xyz 0 1
|  6> C 2.3090725463 -3.5094301664 -0.262393845
|  7> C 2.9481129935 -2.1766829439 0.0926576138
|  8> O 2.1706079751 -1.0817184099 -0.4277728789
|  9> C 2.3445070777 -0.7351859966 -1.6950737604
| 10> O 3.1739497437 -1.2270804654 -2.4248799934
| 11> C 1.4017048831 0.3682374922 -2.1275908645
| 12> C 0.2974270871 0.6505381352 -1.1198221277
| 13> H -0.3073296278 1.5026295451 -1.4495347291
| 14> C 0.8311067209 0.9743542957 0.2614465389
| 15> O 0.3274784937 0.5361253255 1.2768285648
| 16> O 1.8397761947 1.8007319057 0.2268552455
| 17> C 2.3934801704 2.2347026198 1.4877945176
| 18> C 3.3854599454 3.3445820756 1.2049375246
| 19> S -0.829834534 -0.7765661265 -0.946378733
| 20> P -2.147576747 0.0475420504 0.4985136853
| 21> S -2.3270438768 1.9966883273 0.5373142062
| 22> O -3.5176318812 -0.6769051256 0.0574253138
| 23> C -4.183690301 -0.3380912103 -1.1609798926
| 24> O -1.9903771568 -0.6320889109 1.9162193227
| 25> C -1.5909953365 -2.0043522127 2.079335391
| 26> H 1.2732726259 -3.5283007489 0.0671962968
| 27> H 2.3372414474 -3.6603792716 -1.3387433721
| 28> H 2.8561830347 -4.3105695358 0.2231303309
| 29> H 3.9602642975 -2.1090072895 -0.3161115722
| 30> H 2.9606452477 -2.0143741064 1.1711900637
| 31> H 0.9752895166 0.084249308 -3.0907799689
| 32> H 1.9944883153 1.2740292621 -2.2751655785
| 33> H 1.5695919094 2.5705620259 2.1252930637
| 34> H 2.8704406873 1.3721469196 1.9626073433
| 35> H 4.1786770089 2.9812647165 0.5586019345
| 36> H 2.8854839498 4.1759880029 0.717135229
| 37> H 3.814336278 3.6859324116 2.1410817838
| 38> H -4.2781862072 0.7459654634 -1.2460133702
| 39> H -5.1654143536 -0.8002454532 -1.0974308094
| 40> H -3.6264192525 -0.7318145255 -2.0110684425
| 41> H -1.7869920073 -2.2352797387 3.1231514869
| 42> H -0.5264222307 -2.0930292509 1.8618933881
| 43> H -2.1716081466 -2.6508451706 1.422663586
| 44> *
| 45>
| 46>                          ****END OF INPUT****

CARTESIAN COORDINATES (ANGSTROEM)
---------------------------------
  C      2.309073   -3.509430   -0.262394
  C      2.948113   -2.176683    0.092658
  O      2.170608   -1.081718   -0.427773
  C      2.344507   -0.735186   -1.695074
  O      3.173950   -1.227080   -2.424880
  C      1.401705    0.368237   -2.127591
  C      0.297427    0.650538   -1.119822
  H     -0.307330    1.502630   -1.449535
  C      0.831107    0.974354    0.261447
  O      0.327478    0.536125    1.276829
  O      1.839776    1.800732    0.226855
  C      2.393480    2.234703    1.487795
  C      3.385460    3.344582    1.204938
  S     -0.829835   -0.776566   -0.946379
  P     -2.147577    0.047542    0.498514
  S     -2.327044    1.996688    0.537314
  O     -3.517632   -0.676905    0.057425
  C     -4.183690   -0.338091   -1.160980
  O     -1.990377   -0.632089    1.916219
  C     -1.590995   -2.004352    2.079335
  H      1.273273   -3.528301    0.067196
  H      2.337241   -3.660379   -1.338743
  H      2.856183   -4.310570    0.223130
  H      3.960264   -2.109007   -0.316112
  H      2.960645   -2.014374    1.171190
  H      0.975290    0.084249   -3.090780
  H      1.994488    1.274029   -2.275166
  H      1.569592    2.570562    2.125293
  H      2.870441    1.372147    1.962607
  H      4.178677    2.981265    0.558602
  H      2.885484    4.175988    0.717135
  H      3.814336    3.685932    2.141082
  H     -4.278186    0.745965   -1.246013
  H     -5.165414   -0.800245   -1.097431
  H     -3.626419   -0.731815   -2.011068
  H     -1.786992   -2.235280    3.123151
  H     -0.526422   -2.093029    1.861893
  H     -2.171608   -2.650845    1.422664

 Total Charge           Charge          ....    0
 Multiplicity           Mult            ....    1
 Number of Electrons    NEL             ....  174
 Basis Dimension        Dim             ....  316

ORBITAL ENERGIES
----------------

  NO   OCC          E(Eh)            E(eV)
   0   2.0000     -88.037861     -2395.6320
   1   2.0000     -87.971430     -2393.8243
   2   2.0000     -76.418793     -2079.4611
   3   2.0000     -18.817161      -512.0410
   4   2.0000     -18.814554      -511.9700
   5   2.0000     -18.781764      -511.0778
   6   2.0000     -18.777780      -510.9694
   7   2.0000     -18.745657      -510.0953
   8   2.0000     -18.743941      -510.0486
   9   2.0000     -10.020935      -272.6835
  10   2.0000     -10.020101      -272.6608
  11   2.0000      -9.956739      -270.9366
  12   2.0000      -9.956288      -270.9244
  13   2.0000      -9.948889      -270.7230
  14   2.0000      -9.943797      -270.5845
  15   2.0000      -9.933697      -270.3096
  16   2.0000      -9.923299      -270.0267
  17   2.0000      -9.895500      -269.2702
  18   2.0000      -9.891808      -269.1698
  19   2.0000      -7.682557      -209.0530
  20   2.0000      -7.616869      -207.2656
  21   2.0000      -6.414793      -174.5554
  22   2.0000      -5.710315      -155.3856
  23   2.0000      -5.707301      -155.3036
  24   2.0000      -5.699484      -155.0908
  25   2.0000      -5.646083      -153.6377
  26   2.0000      -5.637514      -153.4046
  27   2.0000      -5.636614      -153.3801
  28   2.0000      -4.637400      -126.1901
  29   2.0000      -4.636974      -126.1785
  30   2.0000      -4.635155      -126.1290
  31   2.0000      -1.027571       -27.9616
  32   2.0000      -1.018672       -27.7195
  33   2.0000      -0.974861       -26.5273
  34   2.0000      -0.930531       -25.3210
  35   2.0000      -0.925668       -25.1887
  36   2.0000      -0.923240       -25.1226
  37   2.0000      -0.771706       -20.9992
  38   2.0000      -0.716527       -19.4977
  39   2.0000      -0.713553       -19.4168
  40   2.0000      -0.690410       -18.7870
  41   2.0000      -0.660899       -17.9840
  42   2.0000      -0.626143       -17.0382
  43   2.0000      -0.621706       -16.9175
  44   2.0000      -0.611885       -16.6502
  45   2.0000      -0.602447       -16.3934
  46   2.0000      -0.568151       -15.4602
  47   2.0000      -0.520488       -14.1632
  48   2.0000      -0.507800       -13.8179
  49   2.0000      -0.504677       -13.7330
  50   2.0000      -0.487147       -13.2559
  51   2.0000      -0.466469       -12.6933
  52   2.0000      -0.464187       -12.6312
  53   2.0000      -0.458858       -12.4862
  54   2.0000      -0.439982       -11.9725
  55   2.0000      -0.430611       -11.7175
  56   2.0000      -0.426831       -11.6147
  57   2.0000      -0.422287       -11.4910
  58   2.0000      -0.412313       -11.2196
  59   2.0000      -0.406440       -11.0598
  60   2.0000      -0.400678       -10.9030
  61   2.0000      -0.395894       -10.7728
  62   2.0000      -0.393525       -10.7084
  63   2.0000      -0.388524       -10.5723
  64   2.0000      -0.380075       -10.3424
  65   2.0000      -0.370091       -10.0707
  66   2.0000      -0.366211        -9.9651
  67   2.0000      -0.360539        -9.8108
  68   2.0000      -0.357841        -9.7374
  69   2.0000      -0.347181        -9.4473
  70   2.0000      -0.336220        -9.1490
  71   2.0000      -0.330983        -9.0065
  72   2.0000      -0.325070        -8.8456
  73   2.0000      -0.316343        -8.6081
  74   2.0000      -0.312249        -8.4967
  75   2.0000      -0.302150        -8.2219
  76   2.0000      -0.290135        -7.8950
  77   2.0000      -0.286643        -7.8000
  78   2.0000      -0.274537        -7.4705
  79   2.0000      -0.269523        -7.3341
  80   2.0000      -0.262259        -7.1364
  81   2.0000      -0.250150        -6.8069
  82   2.0000      -0.233933        -6.3656
  83   2.0000      -0.230434        -6.2704
  84   2.0000      -0.218593        -5.9482
  85   2.0000      -0.193564        -5.2672
  86   2.0000      -0.186600        -5.0776
  87   0.0000      -0.042102        -1.1456
  88   0.0000      -0.028448        -0.7741
  89   0.0000      -0.028031        -0.7628
  90   0.0000       0.006655         0.1811
  91   0.0000       0.022171         0.6033

MULLIKEN ATOMIC CHARGES
-----------------------
   0 C :   -0.316703
   1 C :   -0.006716
   2 O :   -0.237318
   3 C :    0.112326
   4 O :   -0.196773
   5 C :   -0.106699
   6 C :   -0.287802
   7 H :    0.152196
   8 C :    0.232926
   9 O :   -0.196734
  10 O :   -0.230659
  11 C :   -0.028901
  12 C :   -0.276458
  13 S :   -0.104440
  14 P :    0.615595
  15 S :   -0.336572
  16 O :   -0.389265
  17 C :   -0.098067
  18 O :   -0.351631
  19 C :   -0.107136
  20 H :    0.123409
  21 H :    0.129228
  22 H :    0.114358
  23 H :    0.110260
  24 H :    0.106054
  25 H :    0.136252
  26 H :    0.143307
  27 H :    0.124215
  28 H :    0.104473
  29 H :    0.115913
  30 H :    0.121513
  31 H :    0.115537
  32 H :    0.113067
  33 H :    0.120350
  34 H :    0.106824
  35 H :    0.128012
  36 H :    0.131456
  37 H :    0.114603
Sum of atomic charges:    0.0000000

LOEWDIN ATOMIC CHARGES
----------------------
   0 C :   -0.356852
   1 C :   -0.108541
   2 O :   -0.049849
   3 C :    0.032843
   4 O :   -0.160155
   5 C :   -0.248470
   6 C :   -0.271450
   7 H :    0.145207
   8 C :    0.009299
   9 O :   -0.160404
  10 O :   -0.047424
  11 C :   -0.102253
  12 C :   -0.350605
  13 S :    0.091478
  14 P :    0.588572
  15 S :   -0.329520
  16 O :   -0.269060
  17 C :   -0.220984
  18 O :   -0.231266
  19 C :   -0.208274
  20 H :    0.125073
  21 H :    0.131779
  22 H :    0.131410
  23 H :    0.120736
  24 H :    0.118875
  25 H :    0.150108
  26 H :    0.157771
  27 H :    0.125850
  28 H :    0.116635
  29 H :    0.126815
  30 H :    0.129822
  31 H :    0.133228
  32 H :    0.108319
  33 H :    0.119778
  34 H :    0.103475
  35 H :    0.125284
  36 H :    0.112954
  37 H :    0.109794

  Mayer bond orders larger than 0.100000
B(  0-C ,  1-C ) :   1.1756 B(  0-C , 20-H ) :   0.9448 B(  0-C , 21-H ) :   0.9439
B(  0-C , 22-H ) :   0.9429 B(  1-C ,  2-O ) :   0.9095 B(  1-C , 23-H ) :   0.9167
B(  1-C , 24-H ) :   0.9338 B(  2-O ,  3-C ) :   1.2136 B(  3-C ,  4-O ) :   2.0580
B(  3-C ,  5-C ) :   1.0078 B(  5-C ,  6-C ) :   1.0609 B(  5-C , 25-H ) :   0.8981
B(  5-C , 26-H ) :   0.8775 B(  6-C ,  7-H ) :   0.8433 B(  6-C ,  8-C ) :   0.8821
B(  6-C , 13-S ) :   1.0320 B(  8-C ,  9-O ) :   1.9874 B(  8-C , 10-O ) :   1.2600
B( 10-O , 11-C ) :   0.8955 B( 11-C , 12-C ) :   1.1543 B( 11-C , 27-H ) :   0.9272
B( 11-C , 28-H ) :   0.9330 B( 12-C , 29-H ) :   0.9491 B( 12-C , 30-H ) :   0.9501
B( 12-C , 31-H ) :   0.9427 B( 13-S , 14-P ) :   0.9387 B( 13-S , 15-S ) :   0.1114
B( 14-P , 15-S ) :   1.6149 B( 14-P , 16-O ) :   1.0580 B( 14-P , 18-O ) :   1.1330
B( 16-O , 17-C ) :   0.9419 B( 17-C , 32-H ) :   0.9332 B( 17-C , 33-H ) :   0.9590
B( 17-C , 34-H ) :   0.9456 B( 18-O , 19-C ) :   0.9242 B( 19-C , 35-H ) :   0.9576
B( 19-C , 36-H ) :   0.9404 B( 19-C , 37-H ) :   0.9451

Dispersion correction           -0.052544339
FINAL SINGLE POINT ENERGY     -1979.015623853585

DIPOLE MOMENT
-------------

Method             : SCF
Type of density    : Electron Density
Multiplicity       :   1
Irrep              :   0
Energy             : -1979.1452547528087962 Eh
Relativity type    :
Basis              : AO
                                X                 Y                 Z
Electronic contribution:    -13.999398702       4.824101332      -1.822585749
Nuclear contribution   :     14.999407267      -5.482885180       1.967157685
                        -----------------------------------------
Total Dipole Moment    :      1.000008565      -0.658783848       0.144571937
                        -----------------------------------------
Magnitude (a.u.)       :      1.206198297
Magnitude (Debye)      :      3.065912420

Rotational constants in cm-1:             0.012671             0.007612             0.006205
Rotational constants in MHz :           379.877269           228.203498           186.028665

                             ****ORCA TERMINATED NORMALLY****
TOTAL RUN TIME: 0 days 0 hours 0 minutes 43 seconds 769 msec
