                         Program Version 6.0.1  -  RELEASE   -
|  1> ! pbe def2-sv(p) def2/J RI DEFGRID1 loosescf d4 GCP(DFT/SV(P)) printgap
|  2> %output
|  3>     printlevel normal
|  4> end
|  5> * xyz 0 1
|  6> C 3.171168848 -3.7517673105 0.4740855069
|  7> C 2.6933252168 -2.347229029 0.7832938627
|  8> O 2.2442740616 -1.748583174 -0.4473961746
|  9> C 2.0185920771 -0.4567188471 -0.4691742323
| 10> O 2.1470127586 0.2877815488 0.4824787993
| 11> C 1.6168766066 0.0321671761 -1.8482759615
| 12> C 0.3406174137 0.8768687254 -1.7887787801
| 13> H 0.2671582861 1.495851416 -2.6856920503
| 14> C 0.3177590919 1.7747700532 -0.5656572776
| 15> O -0.483995164 1.6133072296 0.3401328014
| 16> O 1.176923686 2.7411656366 -0.6553935141
| 17> C 1.3583230154 3.653528107 0.4519431144
| 18> C 2.7922608802 3.5558364311 0.9406558571
| 19> S -1.1762454086 -0.1398023991 -1.7965320738
| 20> P -1.7805636445 -0.4380947823 0.2140413379
| 21> S -0.5981927085 -1.0707821651 1.6548101803
| 22> O -2.9195445337 0.6133721357 0.5721254931
| 23> C -2.9023500069 1.4891067962 1.6995064283
| 24> O -2.8409022264 -1.5978584444 -0.1490883289
| 25> C -2.4233063078 -2.9230640232 -0.4791090812
| 26> H 3.9944220778 -3.7194495855 -0.2333870788
| 27> H 3.5034298814 -4.2242527083 1.3921805876
| 28> H 2.3600044962 -4.332696057 0.0461691476
| 29> H 3.4899377263 -1.7220849716 1.1986166124
| 30> H 1.8542766329 -2.3436959151 1.487279294
| 31> H 1.4749504886 -0.8168423065 -2.5148187586
| 32> H 2.4318893871 0.6595827557 -2.2155414501
| 33> H 1.1360982672 4.6462321873 0.0552122754
| 34> H 0.6501965943 3.3932076183 1.2419907865
| 35> H 2.9316835026 4.2301014244 1.7788921635
| 36> H 2.9986588631 2.5373273273 1.2612195694
| 37> H 3.4790690939 3.8225408546 0.1433360111
| 38> H -3.8801276247 1.4063814727 2.170073964
| 39> H -2.7235854198 2.5056260039 1.3528967861
| 40> H -2.1189488519 1.1958669825 2.4009431445
| 41> H -1.6716763713 -3.2657602801 0.2357042311
| 42> H -2.0167039417 -2.9502991739 -1.4904363041
| 43> H -3.3174787836 -3.5375249883 -0.410607036
| 44> *
| 45>
| 46>                          ****END OF INPUT****

CARTESIAN COORDINATES (ANGSTROEM)
---------------------------------
  C      3.171169   -3.751767    0.474086
  C      2.693325   -2.347229    0.783294
  O      2.244274   -1.748583   -0.447396
  C      2.018592   -0.456719   -0.469174
  O      2.147013    0.287782    0.482479
  C      1.616877    0.032167   -1.848276
  C      0.340617    0.876869   -1.788779
  H      0.267158    1.495851   -2.685692
  C      0.317759    1.774770   -0.565657
  O     -0.483995    1.613307    0.340133
  O      1.176924    2.741166   -0.655394
  C      1.358323    3.653528    0.451943
  C      2.792261    3.555836    0.940656
  S     -1.176245   -0.139802   -1.796532
  P     -1.780564   -0.438095    0.214041
  S     -0.598193   -1.070782    1.654810
  O     -2.919545    0.613372    0.572125
  C     -2.902350    1.489107    1.699506
  O     -2.840902   -1.597858   -0.149088
  C     -2.423306   -2.923064   -0.479109
  H      3.994422   -3.719450   -0.233387
  H      3.503430   -4.224253    1.392181
  H      2.360004   -4.332696    0.046169
  H      3.489938   -1.722085    1.198617
  H      1.854277   -2.343696    1.487279
  H      1.474950   -0.816842   -2.514819
  H      2.431889    0.659583   -2.215541
  H      1.136098    4.646232    0.055212
  H      0.650197    3.393208    1.241991
  H      2.931684    4.230101    1.778892
  H      2.998659    2.537327    1.261220
  H      3.479069    3.822541    0.143336
  H     -3.880128    1.406381    2.170074
  H     -2.723585    2.505626    1.352897
  H     -2.118949    1.195867    2.400943
  H     -1.671676   -3.265760    0.235704
  H     -2.016704   -2.950299   -1.490436
  H     -3.317479   -3.537525   -0.410607

 Total Charge           Charge          ....    0
 Multiplicity           Mult            ....    1
 Number of Electrons    NEL             ....  174
 Basis Dimension        Dim             ....  316

ORBITAL ENERGIES
----------------

  NO   OCC          E(Eh)            E(eV)
   0   2.0000     -88.032593     -2395.4886
   1   2.0000     -87.963014     -2393.5953
   2   2.0000     -76.414678     -2079.3491
   3   2.0000     -18.820045      -512.1195
   4   2.0000     -18.806266      -511.7445
   5   2.0000     -18.770773      -510.7787
   6   2.0000     -18.765184      -510.6266
   7   2.0000     -18.759939      -510.4839
   8   2.0000     -18.740774      -509.9624
   9   2.0000     -10.032505      -272.9983
  10   2.0000     -10.014323      -272.5036
  11   2.0000      -9.955580      -270.9051
  12   2.0000      -9.955186      -270.8944
  13   2.0000      -9.941490      -270.5217
  14   2.0000      -9.926869      -270.1238
  15   2.0000      -9.925178      -270.0778
  16   2.0000      -9.918718      -269.9020
  17   2.0000      -9.886405      -269.0228
  18   2.0000      -9.886047      -269.0130
  19   2.0000      -7.677755      -208.9223
  20   2.0000      -7.608082      -207.0264
  21   2.0000      -6.409579      -174.4135
  22   2.0000      -5.706038      -155.2692
  23   2.0000      -5.701883      -155.1561
  24   2.0000      -5.694654      -154.9594
  25   2.0000      -5.637157      -153.3948
  26   2.0000      -5.629046      -153.1741
  27   2.0000      -5.627663      -153.1365
  28   2.0000      -4.632140      -126.0469
  29   2.0000      -4.631756      -126.0365
  30   2.0000      -4.630207      -125.9943
  31   2.0000      -1.031541       -28.0697
  32   2.0000      -1.013019       -27.5656
  33   2.0000      -0.963892       -26.2288
  34   2.0000      -0.937396       -25.5079
  35   2.0000      -0.918861       -25.0035
  36   2.0000      -0.917896       -24.9772
  37   2.0000      -0.767811       -20.8932
  38   2.0000      -0.715113       -19.4592
  39   2.0000      -0.709053       -19.2943
  40   2.0000      -0.684945       -18.6383
  41   2.0000      -0.653575       -17.7847
  42   2.0000      -0.623783       -16.9740
  43   2.0000      -0.613274       -16.6880
  44   2.0000      -0.604450       -16.4479
  45   2.0000      -0.589914       -16.0524
  46   2.0000      -0.561995       -15.2927
  47   2.0000      -0.514645       -14.0042
  48   2.0000      -0.508459       -13.8359
  49   2.0000      -0.500899       -13.6302
  50   2.0000      -0.489619       -13.3232
  51   2.0000      -0.465619       -12.6701
  52   2.0000      -0.457575       -12.4513
  53   2.0000      -0.446140       -12.1401
  54   2.0000      -0.443088       -12.0570
  55   2.0000      -0.425447       -11.5770
  56   2.0000      -0.422882       -11.5072
  57   2.0000      -0.418119       -11.3776
  58   2.0000      -0.407898       -11.0995
  59   2.0000      -0.404532       -11.0079
  60   2.0000      -0.397744       -10.8232
  61   2.0000      -0.389903       -10.6098
  62   2.0000      -0.383415       -10.4333
  63   2.0000      -0.378468       -10.2986
  64   2.0000      -0.371617       -10.1122
  65   2.0000      -0.366509        -9.9732
  66   2.0000      -0.361158        -9.8276
  67   2.0000      -0.356376        -9.6975
  68   2.0000      -0.349213        -9.5026
  69   2.0000      -0.344195        -9.3660
  70   2.0000      -0.333509        -9.0752
  71   2.0000      -0.333109        -9.0644
  72   2.0000      -0.316402        -8.6097
  73   2.0000      -0.309052        -8.4097
  74   2.0000      -0.299873        -8.1600
  75   2.0000      -0.295793        -8.0489
  76   2.0000      -0.285387        -7.7658
  77   2.0000      -0.278867        -7.5884
  78   2.0000      -0.271685        -7.3929
  79   2.0000      -0.259020        -7.0483
  80   2.0000      -0.257339        -7.0026
  81   2.0000      -0.240855        -6.5540
  82   2.0000      -0.238111        -6.4793
  83   2.0000      -0.227508        -6.1908
  84   2.0000      -0.220320        -5.9952
  85   2.0000      -0.184786        -5.0283
  86   2.0000      -0.173550        -4.7225
  87   0.0000      -0.043487        -1.1833
  88   0.0000      -0.031627        -0.8606
  89   0.0000      -0.026731        -0.7274
  90   0.0000       0.004688         0.1276
  91   0.0000       0.034312         0.9337

MULLIKEN ATOMIC CHARGES
-----------------------
   0 C :   -0.274348
   1 C :   -0.039604
   2 O :   -0.215961
   3 C :    0.105359
   4 O :   -0.204716
   5 C :   -0.025786
   6 C :   -0.299728
   7 H :    0.147162
   8 C :    0.232773
   9 O :   -0.204198
  10 O :   -0.218814
  11 C :   -0.024048
  12 C :   -0.302058
  13 S :   -0.105992
  14 P :    0.634983
  15 S :   -0.346738
  16 O :   -0.373339
  17 C :   -0.085129
  18 O :   -0.382190
  19 C :   -0.096829
  20 H :    0.109479
  21 H :    0.112171
  22 H :    0.117055
  23 H :    0.101490
  24 H :    0.131546
  25 H :    0.116212
  26 H :    0.122745
  27 H :    0.107860
  28 H :    0.125657
  29 H :    0.111284
  30 H :    0.145778
  31 H :    0.108579
  32 H :    0.116244
  33 H :    0.105590
  34 H :    0.120044
  35 H :    0.104514
  36 H :    0.105163
  37 H :    0.117791
Sum of atomic charges:    0.0000000

LOEWDIN ATOMIC CHARGES
----------------------
   0 C :   -0.350292
   1 C :   -0.111675
   2 O :   -0.043520
   3 C :    0.028923
   4 O :   -0.156587
   5 C :   -0.246050
   6 C :   -0.260388
   7 H :    0.148122
   8 C :    0.031829
   9 O :   -0.148402
  10 O :   -0.033399
  11 C :   -0.102644
  12 C :   -0.355952
  13 S :    0.099424
  14 P :    0.580976
  15 S :   -0.329901
  16 O :   -0.243931
  17 C :   -0.209680
  18 O :   -0.265702
  19 C :   -0.222949
  20 H :    0.123480
  21 H :    0.131308
  22 H :    0.127715
  23 H :    0.115058
  24 H :    0.117513
  25 H :    0.136474
  26 H :    0.148201
  27 H :    0.118736
  28 H :    0.126100
  29 H :    0.130049
  30 H :    0.137506
  31 H :    0.123138
  32 H :    0.115639
  33 H :    0.108733
  34 H :    0.109862
  35 H :    0.101941
  36 H :    0.101787
  37 H :    0.118562

  Mayer bond orders larger than 0.100000
B(  0-C ,  1-C ) :   1.1547 B(  0-C , 20-H ) :   0.9515 B(  0-C , 21-H ) :   0.9443
B(  0-C , 22-H ) :   0.9485 B(  1-C ,  2-O ) :   0.8968 B(  1-C , 23-H ) :   0.9261
B(  1-C , 24-H ) :   0.9143 B(  2-O ,  3-C ) :   1.2710 B(  2-O ,  4-O ) :   0.1012
B(  3-C ,  4-O ) :   1.9353 B(  3-C ,  5-C ) :   1.0093 B(  4-O ,  8-C ) :   0.1062
B(  5-C ,  6-C ) :   1.0214 B(  5-C , 25-H ) :   0.9041 B(  5-C , 26-H ) :   0.8751
B(  6-C ,  7-H ) :   0.8783 B(  6-C ,  8-C ) :   0.9047 B(  6-C , 13-S ) :   1.0313
B(  8-C ,  9-O ) :   1.8875 B(  8-C , 10-O ) :   1.2796 B(  9-O , 14-P ) :   0.1552
B( 10-O , 11-C ) :   0.8883 B( 11-C , 12-C ) :   1.1771 B( 11-C , 27-H ) :   0.9367
B( 11-C , 28-H ) :   0.9093 B( 12-C , 29-H ) :   0.9422 B( 12-C , 30-H ) :   0.9333
B( 12-C , 31-H ) :   0.9498 B( 13-S , 14-P ) :   0.9384 B( 13-S , 15-S ) :   0.1143
B( 14-P , 15-S ) :   1.5674 B( 14-P , 16-O ) :   1.1205 B( 14-P , 18-O ) :   1.0526
B( 16-O , 17-C ) :   0.9318 B( 17-C , 32-H ) :   0.9547 B( 17-C , 33-H ) :   0.9569
B( 17-C , 34-H ) :   0.9314 B( 18-O , 19-C ) :   0.9510 B( 19-C , 35-H ) :   0.9283
B( 19-C , 36-H ) :   0.9458 B( 19-C , 37-H ) :   0.9598

Dispersion correction           -0.053456258
FINAL SINGLE POINT ENERGY     -1979.008880648934

DIPOLE MOMENT
-------------

Method             : SCF
Type of density    : Electron Density
Multiplicity       :   1
Irrep              :   0
Energy             : -1979.1390876491354902 Eh
Relativity type    :
Basis              : AO
                                X                 Y                 Z
Electronic contribution:    -14.347270816       1.161560619      -5.371719106
Nuclear contribution   :     15.557813335      -0.502068934       4.706626191
                        -----------------------------------------
Total Dipole Moment    :      1.210542519       0.659491685      -0.665092914
                        -----------------------------------------
Magnitude (a.u.)       :      1.530585201
Magnitude (Debye)      :      3.890438402

Rotational constants in cm-1:             0.010709             0.009602             0.006689
Rotational constants in MHz :           321.048561           287.871373           200.546010

                             ****ORCA TERMINATED NORMALLY****
TOTAL RUN TIME: 0 days 0 hours 0 minutes 33 seconds 867 msec
