                         Program Version 6.0.0  -   RELEASE  -
|  1> ! pbe def2-sv(p) def2/J RI DEFGRID1 loosescf d4 GCP(DFT/SV(P)) printgap
|  2> %output
|  3>     printlevel normal
|  4> end
|  5> * xyz 0 1
|  6> C 3.7855845164 1.3025005088 -1.8585357702
|  7> C 2.4180375394 0.6626487826 -1.9780116972
|  8> O 2.2295266483 -0.3673849971 -0.9939695658
|  9> P 1.9668954797 -0.0247897246 0.5483975653
| 10> S 0.93849143 1.5998338416 0.89175338
| 11> O 3.3761932144 0.081284282 1.2651469875
| 12> C 4.399307347 -0.9403989604 1.1639677006
| 13> C 4.4522994695 -1.766706967 2.4330255042
| 14> S 1.2320962457 -1.8957600231 1.1630748278
| 15> C -0.3256393417 -1.9669299015 0.2434022328
| 16> S -1.6563563728 -0.9664153068 0.9798281841
| 17> P -2.1115467363 0.3252875175 -0.6575701543
| 18> S -1.003433295 0.1268325102 -2.255429734
| 19> O -2.0835779839 1.8095887839 -0.1475550039
| 20> C -2.7728345251 2.253472061 1.048364369
| 21> C -2.2246424436 3.6166964926 1.4114541285
| 22> O -3.6843622236 0.1198441045 -0.8372500721
| 23> C -4.3601674006 -1.1442301872 -0.9593919259
| 24> C -3.8783849064 -1.9563608824 -2.143826486
| 25> H 3.8743690469 1.8059332384 -0.8960593139
| 26> H 4.5640970195 0.5485454821 -1.9413810255
| 27> H 3.9068989222 2.0340768604 -2.6511361886
| 28> H 2.2814837143 0.1491445947 -2.9310242166
| 29> H 1.6259298501 1.4096854291 -1.8599101068
| 30> H 4.1973396378 -1.5643655739 0.2898223721
| 31> H 5.3273666276 -0.3850293849 1.0163945988
| 32> H 4.598771623 -1.1174255639 3.2916627162
| 33> H 3.5258788998 -2.3212416083 2.5661049206
| 34> H 5.2797423205 -2.4658978732 2.3657685043
| 35> H -0.6347942166 -3.0082295758 0.2834822044
| 36> H -0.1636373403 -1.6321809024 -0.7857153783
| 37> H -3.8414111617 2.2883059291 0.8263387702
| 38> H -2.5867210428 1.5273983346 1.8455097478
| 39> H -2.4009591433 4.3181407913 0.6013183582
| 40> H -2.7125363809 3.9705129091 2.3135939948
| 41> H -1.1528105068 3.5448463836 1.5826213692
| 42> H -4.2221949011 -1.6973180028 -0.0257464004
| 43> H -5.4085321527 -0.8620214411 -1.0707826755
| 44> H -2.8356570506 -2.2398148427 -2.0098382656
| 45> H -4.4821922411 -2.8535319315 -2.2337017867
| 46> H -3.9577297288 -1.3745420971 -3.0589656016
| 47> *
| 48>
| 49>                          ****END OF INPUT****

CARTESIAN COORDINATES (ANGSTROEM)
---------------------------------
  C      3.785585    1.302501   -1.858536
  C      2.418038    0.662649   -1.978012
  O      2.229527   -0.367385   -0.993970
  P      1.966895   -0.024790    0.548398
  S      0.938491    1.599834    0.891753
  O      3.376193    0.081284    1.265147
  C      4.399307   -0.940399    1.163968
  C      4.452299   -1.766707    2.433026
  S      1.232096   -1.895760    1.163075
  C     -0.325639   -1.966930    0.243402
  S     -1.656356   -0.966415    0.979828
  P     -2.111547    0.325288   -0.657570
  S     -1.003433    0.126833   -2.255430
  O     -2.083578    1.809589   -0.147555
  C     -2.772835    2.253472    1.048364
  C     -2.224642    3.616696    1.411454
  O     -3.684362    0.119844   -0.837250
  C     -4.360167   -1.144230   -0.959392
  C     -3.878385   -1.956361   -2.143826
  H      3.874369    1.805933   -0.896059
  H      4.564097    0.548545   -1.941381
  H      3.906899    2.034077   -2.651136
  H      2.281484    0.149145   -2.931024
  H      1.625930    1.409685   -1.859910
  H      4.197340   -1.564366    0.289822
  H      5.327367   -0.385029    1.016395
  H      4.598772   -1.117426    3.291663
  H      3.525879   -2.321242    2.566105
  H      5.279742   -2.465898    2.365769
  H     -0.634794   -3.008230    0.283482
  H     -0.163637   -1.632181   -0.785715
  H     -3.841411    2.288306    0.826339
  H     -2.586721    1.527398    1.845510
  H     -2.400959    4.318141    0.601318
  H     -2.712536    3.970513    2.313594
  H     -1.152811    3.544846    1.582621
  H     -4.222195   -1.697318   -0.025746
  H     -5.408532   -0.862021   -1.070783
  H     -2.835657   -2.239815   -2.009838
  H     -4.482192   -2.853532   -2.233702
  H     -3.957730   -1.374542   -3.058966

 Total Charge           Charge          ....    0
 Multiplicity           Mult            ....    1
 Number of Electrons    NEL             ....  202
 Basis Dimension        Dim             ....  334

ORBITAL ENERGIES
----------------

  NO   OCC          E(Eh)            E(eV)
   0   2.0000     -88.042108     -2395.7475
   1   2.0000     -88.041965     -2395.7437
   2   2.0000     -87.982960     -2394.1381
   3   2.0000     -87.975548     -2393.9364
   4   2.0000     -76.422820     -2079.5706
   5   2.0000     -76.418636     -2079.4568
   6   2.0000     -18.789921      -511.2997
   7   2.0000     -18.786562      -511.2083
   8   2.0000     -18.784250      -511.1454
   9   2.0000     -18.783006      -511.1116
  10   2.0000      -9.956511      -270.9304
  11   2.0000      -9.956067      -270.9184
  12   2.0000      -9.953524      -270.8492
  13   2.0000      -9.950390      -270.7639
  14   2.0000      -9.937967      -270.4258
  15   2.0000      -9.888663      -269.0842
  16   2.0000      -9.883042      -268.9312
  17   2.0000      -9.879900      -268.8458
  18   2.0000      -9.878919      -268.8190
  19   2.0000      -7.687546      -209.1888
  20   2.0000      -7.686766      -209.1675
  21   2.0000      -7.628022      -207.5690
  22   2.0000      -7.620542      -207.3655
  23   2.0000      -6.420043      -174.6982
  24   2.0000      -6.416622      -174.6052
  25   2.0000      -5.715442      -155.5251
  26   2.0000      -5.714573      -155.5014
  27   2.0000      -5.711921      -155.4293
  28   2.0000      -5.711235      -155.4106
  29   2.0000      -5.704512      -155.2277
  30   2.0000      -5.703931      -155.2119
  31   2.0000      -5.656991      -153.9346
  32   2.0000      -5.649625      -153.7341
  33   2.0000      -5.648783      -153.7112
  34   2.0000      -5.647898      -153.6871
  35   2.0000      -5.641105      -153.5023
  36   2.0000      -5.640556      -153.4873
  37   2.0000      -4.642611      -126.3319
  38   2.0000      -4.642020      -126.3158
  39   2.0000      -4.640379      -126.2711
  40   2.0000      -4.639577      -126.2493
  41   2.0000      -4.638169      -126.2110
  42   2.0000      -4.636918      -126.1769
  43   2.0000      -0.982895       -26.7459
  44   2.0000      -0.979809       -26.6620
  45   2.0000      -0.938844       -25.5473
  46   2.0000      -0.937941       -25.5227
  47   2.0000      -0.760845       -20.7036
  48   2.0000      -0.719105       -19.5678
  49   2.0000      -0.709313       -19.3014
  50   2.0000      -0.688435       -18.7333
  51   2.0000      -0.686028       -18.6678
  52   2.0000      -0.671965       -18.2851
  53   2.0000      -0.648020       -17.6335
  54   2.0000      -0.634336       -17.2612
  55   2.0000      -0.589443       -16.0396
  56   2.0000      -0.581290       -15.8177
  57   2.0000      -0.575338       -15.6557
  58   2.0000      -0.566261       -15.4087
  59   2.0000      -0.562990       -15.3197
  60   2.0000      -0.504856       -13.7378
  61   2.0000      -0.495657       -13.4875
  62   2.0000      -0.472378       -12.8541
  63   2.0000      -0.470819       -12.8116
  64   2.0000      -0.453758       -12.3474
  65   2.0000      -0.447983       -12.1902
  66   2.0000      -0.438675       -11.9370
  67   2.0000      -0.429009       -11.6739
  68   2.0000      -0.423853       -11.5336
  69   2.0000      -0.411936       -11.2093
  70   2.0000      -0.411107       -11.1868
  71   2.0000      -0.402581       -10.9548
  72   2.0000      -0.393492       -10.7075
  73   2.0000      -0.383029       -10.4227
  74   2.0000      -0.376718       -10.2510
  75   2.0000      -0.365484        -9.9453
  76   2.0000      -0.356269        -9.6946
  77   2.0000      -0.354370        -9.6429
  78   2.0000      -0.352004        -9.5785
  79   2.0000      -0.349083        -9.4990
  80   2.0000      -0.347959        -9.4685
  81   2.0000      -0.340656        -9.2697
  82   2.0000      -0.337891        -9.1945
  83   2.0000      -0.335268        -9.1231
  84   2.0000      -0.329361        -8.9624
  85   2.0000      -0.316652        -8.6165
  86   2.0000      -0.309714        -8.4277
  87   2.0000      -0.303093        -8.2476
  88   2.0000      -0.294036        -8.0011
  89   2.0000      -0.288412        -7.8481
  90   2.0000      -0.274096        -7.4585
  91   2.0000      -0.270097        -7.3497
  92   2.0000      -0.266489        -7.2515
  93   2.0000      -0.261087        -7.1045
  94   2.0000      -0.256924        -6.9912
  95   2.0000      -0.238632        -6.4935
  96   2.0000      -0.220439        -5.9985
  97   2.0000      -0.203018        -5.5244
  98   2.0000      -0.199768        -5.4360
  99   2.0000      -0.190533        -5.1847
 100   2.0000      -0.186173        -5.0660
 101   0.0000      -0.038039        -1.0351
 102   0.0000      -0.029569        -0.8046
 103   0.0000      -0.010758        -0.2928
 104   0.0000       0.007982         0.2172
 105   0.0000       0.021298         0.5796

MULLIKEN ATOMIC CHARGES
-----------------------
   0 C :   -0.307145
   1 C :   -0.017905
   2 O :   -0.385709
   3 P :    0.618303
   4 S :   -0.311697
   5 O :   -0.366960
   6 C :   -0.033668
   7 C :   -0.291518
   8 S :   -0.107392
   9 C :   -0.343214
  10 S :   -0.109963
  11 P :    0.614128
  12 S :   -0.303520
  13 O :   -0.346551
  14 C :   -0.016561
  15 C :   -0.286474
  16 O :   -0.383572
  17 C :   -0.002970
  18 C :   -0.308526
  19 H :    0.126952
  20 H :    0.106788
  21 H :    0.112914
  22 H :    0.102304
  23 H :    0.129754
  24 H :    0.111297
  25 H :    0.110977
  26 H :    0.123297
  27 H :    0.130881
  28 H :    0.111115
  29 H :    0.180187
  30 H :    0.202006
  31 H :    0.105094
  32 H :    0.109208
  33 H :    0.118436
  34 H :    0.107210
  35 H :    0.139735
  36 H :    0.103865
  37 H :    0.105149
  38 H :    0.119176
  39 H :    0.108662
  40 H :    0.125909
Sum of atomic charges:   -0.0000000

LOEWDIN ATOMIC CHARGES
----------------------
   0 C :   -0.365511
   1 C :   -0.127724
   2 O :   -0.251945
   3 P :    0.561560
   4 S :   -0.304056
   5 O :   -0.242092
   6 C :   -0.121372
   7 C :   -0.359826
   8 S :    0.083284
   9 C :   -0.481170
  10 S :    0.069730
  11 P :    0.571222
  12 S :   -0.285041
  13 O :   -0.224339
  14 C :   -0.114453
  15 C :   -0.350678
  16 O :   -0.250614
  17 C :   -0.119355
  18 C :   -0.367855
  19 H :    0.124997
  20 H :    0.119674
  21 H :    0.131253
  22 H :    0.116342
  23 H :    0.110704
  24 H :    0.109612
  25 H :    0.120543
  26 H :    0.130738
  27 H :    0.119684
  28 H :    0.130831
  29 H :    0.135539
  30 H :    0.123286
  31 H :    0.112406
  32 H :    0.107416
  33 H :    0.128727
  34 H :    0.128900
  35 H :    0.130329
  36 H :    0.102913
  37 H :    0.119201
  38 H :    0.118077
  39 H :    0.128488
  40 H :    0.130574

  Mayer bond orders larger than 0.100000
B(  0-C ,  1-C ) :   1.1549 B(  0-C , 19-H ) :   0.9375 B(  0-C , 20-H ) :   0.9457
B(  0-C , 21-H ) :   0.9408 B(  1-C ,  2-O ) :   0.9022 B(  1-C , 22-H ) :   0.9355
B(  1-C , 23-H ) :   0.9048 B(  2-O ,  3-P ) :   1.0724 B(  3-P ,  4-S ) :   1.6704
B(  3-P ,  5-O ) :   1.1107 B(  3-P ,  8-S ) :   0.9629 B(  4-S ,  8-S ) :   0.1082
B(  5-O ,  6-C ) :   0.8974 B(  6-C ,  7-C ) :   1.1667 B(  6-C , 24-H ) :   0.9143
B(  6-C , 25-H ) :   0.9323 B(  7-C , 26-H ) :   0.9455 B(  7-C , 27-H ) :   0.9372
B(  7-C , 28-H ) :   0.9390 B(  8-S ,  9-C ) :   1.0005 B(  9-C , 10-S ) :   1.0006
B(  9-C , 29-H ) :   0.9116 B(  9-C , 30-H ) :   0.8414 B( 10-S , 11-P ) :   0.9425
B( 10-S , 12-S ) :   0.1157 B( 11-P , 12-S ) :   1.6265 B( 11-P , 13-O ) :   1.1522
B( 11-P , 16-O ) :   1.0735 B( 12-S , 30-H ) :   0.1174 B( 13-O , 14-C ) :   0.8884
B( 14-C , 15-C ) :   1.1672 B( 14-C , 31-H ) :   0.9284 B( 14-C , 32-H ) :   0.9165
B( 15-C , 33-H ) :   0.9496 B( 15-C , 34-H ) :   0.9403 B( 15-C , 35-H ) :   0.9434
B( 16-O , 17-C ) :   0.9222 B( 17-C , 18-C ) :   1.1650 B( 17-C , 36-H ) :   0.9187
B( 17-C , 37-H ) :   0.9333 B( 18-C , 38-H ) :   0.9354 B( 18-C , 39-H ) :   0.9360
B( 18-C , 40-H ) :   0.9443

Dispersion correction           -0.066503931
FINAL SINGLE POINT ENERGY     -2929.515883457831

DIPOLE MOMENT
-------------

Method             : SCF
Type of density    : Electron Density
Multiplicity       :   1
Irrep              :   0
Energy             : -2929.6346271758525290 Eh
Relativity type    :
Basis              : AO
                                X                 Y                 Z
Electronic contribution:     -4.699390611      -0.833960166       2.446976142
Nuclear contribution   :      4.628001094      -0.140933876      -2.263786909
                        -----------------------------------------
Total Dipole Moment    :     -0.071389517      -0.974894042       0.183189233
                        -----------------------------------------
Magnitude (a.u.)       :      0.994521569
Magnitude (Debye)      :      2.527872936

Rotational constants in cm-1:             0.012089             0.005126             0.004874
Rotational constants in MHz :           362.408454           153.687851           146.127869

                             ****ORCA TERMINATED NORMALLY****
TOTAL RUN TIME: 0 days 0 hours 0 minutes 20 seconds 882 msec
