                         Program Version 6.0.1  -  RELEASE   -
|  1> ! pbe def2-sv(p) def2/J RI DEFGRID1 loosescf d4 GCP(DFT/SV(P)) printgap
|  2> %output
|  3>     printlevel normal
|  4> end
|  5> * xyz 0 1
|  6> C 3.2607629454 -4.443293229 -0.7977442221
|  7> C 3.9426113664 -3.2012653059 -1.3492227316
|  8> O 3.573317817 -2.0357751182 -0.5872322721
|  9> C 2.4780162939 -1.3849870524 -0.9265765033
| 10> O 1.7651335289 -1.6723110318 -1.8616689749
| 11> C 2.2405552392 -0.2044826958 -0.00257486
| 12> C 0.7901861453 0.240154266 -0.0801217797
| 13> H 0.489198464 0.3246610224 -1.1333256197
| 14> C 0.4944533113 1.5667630568 0.5838411745
| 15> O -0.5597590229 1.775782751 1.1552095215
| 16> O 1.4487974502 2.4401010007 0.4486872408
| 17> C 1.230548385 3.7658835916 0.9855999944
| 18> C 2.4774543353 4.585098749 0.7226417823
| 19> S -0.316334279 -1.0030566427 0.6864149554
| 20> P -2.1633264015 -0.0676738051 0.2398415094
| 21> S -2.2461386692 1.1573793957 -1.2978691754
| 22> O -3.0702037913 -1.3714053813 0.0106387842
| 23> C -2.8720701694 -2.2084500029 -1.1302054653
| 24> O -2.9015798051 0.339732569 1.5805048692
| 25> C -3.2319732357 1.6734035977 1.9761739284
| 26> H 3.5073362609 -4.5708233206 0.2525398732
| 27> H 2.1815199012 -4.3514017384 -0.8976769488
| 28> H 3.5939988897 -5.3136626252 -1.3532079893
| 29> H 3.664492334 -3.0385701589 -2.3943247507
| 30> H 5.0261009869 -3.263041971 -1.2476331621
| 31> H 2.8850833324 0.6165850896 -0.3238444318
| 32> H 2.5162832723 -0.4905616786 1.0118501337
| 33> H 0.3498520324 4.1898600427 0.4943243124
| 34> H 1.0204612907 3.6706959035 2.054685001
| 35> H 3.3334589241 4.1337099183 1.214537389
| 36> H 2.6705644592 4.6385921838 -0.3443977656
| 37> H 2.3313843255 5.588208541 1.1088811008
| 38> H -2.9492740572 -1.618251437 -2.0455922251
| 39> H -3.6640058272 -2.9515024498 -1.0885535397
| 40> H -1.8933668308 -2.6891119641 -1.0867481051
| 41> H -4.2322667346 1.6221128893 2.4007332333
| 42> H -3.2176901153 2.3419519681 1.1138665707
| 43> H -2.5098084748 2.0138457495 2.7154338914
| 44> *
| 45>
| 46>                          ****END OF INPUT****

CARTESIAN COORDINATES (ANGSTROEM)
---------------------------------
  C      3.260763   -4.443293   -0.797744
  C      3.942611   -3.201265   -1.349223
  O      3.573318   -2.035775   -0.587232
  C      2.478016   -1.384987   -0.926577
  O      1.765134   -1.672311   -1.861669
  C      2.240555   -0.204483   -0.002575
  C      0.790186    0.240154   -0.080122
  H      0.489198    0.324661   -1.133326
  C      0.494453    1.566763    0.583841
  O     -0.559759    1.775783    1.155210
  O      1.448797    2.440101    0.448687
  C      1.230548    3.765884    0.985600
  C      2.477454    4.585099    0.722642
  S     -0.316334   -1.003057    0.686415
  P     -2.163326   -0.067674    0.239842
  S     -2.246139    1.157379   -1.297869
  O     -3.070204   -1.371405    0.010639
  C     -2.872070   -2.208450   -1.130205
  O     -2.901580    0.339733    1.580505
  C     -3.231973    1.673404    1.976174
  H      3.507336   -4.570823    0.252540
  H      2.181520   -4.351402   -0.897677
  H      3.593999   -5.313663   -1.353208
  H      3.664492   -3.038570   -2.394325
  H      5.026101   -3.263042   -1.247633
  H      2.885083    0.616585   -0.323844
  H      2.516283   -0.490562    1.011850
  H      0.349852    4.189860    0.494324
  H      1.020461    3.670696    2.054685
  H      3.333459    4.133710    1.214537
  H      2.670564    4.638592   -0.344398
  H      2.331384    5.588209    1.108881
  H     -2.949274   -1.618251   -2.045592
  H     -3.664006   -2.951502   -1.088554
  H     -1.893367   -2.689112   -1.086748
  H     -4.232267    1.622113    2.400733
  H     -3.217690    2.341952    1.113867
  H     -2.509808    2.013846    2.715434

 Total Charge           Charge          ....    0
 Multiplicity           Mult            ....    1
 Number of Electrons    NEL             ....  174
 Basis Dimension        Dim             ....  316

ORBITAL ENERGIES
----------------

  NO   OCC          E(Eh)            E(eV)
   0   2.0000     -88.030761     -2395.4388
   1   2.0000     -87.968788     -2393.7524
   2   2.0000     -76.413860     -2079.3269
   3   2.0000     -18.826298      -512.2896
   4   2.0000     -18.808690      -511.8105
   5   2.0000     -18.775300      -510.9019
   6   2.0000     -18.768140      -510.7070
   7   2.0000     -18.754267      -510.3296
   8   2.0000     -18.745847      -510.1004
   9   2.0000     -10.026632      -272.8385
  10   2.0000     -10.017048      -272.5777
  11   2.0000      -9.963248      -271.1138
  12   2.0000      -9.952963      -270.8339
  13   2.0000      -9.944473      -270.6029
  14   2.0000      -9.928908      -270.1793
  15   2.0000      -9.924738      -270.0658
  16   2.0000      -9.919639      -269.9271
  17   2.0000      -9.900648      -269.4103
  18   2.0000      -9.890643      -269.1381
  19   2.0000      -7.675816      -208.8696
  20   2.0000      -7.613924      -207.1854
  21   2.0000      -6.409660      -174.4157
  22   2.0000      -5.703692      -155.2053
  23   2.0000      -5.700630      -155.1220
  24   2.0000      -5.692523      -154.9014
  25   2.0000      -5.642993      -153.5536
  26   2.0000      -5.634762      -153.3297
  27   2.0000      -5.633695      -153.3006
  28   2.0000      -4.631962      -126.0421
  29   2.0000      -4.631844      -126.0389
  30   2.0000      -4.630279      -125.9963
  31   2.0000      -1.034726       -28.1563
  32   2.0000      -1.016959       -27.6729
  33   2.0000      -0.967747       -26.3337
  34   2.0000      -0.934724       -25.4351
  35   2.0000      -0.923055       -25.1176
  36   2.0000      -0.921936       -25.0872
  37   2.0000      -0.765777       -20.8379
  38   2.0000      -0.722217       -19.6525
  39   2.0000      -0.713666       -19.4198
  40   2.0000      -0.686836       -18.6898
  41   2.0000      -0.653852       -17.7922
  42   2.0000      -0.626855       -17.0576
  43   2.0000      -0.616600       -16.7785
  44   2.0000      -0.605631       -16.4800
  45   2.0000      -0.598648       -16.2900
  46   2.0000      -0.564436       -15.3591
  47   2.0000      -0.524578       -14.2745
  48   2.0000      -0.504029       -13.7153
  49   2.0000      -0.498417       -13.5626
  50   2.0000      -0.481436       -13.1005
  51   2.0000      -0.465854       -12.6765
  52   2.0000      -0.457510       -12.4495
  53   2.0000      -0.455432       -12.3929
  54   2.0000      -0.449563       -12.2332
  55   2.0000      -0.432229       -11.7615
  56   2.0000      -0.425234       -11.5712
  57   2.0000      -0.416221       -11.3260
  58   2.0000      -0.409374       -11.1396
  59   2.0000      -0.404043       -10.9946
  60   2.0000      -0.396030       -10.7765
  61   2.0000      -0.392443       -10.6789
  62   2.0000      -0.389048       -10.5865
  63   2.0000      -0.381443       -10.3796
  64   2.0000      -0.376150       -10.2356
  65   2.0000      -0.372256       -10.1296
  66   2.0000      -0.365882        -9.9562
  67   2.0000      -0.361525        -9.8376
  68   2.0000      -0.353294        -9.6136
  69   2.0000      -0.345323        -9.3967
  70   2.0000      -0.335032        -9.1167
  71   2.0000      -0.332257        -9.0412
  72   2.0000      -0.329713        -8.9719
  73   2.0000      -0.317790        -8.6475
  74   2.0000      -0.303924        -8.2702
  75   2.0000      -0.298580        -8.1248
  76   2.0000      -0.289656        -7.8819
  77   2.0000      -0.282672        -7.6919
  78   2.0000      -0.274737        -7.4760
  79   2.0000      -0.266837        -7.2610
  80   2.0000      -0.256344        -6.9755
  81   2.0000      -0.242526        -6.5995
  82   2.0000      -0.238153        -6.4805
  83   2.0000      -0.232127        -6.3165
  84   2.0000      -0.211285        -5.7494
  85   2.0000      -0.191365        -5.2073
  86   2.0000      -0.182730        -4.9723
  87   0.0000      -0.046295        -1.2597
  88   0.0000      -0.031872        -0.8673
  89   0.0000      -0.023528        -0.6402
  90   0.0000       0.013860         0.3772
  91   0.0000       0.029201         0.7946

MULLIKEN ATOMIC CHARGES
-----------------------
   0 C :   -0.304992
   1 C :   -0.014035
   2 O :   -0.230301
   3 C :    0.134818
   4 O :   -0.193978
   5 C :   -0.123077
   6 C :   -0.316765
   7 H :    0.169086
   8 C :    0.245101
   9 O :   -0.196249
  10 O :   -0.222298
  11 C :   -0.032511
  12 C :   -0.275413
  13 S :   -0.099944
  14 P :    0.629925
  15 S :   -0.357341
  16 O :   -0.373817
  17 C :   -0.100399
  18 O :   -0.367239
  19 C :   -0.083217
  20 H :    0.115805
  21 H :    0.130640
  22 H :    0.115030
  23 H :    0.111010
  24 H :    0.104649
  25 H :    0.137753
  26 H :    0.116694
  27 H :    0.121108
  28 H :    0.112162
  29 H :    0.117953
  30 H :    0.122247
  31 H :    0.117418
  32 H :    0.113206
  33 H :    0.118069
  34 H :    0.112923
  35 H :    0.116992
  36 H :    0.114670
  37 H :    0.114318
Sum of atomic charges:   -0.0000000

LOEWDIN ATOMIC CHARGES
----------------------
   0 C :   -0.355262
   1 C :   -0.110620
   2 O :   -0.060087
   3 C :    0.031240
   4 O :   -0.157150
   5 C :   -0.255394
   6 C :   -0.269127
   7 H :    0.151240
   8 C :    0.024461
   9 O :   -0.155826
  10 O :   -0.039966
  11 C :   -0.102250
  12 C :   -0.350429
  13 S :    0.100371
  14 P :    0.589042
  15 S :   -0.343832
  16 O :   -0.258966
  17 C :   -0.222042
  18 O :   -0.237907
  19 C :   -0.207267
  20 H :    0.125748
  21 H :    0.132318
  22 H :    0.131679
  23 H :    0.121008
  24 H :    0.118567
  25 H :    0.154529
  26 H :    0.139435
  27 H :    0.124865
  28 H :    0.120239
  29 H :    0.127900
  30 H :    0.130163
  31 H :    0.134406
  32 H :    0.108495
  33 H :    0.118529
  34 H :    0.104829
  35 H :    0.116092
  36 H :    0.108744
  37 H :    0.112226

  Mayer bond orders larger than 0.100000
B(  0-C ,  1-C ) :   1.1753 B(  0-C , 20-H ) :   0.9487 B(  0-C , 21-H ) :   0.9458
B(  0-C , 22-H ) :   0.9439 B(  1-C ,  2-O ) :   0.9113 B(  1-C , 23-H ) :   0.9135
B(  1-C , 24-H ) :   0.9372 B(  2-O ,  3-C ) :   1.2434 B(  3-C ,  4-O ) :   2.0418
B(  3-C ,  5-C ) :   0.9955 B(  5-C ,  6-C ) :   1.0929 B(  5-C , 25-H ) :   0.8683
B(  5-C , 26-H ) :   0.9030 B(  6-C ,  7-H ) :   0.8230 B(  6-C ,  8-C ) :   0.9156
B(  6-C , 13-S ) :   1.0257 B(  8-C ,  9-O ) :   1.9523 B(  8-C , 10-O ) :   1.2801
B( 10-O , 11-C ) :   0.8878 B( 11-C , 12-C ) :   1.1550 B( 11-C , 27-H ) :   0.9309
B( 11-C , 28-H ) :   0.9308 B( 12-C , 29-H ) :   0.9498 B( 12-C , 30-H ) :   0.9489
B( 12-C , 31-H ) :   0.9421 B( 13-S , 14-P ) :   0.9337 B( 13-S , 15-S ) :   0.1158
B( 14-P , 15-S ) :   1.5711 B( 14-P , 16-O ) :   1.0882 B( 14-P , 18-O ) :   1.1406
B( 16-O , 17-C ) :   0.9450 B( 17-C , 32-H ) :   0.9370 B( 17-C , 33-H ) :   0.9593
B( 17-C , 34-H ) :   0.9403 B( 18-O , 19-C ) :   0.9272 B( 19-C , 35-H ) :   0.9546
B( 19-C , 36-H ) :   0.9340 B( 19-C , 37-H ) :   0.9539

Dispersion correction           -0.049331442
FINAL SINGLE POINT ENERGY     -1979.017075071131

DIPOLE MOMENT
-------------

Method             : SCF
Type of density    : Electron Density
Multiplicity       :   1
Irrep              :   0
Energy             : -1979.1491042523271062 Eh
Relativity type    :
Basis              : AO
                                X                 Y                 Z
Electronic contribution:    -14.293499984      -0.455763791       0.397838995
Nuclear contribution   :     16.180417546       0.848778695       0.238079875
                        -----------------------------------------
Total Dipole Moment    :      1.886917561       0.393014905       0.635918871
                        -----------------------------------------
Magnitude (a.u.)       :      2.029608684
Magnitude (Debye)      :      5.158855293

Rotational constants in cm-1:             0.010670             0.007143             0.004844
Rotational constants in MHz :           319.893382           214.140509           145.209668

                             ****ORCA TERMINATED NORMALLY****
TOTAL RUN TIME: 0 days 0 hours 0 minutes 31 seconds 40 msec
