                         Program Version 6.0.0  -   RELEASE  -
|  1> ! pbe def2-sv(p) def2/J RI DEFGRID1 loosescf d4 GCP(DFT/SV(P)) printgap
|  2> %output
|  3>     printlevel normal
|  4> end
|  5> * xyz 0 1
|  6> C 1.5895371885 3.4746895199 1.0709838225
|  7> C 2.0843252789 2.0963760092 1.4562925023
|  8> O 1.7194454722 1.1691960874 0.4043979887
|  9> P 1.6775714348 -0.3793320652 0.7178408459
| 10> S 0.541523759 -0.9627561294 2.2136666794
| 11> O 3.2282180313 -0.6489133491 0.9891844079
| 12> C 3.7067646835 -1.9237421852 1.4553218893
| 13> C 5.0679450329 -1.7128500941 2.0876481637
| 14> S 1.3423746248 -1.2554788906 -1.1669135635
| 15> C -0.1945962161 -2.1760064278 -0.8441680838
| 16> S -1.626872777 -1.6401306498 -1.8304608396
| 17> P -2.1239218173 0.1562766587 -0.8504800307
| 18> S -3.6949731203 1.1315008963 -1.4907982779
| 19> O -0.7697801145 1.0098672312 -0.8277809228
| 20> C -0.490640423 1.9871639204 -1.8462074184
| 21> C -0.3263105784 1.3636728752 -3.2175743899
| 22> O -2.1982489621 -0.3852325696 0.6375490193
| 23> C -2.9043793296 0.3213059597 1.676910726
| 24> C -2.2560008572 1.6499460469 2.0010900594
| 25> H 2.0479896318 3.7887958333 0.1377458954
| 26> H 0.5091781245 3.467410218 0.9521007753
| 27> H 1.8564223758 4.1772880046 1.8540137863
| 28> H 1.6312626613 1.75709199 2.3945161353
| 29> H 3.1716802386 2.0744688217 1.5584082968
| 30> H 2.9883300418 -2.3237116984 2.1793024018
| 31> H 3.7665670448 -2.5983822271 0.5971803168
| 32> H 4.9852860402 -1.0501720358 2.9445704786
| 33> H 5.4607581061 -2.6703519196 2.4133950765
| 34> H 5.7476479164 -1.2718782197 1.3643411622
| 35> H -0.4326470607 -2.1046103108 0.219435486
| 36> H -0.0261600372 -3.2065012189 -1.1452903423
| 37> H -1.3101030593 2.7128419032 -1.853534593
| 38> H 0.4316353982 2.4598356655 -1.5072013049
| 39> H 0.4588136241 0.6111256552 -3.2064065192
| 40> H -1.2609731302 0.8950237558 -3.5268341104
| 41> H -0.0698176252 2.1393155624 -3.9320865833
| 42> H -3.9397099933 0.4633518181 1.3522297983
| 43> H -2.864678106 -0.3635220395 2.5253562616
| 44> H -2.7652958831 2.1030534814 2.8455320335
| 45> H -1.2083615637 1.498055269 2.2508655946
| 46> H -2.3269432933 2.3155705267 1.1413442707
| 47> *
| 48>
| 49>                          ****END OF INPUT****

CARTESIAN COORDINATES (ANGSTROEM)
---------------------------------
  C      1.589537    3.474690    1.070984
  C      2.084325    2.096376    1.456293
  O      1.719445    1.169196    0.404398
  P      1.677571   -0.379332    0.717841
  S      0.541524   -0.962756    2.213667
  O      3.228218   -0.648913    0.989184
  C      3.706765   -1.923742    1.455322
  C      5.067945   -1.712850    2.087648
  S      1.342375   -1.255479   -1.166914
  C     -0.194596   -2.176006   -0.844168
  S     -1.626873   -1.640131   -1.830461
  P     -2.123922    0.156277   -0.850480
  S     -3.694973    1.131501   -1.490798
  O     -0.769780    1.009867   -0.827781
  C     -0.490640    1.987164   -1.846207
  C     -0.326311    1.363673   -3.217574
  O     -2.198249   -0.385233    0.637549
  C     -2.904379    0.321306    1.676911
  C     -2.256001    1.649946    2.001090
  H      2.047990    3.788796    0.137746
  H      0.509178    3.467410    0.952101
  H      1.856422    4.177288    1.854014
  H      1.631263    1.757092    2.394516
  H      3.171680    2.074469    1.558408
  H      2.988330   -2.323712    2.179302
  H      3.766567   -2.598382    0.597180
  H      4.985286   -1.050172    2.944570
  H      5.460758   -2.670352    2.413395
  H      5.747648   -1.271878    1.364341
  H     -0.432647   -2.104610    0.219435
  H     -0.026160   -3.206501   -1.145290
  H     -1.310103    2.712842   -1.853535
  H      0.431635    2.459836   -1.507201
  H      0.458814    0.611126   -3.206407
  H     -1.260973    0.895024   -3.526834
  H     -0.069818    2.139316   -3.932087
  H     -3.939710    0.463352    1.352230
  H     -2.864678   -0.363522    2.525356
  H     -2.765296    2.103053    2.845532
  H     -1.208362    1.498055    2.250866
  H     -2.326943    2.315571    1.141344

 Total Charge           Charge          ....    0
 Multiplicity           Mult            ....    1
 Number of Electrons    NEL             ....  202
 Basis Dimension        Dim             ....  334

ORBITAL ENERGIES
----------------

  NO   OCC          E(Eh)            E(eV)
   0   2.0000     -88.050452     -2395.9746
   1   2.0000     -88.040074     -2395.6922
   2   2.0000     -87.993748     -2394.4316
   3   2.0000     -87.984202     -2394.1719
   4   2.0000     -76.431072     -2079.7952
   5   2.0000     -76.421127     -2079.5246
   6   2.0000     -18.796718      -511.4847
   7   2.0000     -18.795088      -511.4403
   8   2.0000     -18.784086      -511.1410
   9   2.0000     -18.783986      -511.1382
  10   2.0000      -9.959256      -271.0051
  11   2.0000      -9.957809      -270.9658
  12   2.0000      -9.954470      -270.8749
  13   2.0000      -9.944755      -270.6105
  14   2.0000      -9.943120      -270.5661
  15   2.0000      -9.894134      -269.2331
  16   2.0000      -9.891679      -269.1663
  17   2.0000      -9.875839      -268.7352
  18   2.0000      -9.874238      -268.6917
  19   2.0000      -7.695480      -209.4047
  20   2.0000      -7.685625      -209.1365
  21   2.0000      -7.638496      -207.8540
  22   2.0000      -7.629390      -207.6063
  23   2.0000      -6.428896      -174.9392
  24   2.0000      -6.418909      -174.6674
  25   2.0000      -5.723389      -155.7413
  26   2.0000      -5.719959      -155.6480
  27   2.0000      -5.713897      -155.4830
  28   2.0000      -5.712409      -155.4426
  29   2.0000      -5.709830      -155.3724
  30   2.0000      -5.702424      -155.1708
  31   2.0000      -5.667185      -154.2119
  32   2.0000      -5.659488      -154.0025
  33   2.0000      -5.658472      -153.9748
  34   2.0000      -5.658319      -153.9707
  35   2.0000      -5.650107      -153.7472
  36   2.0000      -5.649435      -153.7289
  37   2.0000      -4.651341      -126.5694
  38   2.0000      -4.650573      -126.5485
  39   2.0000      -4.649494      -126.5192
  40   2.0000      -4.641217      -126.2939
  41   2.0000      -4.640855      -126.2841
  42   2.0000      -4.639449      -126.2458
  43   2.0000      -0.992603       -27.0101
  44   2.0000      -0.978716       -26.6322
  45   2.0000      -0.947881       -25.7932
  46   2.0000      -0.938100       -25.5270
  47   2.0000      -0.763576       -20.7780
  48   2.0000      -0.725623       -19.7452
  49   2.0000      -0.706583       -19.2271
  50   2.0000      -0.694576       -18.9004
  51   2.0000      -0.679096       -18.4792
  52   2.0000      -0.674629       -18.3576
  53   2.0000      -0.653081       -17.7712
  54   2.0000      -0.640016       -17.4157
  55   2.0000      -0.598213       -16.2782
  56   2.0000      -0.589887       -16.0516
  57   2.0000      -0.575156       -15.6508
  58   2.0000      -0.565639       -15.3918
  59   2.0000      -0.560578       -15.2541
  60   2.0000      -0.514395       -13.9974
  61   2.0000      -0.487824       -13.2744
  62   2.0000      -0.484387       -13.1808
  63   2.0000      -0.464338       -12.6353
  64   2.0000      -0.454273       -12.3614
  65   2.0000      -0.445524       -12.1233
  66   2.0000      -0.443795       -12.0763
  67   2.0000      -0.437072       -11.8933
  68   2.0000      -0.431368       -11.7381
  69   2.0000      -0.416290       -11.3278
  70   2.0000      -0.407968       -11.1014
  71   2.0000      -0.395555       -10.7636
  72   2.0000      -0.391885       -10.6637
  73   2.0000      -0.387640       -10.5482
  74   2.0000      -0.385494       -10.4898
  75   2.0000      -0.377460       -10.2712
  76   2.0000      -0.363343        -9.8871
  77   2.0000      -0.361164        -9.8278
  78   2.0000      -0.358053        -9.7431
  79   2.0000      -0.346707        -9.4344
  80   2.0000      -0.345309        -9.3963
  81   2.0000      -0.342831        -9.3289
  82   2.0000      -0.340114        -9.2550
  83   2.0000      -0.335921        -9.1409
  84   2.0000      -0.325873        -8.8675
  85   2.0000      -0.317309        -8.6344
  86   2.0000      -0.314847        -8.5674
  87   2.0000      -0.303319        -8.2537
  88   2.0000      -0.300721        -8.1830
  89   2.0000      -0.290966        -7.9176
  90   2.0000      -0.282479        -7.6866
  91   2.0000      -0.274592        -7.4720
  92   2.0000      -0.268679        -7.3111
  93   2.0000      -0.266456        -7.2506
  94   2.0000      -0.258731        -7.0404
  95   2.0000      -0.230236        -6.2650
  96   2.0000      -0.221137        -6.0174
  97   2.0000      -0.212829        -5.7914
  98   2.0000      -0.208029        -5.6608
  99   2.0000      -0.203031        -5.5248
 100   2.0000      -0.199556        -5.4302
 101   0.0000      -0.042610        -1.1595
 102   0.0000      -0.026184        -0.7125
 103   0.0000      -0.019771        -0.5380
 104   0.0000       0.000520         0.0141
 105   0.0000       0.010858         0.2955

MULLIKEN ATOMIC CHARGES
-----------------------
   0 C :   -0.298983
   1 C :   -0.015503
   2 O :   -0.364041
   3 P :    0.628765
   4 S :   -0.323033
   5 O :   -0.388382
   6 C :   -0.007580
   7 C :   -0.282003
   8 S :   -0.078896
   9 C :   -0.368108
  10 S :   -0.074427
  11 P :    0.612697
  12 S :   -0.323076
  13 O :   -0.377854
  14 C :   -0.013467
  15 C :   -0.318225
  16 O :   -0.372552
  17 C :    0.013292
  18 C :   -0.336845
  19 H :    0.123619
  20 H :    0.137514
  21 H :    0.115115
  22 H :    0.109148
  23 H :    0.107924
  24 H :    0.103173
  25 H :    0.097399
  26 H :    0.116469
  27 H :    0.112830
  28 H :    0.116689
  29 H :    0.217945
  30 H :    0.184274
  31 H :    0.106770
  32 H :    0.108803
  33 H :    0.125240
  34 H :    0.122333
  35 H :    0.106530
  36 H :    0.110374
  37 H :    0.104024
  38 H :    0.107043
  39 H :    0.132612
  40 H :    0.122391
Sum of atomic charges:   -0.0000000

LOEWDIN ATOMIC CHARGES
----------------------
   0 C :   -0.352386
   1 C :   -0.115120
   2 O :   -0.234756
   3 P :    0.574720
   4 S :   -0.297792
   5 O :   -0.255875
   6 C :   -0.123614
   7 C :   -0.350724
   8 S :    0.100492
   9 C :   -0.480493
  10 S :    0.090324
  11 P :    0.569930
  12 S :   -0.320246
  13 O :   -0.246434
  14 C :   -0.125487
  15 C :   -0.372869
  16 O :   -0.240250
  17 C :   -0.113274
  18 C :   -0.372667
  19 H :    0.126851
  20 H :    0.131882
  21 H :    0.132813
  22 H :    0.109001
  23 H :    0.113995
  24 H :    0.105320
  25 H :    0.108272
  26 H :    0.126847
  27 H :    0.131242
  28 H :    0.126659
  29 H :    0.128105
  30 H :    0.139490
  31 H :    0.107611
  32 H :    0.114701
  33 H :    0.117453
  34 H :    0.118762
  35 H :    0.128535
  36 H :    0.110798
  37 H :    0.119264
  38 H :    0.128466
  39 H :    0.121014
  40 H :    0.119443

  Mayer bond orders larger than 0.100000
B(  0-C ,  1-C ) :   1.1674 B(  0-C , 19-H ) :   0.9425 B(  0-C , 20-H ) :   0.9434
B(  0-C , 21-H ) :   0.9391 B(  1-C ,  2-O ) :   0.8994 B(  1-C , 22-H ) :   0.9065
B(  1-C , 23-H ) :   0.9298 B(  2-O ,  3-P ) :   1.1358 B(  3-P ,  4-S ) :   1.6170
B(  3-P ,  5-O ) :   1.0773 B(  3-P ,  8-S ) :   0.9748 B(  4-S ,  8-S ) :   0.1217
B(  5-O ,  6-C ) :   0.9120 B(  6-C ,  7-C ) :   1.1612 B(  6-C , 24-H ) :   0.9058
B(  6-C , 25-H ) :   0.9276 B(  7-C , 26-H ) :   0.9514 B(  7-C , 27-H ) :   0.9421
B(  7-C , 28-H ) :   0.9511 B(  8-S ,  9-C ) :   0.9956 B(  9-C , 10-S ) :   0.9911
B(  9-C , 29-H ) :   0.8467 B(  9-C , 30-H ) :   0.9114 B( 10-S , 11-P ) :   0.9734
B( 11-P , 12-S ) :   1.6289 B( 11-P , 13-O ) :   1.0763 B( 11-P , 16-O ) :   1.1185
B( 13-O , 14-C ) :   0.9052 B( 14-C , 15-C ) :   1.1676 B( 14-C , 31-H ) :   0.9181
B( 14-C , 32-H ) :   0.9175 B( 15-C , 33-H ) :   0.9367 B( 15-C , 34-H ) :   0.9327
B( 15-C , 35-H ) :   0.9378 B( 16-O , 17-C ) :   0.9008 B( 17-C , 18-C ) :   1.1655
B( 17-C , 36-H ) :   0.9209 B( 17-C , 37-H ) :   0.9315 B( 18-C , 38-H ) :   0.9364
B( 18-C , 39-H ) :   0.9325 B( 18-C , 40-H ) :   0.9320

Dispersion correction           -0.068043409
FINAL SINGLE POINT ENERGY     -2929.521827899494

DIPOLE MOMENT
-------------

Method             : SCF
Type of density    : Electron Density
Multiplicity       :   1
Irrep              :   0
Energy             : -2929.6422222634719219 Eh
Relativity type    :
Basis              : AO
                                X                 Y                 Z
Electronic contribution:    -14.511806934     -14.002857342     -10.300213462
Nuclear contribution   :     16.336675917      14.249652917      11.046489339
                        -----------------------------------------
Total Dipole Moment    :      1.824868982       0.246795575       0.746275877
                        -----------------------------------------
Magnitude (a.u.)       :      1.986953080
Magnitude (Debye)      :      5.050433365

Rotational constants in cm-1:             0.011903             0.005709             0.005339
Rotational constants in MHz :           356.835812           171.155280           160.072805

                             ****ORCA TERMINATED NORMALLY****
TOTAL RUN TIME: 0 days 0 hours 0 minutes 22 seconds 242 msec
