                         Program Version 6.0.0  -   RELEASE  -
|  1> ! pbe def2-sv(p) def2/J RI DEFGRID1 loosescf d4 GCP(DFT/SV(P)) printgap
|  2> %output
|  3>     printlevel normal
|  4> end
|  5> * xyz 0 1
|  6> C 1.4780430086 0.5708931661 3.3683e-05
|  7> C 0.6729092876 -0.7216118458 -5.863e-05
|  8> C -0.8006290305 -0.4971122861 6.97345e-05
|  9> O -1.3561072434 0.5749198085 -3.56676e-05
| 10> H 2.5424023276 0.3566286749 -0.0011081679
| 11> H 1.2376017684 1.163067094 0.8795385483
| 12> H 1.2359359935 1.1642836887 -0.8782052829
| 13> H 0.9083652853 -1.3304590212 -0.8766530161
| 14> H 0.9085855377 -1.3308185194 0.8762265732
| 15> H -1.3975190645 -1.4289831638 0.0002338175
| 16> *
| 17>
| 18>                          ****END OF INPUT****

CARTESIAN COORDINATES (ANGSTROEM)
---------------------------------
  C      1.478043    0.570893    0.000034
  C      0.672909   -0.721612   -0.000059
  C     -0.800629   -0.497112    0.000070
  O     -1.356107    0.574920   -0.000036
  H      2.542402    0.356629   -0.001108
  H      1.237602    1.163067    0.879539
  H      1.235936    1.164284   -0.878205
  H      0.908365   -1.330459   -0.876653
  H      0.908586   -1.330819    0.876227
  H     -1.397519   -1.428983    0.000234

 Total Charge           Charge          ....    0
 Multiplicity           Mult            ....    1
 Number of Electrons    NEL             ....   32
 Basis Dimension        Dim             ....   68

ORBITAL ENERGIES
----------------

  NO   OCC          E(Eh)            E(eV)
   0   2.0000     -18.751406      -510.2517
   1   2.0000      -9.972072      -271.3539
   2   2.0000      -9.902953      -269.4730
   3   2.0000      -9.882138      -268.9066
   4   2.0000      -0.945622       -25.7317
   5   2.0000      -0.711165       -19.3518
   6   2.0000      -0.599635       -16.3169
   7   2.0000      -0.492344       -13.3974
   8   2.0000      -0.437513       -11.9053
   9   2.0000      -0.425432       -11.5766
  10   2.0000      -0.380441       -10.3523
  11   2.0000      -0.343002        -9.3336
  12   2.0000      -0.338128        -9.2009
  13   2.0000      -0.325145        -8.8477
  14   2.0000      -0.311649        -8.4804
  15   2.0000      -0.205822        -5.6007
  16   0.0000      -0.057966        -1.5773
  17   0.0000       0.038488         1.0473
  18   0.0000       0.070231         1.9111
  19   0.0000       0.085875         2.3368
  20   0.0000       0.101959         2.7744

MULLIKEN ATOMIC CHARGES
-----------------------
   0 C :   -0.279221
   1 C :   -0.195791
   2 C :    0.012081
   3 O :   -0.163992
   4 H :    0.104860
   5 H :    0.116549
   6 H :    0.116581
   7 H :    0.116291
   8 H :    0.116287
   9 H :    0.056355
Sum of atomic charges:    0.0000000

LOEWDIN ATOMIC CHARGES
----------------------
   0 C :   -0.339443
   1 C :   -0.280242
   2 C :    0.003320
   3 O :   -0.120357
   4 H :    0.121865
   5 H :    0.127059
   6 H :    0.127067
   7 H :    0.141773
   8 H :    0.141757
   9 H :    0.077200

  Mayer bond orders larger than 0.100000
B(  0-C ,  1-C ) :   1.1425 B(  0-C ,  4-H ) :   0.9510 B(  0-C ,  5-H ) :   0.9560
B(  0-C ,  6-H ) :   0.9560 B(  1-C ,  2-C ) :   0.9938 B(  1-C ,  7-H ) :   0.8981
B(  1-C ,  8-H ) :   0.8981 B(  2-C ,  3-O ) :   2.1888 B(  2-C ,  9-H ) :   0.9133

Dispersion correction           -0.005323231
FINAL SINGLE POINT ENERGY      -192.707370795338

DIPOLE MOMENT
-------------

Method             : SCF
Type of density    : Electron Density
Multiplicity       :   1
Irrep              :   0
Energy             :  -192.7422068445929995 Eh
Relativity type    :
Basis              : AO
                                X                 Y                 Z
Electronic contribution:     -4.457189814       0.599385849      -0.000026741
Nuclear contribution   :      5.079162500      -1.310789896       0.000029934
                        -----------------------------------------
Total Dipole Moment    :      0.621972686      -0.711404047       0.000003194
                        -----------------------------------------
Magnitude (a.u.)       :      0.944958063
Magnitude (Debye)      :      2.401892515

Rotational constants in cm-1:             0.561600             0.198005             0.154738
Rotational constants in MHz :         16836.347617          5936.055081          4638.940060

                             ****ORCA TERMINATED NORMALLY****
TOTAL RUN TIME: 0 days 0 hours 0 minutes 4 seconds 127 msec
