                         Program Version 6.0.0  -   RELEASE  -
|  1> ! pbe def2-sv(p) def2/J RI DEFGRID1 loosescf d4 GCP(DFT/SV(P)) printgap
|  2> %output
|  3>     printlevel normal
|  4> end
|  5> * xyz 0 1
|  6> C -3.9890514558 -0.6924548949 -0.0004426321
|  7> C -3.9888655387 0.6966608988 -0.0019977077
|  8> C -2.7917209045 1.3842553437 -0.0019340215
|  9> C -1.5780743009 0.6958130892 -0.0004674683
| 10> C -1.5768585521 -0.7031734983 0.000495205
| 11> C -2.7931948443 -1.3839691985 0.0006734759
| 12> C -0.3223127306 -1.4749736524 0.0009547659
| 13> O -0.3764754466 -2.7183541312 0.0017366459
| 14> C 0.9199655371 -0.7346866261 0.0002503317
| 15> C 2.1574010829 -1.4273658502 -0.0007484127
| 16> C 3.3630838157 -0.675457852 -0.0025136374
| 17> C 3.3528721195 0.6829254135 -0.0019679829
| 18> C 2.1325198128 1.3939040514 0.0002823724
| 19> C 0.9174897748 0.6915189428 0.000523811
| 20> C -0.322748452 1.4479992686 0.0004691391
| 21> O -0.3394379447 2.6946482767 0.001928045
| 22> O 2.2166478261 2.7256321676 0.0014512065
| 23> N 2.2344701099 -2.7607811305 0.0003393217
| 24> H -4.9227194973 -1.2328084383 -4.78149e-05
| 25> H -4.9214692166 1.2386596229 -0.0031277993
| 26> H -2.7643388226 2.4639466573 -0.0030528837
| 27> H -2.769908331 -2.4636528211 0.0014891551
| 28> H 4.299328405 -1.2114953042 -0.004198644
| 29> H 4.2631398653 1.2606330514 -0.003317566
| 30> H 1.2969696183 3.1028057595 0.0023759248
| 31> H 1.370116485 -3.2896787229 0.0012391728
| 32> H 3.1321606566 -3.2126135659 -0.0007456746
| 33> *
| 34>
| 35>                          ****END OF INPUT****

CARTESIAN COORDINATES (ANGSTROEM)
---------------------------------
  C     -3.989051   -0.692455   -0.000443
  C     -3.988866    0.696661   -0.001998
  C     -2.791721    1.384255   -0.001934
  C     -1.578074    0.695813   -0.000467
  C     -1.576859   -0.703173    0.000495
  C     -2.793195   -1.383969    0.000673
  C     -0.322313   -1.474974    0.000955
  O     -0.376475   -2.718354    0.001737
  C      0.919966   -0.734687    0.000250
  C      2.157401   -1.427366   -0.000748
  C      3.363084   -0.675458   -0.002514
  C      3.352872    0.682925   -0.001968
  C      2.132520    1.393904    0.000282
  C      0.917490    0.691519    0.000524
  C     -0.322748    1.447999    0.000469
  O     -0.339438    2.694648    0.001928
  O      2.216648    2.725632    0.001451
  N      2.234470   -2.760781    0.000339
  H     -4.922719   -1.232808   -0.000048
  H     -4.921469    1.238660   -0.003128
  H     -2.764339    2.463947   -0.003053
  H     -2.769908   -2.463653    0.001489
  H      4.299328   -1.211495   -0.004199
  H      4.263140    1.260633   -0.003318
  H      1.296970    3.102806    0.002376
  H      1.370116   -3.289679    0.001239
  H      3.132161   -3.212614   -0.000746

 Total Charge           Charge          ....    0
 Multiplicity           Mult            ....    1
 Number of Electrons    NEL             ....  124
 Basis Dimension        Dim             ....  270

ORBITAL ENERGIES
----------------

  NO   OCC          E(Eh)            E(eV)
   0   2.0000     -18.778795      -510.9970
   1   2.0000     -18.749174      -510.1910
   2   2.0000     -18.738423      -509.8984
   3   2.0000     -14.016435      -381.4066
   4   2.0000      -9.978803      -271.5370
   5   2.0000      -9.971553      -271.3398
   6   2.0000      -9.968277      -271.2506
   7   2.0000      -9.960583      -271.0412
   8   2.0000      -9.917792      -269.8769
   9   2.0000      -9.912818      -269.7415
  10   2.0000      -9.912467      -269.7319
  11   2.0000      -9.912150      -269.7233
  12   2.0000      -9.911760      -269.7127
  13   2.0000      -9.911567      -269.7074
  14   2.0000      -9.907765      -269.6040
  15   2.0000      -9.906777      -269.5771
  16   2.0000      -9.904066      -269.5033
  17   2.0000      -9.903033      -269.4752
  18   2.0000      -0.973007       -26.4769
  19   2.0000      -0.934387       -25.4260
  20   2.0000      -0.932075       -25.3631
  21   2.0000      -0.862342       -23.4655
  22   2.0000      -0.796317       -21.6689
  23   2.0000      -0.776462       -21.1286
  24   2.0000      -0.727681       -19.8012
  25   2.0000      -0.687878       -18.7181
  26   2.0000      -0.686511       -18.6809
  27   2.0000      -0.668583       -18.1931
  28   2.0000      -0.615590       -16.7511
  29   2.0000      -0.594908       -16.1883
  30   2.0000      -0.583226       -15.8704
  31   2.0000      -0.553613       -15.0646
  32   2.0000      -0.528994       -14.3946
  33   2.0000      -0.517923       -14.0934
  34   2.0000      -0.495226       -13.4758
  35   2.0000      -0.486305       -13.2330
  36   2.0000      -0.476720       -12.9722
  37   2.0000      -0.442390       -12.0381
  38   2.0000      -0.432177       -11.7601
  39   2.0000      -0.424162       -11.5420
  40   2.0000      -0.419630       -11.4187
  41   2.0000      -0.406852       -11.0710
  42   2.0000      -0.388511       -10.5719
  43   2.0000      -0.387298       -10.5389
  44   2.0000      -0.382819       -10.4170
  45   2.0000      -0.380322       -10.3491
  46   2.0000      -0.368852       -10.0370
  47   2.0000      -0.368636       -10.0311
  48   2.0000      -0.365222        -9.9382
  49   2.0000      -0.348634        -9.4868
  50   2.0000      -0.334125        -9.0920
  51   2.0000      -0.323872        -8.8130
  52   2.0000      -0.323589        -8.8053
  53   2.0000      -0.318100        -8.6559
  54   2.0000      -0.307704        -8.3730
  55   2.0000      -0.264889        -7.2080
  56   2.0000      -0.250463        -6.8154
  57   2.0000      -0.242188        -6.5903
  58   2.0000      -0.239816        -6.5257
  59   2.0000      -0.221359        -6.0235
  60   2.0000      -0.207289        -5.6406
  61   2.0000      -0.179692        -4.8897
  62   0.0000      -0.124093        -3.3767
  63   0.0000      -0.076994        -2.0951
  64   0.0000      -0.053362        -1.4520
  65   0.0000      -0.025267        -0.6875
  66   0.0000       0.018583         0.5057

MULLIKEN ATOMIC CHARGES
-----------------------
   0 C :   -0.017354
   1 C :   -0.021178
   2 C :   -0.126198
   3 C :    0.047388
   4 C :    0.047617
   5 C :   -0.132170
   6 C :    0.056071
   7 O :   -0.225106
   8 C :    0.059629
   9 C :    0.019164
  10 C :   -0.109698
  11 C :   -0.111171
  12 C :    0.091416
  13 C :    0.016441
  14 C :    0.064483
  15 O :   -0.237406
  16 O :   -0.294536
  17 N :   -0.255755
  18 H :    0.061816
  19 H :    0.061700
  20 H :    0.059272
  21 H :    0.058256
  22 H :    0.034414
  23 H :    0.057386
  24 H :    0.321159
  25 H :    0.252502
  26 H :    0.221858
Sum of atomic charges:   -0.0000000

LOEWDIN ATOMIC CHARGES
----------------------
   0 C :   -0.105400
   1 C :   -0.109010
   2 C :   -0.085220
   3 C :   -0.050020
   4 C :   -0.042527
   5 C :   -0.088028
   6 C :    0.050147
   7 O :   -0.186395
   8 C :   -0.091687
   9 C :    0.022245
  10 C :   -0.121538
  11 C :   -0.112376
  12 C :    0.044674
  13 C :   -0.095368
  14 C :    0.061073
  15 O :   -0.184648
  16 O :   -0.208935
  17 N :   -0.260730
  18 H :    0.128359
  19 H :    0.128427
  20 H :    0.135719
  21 H :    0.135253
  22 H :    0.127877
  23 H :    0.139504
  24 H :    0.292149
  25 H :    0.244138
  26 H :    0.232316

  Mayer bond orders larger than 0.100000
B(  0-C ,  1-C ) :   1.3208 B(  0-C ,  5-C ) :   1.3406 B(  0-C , 18-H ) :   0.9665
B(  1-C ,  2-C ) :   1.3461 B(  1-C , 19-H ) :   0.9664 B(  2-C ,  3-C ) :   1.3654
B(  2-C , 20-H ) :   0.9571 B(  3-C ,  4-C ) :   1.3339 B(  3-C , 14-C ) :   1.0089
B(  4-C ,  5-C ) :   1.3779 B(  4-C ,  6-C ) :   0.9785 B(  5-C , 21-H ) :   0.9546
B(  6-C ,  7-O ) :   1.9762 B(  6-C ,  8-C ) :   1.0363 B(  7-O , 25-H ) :   0.1265
B(  8-C ,  9-C ) :   1.2348 B(  8-C , 13-C ) :   1.2819 B(  9-C , 10-C ) :   1.1776
B(  9-C , 17-N ) :   1.4640 B( 10-C , 11-C ) :   1.4215 B( 10-C , 22-H ) :   0.9659
B( 11-C , 12-C ) :   1.2384 B( 11-C , 23-H ) :   0.9637 B( 12-C , 13-C ) :   1.2085
B( 12-C , 16-O ) :   1.3681 B( 13-C , 14-C ) :   1.0183 B( 14-C , 15-O ) :   1.9281
B( 15-O , 24-H ) :   0.1712 B( 16-O , 24-H ) :   0.7306 B( 17-N , 25-H ) :   0.7864
B( 17-N , 26-H ) :   0.8577

Dispersion correction           -0.040443834
FINAL SINGLE POINT ENERGY      -817.729887146692

DIPOLE MOMENT
-------------

Method             : SCF
Type of density    : Electron Density
Multiplicity       :   1
Irrep              :   0
Energy             :  -817.8069850078327363 Eh
Relativity type    :
Basis              : AO
                                X                 Y                 Z
Electronic contribution:      1.414601659       2.230561824       0.006296833
Nuclear contribution   :     -0.919363128      -3.112616523      -0.008728214
                        -----------------------------------------
Total Dipole Moment    :      0.495238531      -0.882054699      -0.002431382
                        -----------------------------------------
Magnitude (a.u.)       :      1.011576792
Magnitude (Debye)      :      2.571223868

Rotational constants in cm-1:             0.024040             0.012959             0.008420
Rotational constants in MHz :           720.714066           388.494413           252.426411

                             ****ORCA TERMINATED NORMALLY****
TOTAL RUN TIME: 0 days 0 hours 0 minutes 19 seconds 850 msec
