                         Program Version 6.0.0  -   RELEASE  -
|  1> ! r2scan-3c def2/J RI DEFGRID2 scfconv6 printgap
|  2> %output
|  3>     printlevel normal
|  4> end
|  5> * xyz 0 1
|  6> C 0.4663366462 -2.5429613121 2.0019397319
|  7> C 1.1857241024 -2.3020406112 0.6912011412
|  8> O 1.7725461463 -0.9896819713 0.7447892376
|  9> P 2.4368172397 -0.3448107424 -0.5533723401
| 10> S 3.6221569861 -1.5582995137 -1.532594023
| 11> O 3.0750452873 0.9805307101 0.0270825061
| 12> C 4.4341814624 1.0094545297 0.5170726395
| 13> C 4.5745133836 0.2416140494 1.8136532141
| 14> S 0.8407596406 0.4626209831 -1.6806323829
| 15> C 0.2935114032 1.7866859033 -0.549460194
| 16> S -0.4382262673 1.191018548 0.9879110525
| 17> P -2.2034383607 0.4166457622 0.1266675537
| 18> S -2.9918496453 1.4585086564 -1.3439308708
| 19> O -3.1193005517 0.090766553 1.3821166278
| 20> C -3.4312162511 1.0073332831 2.4480184001
| 21> C -3.9666351065 2.3335043996 1.9495440459
| 22> O -1.752402809 -1.0471602784 -0.2959454177
| 23> C -2.420168997 -1.7737630561 -1.3427393967
| 24> C -3.7900833792 -2.2384671627 -0.8961135953
| 25> H -0.3493496506 -1.8325204269 2.1116126525
| 26> H 0.0668461299 -3.5516938927 2.0088371581
| 27> H 1.1557178367 -2.4201493626 2.8317360895
| 28> H 0.492311095 -2.3457660889 -0.1548888319
| 29> H 1.9874418959 -3.0277203461 0.5224060075
| 30> H 5.089205516 0.5933675141 -0.2547539987
| 31> H 4.640589308 2.0723791814 0.64844494
| 32> H 4.4049364948 -0.8189014574 1.6337066164
| 33> H 5.5776702935 0.3775372447 2.2054849321
| 34> H 3.8481987435 0.5965786351 2.5400860901
| 35> H -0.4563550601 2.3448262057 -1.1124435574
| 36> H 1.1413730838 2.4113152011 -0.2855358037
| 37> H -4.1779661654 0.4710443072 3.0362937446
| 38> H -2.5259351901 1.1562609139 3.0431161431
| 39> H -4.8258278462 2.178246893 1.3012713734
| 40> H -4.2623287126 2.9439801013 2.7967165374
| 41> H -3.1993406945 2.8602796377 1.3837126764
| 42> H -2.4948061542 -1.1288945323 -2.2249431911
| 43> H -1.7556686454 -2.6116731349 -1.5596785539
| 44> H -4.2453459604 -2.8328963989 -1.6819124179
| 45> H -3.709080507 -2.8321227699 0.0102851038
| 46> H -4.419435608 -1.3723075889 -0.6938318717
| 47> *
| 48>
| 49>                          ****END OF INPUT****

CARTESIAN COORDINATES (ANGSTROEM)
---------------------------------
  C      0.466337   -2.542961    2.001940
  C      1.185724   -2.302041    0.691201
  O      1.772546   -0.989682    0.744789
  P      2.436817   -0.344811   -0.553372
  S      3.622157   -1.558300   -1.532594
  O      3.075045    0.980531    0.027083
  C      4.434181    1.009455    0.517073
  C      4.574513    0.241614    1.813653
  S      0.840760    0.462621   -1.680632
  C      0.293511    1.786686   -0.549460
  S     -0.438226    1.191019    0.987911
  P     -2.203438    0.416646    0.126668
  S     -2.991850    1.458509   -1.343931
  O     -3.119301    0.090767    1.382117
  C     -3.431216    1.007333    2.448018
  C     -3.966635    2.333504    1.949544
  O     -1.752403   -1.047160   -0.295945
  C     -2.420169   -1.773763   -1.342739
  C     -3.790083   -2.238467   -0.896114
  H     -0.349350   -1.832520    2.111613
  H      0.066846   -3.551694    2.008837
  H      1.155718   -2.420149    2.831736
  H      0.492311   -2.345766   -0.154889
  H      1.987442   -3.027720    0.522406
  H      5.089206    0.593368   -0.254754
  H      4.640589    2.072379    0.648445
  H      4.404936   -0.818901    1.633707
  H      5.577670    0.377537    2.205485
  H      3.848199    0.596579    2.540086
  H     -0.456355    2.344826   -1.112444
  H      1.141373    2.411315   -0.285536
  H     -4.177966    0.471044    3.036294
  H     -2.525935    1.156261    3.043116
  H     -4.825828    2.178247    1.301271
  H     -4.262329    2.943980    2.796717
  H     -3.199341    2.860280    1.383713
  H     -2.494806   -1.128895   -2.224943
  H     -1.755669   -2.611673   -1.559679
  H     -4.245346   -2.832896   -1.681912
  H     -3.709081   -2.832123    0.010285
  H     -4.419436   -1.372308   -0.693832

 Total Charge           Charge          ....    0
 Multiplicity           Mult            ....    1
 Number of Electrons    NEL             ....  202
 Basis Dimension        Dim             ....  539

ORBITAL ENERGIES
----------------

  NO   OCC          E(Eh)            E(eV)
   0   2.0000     -88.580775     -2410.4054
   1   2.0000     -88.574005     -2410.2212
   2   2.0000     -88.523604     -2408.8497
   3   2.0000     -88.518311     -2408.7057
   4   2.0000     -76.919477     -2093.0854
   5   2.0000     -76.912770     -2092.9029
   6   2.0000     -18.999003      -516.9891
   7   2.0000     -18.994992      -516.8800
   8   2.0000     -18.991475      -516.7843
   9   2.0000     -18.985771      -516.6291
  10   2.0000     -10.109796      -275.1015
  11   2.0000     -10.109125      -275.0833
  12   2.0000     -10.101687      -274.8809
  13   2.0000     -10.096858      -274.7495
  14   2.0000     -10.092771      -274.6383
  15   2.0000     -10.032476      -272.9975
  16   2.0000     -10.031077      -272.9595
  17   2.0000     -10.029123      -272.9063
  18   2.0000     -10.027923      -272.8737
  19   2.0000      -7.875436      -214.3015
  20   2.0000      -7.867906      -214.0966
  21   2.0000      -7.818298      -212.7467
  22   2.0000      -7.812905      -212.6000
  23   2.0000      -6.597754      -179.5340
  24   2.0000      -6.591173      -179.3549
  25   2.0000      -5.822243      -158.4313
  26   2.0000      -5.819212      -158.3488
  27   2.0000      -5.815242      -158.2408
  28   2.0000      -5.812616      -158.1693
  29   2.0000      -5.811419      -158.1368
  30   2.0000      -5.804979      -157.9615
  31   2.0000      -5.765969      -156.9000
  32   2.0000      -5.760528      -156.7519
  33   2.0000      -5.758712      -156.7025
  34   2.0000      -5.758167      -156.6877
  35   2.0000      -5.753465      -156.5597
  36   2.0000      -5.752685      -156.5385
  37   2.0000      -4.743333      -129.0726
  38   2.0000      -4.742824      -129.0588
  39   2.0000      -4.741286      -129.0170
  40   2.0000      -4.736673      -128.8914
  41   2.0000      -4.736173      -128.8778
  42   2.0000      -4.734840      -128.8416
  43   2.0000      -1.054412       -28.6920
  44   2.0000      -1.050266       -28.5792
  45   2.0000      -1.014962       -27.6185
  46   2.0000      -1.010377       -27.4937
  47   2.0000      -0.804011       -21.8783
  48   2.0000      -0.760893       -20.7049
  49   2.0000      -0.750721       -20.4282
  50   2.0000      -0.734436       -19.9850
  51   2.0000      -0.732325       -19.9276
  52   2.0000      -0.712457       -19.3869
  53   2.0000      -0.689900       -18.7731
  54   2.0000      -0.669540       -18.2191
  55   2.0000      -0.633149       -17.2289
  56   2.0000      -0.627499       -17.0751
  57   2.0000      -0.610697       -16.6179
  58   2.0000      -0.597540       -16.2599
  59   2.0000      -0.596188       -16.2231
  60   2.0000      -0.529764       -14.4156
  61   2.0000      -0.520611       -14.1665
  62   2.0000      -0.497841       -13.5470
  63   2.0000      -0.493278       -13.4228
  64   2.0000      -0.483937       -13.1686
  65   2.0000      -0.469761       -12.7828
  66   2.0000      -0.460254       -12.5242
  67   2.0000      -0.448880       -12.2147
  68   2.0000      -0.445844       -12.1320
  69   2.0000      -0.437997       -11.9185
  70   2.0000      -0.433907       -11.8072
  71   2.0000      -0.416680       -11.3385
  72   2.0000      -0.412017       -11.2116
  73   2.0000      -0.405962       -11.0468
  74   2.0000      -0.396301       -10.7839
  75   2.0000      -0.394237       -10.7277
  76   2.0000      -0.381488       -10.3808
  77   2.0000      -0.373838       -10.1726
  78   2.0000      -0.367824       -10.0090
  79   2.0000      -0.365476        -9.9451
  80   2.0000      -0.364378        -9.9152
  81   2.0000      -0.363070        -9.8796
  82   2.0000      -0.360441        -9.8081
  83   2.0000      -0.356792        -9.7088
  84   2.0000      -0.348039        -9.4706
  85   2.0000      -0.334557        -9.1038
  86   2.0000      -0.323920        -8.8143
  87   2.0000      -0.316564        -8.6141
  88   2.0000      -0.315054        -8.5730
  89   2.0000      -0.307064        -8.3556
  90   2.0000      -0.304604        -8.2887
  91   2.0000      -0.294026        -8.0009
  92   2.0000      -0.291858        -7.9419
  93   2.0000      -0.282751        -7.6941
  94   2.0000      -0.268677        -7.3111
  95   2.0000      -0.244954        -6.6655
  96   2.0000      -0.232139        -6.3168
  97   2.0000      -0.222198        -6.0463
  98   2.0000      -0.221059        -6.0153
  99   2.0000      -0.217556        -5.9200
 100   2.0000      -0.211363        -5.7515
 101   0.0000      -0.046930        -1.2770
 102   0.0000      -0.017878        -0.4865
 103   0.0000      -0.016047        -0.4367
 104   0.0000      -0.000399        -0.0108
 105   0.0000       0.007150         0.1946

MULLIKEN ATOMIC CHARGES
-----------------------
   0 C :   -0.458970
   1 C :   -0.118620
   2 O :   -0.238348
   3 P :    0.641689
   4 S :   -0.459958
   5 O :   -0.309103
   6 C :   -0.156058
   7 C :   -0.434136
   8 S :   -0.131971
   9 C :   -0.227678
  10 S :   -0.118137
  11 P :    0.618891
  12 S :   -0.462793
  13 O :   -0.278549
  14 C :   -0.161898
  15 C :   -0.422482
  16 O :   -0.260054
  17 C :   -0.154587
  18 C :   -0.437738
  19 H :    0.164477
  20 H :    0.144582
  21 H :    0.149478
  22 H :    0.154471
  23 H :    0.163811
  24 H :    0.175855
  25 H :    0.148174
  26 H :    0.169661
  27 H :    0.147804
  28 H :    0.154526
  29 H :    0.211670
  30 H :    0.201103
  31 H :    0.151458
  32 H :    0.152961
  33 H :    0.165284
  34 H :    0.147949
  35 H :    0.169554
  36 H :    0.177397
  37 H :    0.150864
  38 H :    0.148794
  39 H :    0.153086
  40 H :    0.167541
Sum of atomic charges:    0.0000000

LOEWDIN ATOMIC CHARGES
----------------------
   0 C :   -0.388770
   1 C :    0.015260
   2 O :   -0.685534
   3 P :    0.366402
   4 S :   -0.111510
   5 O :   -0.684023
   6 C :    0.025780
   7 C :   -0.398502
   8 S :    0.183255
   9 C :   -0.411804
  10 S :    0.182853
  11 P :    0.379458
  12 S :   -0.128014
  13 O :   -0.659117
  14 C :    0.024192
  15 C :   -0.406355
  16 O :   -0.684056
  17 C :    0.014479
  18 C :   -0.397893
  19 H :    0.163594
  20 H :    0.159490
  21 H :    0.159066
  22 H :    0.180022
  23 H :    0.176013
  24 H :    0.181985
  25 H :    0.178997
  26 H :    0.166535
  27 H :    0.159801
  28 H :    0.161195
  29 H :    0.194951
  30 H :    0.190574
  31 H :    0.182218
  32 H :    0.171876
  33 H :    0.165661
  34 H :    0.158769
  35 H :    0.166495
  36 H :    0.183102
  37 H :    0.178580
  38 H :    0.160019
  39 H :    0.159131
  40 H :    0.165827

  Mayer bond orders larger than 0.100000
B(  0-C ,  1-C ) :   0.9266 B(  0-C , 19-H ) :   0.9701 B(  0-C , 20-H ) :   0.9691
B(  0-C , 21-H ) :   0.9741 B(  1-C ,  2-O ) :   0.7710 B(  1-C , 22-H ) :   0.9520
B(  1-C , 23-H ) :   0.9406 B(  2-O ,  3-P ) :   1.0579 B(  3-P ,  4-S ) :   1.8117
B(  3-P ,  5-O ) :   1.1403 B(  3-P ,  8-S ) :   1.0797 B(  5-O ,  6-C ) :   0.7974
B(  6-C ,  7-C ) :   0.9314 B(  6-C , 24-H ) :   0.9631 B(  6-C , 25-H ) :   0.9627
B(  7-C , 26-H ) :   0.9586 B(  7-C , 27-H ) :   0.9619 B(  7-C , 28-H ) :   0.9703
B(  8-S ,  9-C ) :   0.9076 B(  9-C , 10-S ) :   0.9347 B(  9-C , 29-H ) :   0.9058
B(  9-C , 30-H ) :   0.9109 B( 10-S , 11-P ) :   1.0839 B( 11-P , 12-S ) :   1.7809
B( 11-P , 13-O ) :   1.0808 B( 11-P , 16-O ) :   1.1100 B( 13-O , 14-C ) :   0.8018
B( 14-C , 15-C ) :   0.9379 B( 14-C , 31-H ) :   0.9571 B( 14-C , 32-H ) :   0.9644
B( 15-C , 33-H ) :   0.9656 B( 15-C , 34-H ) :   0.9616 B( 15-C , 35-H ) :   0.9535
B( 16-O , 17-C ) :   0.7839 B( 17-C , 18-C ) :   0.9208 B( 17-C , 36-H ) :   0.9578
B( 17-C , 37-H ) :   0.9620 B( 18-C , 38-H ) :   0.9637 B( 18-C , 39-H ) :   0.9737
B( 18-C , 40-H ) :   0.9593

Dispersion correction           -0.021825322
FINAL SINGLE POINT ENERGY     -2932.461364428001

DIPOLE MOMENT
-------------

Method             : SCF
Type of density    : Electron Density
Multiplicity       :   1
Irrep              :   0
Energy             : -2932.4860545302285573 Eh
Relativity type    :
Basis              : AO
                                X                 Y                 Z
Electronic contribution:      7.253486796       6.553785033     -15.640359808
Nuclear contribution   :     -7.760244052      -6.473790115      17.498378360
                        -----------------------------------------
Total Dipole Moment    :     -0.506757256       0.079994917       1.858018553
                        -----------------------------------------
Magnitude (a.u.)       :      1.927546379
Magnitude (Debye)      :      4.899433532

Rotational constants in cm-1:             0.012954             0.004901             0.004676
Rotational constants in MHz :           388.349830           146.919132           140.171703

                             ****ORCA TERMINATED NORMALLY****
TOTAL RUN TIME: 0 days 0 hours 1 minutes 24 seconds 932 msec
