                         Program Version 6.0.0  -   RELEASE  -
|  1> ! r2scan-3c def2/J RI DEFGRID2 scfconv6 printgap
|  2> %output
|  3>     printlevel normal
|  4> end
|  5> %cpcm
|  6>     smd true
|  7>     smdsolvent "water"
|  8> end
|  9> * xyz 0 1
| 10> C 0.4663366462 -2.5429613121 2.0019397319
| 11> C 1.1857241024 -2.3020406112 0.6912011412
| 12> O 1.7725461463 -0.9896819713 0.7447892376
| 13> P 2.4368172397 -0.3448107424 -0.5533723401
| 14> S 3.6221569861 -1.5582995137 -1.532594023
| 15> O 3.0750452873 0.9805307101 0.0270825061
| 16> C 4.4341814624 1.0094545297 0.5170726395
| 17> C 4.5745133836 0.2416140494 1.8136532141
| 18> S 0.8407596406 0.4626209831 -1.6806323829
| 19> C 0.2935114032 1.7866859033 -0.549460194
| 20> S -0.4382262673 1.191018548 0.9879110525
| 21> P -2.2034383607 0.4166457622 0.1266675537
| 22> S -2.9918496453 1.4585086564 -1.3439308708
| 23> O -3.1193005517 0.090766553 1.3821166278
| 24> C -3.4312162511 1.0073332831 2.4480184001
| 25> C -3.9666351065 2.3335043996 1.9495440459
| 26> O -1.752402809 -1.0471602784 -0.2959454177
| 27> C -2.420168997 -1.7737630561 -1.3427393967
| 28> C -3.7900833792 -2.2384671627 -0.8961135953
| 29> H -0.3493496506 -1.8325204269 2.1116126525
| 30> H 0.0668461299 -3.5516938927 2.0088371581
| 31> H 1.1557178367 -2.4201493626 2.8317360895
| 32> H 0.492311095 -2.3457660889 -0.1548888319
| 33> H 1.9874418959 -3.0277203461 0.5224060075
| 34> H 5.089205516 0.5933675141 -0.2547539987
| 35> H 4.640589308 2.0723791814 0.64844494
| 36> H 4.4049364948 -0.8189014574 1.6337066164
| 37> H 5.5776702935 0.3775372447 2.2054849321
| 38> H 3.8481987435 0.5965786351 2.5400860901
| 39> H -0.4563550601 2.3448262057 -1.1124435574
| 40> H 1.1413730838 2.4113152011 -0.2855358037
| 41> H -4.1779661654 0.4710443072 3.0362937446
| 42> H -2.5259351901 1.1562609139 3.0431161431
| 43> H -4.8258278462 2.178246893 1.3012713734
| 44> H -4.2623287126 2.9439801013 2.7967165374
| 45> H -3.1993406945 2.8602796377 1.3837126764
| 46> H -2.4948061542 -1.1288945323 -2.2249431911
| 47> H -1.7556686454 -2.6116731349 -1.5596785539
| 48> H -4.2453459604 -2.8328963989 -1.6819124179
| 49> H -3.709080507 -2.8321227699 0.0102851038
| 50> H -4.419435608 -1.3723075889 -0.6938318717
| 51> *
| 52>
| 53>                          ****END OF INPUT****

CARTESIAN COORDINATES (ANGSTROEM)
---------------------------------
  C      0.466337   -2.542961    2.001940
  C      1.185724   -2.302041    0.691201
  O      1.772546   -0.989682    0.744789
  P      2.436817   -0.344811   -0.553372
  S      3.622157   -1.558300   -1.532594
  O      3.075045    0.980531    0.027083
  C      4.434181    1.009455    0.517073
  C      4.574513    0.241614    1.813653
  S      0.840760    0.462621   -1.680632
  C      0.293511    1.786686   -0.549460
  S     -0.438226    1.191019    0.987911
  P     -2.203438    0.416646    0.126668
  S     -2.991850    1.458509   -1.343931
  O     -3.119301    0.090767    1.382117
  C     -3.431216    1.007333    2.448018
  C     -3.966635    2.333504    1.949544
  O     -1.752403   -1.047160   -0.295945
  C     -2.420169   -1.773763   -1.342739
  C     -3.790083   -2.238467   -0.896114
  H     -0.349350   -1.832520    2.111613
  H      0.066846   -3.551694    2.008837
  H      1.155718   -2.420149    2.831736
  H      0.492311   -2.345766   -0.154889
  H      1.987442   -3.027720    0.522406
  H      5.089206    0.593368   -0.254754
  H      4.640589    2.072379    0.648445
  H      4.404936   -0.818901    1.633707
  H      5.577670    0.377537    2.205485
  H      3.848199    0.596579    2.540086
  H     -0.456355    2.344826   -1.112444
  H      1.141373    2.411315   -0.285536
  H     -4.177966    0.471044    3.036294
  H     -2.525935    1.156261    3.043116
  H     -4.825828    2.178247    1.301271
  H     -4.262329    2.943980    2.796717
  H     -3.199341    2.860280    1.383713
  H     -2.494806   -1.128895   -2.224943
  H     -1.755669   -2.611673   -1.559679
  H     -4.245346   -2.832896   -1.681912
  H     -3.709081   -2.832123    0.010285
  H     -4.419436   -1.372308   -0.693832

 Total Charge           Charge          ....    0
 Multiplicity           Mult            ....    1
 Number of Electrons    NEL             ....  202
 Basis Dimension        Dim             ....  539

ORBITAL ENERGIES
----------------

  NO   OCC          E(Eh)            E(eV)
   0   2.0000     -88.581048     -2410.4128
   1   2.0000     -88.579332     -2410.3662
   2   2.0000     -88.529160     -2409.0009
   3   2.0000     -88.527392     -2408.9528
   4   2.0000     -76.920533     -2093.1141
   5   2.0000     -76.919688     -2093.0911
   6   2.0000     -18.996438      -516.9194
   7   2.0000     -18.996422      -516.9189
   8   2.0000     -18.990960      -516.7703
   9   2.0000     -18.990039      -516.7452
  10   2.0000     -10.106761      -275.0190
  11   2.0000     -10.093892      -274.6688
  12   2.0000     -10.091308      -274.5984
  13   2.0000     -10.087767      -274.5021
  14   2.0000     -10.087457      -274.4937
  15   2.0000     -10.019269      -272.6382
  16   2.0000     -10.019020      -272.6314
  17   2.0000     -10.018569      -272.6191
  18   2.0000     -10.018084      -272.6059
  19   2.0000      -7.875632      -214.3068
  20   2.0000      -7.873369      -214.2453
  21   2.0000      -7.824148      -212.9059
  22   2.0000      -7.822411      -212.8586
  23   2.0000      -6.598872      -179.5644
  24   2.0000      -6.598132      -179.5443
  25   2.0000      -5.822452      -158.4370
  26   2.0000      -5.820627      -158.3873
  27   2.0000      -5.819426      -158.3546
  28   2.0000      -5.816823      -158.2838
  29   2.0000      -5.812800      -158.1743
  30   2.0000      -5.810572      -158.1137
  31   2.0000      -5.771660      -157.0549
  32   2.0000      -5.770005      -157.0098
  33   2.0000      -5.764652      -156.8642
  34   2.0000      -5.764021      -156.8470
  35   2.0000      -5.762815      -156.8142
  36   2.0000      -5.762304      -156.8003
  37   2.0000      -4.744406      -129.1018
  38   2.0000      -4.743937      -129.0891
  39   2.0000      -4.743559      -129.0788
  40   2.0000      -4.743112      -129.0666
  41   2.0000      -4.742484      -129.0496
  42   2.0000      -4.741938      -129.0347
  43   2.0000      -1.052738       -28.6465
  44   2.0000      -1.052203       -28.6319
  45   2.0000      -1.012794       -27.5595
  46   2.0000      -1.012267       -27.5452
  47   2.0000      -0.804268       -21.8852
  48   2.0000      -0.757067       -20.6008
  49   2.0000      -0.743279       -20.2257
  50   2.0000      -0.724751       -19.7215
  51   2.0000      -0.723787       -19.6952
  52   2.0000      -0.710747       -19.3404
  53   2.0000      -0.692560       -18.8455
  54   2.0000      -0.674798       -18.3622
  55   2.0000      -0.629742       -17.1362
  56   2.0000      -0.622925       -16.9507
  57   2.0000      -0.602175       -16.3860
  58   2.0000      -0.594187       -16.1686
  59   2.0000      -0.590626       -16.0717
  60   2.0000      -0.527074       -14.3424
  61   2.0000      -0.514856       -14.0099
  62   2.0000      -0.494936       -13.4679
  63   2.0000      -0.486121       -13.2280
  64   2.0000      -0.480700       -13.0805
  65   2.0000      -0.463696       -12.6178
  66   2.0000      -0.452900       -12.3240
  67   2.0000      -0.442772       -12.0484
  68   2.0000      -0.440863       -11.9965
  69   2.0000      -0.436548       -11.8791
  70   2.0000      -0.430476       -11.7139
  71   2.0000      -0.411236       -11.1903
  72   2.0000      -0.405393       -11.0313
  73   2.0000      -0.399557       -10.8725
  74   2.0000      -0.392869       -10.6905
  75   2.0000      -0.392759       -10.6875
  76   2.0000      -0.379164       -10.3176
  77   2.0000      -0.370761       -10.0889
  78   2.0000      -0.359209        -9.7746
  79   2.0000      -0.355941        -9.6856
  80   2.0000      -0.354677        -9.6512
  81   2.0000      -0.352714        -9.5978
  82   2.0000      -0.352334        -9.5875
  83   2.0000      -0.350949        -9.5498
  84   2.0000      -0.345222        -9.3940
  85   2.0000      -0.329370        -8.9626
  86   2.0000      -0.319058        -8.6820
  87   2.0000      -0.313758        -8.5378
  88   2.0000      -0.309207        -8.4140
  89   2.0000      -0.303144        -8.2490
  90   2.0000      -0.299096        -8.1388
  91   2.0000      -0.292309        -7.9541
  92   2.0000      -0.289490        -7.8774
  93   2.0000      -0.280272        -7.6266
  94   2.0000      -0.269210        -7.3256
  95   2.0000      -0.247352        -6.7308
  96   2.0000      -0.238725        -6.4960
  97   2.0000      -0.232352        -6.3226
  98   2.0000      -0.226624        -6.1668
  99   2.0000      -0.222220        -6.0469
 100   2.0000      -0.221352        -6.0233
 101   0.0000      -0.048603        -1.3226
 102   0.0000      -0.024295        -0.6611
 103   0.0000      -0.020458        -0.5567
 104   0.0000      -0.000933        -0.0254
 105   0.0000       0.004011         0.1091

MULLIKEN ATOMIC CHARGES
-----------------------
   0 C :   -0.500646
   1 C :   -0.120141
   2 O :   -0.252130
   3 P :    0.664390
   4 S :   -0.522206
   5 O :   -0.327114
   6 C :   -0.144050
   7 C :   -0.477407
   8 S :   -0.165997
   9 C :   -0.233626
  10 S :   -0.117710
  11 P :    0.663366
  12 S :   -0.517412
  13 O :   -0.307569
  14 C :   -0.161928
  15 C :   -0.462601
  16 O :   -0.283947
  17 C :   -0.150108
  18 C :   -0.483102
  19 H :    0.166426
  20 H :    0.171077
  21 H :    0.165813
  22 H :    0.172332
  23 H :    0.171247
  24 H :    0.177345
  25 H :    0.176931
  26 H :    0.168091
  27 H :    0.173260
  28 H :    0.170165
  29 H :    0.226939
  30 H :    0.235345
  31 H :    0.177790
  32 H :    0.173470
  33 H :    0.170912
  34 H :    0.173858
  35 H :    0.166038
  36 H :    0.175916
  37 H :    0.178987
  38 H :    0.171951
  39 H :    0.169737
  40 H :    0.166307
Sum of atomic charges:    0.0000000

LOEWDIN ATOMIC CHARGES
----------------------
   0 C :   -0.392256
   1 C :    0.017715
   2 O :   -0.694431
   3 P :    0.369571
   4 S :   -0.155060
   5 O :   -0.688023
   6 C :    0.031762
   7 C :   -0.401678
   8 S :    0.162968
   9 C :   -0.403528
  10 S :    0.187961
  11 P :    0.385613
  12 S :   -0.162378
  13 O :   -0.670117
  14 C :    0.030739
  15 C :   -0.409963
  16 O :   -0.692701
  17 C :    0.017493
  18 C :   -0.402016
  19 H :    0.162616
  20 H :    0.169299
  21 H :    0.163921
  22 H :    0.184490
  23 H :    0.179584
  24 H :    0.182380
  25 H :    0.191335
  26 H :    0.163142
  27 H :    0.169478
  28 H :    0.164804
  29 H :    0.200307
  30 H :    0.202746
  31 H :    0.193468
  32 H :    0.179703
  33 H :    0.164424
  34 H :    0.168520
  35 H :    0.162067
  36 H :    0.181932
  37 H :    0.189457
  38 H :    0.168375
  39 H :    0.163552
  40 H :    0.162733

  Mayer bond orders larger than 0.100000
B(  0-C ,  1-C ) :   0.9233 B(  0-C , 19-H ) :   0.9690 B(  0-C , 20-H ) :   0.9627
B(  0-C , 21-H ) :   0.9709 B(  1-C ,  2-O ) :   0.7587 B(  1-C , 22-H ) :   0.9445
B(  1-C , 23-H ) :   0.9347 B(  2-O ,  3-P ) :   1.0642 B(  3-P ,  4-S ) :   1.7722
B(  3-P ,  5-O ) :   1.1533 B(  3-P ,  8-S ) :   1.0970 B(  5-O ,  6-C ) :   0.7866
B(  6-C ,  7-C ) :   0.9177 B(  6-C , 24-H ) :   0.9596 B(  6-C , 25-H ) :   0.9517
B(  7-C , 26-H ) :   0.9586 B(  7-C , 27-H ) :   0.9555 B(  7-C , 28-H ) :   0.9699
B(  8-S ,  9-C ) :   0.8972 B(  9-C , 10-S ) :   0.9296 B(  9-C , 29-H ) :   0.9006
B(  9-C , 30-H ) :   0.9001 B( 10-S , 11-P ) :   1.0946 B( 11-P , 12-S ) :   1.7308
B( 11-P , 13-O ) :   1.0911 B( 11-P , 16-O ) :   1.1151 B( 13-O , 14-C ) :   0.7921
B( 14-C , 15-C ) :   0.9191 B( 14-C , 31-H ) :   0.9473 B( 14-C , 32-H ) :   0.9592
B( 15-C , 33-H ) :   0.9667 B( 15-C , 34-H ) :   0.9556 B( 15-C , 35-H ) :   0.9561
B( 16-O , 17-C ) :   0.7717 B( 17-C , 18-C ) :   0.9107 B( 17-C , 36-H ) :   0.9554
B( 17-C , 37-H ) :   0.9526 B( 18-C , 38-H ) :   0.9579 B( 18-C , 39-H ) :   0.9723
B( 18-C , 40-H ) :   0.9601

Dispersion correction           -0.021825322
FINAL SINGLE POINT ENERGY     -2932.470980518633

DIPOLE MOMENT
-------------

Method             : SCF
Type of density    : Electron Density
Multiplicity       :   1
Irrep              :   0
Energy             : -2932.4956706208608921 Eh
Relativity type    :
Basis              : AO
                                X                 Y                 Z
Electronic contribution:      7.193752483       6.622220085     -14.944463357
Nuclear contribution   :     -7.760244052      -6.473790115      17.498378360
                        -----------------------------------------
Total Dipole Moment    :     -0.566491568       0.148429970       2.553915003
                        -----------------------------------------
Magnitude (a.u.)       :      2.620195794
Magnitude (Debye)      :      6.660008428

Rotational constants in cm-1:             0.012954             0.004901             0.004676
Rotational constants in MHz :           388.349830           146.919132           140.171703

                             ****ORCA TERMINATED NORMALLY****
TOTAL RUN TIME: 0 days 0 hours 1 minutes 51 seconds 21 msec
