                         Program Version 6.0.0  -   RELEASE  -
|  1> ! pbe def2-sv(p) def2/J RI DEFGRID1 loosescf d4 GCP(DFT/SV(P)) printgap
|  2> %output
|  3>     printlevel normal
|  4> end
|  5> * xyz 0 1
|  6> C 1.6792000205 -2.9394717453 0.9257426523
|  7> C 1.6094687166 -1.5919029426 1.6151152624
|  8> O 2.6439217034 -0.6958612396 1.1785753603
|  9> P 2.7384826886 0.0175993051 -0.2434477427
| 10> S 3.0917032612 -1.0836964185 -1.8234855761
| 11> O 3.9449460265 0.9976614086 -0.0037702433
| 12> C 4.2439327235 1.7047773832 1.2250272141
| 13> C 3.1550301388 2.682115067 1.6128413814
| 14> S 0.9812465197 1.2366467468 -0.3907397092
| 15> C 0.1520494305 0.3755693755 -1.74321198
| 16> S -0.751414659 -1.0996115377 -1.1977300202
| 17> P -2.2186656363 -0.0666440078 -0.0751167584
| 18> S -2.8458498495 1.6266247698 -0.8515917508
| 19> O -1.5242678247 0.0462911113 1.3426654225
| 20> C -1.8669521366 1.0897494468 2.2786185725
| 21> C -3.259610576 0.8901696266 2.8367774952
| 22> O -3.2996717436 -1.1932897286 0.2118448151
| 23> C -4.152263064 -1.7447707424 -0.8106994847
| 24> C -5.4461842733 -0.9619373201 -0.9267900984
| 25> H 1.4658829324 -2.8382041231 -0.1367517956
| 26> H 2.6708968955 -3.3695328463 1.0403165916
| 27> H 0.9437074006 -3.6039525367 1.3676841723
| 28> H 1.7913810853 -1.6888485508 2.687478041
| 29> H 0.634816238 -1.1215417234 1.4527240249
| 30> H 4.4088169926 0.9663634008 2.0115537853
| 31> H 5.1789073085 2.2169945712 0.9930923469
| 32> H 2.9554270472 3.3726588818 0.7973379111
| 33> H 2.2347356261 2.1511458559 1.8506482023
| 34> H 3.4748734231 3.2422990366 2.4859972894
| 35> H 0.894153413 0.0368182437 -2.467322135
| 36> H -0.5494523924 1.0840567543 -2.1832124996
| 37> H -1.1024066979 1.0126093361 3.0524107678
| 38> H -1.7843946029 2.0548638981 1.7686838707
| 39> H -3.3503256117 -0.0997106718 3.2758675537
| 40> H -3.4595634312 1.6439247475 3.5917261109
| 41> H -3.9912482777 0.9874108306 2.0353326433
| 42> H -3.6129712092 -1.7583631518 -1.7623511802
| 43> H -4.336713962 -2.7700822116 -0.4846497905
| 44> H -5.2437373662 0.060840633 -1.2370978849
| 45> H -6.0849803072 -1.4348257647 -1.6657310746
| 46> H -5.9587820059 -0.9426127758 0.0309273421
| 47> *
| 48>
| 49>                          ****END OF INPUT****

CARTESIAN COORDINATES (ANGSTROEM)
---------------------------------
  C      1.679200   -2.939472    0.925743
  C      1.609469   -1.591903    1.615115
  O      2.643922   -0.695861    1.178575
  P      2.738483    0.017599   -0.243448
  S      3.091703   -1.083696   -1.823486
  O      3.944946    0.997661   -0.003770
  C      4.243933    1.704777    1.225027
  C      3.155030    2.682115    1.612841
  S      0.981247    1.236647   -0.390740
  C      0.152049    0.375569   -1.743212
  S     -0.751415   -1.099612   -1.197730
  P     -2.218666   -0.066644   -0.075117
  S     -2.845850    1.626625   -0.851592
  O     -1.524268    0.046291    1.342665
  C     -1.866952    1.089749    2.278619
  C     -3.259611    0.890170    2.836777
  O     -3.299672   -1.193290    0.211845
  C     -4.152263   -1.744771   -0.810699
  C     -5.446184   -0.961937   -0.926790
  H      1.465883   -2.838204   -0.136752
  H      2.670897   -3.369533    1.040317
  H      0.943707   -3.603953    1.367684
  H      1.791381   -1.688849    2.687478
  H      0.634816   -1.121542    1.452724
  H      4.408817    0.966363    2.011554
  H      5.178907    2.216995    0.993092
  H      2.955427    3.372659    0.797338
  H      2.234736    2.151146    1.850648
  H      3.474873    3.242299    2.485997
  H      0.894153    0.036818   -2.467322
  H     -0.549452    1.084057   -2.183212
  H     -1.102407    1.012609    3.052411
  H     -1.784395    2.054864    1.768684
  H     -3.350326   -0.099711    3.275868
  H     -3.459563    1.643925    3.591726
  H     -3.991248    0.987411    2.035333
  H     -3.612971   -1.758363   -1.762351
  H     -4.336714   -2.770082   -0.484650
  H     -5.243737    0.060841   -1.237098
  H     -6.084980   -1.434826   -1.665731
  H     -5.958782   -0.942613    0.030927

 Total Charge           Charge          ....    0
 Multiplicity           Mult            ....    1
 Number of Electrons    NEL             ....  202
 Basis Dimension        Dim             ....  334

ORBITAL ENERGIES
----------------

  NO   OCC          E(Eh)            E(eV)
   0   2.0000     -88.045978     -2395.8529
   1   2.0000     -88.041193     -2395.7226
   2   2.0000     -87.994783     -2394.4598
   3   2.0000     -87.982728     -2394.1317
   4   2.0000     -76.432556     -2079.8356
   5   2.0000     -76.425873     -2079.6537
   6   2.0000     -18.799443      -511.5589
   7   2.0000     -18.797417      -511.5037
   8   2.0000     -18.791797      -511.3508
   9   2.0000     -18.791348      -511.3386
  10   2.0000      -9.960474      -271.0383
  11   2.0000      -9.958413      -270.9822
  12   2.0000      -9.956655      -270.9344
  13   2.0000      -9.950506      -270.7670
  14   2.0000      -9.948500      -270.7125
  15   2.0000      -9.893045      -269.2034
  16   2.0000      -9.888326      -269.0750
  17   2.0000      -9.885705      -269.0037
  18   2.0000      -9.874487      -268.6984
  19   2.0000      -7.690850      -209.2787
  20   2.0000      -7.685670      -209.1377
  21   2.0000      -7.639600      -207.8841
  22   2.0000      -7.627943      -207.5669
  23   2.0000      -6.430104      -174.9720
  24   2.0000      -6.423015      -174.7791
  25   2.0000      -5.718594      -155.6108
  26   2.0000      -5.715384      -155.5235
  27   2.0000      -5.713603      -155.4751
  28   2.0000      -5.710132      -155.3806
  29   2.0000      -5.707953      -155.3213
  30   2.0000      -5.702773      -155.1804
  31   2.0000      -5.668371      -154.2442
  32   2.0000      -5.660195      -154.0217
  33   2.0000      -5.659963      -154.0154
  34   2.0000      -5.657028      -153.9356
  35   2.0000      -5.648311      -153.6984
  36   2.0000      -5.648135      -153.6936
  37   2.0000      -4.652546      -126.6022
  38   2.0000      -4.651943      -126.5858
  39   2.0000      -4.650602      -126.5493
  40   2.0000      -4.645893      -126.4212
  41   2.0000      -4.644769      -126.3906
  42   2.0000      -4.643282      -126.3501
  43   2.0000      -0.994166       -27.0526
  44   2.0000      -0.987303       -26.8659
  45   2.0000      -0.952832       -25.9279
  46   2.0000      -0.942150       -25.6372
  47   2.0000      -0.764567       -20.8049
  48   2.0000      -0.724062       -19.7027
  49   2.0000      -0.712938       -19.4000
  50   2.0000      -0.691686       -18.8217
  51   2.0000      -0.689011       -18.7490
  52   2.0000      -0.676485       -18.4081
  53   2.0000      -0.654029       -17.7970
  54   2.0000      -0.639356       -17.3978
  55   2.0000      -0.602988       -16.4081
  56   2.0000      -0.592143       -16.1130
  57   2.0000      -0.578571       -15.7437
  58   2.0000      -0.574932       -15.6447
  59   2.0000      -0.563027       -15.3208
  60   2.0000      -0.506276       -13.7765
  61   2.0000      -0.494756       -13.4630
  62   2.0000      -0.481466       -13.1014
  63   2.0000      -0.471596       -12.8328
  64   2.0000      -0.459145       -12.4940
  65   2.0000      -0.448395       -12.2014
  66   2.0000      -0.444692       -12.1007
  67   2.0000      -0.438341       -11.9279
  68   2.0000      -0.424807       -11.5596
  69   2.0000      -0.421020       -11.4565
  70   2.0000      -0.409720       -11.1490
  71   2.0000      -0.401112       -10.9148
  72   2.0000      -0.398339       -10.8394
  73   2.0000      -0.395914       -10.7734
  74   2.0000      -0.385327       -10.4853
  75   2.0000      -0.377107       -10.2616
  76   2.0000      -0.365456        -9.9446
  77   2.0000      -0.357128        -9.7179
  78   2.0000      -0.356895        -9.7116
  79   2.0000      -0.351908        -9.5759
  80   2.0000      -0.351622        -9.5681
  81   2.0000      -0.346337        -9.4243
  82   2.0000      -0.340272        -9.2593
  83   2.0000      -0.339074        -9.2267
  84   2.0000      -0.332769        -9.0551
  85   2.0000      -0.326492        -8.8843
  86   2.0000      -0.311834        -8.4854
  87   2.0000      -0.302289        -8.2257
  88   2.0000      -0.296645        -8.0721
  89   2.0000      -0.294026        -8.0008
  90   2.0000      -0.287425        -7.8212
  91   2.0000      -0.280734        -7.6392
  92   2.0000      -0.275440        -7.4951
  93   2.0000      -0.268571        -7.3082
  94   2.0000      -0.257974        -7.0198
  95   2.0000      -0.238086        -6.4787
  96   2.0000      -0.219340        -5.9685
  97   2.0000      -0.214147        -5.8272
  98   2.0000      -0.207576        -5.6484
  99   2.0000      -0.200008        -5.4425
 100   2.0000      -0.197494        -5.3741
 101   0.0000      -0.046325        -1.2606
 102   0.0000      -0.027283        -0.7424
 103   0.0000      -0.004828        -0.1314
 104   0.0000      -0.002821        -0.0768
 105   0.0000       0.008032         0.2186

MULLIKEN ATOMIC CHARGES
-----------------------
   0 C :   -0.303678
   1 C :   -0.039942
   2 O :   -0.384087
   3 P :    0.620002
   4 S :   -0.312331
   5 O :   -0.360599
   6 C :    0.005886
   7 C :   -0.333768
   8 S :   -0.116427
   9 C :   -0.352239
  10 S :   -0.082765
  11 P :    0.610964
  12 S :   -0.330425
  13 O :   -0.355820
  14 C :   -0.003063
  15 C :   -0.307751
  16 O :   -0.369443
  17 C :   -0.013467
  18 C :   -0.298047
  19 H :    0.134761
  20 H :    0.113080
  21 H :    0.104243
  22 H :    0.096667
  23 H :    0.137916
  24 H :    0.111639
  25 H :    0.112452
  26 H :    0.131850
  27 H :    0.128136
  28 H :    0.117564
  29 H :    0.195747
  30 H :    0.194264
  31 H :    0.103259
  32 H :    0.116029
  33 H :    0.116573
  34 H :    0.113594
  35 H :    0.125726
  36 H :    0.106451
  37 H :    0.110174
  38 H :    0.131758
  39 H :    0.110346
  40 H :    0.114770
Sum of atomic charges:    0.0000000

LOEWDIN ATOMIC CHARGES
----------------------
   0 C :   -0.367858
   1 C :   -0.124769
   2 O :   -0.246819
   3 P :    0.569876
   4 S :   -0.299946
   5 O :   -0.235764
   6 C :   -0.108393
   7 C :   -0.371472
   8 S :    0.075323
   9 C :   -0.488934
  10 S :    0.095589
  11 P :    0.569796
  12 S :   -0.314670
  13 O :   -0.234036
  14 C :   -0.117562
  15 C :   -0.365061
  16 O :   -0.243146
  17 C :   -0.115533
  18 C :   -0.364347
  19 H :    0.116836
  20 H :    0.125270
  21 H :    0.127904
  22 H :    0.115168
  23 H :    0.106022
  24 H :    0.115352
  25 H :    0.123764
  26 H :    0.130375
  27 H :    0.116291
  28 H :    0.133595
  29 H :    0.128697
  30 H :    0.129781
  31 H :    0.117083
  32 H :    0.111417
  33 H :    0.126437
  34 H :    0.131285
  35 H :    0.122997
  36 H :    0.108399
  37 H :    0.120350
  38 H :    0.124826
  39 H :    0.130188
  40 H :    0.125690

  Mayer bond orders larger than 0.100000
B(  0-C ,  1-C ) :   1.1683 B(  0-C , 19-H ) :   0.9279 B(  0-C , 20-H ) :   0.9451
B(  0-C , 21-H ) :   0.9380 B(  1-C ,  2-O ) :   0.9069 B(  1-C , 22-H ) :   0.9345
B(  1-C , 23-H ) :   0.8976 B(  2-O ,  3-P ) :   1.0742 B(  3-P ,  4-S ) :   1.6507
B(  3-P ,  5-O ) :   1.1438 B(  3-P ,  8-S ) :   0.9291 B(  4-S ,  8-S ) :   0.1136
B(  5-O ,  6-C ) :   0.9008 B(  6-C ,  7-C ) :   1.1695 B(  6-C , 24-H ) :   0.9269
B(  6-C , 25-H ) :   0.9337 B(  7-C , 26-H ) :   0.9422 B(  7-C , 27-H ) :   0.9319
B(  7-C , 28-H ) :   0.9355 B(  8-S ,  9-C ) :   1.0154 B(  9-C , 10-S ) :   0.9980
B(  9-C , 29-H ) :   0.8609 B(  9-C , 30-H ) :   0.8742 B( 10-S , 11-P ) :   0.9661
B( 10-S , 12-S ) :   0.1097 B( 11-P , 12-S ) :   1.5969 B( 11-P , 13-O ) :   1.1167
B( 11-P , 16-O ) :   1.1169 B( 13-O , 14-C ) :   0.8980 B( 14-C , 15-C ) :   1.1645
B( 14-C , 31-H ) :   0.9332 B( 14-C , 32-H ) :   0.9151 B( 15-C , 33-H ) :   0.9459
B( 15-C , 34-H ) :   0.9389 B( 15-C , 35-H ) :   0.9338 B( 16-O , 17-C ) :   0.9035
B( 17-C , 18-C ) :   1.1668 B( 17-C , 36-H ) :   0.9166 B( 17-C , 37-H ) :   0.9358
B( 18-C , 38-H ) :   0.9317 B( 18-C , 39-H ) :   0.9390 B( 18-C , 40-H ) :   0.9468

Dispersion correction           -0.065677868
FINAL SINGLE POINT ENERGY     -2929.522923333410

DIPOLE MOMENT
-------------

Method             : SCF
Type of density    : Electron Density
Multiplicity       :   1
Irrep              :   0
Energy             : -2929.6428769735857713 Eh
Relativity type    :
Basis              : AO
                                X                 Y                 Z
Electronic contribution:     11.687703930       0.757540246     -16.105383902
Nuclear contribution   :    -12.480369662      -0.736747474      17.809032906
                        -----------------------------------------
Total Dipole Moment    :     -0.792665732       0.020792772       1.703649004
                        -----------------------------------------
Magnitude (a.u.)       :      1.879141089
Magnitude (Debye)      :      4.776397061

Rotational constants in cm-1:             0.013011             0.004841             0.004468
Rotational constants in MHz :           390.049119           145.130161           133.935112

                             ****ORCA TERMINATED NORMALLY****
TOTAL RUN TIME: 0 days 0 hours 0 minutes 21 seconds 405 msec
