                         Program Version 6.0.0  -   RELEASE  -
|  1> ! wb97x-v def2-tzvp def2/J RIJCOSX DEFGRID2 scfconv7 GCP(DFT/TZ) printgap
|  2> %output
|  3>     printlevel normal
|  4> end
|  5> * xyz 0 1
|  6> C -3.083349535315053 -0.38701529706792487 0.013544012488460025
|  7> C -1.6186982451919294 -0.04850913100337286 -0.010432624884541749
|  8> C -1.1861781709460275 1.2808815101472846 -0.008606620474620177
|  9> C 0.1718500244649114 1.5783736536690025 -0.0012840604127395026
| 10> C 1.1480116007710153 0.574598631770285 0.0026790570741585386
| 11> C 0.7248401819982606 -0.7662823136997984 -0.00208726785569755
| 12> C -0.6462300520219074 -1.0483257085790973 -0.00955478699567936
| 13> C 1.694889645717541 -1.9184510973145694 -0.00042426983911002307
| 14> C 2.605950788370454 0.9496210556505783 0.0069215490513743734
| 15> H -3.662373184783812 0.3144350065791109 -0.5946170409455802
| 16> H -3.2632591290971003 -1.3998747346420837 -0.3570446454797967
| 17> H -3.48007769669151 -0.3337017022258196 1.0346589786281353
| 18> H -1.9166578040237072 2.085938596313267 -0.014370941389388147
| 19> H 0.4893606903695248 2.618181855646004 -0.0025277300996422083
| 20> H -0.9617795079322091 -2.090226275833672 -0.016570777326086566
| 21> H 1.5190217571631015 -2.572134997951115 -0.8617392846584536
| 22> H 2.735130786203292 -1.59322706781769 -0.032466489943782685
| 23> H 1.5627813283694347 -2.533062618338148 0.8971430554879335
| 24> H 3.1242273846006925 0.5518535080826413 0.8865665454178789
| 25> H 3.127015845373527 0.5600798108881675 -0.8748420206466229
| 26> H 2.720448287144817 2.036428754908257 0.011861702245366047
| 27> *
| 28>
| 29>                          ****END OF INPUT****

CARTESIAN COORDINATES (ANGSTROEM)
---------------------------------
  C     -3.083350   -0.387015    0.013544
  C     -1.618698   -0.048509   -0.010433
  C     -1.186178    1.280882   -0.008607
  C      0.171850    1.578374   -0.001284
  C      1.148012    0.574599    0.002679
  C      0.724840   -0.766282   -0.002087
  C     -0.646230   -1.048326   -0.009555
  C      1.694890   -1.918451   -0.000424
  C      2.605951    0.949621    0.006922
  H     -3.662373    0.314435   -0.594617
  H     -3.263259   -1.399875   -0.357045
  H     -3.480078   -0.333702    1.034659
  H     -1.916658    2.085939   -0.014371
  H      0.489361    2.618182   -0.002528
  H     -0.961780   -2.090226   -0.016571
  H      1.519022   -2.572135   -0.861739
  H      2.735131   -1.593227   -0.032466
  H      1.562781   -2.533063    0.897143
  H      3.124227    0.551854    0.886567
  H      3.127016    0.560080   -0.874842
  H      2.720448    2.036429    0.011862

 Total Charge           Charge          ....    0
 Multiplicity           Mult            ....    1
 Number of Electrons    NEL             ....   66
 Basis Dimension        Dim             ....  351

ORBITAL ENERGIES
----------------

  NO   OCC          E(Eh)            E(eV)
   0   2.0000     -12.053042      -327.9800
   1   2.0000     -12.051672      -327.9427
   2   2.0000     -12.050114      -327.9003
   3   2.0000     -12.041814      -327.6744
   4   2.0000     -12.040175      -327.6298
   5   2.0000     -12.039693      -327.6167
   6   2.0000     -12.039519      -327.6120
   7   2.0000     -12.038473      -327.5835
   8   2.0000     -12.037908      -327.5681
   9   2.0000      -1.381457       -37.5914
  10   2.0000      -1.305499       -35.5244
  11   2.0000      -1.279759       -34.8240
  12   2.0000      -1.220301       -33.2061
  13   2.0000      -1.189605       -32.3708
  14   2.0000      -1.154682       -31.4205
  15   2.0000      -1.088380       -29.6163
  16   2.0000      -1.055374       -28.7182
  17   2.0000      -0.958685       -26.0871
  18   2.0000      -0.935831       -25.4653
  19   2.0000      -0.898507       -24.4496
  20   2.0000      -0.861755       -23.4495
  21   2.0000      -0.860573       -23.4174
  22   2.0000      -0.844230       -22.9727
  23   2.0000      -0.835452       -22.7338
  24   2.0000      -0.831463       -22.6253
  25   2.0000      -0.824124       -22.4256
  26   2.0000      -0.823161       -22.3993
  27   2.0000      -0.810361       -22.0510
  28   2.0000      -0.800878       -21.7930
  29   2.0000      -0.786145       -21.3921
  30   2.0000      -0.741754       -20.1841
  31   2.0000      -0.626667       -17.0525
  32   2.0000      -0.619776       -16.8650
  33   0.0000      -0.233863        -6.3637
  34   0.0000      -0.229810        -6.2535
  35   0.0000      -0.071685        -1.9507
  36   0.0000      -0.057225        -1.5572
  37   0.0000      -0.019482        -0.5301

MULLIKEN ATOMIC CHARGES
-----------------------
   0 C :   -0.365732
   1 C :    0.183565
   2 C :   -0.218194
   3 C :   -0.150901
   4 C :    0.080583
   5 C :    0.119243
   6 C :   -0.288290
   7 C :   -0.387171
   8 C :   -0.402884
   9 H :    0.119384
  10 H :    0.116596
  11 H :    0.123186
  12 H :    0.109136
  13 H :    0.103960
  14 H :    0.106644
  15 H :    0.125595
  16 H :    0.124988
  17 H :    0.126247
  18 H :    0.129349
  19 H :    0.128669
  20 H :    0.116026
Sum of atomic charges:    0.0000000

LOEWDIN ATOMIC CHARGES
----------------------
   0 C :   -0.253435
   1 C :   -0.172820
   2 C :   -0.123236
   3 C :   -0.117902
   4 C :   -0.148950
   5 C :   -0.140105
   6 C :   -0.094122
   7 C :   -0.250624
   8 C :   -0.257288
   9 H :    0.124846
  10 H :    0.123630
  11 H :    0.127006
  12 H :    0.141935
  13 H :    0.141933
  14 H :    0.145096
  15 H :    0.128066
  16 H :    0.123641
  17 H :    0.128276
  18 H :    0.125045
  19 H :    0.124972
  20 H :    0.124039

  Mayer bond orders larger than 0.100000
B(  0-C ,  1-C ) :   0.9125 B(  0-C ,  9-H ) :   0.9898 B(  0-C , 10-H ) :   0.9960
B(  0-C , 11-H ) :   0.9650 B(  1-C ,  2-C ) :   1.3679 B(  1-C ,  6-C ) :   1.4028
B(  2-C ,  3-C ) :   1.4480 B(  2-C , 12-H ) :   0.9800 B(  3-C ,  4-C ) :   1.4127
B(  3-C , 13-H ) :   0.9735 B(  4-C ,  5-C ) :   1.3698 B(  4-C ,  8-C ) :   0.8962
B(  5-C ,  6-C ) :   1.3947 B(  5-C ,  7-C ) :   0.9007 B(  6-C , 14-H ) :   0.9765
B(  7-C , 15-H ) :   0.9816 B(  7-C , 16-H ) :   0.9994 B(  7-C , 17-H ) :   0.9801
B(  8-C , 18-H ) :   0.9863 B(  8-C , 19-H ) :   0.9861 B(  8-C , 20-H ) :   0.9892

FINAL SINGLE POINT ENERGY      -350.206717499861

DIPOLE MOMENT
-------------

Method             : SCF
Type of density    : Electron Density
Multiplicity       :   1
Irrep              :   0
Energy             :  -350.2194062332605995 Eh
Relativity type    :
Basis              : AO
                                X                 Y                 Z
Electronic contribution:     -1.811713928       2.112912016      -0.058843171
Nuclear contribution   :      1.894855613      -2.229076212       0.074569996
                        -----------------------------------------
Total Dipole Moment    :      0.083141685      -0.116164196       0.015726825
                        -----------------------------------------
Magnitude (a.u.)       :      0.143714972
Magnitude (Debye)      :      0.365294429

Rotational constants in cm-1:             0.097002             0.043041             0.030316
Rotational constants in MHz :          2908.036035          1290.342705           908.859115

                             ****ORCA TERMINATED NORMALLY****
TOTAL RUN TIME: 0 days 0 hours 4 minutes 9 seconds 268 msec
