                         Program Version 6.0.0  -   RELEASE  -
|  1> ! wb97x-v def2-tzvp def2/J RIJCOSX DEFGRID2 scfconv7 GCP(DFT/TZ) printgap
|  2> %output
|  3>     printlevel normal
|  4> end
|  5> %cpcm
|  6>     smd true
|  7>     smdsolvent "water"
|  8> end
|  9> * xyz 0 1
| 10> C -3.083349535315053 -0.38701529706792487 0.013544012488460025
| 11> C -1.6186982451919294 -0.04850913100337286 -0.010432624884541749
| 12> C -1.1861781709460275 1.2808815101472846 -0.008606620474620177
| 13> C 0.1718500244649114 1.5783736536690025 -0.0012840604127395026
| 14> C 1.1480116007710153 0.574598631770285 0.0026790570741585386
| 15> C 0.7248401819982606 -0.7662823136997984 -0.00208726785569755
| 16> C -0.6462300520219074 -1.0483257085790973 -0.00955478699567936
| 17> C 1.694889645717541 -1.9184510973145694 -0.00042426983911002307
| 18> C 2.605950788370454 0.9496210556505783 0.0069215490513743734
| 19> H -3.662373184783812 0.3144350065791109 -0.5946170409455802
| 20> H -3.2632591290971003 -1.3998747346420837 -0.3570446454797967
| 21> H -3.48007769669151 -0.3337017022258196 1.0346589786281353
| 22> H -1.9166578040237072 2.085938596313267 -0.014370941389388147
| 23> H 0.4893606903695248 2.618181855646004 -0.0025277300996422083
| 24> H -0.9617795079322091 -2.090226275833672 -0.016570777326086566
| 25> H 1.5190217571631015 -2.572134997951115 -0.8617392846584536
| 26> H 2.735130786203292 -1.59322706781769 -0.032466489943782685
| 27> H 1.5627813283694347 -2.533062618338148 0.8971430554879335
| 28> H 3.1242273846006925 0.5518535080826413 0.8865665454178789
| 29> H 3.127015845373527 0.5600798108881675 -0.8748420206466229
| 30> H 2.720448287144817 2.036428754908257 0.011861702245366047
| 31> *
| 32>
| 33>                          ****END OF INPUT****

CARTESIAN COORDINATES (ANGSTROEM)
---------------------------------
  C     -3.083350   -0.387015    0.013544
  C     -1.618698   -0.048509   -0.010433
  C     -1.186178    1.280882   -0.008607
  C      0.171850    1.578374   -0.001284
  C      1.148012    0.574599    0.002679
  C      0.724840   -0.766282   -0.002087
  C     -0.646230   -1.048326   -0.009555
  C      1.694890   -1.918451   -0.000424
  C      2.605951    0.949621    0.006922
  H     -3.662373    0.314435   -0.594617
  H     -3.263259   -1.399875   -0.357045
  H     -3.480078   -0.333702    1.034659
  H     -1.916658    2.085939   -0.014371
  H      0.489361    2.618182   -0.002528
  H     -0.961780   -2.090226   -0.016571
  H      1.519022   -2.572135   -0.861739
  H      2.735131   -1.593227   -0.032466
  H      1.562781   -2.533063    0.897143
  H      3.124227    0.551854    0.886567
  H      3.127016    0.560080   -0.874842
  H      2.720448    2.036429    0.011862

 Total Charge           Charge          ....    0
 Multiplicity           Mult            ....    1
 Number of Electrons    NEL             ....   66
 Basis Dimension        Dim             ....  351

ORBITAL ENERGIES
----------------

  NO   OCC          E(Eh)            E(eV)
   0   2.0000     -12.053059      -327.9804
   1   2.0000     -12.051986      -327.9512
   2   2.0000     -12.050042      -327.8983
   3   2.0000     -12.041365      -327.6622
   4   2.0000     -12.038029      -327.5714
   5   2.0000     -12.037150      -327.5475
   6   2.0000     -12.032250      -327.4142
   7   2.0000     -12.031678      -327.3986
   8   2.0000     -12.031268      -327.3875
   9   2.0000      -1.382459       -37.6186
  10   2.0000      -1.304243       -35.4903
  11   2.0000      -1.279128       -34.8068
  12   2.0000      -1.215853       -33.0850
  13   2.0000      -1.185170       -32.2501
  14   2.0000      -1.150484       -31.3062
  15   2.0000      -1.087306       -29.5871
  16   2.0000      -1.053307       -28.6619
  17   2.0000      -0.958006       -26.0687
  18   2.0000      -0.933206       -25.3938
  19   2.0000      -0.894756       -24.3475
  20   2.0000      -0.858850       -23.3705
  21   2.0000      -0.858037       -23.3484
  22   2.0000      -0.838960       -22.8293
  23   2.0000      -0.828888       -22.5552
  24   2.0000      -0.825464       -22.4620
  25   2.0000      -0.817747       -22.2520
  26   2.0000      -0.816288       -22.2123
  27   2.0000      -0.802958       -21.8496
  28   2.0000      -0.795004       -21.6331
  29   2.0000      -0.782619       -21.2961
  30   2.0000      -0.742428       -20.2025
  31   2.0000      -0.628968       -17.1151
  32   2.0000      -0.620973       -16.8975
  33   0.0000      -0.235139        -6.3985
  34   0.0000      -0.231600        -6.3021
  35   0.0000      -0.071615        -1.9488
  36   0.0000      -0.052406        -1.4260
  37   0.0000      -0.012618        -0.3434

MULLIKEN ATOMIC CHARGES
-----------------------
   0 C :   -0.395261
   1 C :    0.146875
   2 C :   -0.266002
   3 C :   -0.195571
   4 C :    0.042397
   5 C :    0.100289
   6 C :   -0.328339
   7 C :   -0.414686
   8 C :   -0.426419
   9 H :    0.139841
  10 H :    0.140122
  11 H :    0.139426
  12 H :    0.152361
  13 H :    0.150278
  14 H :    0.149019
  15 H :    0.142487
  16 H :    0.147565
  17 H :    0.142730
  18 H :    0.146309
  19 H :    0.145966
  20 H :    0.140614
Sum of atomic charges:    0.0000000

LOEWDIN ATOMIC CHARGES
----------------------
   0 C :   -0.256188
   1 C :   -0.184465
   2 C :   -0.137094
   3 C :   -0.130931
   4 C :   -0.159003
   5 C :   -0.148298
   6 C :   -0.103028
   7 C :   -0.251658
   8 C :   -0.259185
   9 H :    0.129594
  10 H :    0.128920
  11 H :    0.131318
  12 H :    0.150768
  13 H :    0.151400
  14 H :    0.154711
  15 H :    0.132530
  16 H :    0.128734
  17 H :    0.132739
  18 H :    0.130122
  19 H :    0.130145
  20 H :    0.128868

  Mayer bond orders larger than 0.100000
B(  0-C ,  1-C ) :   0.9304 B(  0-C ,  9-H ) :   0.9833 B(  0-C , 10-H ) :   0.9904
B(  0-C , 11-H ) :   0.9600 B(  1-C ,  2-C ) :   1.3462 B(  1-C ,  6-C ) :   1.3876
B(  2-C ,  3-C ) :   1.4258 B(  2-C , 12-H ) :   0.9875 B(  3-C ,  4-C ) :   1.3934
B(  3-C , 13-H ) :   0.9814 B(  4-C ,  5-C ) :   1.3460 B(  4-C ,  8-C ) :   0.9193
B(  5-C ,  6-C ) :   1.3764 B(  5-C ,  7-C ) :   0.9198 B(  6-C , 14-H ) :   0.9883
B(  7-C , 15-H ) :   0.9745 B(  7-C , 16-H ) :   0.9951 B(  7-C , 17-H ) :   0.9731
B(  8-C , 18-H ) :   0.9788 B(  8-C , 19-H ) :   0.9786 B(  8-C , 20-H ) :   0.9844

FINAL SINGLE POINT ENERGY      -350.207391498441

DIPOLE MOMENT
-------------

Method             : SCF
Type of density    : Electron Density
Multiplicity       :   1
Irrep              :   0
Energy             :  -350.2200802318409956 Eh
Relativity type    :
Basis              : AO
                                X                 Y                 Z
Electronic contribution:     -1.757671243       2.040949028      -0.052861304
Nuclear contribution   :      1.894855613      -2.229076212       0.074569996
                        -----------------------------------------
Total Dipole Moment    :      0.137184370      -0.188127184       0.021708692
                        -----------------------------------------
Magnitude (a.u.)       :      0.233843230
Magnitude (Debye)      :      0.594382254

Rotational constants in cm-1:             0.097002             0.043041             0.030316
Rotational constants in MHz :          2908.036035          1290.342705           908.859115

                             ****ORCA TERMINATED NORMALLY****
TOTAL RUN TIME: 0 days 0 hours 3 minutes 31 seconds 43 msec
