                         Program Version 6.0.0  -   RELEASE  -
|  1> ! pbe def2-sv(p) def2/J RI DEFGRID1 loosescf d4 GCP(DFT/SV(P)) printgap
|  2> %output
|  3>     printlevel normal
|  4> end
|  5> * xyz 0 1
|  6> C 5.0671707812 -1.4738416175 -0.5529126396
|  7> C 4.5742154147 -0.3972784009 -1.4967412729
|  8> O 3.1604052088 -0.1526289451 -1.3451167809
|  9> P 2.5671665958 0.5088635804 -0.0280685868
| 10> S 3.6945575091 1.845382914 0.8517351669
| 11> O 2.2227805218 -0.7791328879 0.848592207
| 12> C 2.0703618911 -0.7153468155 2.2749704867
| 13> C 0.88830215 0.1359753939 2.6911301409
| 14> S 0.7247045135 1.1723369815 -0.8246452743
| 15> C 0.1575569486 -0.3971509644 -1.5505530494
| 16> S -0.688764302 -1.4807289657 -0.3721670653
| 17> P -2.4504524998 -0.3385984332 -0.2283132742
| 18> S -3.0913855914 0.4993830215 -1.8873109556
| 19> O -2.1122403709 0.6355574577 0.9679813008
| 20> C -2.7774401677 1.9025394246 1.1723413057
| 21> C -1.7492513273 2.9262832954 1.6079225621
| 22> O -3.4899984456 -1.324556455 0.4593926324
| 23> C -4.1922354975 -2.33767059 -0.2896334112
| 24> C -5.4275188938 -2.7265785003 0.4972456264
| 25> H 6.1036139765 -1.7028350882 -0.780201969
| 26> H 5.000837001 -1.1223238278 0.4757992431
| 27> H 4.4654958104 -2.372924589 -0.657752637
| 28> H 4.6759689377 -0.6941433857 -2.541461889
| 29> H 5.1074816814 0.5425516649 -1.322979917
| 30> H 1.9440754632 -1.7569902739 2.572573819
| 31> H 2.9936249522 -0.30959409 2.7009899814
| 32> H 0.7988124975 0.1232746923 3.7727293192
| 33> H 1.0441623162 1.1636090914 2.3610579168
| 34> H -0.0331809885 -0.2381840079 2.2513880976
| 35> H 1.0089675012 -0.9437516246 -1.9433405441
| 36> H -0.5418578543 -0.1238846047 -2.3415538154
| 37> H -3.2616655572 2.2014047813 0.236427285
| 38> H -3.5375108019 1.7458590197 1.9403888103
| 39> H -2.2439751704 3.8781869361 1.7711809344
| 40> H -1.2704656347 2.6069734856 2.5289899054
| 41> H -0.9896359811 3.0457388624 0.8386325576
| 42> H -4.4539262223 -1.92742872 -1.2708623762
| 43> H -3.5191015758 -3.1883049839 -0.4235814508
| 44> H -5.140837561 -3.0906550369 1.4794871115
| 45> H -6.0807855072 -1.8668931998 0.6171459632
| 46> H -5.9583299305 -3.5080924851 -0.0363491975
| 47> *
| 48>
| 49>                          ****END OF INPUT****

CARTESIAN COORDINATES (ANGSTROEM)
---------------------------------
  C      5.067171   -1.473842   -0.552913
  C      4.574215   -0.397278   -1.496741
  O      3.160405   -0.152629   -1.345117
  P      2.567167    0.508864   -0.028069
  S      3.694558    1.845383    0.851735
  O      2.222781   -0.779133    0.848592
  C      2.070362   -0.715347    2.274970
  C      0.888302    0.135975    2.691130
  S      0.724705    1.172337   -0.824645
  C      0.157557   -0.397151   -1.550553
  S     -0.688764   -1.480729   -0.372167
  P     -2.450452   -0.338598   -0.228313
  S     -3.091386    0.499383   -1.887311
  O     -2.112240    0.635557    0.967981
  C     -2.777440    1.902539    1.172341
  C     -1.749251    2.926283    1.607923
  O     -3.489998   -1.324556    0.459393
  C     -4.192235   -2.337671   -0.289633
  C     -5.427519   -2.726579    0.497246
  H      6.103614   -1.702835   -0.780202
  H      5.000837   -1.122324    0.475799
  H      4.465496   -2.372925   -0.657753
  H      4.675969   -0.694143   -2.541462
  H      5.107482    0.542552   -1.322980
  H      1.944075   -1.756990    2.572574
  H      2.993625   -0.309594    2.700990
  H      0.798812    0.123275    3.772729
  H      1.044162    1.163609    2.361058
  H     -0.033181   -0.238184    2.251388
  H      1.008968   -0.943752   -1.943341
  H     -0.541858   -0.123885   -2.341554
  H     -3.261666    2.201405    0.236427
  H     -3.537511    1.745859    1.940389
  H     -2.243975    3.878187    1.771181
  H     -1.270466    2.606973    2.528990
  H     -0.989636    3.045739    0.838633
  H     -4.453926   -1.927429   -1.270862
  H     -3.519102   -3.188305   -0.423581
  H     -5.140838   -3.090655    1.479487
  H     -6.080786   -1.866893    0.617146
  H     -5.958330   -3.508092   -0.036349

 Total Charge           Charge          ....    0
 Multiplicity           Mult            ....    1
 Number of Electrons    NEL             ....  202
 Basis Dimension        Dim             ....  334

ORBITAL ENERGIES
----------------

  NO   OCC          E(Eh)            E(eV)
   0   2.0000     -88.045794     -2395.8479
   1   2.0000     -88.040779     -2395.7114
   2   2.0000     -87.991349     -2394.3663
   3   2.0000     -87.989321     -2394.3111
   4   2.0000     -76.429245     -2079.7455
   5   2.0000     -76.426956     -2079.6832
   6   2.0000     -18.796237      -511.4716
   7   2.0000     -18.794239      -511.4173
   8   2.0000     -18.793369      -511.3936
   9   2.0000     -18.790652      -511.3196
  10   2.0000      -9.956056      -270.9180
  11   2.0000      -9.955645      -270.9069
  12   2.0000      -9.954193      -270.8674
  13   2.0000      -9.951818      -270.8027
  14   2.0000      -9.948507      -270.7126
  15   2.0000      -9.890954      -269.1465
  16   2.0000      -9.886039      -269.0128
  17   2.0000      -9.881975      -268.9022
  18   2.0000      -9.874514      -268.6992
  19   2.0000      -7.691253      -209.2896
  20   2.0000      -7.685959      -209.1456
  21   2.0000      -7.636279      -207.7937
  22   2.0000      -7.634464      -207.7443
  23   2.0000      -6.427141      -174.8914
  24   2.0000      -6.424641      -174.8234
  25   2.0000      -5.718995      -155.6218
  26   2.0000      -5.715794      -155.5347
  27   2.0000      -5.714194      -155.4911
  28   2.0000      -5.710363      -155.3869
  29   2.0000      -5.708230      -155.3288
  30   2.0000      -5.702642      -155.1768
  31   2.0000      -5.664975      -154.1518
  32   2.0000      -5.663389      -154.1086
  33   2.0000      -5.656917      -153.9325
  34   2.0000      -5.656654      -153.9254
  35   2.0000      -5.655169      -153.8850
  36   2.0000      -5.654540      -153.8679
  37   2.0000      -4.649552      -126.5207
  38   2.0000      -4.648891      -126.5027
  39   2.0000      -4.647661      -126.4693
  40   2.0000      -4.647025      -126.4520
  41   2.0000      -4.646562      -126.4394
  42   2.0000      -4.645148      -126.4009
  43   2.0000      -0.989884       -26.9361
  44   2.0000      -0.986813       -26.8525
  45   2.0000      -0.948548       -25.8113
  46   2.0000      -0.945723       -25.7344
  47   2.0000      -0.765874       -20.8405
  48   2.0000      -0.725653       -19.7460
  49   2.0000      -0.709729       -19.3127
  50   2.0000      -0.689852       -18.7718
  51   2.0000      -0.684315       -18.6211
  52   2.0000      -0.674476       -18.3534
  53   2.0000      -0.654869       -17.8199
  54   2.0000      -0.640199       -17.4207
  55   2.0000      -0.600154       -16.3310
  56   2.0000      -0.593075       -16.1384
  57   2.0000      -0.572583       -15.5808
  58   2.0000      -0.569640       -15.5007
  59   2.0000      -0.559790       -15.2327
  60   2.0000      -0.510493       -13.8912
  61   2.0000      -0.493395       -13.4260
  62   2.0000      -0.483488       -13.1564
  63   2.0000      -0.470761       -12.8101
  64   2.0000      -0.461655       -12.5623
  65   2.0000      -0.445943       -12.1347
  66   2.0000      -0.438476       -11.9315
  67   2.0000      -0.437263       -11.8985
  68   2.0000      -0.434190       -11.8149
  69   2.0000      -0.412888       -11.2352
  70   2.0000      -0.408678       -11.1207
  71   2.0000      -0.395875       -10.7723
  72   2.0000      -0.395486       -10.7617
  73   2.0000      -0.393036       -10.6951
  74   2.0000      -0.381170       -10.3722
  75   2.0000      -0.378256       -10.2929
  76   2.0000      -0.365662        -9.9502
  77   2.0000      -0.359091        -9.7714
  78   2.0000      -0.352883        -9.6024
  79   2.0000      -0.351526        -9.5655
  80   2.0000      -0.347387        -9.4529
  81   2.0000      -0.346083        -9.4174
  82   2.0000      -0.339499        -9.2382
  83   2.0000      -0.337084        -9.1725
  84   2.0000      -0.331086        -9.0093
  85   2.0000      -0.321813        -8.7570
  86   2.0000      -0.310890        -8.4597
  87   2.0000      -0.303994        -8.2721
  88   2.0000      -0.296023        -8.0552
  89   2.0000      -0.290768        -7.9122
  90   2.0000      -0.287314        -7.8182
  91   2.0000      -0.278774        -7.5858
  92   2.0000      -0.274707        -7.4752
  93   2.0000      -0.267672        -7.2837
  94   2.0000      -0.257388        -7.0039
  95   2.0000      -0.233629        -6.3574
  96   2.0000      -0.218047        -5.9334
  97   2.0000      -0.211614        -5.7583
  98   2.0000      -0.209984        -5.7140
  99   2.0000      -0.206488        -5.6188
 100   2.0000      -0.204162        -5.5555
 101   0.0000      -0.041986        -1.1425
 102   0.0000      -0.024158        -0.6574
 103   0.0000      -0.014138        -0.3847
 104   0.0000       0.004357         0.1186
 105   0.0000       0.011426         0.3109

MULLIKEN ATOMIC CHARGES
-----------------------
   0 C :   -0.307976
   1 C :   -0.003292
   2 O :   -0.384144
   3 P :    0.606467
   4 S :   -0.317966
   5 O :   -0.378646
   6 C :    0.008322
   7 C :   -0.347296
   8 S :   -0.057539
   9 C :   -0.376303
  10 S :   -0.075925
  11 P :    0.614585
  12 S :   -0.336940
  13 O :   -0.356499
  14 C :   -0.012899
  15 C :   -0.295786
  16 O :   -0.377719
  17 C :   -0.011117
  18 C :   -0.280489
  19 H :    0.113237
  20 H :    0.124760
  21 H :    0.115761
  22 H :    0.106015
  23 H :    0.114809
  24 H :    0.101718
  25 H :    0.106693
  26 H :    0.105592
  27 H :    0.126095
  28 H :    0.141920
  29 H :    0.193995
  30 H :    0.199073
  31 H :    0.110357
  32 H :    0.103667
  33 H :    0.109256
  34 H :    0.124594
  35 H :    0.134605
  36 H :    0.107815
  37 H :    0.102030
  38 H :    0.117238
  39 H :    0.118796
  40 H :    0.113135
Sum of atomic charges:    0.0000000

LOEWDIN ATOMIC CHARGES
----------------------
   0 C :   -0.365143
   1 C :   -0.115476
   2 O :   -0.249074
   3 P :    0.572293
   4 S :   -0.317594
   5 O :   -0.247571
   6 C :   -0.118750
   7 C :   -0.377343
   8 S :    0.100030
   9 C :   -0.482729
  10 S :    0.093373
  11 P :    0.567217
  12 S :   -0.320290
  13 O :   -0.233781
  14 C :   -0.115407
  15 C :   -0.354259
  16 O :   -0.250256
  17 C :   -0.119735
  18 C :   -0.350247
  19 H :    0.130990
  20 H :    0.123344
  21 H :    0.125982
  22 H :    0.119054
  23 H :    0.112868
  24 H :    0.118060
  25 H :    0.107886
  26 H :    0.128107
  27 H :    0.119013
  28 H :    0.120410
  29 H :    0.135978
  30 H :    0.131206
  31 H :    0.107762
  32 H :    0.114447
  33 H :    0.129827
  34 H :    0.127051
  35 H :    0.126686
  36 H :    0.108648
  37 H :    0.110486
  38 H :    0.127174
  39 H :    0.128371
  40 H :    0.131392

  Mayer bond orders larger than 0.100000
B(  0-C ,  1-C ) :   1.1627 B(  0-C , 19-H ) :   0.9381 B(  0-C , 20-H ) :   0.9360
B(  0-C , 21-H ) :   0.9462 B(  1-C ,  2-O ) :   0.9060 B(  1-C , 22-H ) :   0.9357
B(  1-C , 23-H ) :   0.9176 B(  2-O ,  3-P ) :   1.0918 B(  3-P ,  4-S ) :   1.6315
B(  3-P ,  5-O ) :   1.0870 B(  3-P ,  8-S ) :   0.9816 B(  5-O ,  6-C ) :   0.9031
B(  6-C ,  7-C ) :   1.1629 B(  6-C , 24-H ) :   0.9324 B(  6-C , 25-H ) :   0.9182
B(  7-C , 26-H ) :   0.9372 B(  7-C , 27-H ) :   0.9296 B(  7-C , 28-H ) :   0.9280
B(  8-S ,  9-C ) :   0.9844 B(  9-C , 10-S ) :   1.0006 B(  9-C , 29-H ) :   0.8885
B(  9-C , 30-H ) :   0.8699 B( 10-S , 11-P ) :   0.9754 B( 10-S , 12-S ) :   0.1087
B( 11-P , 12-S ) :   1.6055 B( 11-P , 13-O ) :   1.1391 B( 11-P , 16-O ) :   1.1156
B( 13-O , 14-C ) :   0.8914 B( 14-C , 15-C ) :   1.1672 B( 14-C , 31-H ) :   0.9037
B( 14-C , 32-H ) :   0.9328 B( 15-C , 33-H ) :   0.9392 B( 15-C , 34-H ) :   0.9454
B( 15-C , 35-H ) :   0.9427 B( 16-O , 17-C ) :   0.9043 B( 17-C , 18-C ) :   1.1615
B( 17-C , 36-H ) :   0.9088 B( 17-C , 37-H ) :   0.9301 B( 18-C , 38-H ) :   0.9507
B( 18-C , 39-H ) :   0.9511 B( 18-C , 40-H ) :   0.9419

Dispersion correction           -0.063984756
FINAL SINGLE POINT ENERGY     -2929.524248331108

DIPOLE MOMENT
-------------

Method             : SCF
Type of density    : Electron Density
Multiplicity       :   1
Irrep              :   0
Energy             : -2929.6457843765965663 Eh
Relativity type    :
Basis              : AO
                                X                 Y                 Z
Electronic contribution:      3.422909690       6.030085446     -11.312121933
Nuclear contribution   :     -3.773859610      -7.307405167      11.780114294
                        -----------------------------------------
Total Dipole Moment    :     -0.350949920      -1.277319721       0.467992361
                        -----------------------------------------
Magnitude (a.u.)       :      1.404894432
Magnitude (Debye)      :      3.570957858

Rotational constants in cm-1:             0.013708             0.004380             0.004135
Rotational constants in MHz :           410.953621           131.300562           123.951431

                             ****ORCA TERMINATED NORMALLY****
TOTAL RUN TIME: 0 days 0 hours 0 minutes 21 seconds 54 msec
