                         Program Version 6.0.0  -   RELEASE  -
|  1> ! pbe def2-sv(p) def2/J RI DEFGRID1 loosescf d4 GCP(DFT/SV(P)) printgap
|  2> %output
|  3>     printlevel normal
|  4> end
|  5> * xyz 0 1
|  6> C 2.5657889831 -0.8546830126 -2.9160995991
|  7> C 2.7974876427 0.4757971497 -2.2286117893
|  8> O 3.2138180719 0.2827001167 -0.8634760036
|  9> P 2.2834239453 0.3321618642 0.4197418926
| 10> S 1.2876432953 1.9820202821 0.7633098075
| 11> O 3.3446561195 0.1245194414 1.5663888647
| 12> C 4.2507784448 -1.0090154242 1.6291329733
| 13> C 3.8592196122 -1.9247115681 2.7717284007
| 14> S 1.1525109776 -1.4694985502 0.3628750498
| 15> C -0.146532754 -0.9775976167 1.542433008
| 16> S -1.815836529 -1.3241690669 0.9453935224
| 17> P -2.0333193737 0.2647252558 -0.4647600378
| 18> S -0.7381369078 0.4202780534 -1.9199857741
| 19> O -2.0323204567 1.5980557091 0.3726322099
| 20> C -2.9232902702 1.8706739285 1.480617816
| 21> C -4.1006719677 2.707268323 1.0236852711
| 22> O -3.5583144198 0.1108119482 -0.8811216764
| 23> C -4.1816502047 -1.1161012864 -1.3091338523
| 24> C -3.4086802473 -1.8218342794 -2.4026511128
| 25> H 2.3577558681 -0.6736990303 -3.9653621402
| 26> H 3.446121076 -1.4841588841 -2.8227496852
| 27> H 1.710183959 -1.3632196854 -2.4781146738
| 28> H 1.894363483 1.0918328934 -2.2528221421
| 29> H 3.6234021535 1.0225649466 -2.6875699909
| 30> H 4.2359694596 -1.5344760466 0.6723824984
| 31> H 5.2358430345 -0.5689617208 1.7903794805
| 32> H 2.9031371711 -2.4004828044 2.5686167854
| 33> H 4.618510193 -2.6918563213 2.8852500968
| 34> H 3.7842313639 -1.3551535076 3.6938309887
| 35> H -0.0388693335 0.0934831152 1.7358089441
| 36> H -0.0355521957 -1.5613605723 2.452434004
| 37> H -3.2553916541 0.9229942791 1.9145428956
| 38> H -2.3040743688 2.4126661457 2.1987492108
| 39> H -4.7195587734 2.947963494 1.882368142
| 40> H -3.7457658986 3.6270682174 0.5666837938
| 41> H -4.6912938019 2.1596233003 0.2940193477
| 42> H -4.2896926728 -1.7620753911 -0.4335316378
| 43> H -5.1645986622 -0.7956762335 -1.6590343472
| 44> H -2.4367915883 -2.1423243309 -2.0291058277
| 45> H -3.9655009533 -2.6929134716 -2.7325086982
| 46> H -3.2478656266 -1.1544749226 -3.246267113
| 47> *
| 48>
| 49>                          ****END OF INPUT****

CARTESIAN COORDINATES (ANGSTROEM)
---------------------------------
  C      2.565789   -0.854683   -2.916100
  C      2.797488    0.475797   -2.228612
  O      3.213818    0.282700   -0.863476
  P      2.283424    0.332162    0.419742
  S      1.287643    1.982020    0.763310
  O      3.344656    0.124519    1.566389
  C      4.250778   -1.009015    1.629133
  C      3.859220   -1.924712    2.771728
  S      1.152511   -1.469499    0.362875
  C     -0.146533   -0.977598    1.542433
  S     -1.815837   -1.324169    0.945394
  P     -2.033319    0.264725   -0.464760
  S     -0.738137    0.420278   -1.919986
  O     -2.032320    1.598056    0.372632
  C     -2.923290    1.870674    1.480618
  C     -4.100672    2.707268    1.023685
  O     -3.558314    0.110812   -0.881122
  C     -4.181650   -1.116101   -1.309134
  C     -3.408680   -1.821834   -2.402651
  H      2.357756   -0.673699   -3.965362
  H      3.446121   -1.484159   -2.822750
  H      1.710184   -1.363220   -2.478115
  H      1.894363    1.091833   -2.252822
  H      3.623402    1.022565   -2.687570
  H      4.235969   -1.534476    0.672382
  H      5.235843   -0.568962    1.790379
  H      2.903137   -2.400483    2.568617
  H      4.618510   -2.691856    2.885250
  H      3.784231   -1.355154    3.693831
  H     -0.038869    0.093483    1.735809
  H     -0.035552   -1.561361    2.452434
  H     -3.255392    0.922994    1.914543
  H     -2.304074    2.412666    2.198749
  H     -4.719559    2.947963    1.882368
  H     -3.745766    3.627068    0.566684
  H     -4.691294    2.159623    0.294019
  H     -4.289693   -1.762075   -0.433532
  H     -5.164599   -0.795676   -1.659034
  H     -2.436792   -2.142324   -2.029106
  H     -3.965501   -2.692913   -2.732509
  H     -3.247866   -1.154475   -3.246267

 Total Charge           Charge          ....    0
 Multiplicity           Mult            ....    1
 Number of Electrons    NEL             ....  202
 Basis Dimension        Dim             ....  334

ORBITAL ENERGIES
----------------

  NO   OCC          E(Eh)            E(eV)
   0   2.0000     -88.046381     -2395.8638
   1   2.0000     -88.038037     -2395.6368
   2   2.0000     -87.975939     -2393.9470
   3   2.0000     -87.974484     -2393.9074
   4   2.0000     -76.423870     -2079.5992
   5   2.0000     -76.418413     -2079.4507
   6   2.0000     -18.793515      -511.3975
   7   2.0000     -18.788168      -511.2520
   8   2.0000     -18.786412      -511.2043
   9   2.0000     -18.780567      -511.0452
  10   2.0000      -9.960747      -271.0457
  11   2.0000      -9.956224      -270.9226
  12   2.0000      -9.952113      -270.8108
  13   2.0000      -9.951189      -270.7856
  14   2.0000      -9.945383      -270.6276
  15   2.0000      -9.884867      -268.9809
  16   2.0000      -9.883669      -268.9483
  17   2.0000      -9.882972      -268.9293
  18   2.0000      -9.877098      -268.7695
  19   2.0000      -7.691213      -209.2885
  20   2.0000      -7.682750      -209.0583
  21   2.0000      -7.621089      -207.3804
  22   2.0000      -7.619772      -207.3446
  23   2.0000      -6.420962      -174.7233
  24   2.0000      -6.415965      -174.5873
  25   2.0000      -5.718863      -155.6182
  26   2.0000      -5.715600      -155.5294
  27   2.0000      -5.710559      -155.3922
  28   2.0000      -5.708579      -155.3383
  29   2.0000      -5.707386      -155.3059
  30   2.0000      -5.699698      -155.0967
  31   2.0000      -5.650170      -153.7489
  32   2.0000      -5.648952      -153.7158
  33   2.0000      -5.641495      -153.5129
  34   2.0000      -5.641233      -153.5057
  35   2.0000      -5.640527      -153.4866
  36   2.0000      -5.639484      -153.4582
  37   2.0000      -4.643909      -126.3672
  38   2.0000      -4.643163      -126.3469
  39   2.0000      -4.640745      -126.2811
  40   2.0000      -4.638738      -126.2265
  41   2.0000      -4.637783      -126.2005
  42   2.0000      -4.636177      -126.1568
  43   2.0000      -0.986735       -26.8504
  44   2.0000      -0.981104       -26.6972
  45   2.0000      -0.943681       -25.6789
  46   2.0000      -0.936566       -25.4853
  47   2.0000      -0.760977       -20.7072
  48   2.0000      -0.718228       -19.5440
  49   2.0000      -0.710145       -19.3240
  50   2.0000      -0.690669       -18.7941
  51   2.0000      -0.684582       -18.6284
  52   2.0000      -0.675217       -18.3736
  53   2.0000      -0.647795       -17.6274
  54   2.0000      -0.630063       -17.1449
  55   2.0000      -0.588976       -16.0268
  56   2.0000      -0.585095       -15.9213
  57   2.0000      -0.572912       -15.5897
  58   2.0000      -0.569909       -15.5080
  59   2.0000      -0.563441       -15.3320
  60   2.0000      -0.502853       -13.6833
  61   2.0000      -0.497346       -13.5335
  62   2.0000      -0.472797       -12.8655
  63   2.0000      -0.472377       -12.8540
  64   2.0000      -0.454767       -12.3748
  65   2.0000      -0.448596       -12.2069
  66   2.0000      -0.437495       -11.9049
  67   2.0000      -0.434674       -11.8281
  68   2.0000      -0.431844       -11.7511
  69   2.0000      -0.414390       -11.2761
  70   2.0000      -0.411635       -11.2012
  71   2.0000      -0.397028       -10.8037
  72   2.0000      -0.393867       -10.7177
  73   2.0000      -0.384613       -10.4658
  74   2.0000      -0.375529       -10.2187
  75   2.0000      -0.364760        -9.9256
  76   2.0000      -0.355284        -9.6678
  77   2.0000      -0.354252        -9.6397
  78   2.0000      -0.353932        -9.6310
  79   2.0000      -0.347491        -9.4557
  80   2.0000      -0.346067        -9.4170
  81   2.0000      -0.344247        -9.3674
  82   2.0000      -0.340718        -9.2714
  83   2.0000      -0.338509        -9.2113
  84   2.0000      -0.328208        -8.9310
  85   2.0000      -0.319452        -8.6927
  86   2.0000      -0.309061        -8.4100
  87   2.0000      -0.296908        -8.0793
  88   2.0000      -0.292985        -7.9725
  89   2.0000      -0.287163        -7.8141
  90   2.0000      -0.283689        -7.7196
  91   2.0000      -0.275297        -7.4912
  92   2.0000      -0.268979        -7.3193
  93   2.0000      -0.262147        -7.1334
  94   2.0000      -0.255006        -6.9391
  95   2.0000      -0.241401        -6.5688
  96   2.0000      -0.220395        -5.9973
  97   2.0000      -0.200859        -5.4656
  98   2.0000      -0.195051        -5.3076
  99   2.0000      -0.185371        -5.0442
 100   2.0000      -0.177598        -4.8327
 101   0.0000      -0.039483        -1.0744
 102   0.0000      -0.028670        -0.7802
 103   0.0000      -0.017067        -0.4644
 104   0.0000       0.002276         0.0619
 105   0.0000       0.023475         0.6388

MULLIKEN ATOMIC CHARGES
-----------------------
   0 C :   -0.312738
   1 C :   -0.010586
   2 O :   -0.379789
   3 P :    0.598254
   4 S :   -0.291949
   5 O :   -0.359473
   6 C :   -0.008281
   7 C :   -0.288632
   8 S :   -0.104402
   9 C :   -0.336777
  10 S :   -0.126265
  11 P :    0.603583
  12 S :   -0.305037
  13 O :   -0.341429
  14 C :   -0.013363
  15 C :   -0.287098
  16 O :   -0.380121
  17 C :   -0.013144
  18 C :   -0.311951
  19 H :    0.111164
  20 H :    0.107794
  21 H :    0.140682
  22 H :    0.131467
  23 H :    0.103978
  24 H :    0.102399
  25 H :    0.110175
  26 H :    0.114545
  27 H :    0.107652
  28 H :    0.118392
  29 H :    0.191316
  30 H :    0.180074
  31 H :    0.093803
  32 H :    0.112899
  33 H :    0.107312
  34 H :    0.123139
  35 H :    0.118654
  36 H :    0.113999
  37 H :    0.110848
  38 H :    0.128742
  39 H :    0.110850
  40 H :    0.129315
Sum of atomic charges:    0.0000000

LOEWDIN ATOMIC CHARGES
----------------------
   0 C :   -0.366235
   1 C :   -0.114159
   2 O :   -0.241751
   3 P :    0.565001
   4 S :   -0.295993
   5 O :   -0.243892
   6 C :   -0.113751
   7 C :   -0.360594
   8 S :    0.067602
   9 C :   -0.480183
  10 S :    0.061947
  11 P :    0.568181
  12 S :   -0.297081
  13 O :   -0.224056
  14 C :   -0.117143
  15 C :   -0.358450
  16 O :   -0.246335
  17 C :   -0.114645
  18 C :   -0.371484
  19 H :    0.131752
  20 H :    0.121273
  21 H :    0.121900
  22 H :    0.111810
  23 H :    0.118444
  24 H :    0.106659
  25 H :    0.121367
  26 H :    0.118028
  27 H :    0.128651
  28 H :    0.128163
  29 H :    0.121846
  30 H :    0.134383
  31 H :    0.100173
  32 H :    0.121858
  33 H :    0.128300
  34 H :    0.130242
  35 H :    0.125171
  36 H :    0.108205
  37 H :    0.121916
  38 H :    0.121934
  39 H :    0.129877
  40 H :    0.131069

  Mayer bond orders larger than 0.100000
B(  0-C ,  1-C ) :   1.1713 B(  0-C , 19-H ) :   0.9400 B(  0-C , 20-H ) :   0.9470
B(  0-C , 21-H ) :   0.9309 B(  1-C ,  2-O ) :   0.8947 B(  1-C , 22-H ) :   0.9047
B(  1-C , 23-H ) :   0.9340 B(  2-O ,  3-P ) :   1.1123 B(  3-P ,  4-S ) :   1.6518
B(  3-P ,  5-O ) :   1.1243 B(  3-P ,  8-S ) :   0.9328 B(  4-S ,  8-S ) :   0.1148
B(  4-S , 29-H ) :   0.1189 B(  5-O ,  6-C ) :   0.8942 B(  6-C ,  7-C ) :   1.1629
B(  6-C , 24-H ) :   0.9176 B(  6-C , 25-H ) :   0.9348 B(  7-C , 26-H ) :   0.9382
B(  7-C , 27-H ) :   0.9403 B(  7-C , 28-H ) :   0.9466 B(  8-S ,  9-C ) :   0.9946
B(  9-C , 10-S ) :   1.0030 B(  9-C , 29-H ) :   0.8477 B(  9-C , 30-H ) :   0.9104
B( 10-S , 11-P ) :   0.9359 B( 10-S , 12-S ) :   0.1145 B( 11-P , 12-S ) :   1.6722
B( 11-P , 13-O ) :   1.1394 B( 11-P , 16-O ) :   1.0767 B( 13-O , 14-C ) :   0.8964
B( 14-C , 15-C ) :   1.1664 B( 14-C , 31-H ) :   0.9103 B( 14-C , 32-H ) :   0.9324
B( 15-C , 33-H ) :   0.9403 B( 15-C , 34-H ) :   0.9472 B( 15-C , 35-H ) :   0.9434
B( 16-O , 17-C ) :   0.9128 B( 17-C , 18-C ) :   1.1682 B( 17-C , 36-H ) :   0.9268
B( 17-C , 37-H ) :   0.9331 B( 18-C , 38-H ) :   0.9313 B( 18-C , 39-H ) :   0.9333
B( 18-C , 40-H ) :   0.9410

Dispersion correction           -0.066253261
FINAL SINGLE POINT ENERGY     -2929.509529821609

DIPOLE MOMENT
-------------

Method             : SCF
Type of density    : Electron Density
Multiplicity       :   1
Irrep              :   0
Energy             : -2929.6278523217347356 Eh
Relativity type    :
Basis              : AO
                                X                 Y                 Z
Electronic contribution:      3.464600469       6.628188791       1.930409007
Nuclear contribution   :     -4.038683651      -7.904683883      -1.511144770
                        -----------------------------------------
Total Dipole Moment    :     -0.574083182      -1.276495092       0.419264237
                        -----------------------------------------
Magnitude (a.u.)       :      1.461093330
Magnitude (Debye)      :      3.713804104

Rotational constants in cm-1:             0.012105             0.005122             0.004835
Rotational constants in MHz :           362.888060           153.564981           144.941074

                             ****ORCA TERMINATED NORMALLY****
TOTAL RUN TIME: 0 days 0 hours 0 minutes 21 seconds 380 msec
