                         Program Version 6.0.0  -   RELEASE  -
|  1> ! pbe def2-sv(p) def2/J RI DEFGRID1 loosescf d4 GCP(DFT/SV(P)) printgap
|  2> %output
|  3>     printlevel normal
|  4> end
|  5> * xyz 0 1
|  6> C 3.5852792697 -1.2276392237 -2.1081842446
|  7> C 4.0654311092 -0.1216011571 -1.1901701663
|  8> O 3.4738735045 -0.1990989522 0.1161916386
|  9> P 1.905779715 -0.0340331374 0.3567123572
| 10> S 1.1817876262 1.4572638469 -0.7205693625
| 11> O 1.8522586286 0.2027977757 1.9253698485
| 12> C 2.1626816914 1.4742183905 2.531970307
| 13> C 3.6562648326 1.711846546 2.6303738876
| 14> S 1.3484812581 -2.0673581817 0.3525436118
| 15> C -0.3295884544 -2.2820727959 -0.3572103467
| 16> S -0.7812542869 -1.0660791968 -1.6190419365
| 17> P -1.921815442 0.2007719141 -0.3743098149
| 18> S -2.4456538566 1.9642365454 -1.0416227119
| 19> O -1.0791993252 0.1312735119 0.97970927
| 20> C -1.3177403434 1.0822941453 2.0386530303
| 21> C -2.7325621238 1.0279416926 2.5732447689
| 22> O -3.1605439379 -0.7212394575 0.043454279
| 23> C -4.394234051 -0.720521406 -0.6894506308
| 24> C -4.2488343344 -1.3691957661 -2.0514824315
| 25> H 2.5231783359 -1.0987383342 -2.3205612715
| 26> H 4.1351680676 -1.1816772117 -3.0427301771
| 27> H 3.7374425192 -2.1986009968 -1.6437414328
| 28> H 3.8273869427 0.8585764334 -1.6167964886
| 29> H 5.1367047382 -0.1937134659 -0.997717727
| 30> H 1.6788342657 2.266948414 1.9509290658
| 31> H 1.7102598088 1.4135254881 3.5235890344
| 32> H 3.8337083816 2.6037727059 3.2234886516
| 33> H 4.137087716 0.8600308771 3.1034831542
| 34> H 4.0853600951 1.8524654942 1.6412052648
| 35> H -1.0682367514 -2.2685588611 0.440338135
| 36> H -0.2923180102 -3.2515012259 -0.8495326985
| 37> H -0.5920015384 0.7974834142 2.8015353779
| 38> H -1.0846951806 2.0819027369 1.6564539251
| 39> H -2.9888860222 0.0122143815 2.8626718798
| 40> H -2.8059514636 1.6810824627 3.4373211246
| 41> H -3.4326561969 1.3706170088 1.8125694624
| 42> H -5.0826781846 -1.274219445 -0.0496661029
| 43> H -4.7318198611 0.3157470119 -0.7947218216
| 44> H -3.5738725678 -0.7795531099 -2.6718776027
| 45> H -3.8481665162 -2.3747246006 -1.9552702137
| 46> H -5.2204211551 -1.412196118 -2.5329691315
| 47> *
| 48>
| 49>                          ****END OF INPUT****

CARTESIAN COORDINATES (ANGSTROEM)
---------------------------------
  C      3.585279   -1.227639   -2.108184
  C      4.065431   -0.121601   -1.190170
  O      3.473874   -0.199099    0.116192
  P      1.905780   -0.034033    0.356712
  S      1.181788    1.457264   -0.720569
  O      1.852259    0.202798    1.925370
  C      2.162682    1.474218    2.531970
  C      3.656265    1.711847    2.630374
  S      1.348481   -2.067358    0.352544
  C     -0.329588   -2.282073   -0.357210
  S     -0.781254   -1.066079   -1.619042
  P     -1.921815    0.200772   -0.374310
  S     -2.445654    1.964237   -1.041623
  O     -1.079199    0.131274    0.979709
  C     -1.317740    1.082294    2.038653
  C     -2.732562    1.027942    2.573245
  O     -3.160544   -0.721239    0.043454
  C     -4.394234   -0.720521   -0.689451
  C     -4.248834   -1.369196   -2.051482
  H      2.523178   -1.098738   -2.320561
  H      4.135168   -1.181677   -3.042730
  H      3.737443   -2.198601   -1.643741
  H      3.827387    0.858576   -1.616796
  H      5.136705   -0.193713   -0.997718
  H      1.678834    2.266948    1.950929
  H      1.710260    1.413525    3.523589
  H      3.833708    2.603773    3.223489
  H      4.137088    0.860031    3.103483
  H      4.085360    1.852465    1.641205
  H     -1.068237   -2.268559    0.440338
  H     -0.292318   -3.251501   -0.849533
  H     -0.592002    0.797483    2.801535
  H     -1.084695    2.081903    1.656454
  H     -2.988886    0.012214    2.862672
  H     -2.805951    1.681082    3.437321
  H     -3.432656    1.370617    1.812569
  H     -5.082678   -1.274219   -0.049666
  H     -4.731820    0.315747   -0.794722
  H     -3.573873   -0.779553   -2.671878
  H     -3.848167   -2.374725   -1.955270
  H     -5.220421   -1.412196   -2.532969

 Total Charge           Charge          ....    0
 Multiplicity           Mult            ....    1
 Number of Electrons    NEL             ....  202
 Basis Dimension        Dim             ....  334

ORBITAL ENERGIES
----------------

  NO   OCC          E(Eh)            E(eV)
   0   2.0000     -88.045238     -2395.8327
   1   2.0000     -88.040199     -2395.6956
   2   2.0000     -87.986630     -2394.2379
   3   2.0000     -87.980613     -2394.0742
   4   2.0000     -76.426205     -2079.6628
   5   2.0000     -76.423091     -2079.5780
   6   2.0000     -18.789590      -511.2907
   7   2.0000     -18.788563      -511.2628
   8   2.0000     -18.785569      -511.1813
   9   2.0000     -18.785333      -511.1749
  10   2.0000      -9.962208      -271.0855
  11   2.0000      -9.949643      -270.7436
  12   2.0000      -9.949518      -270.7401
  13   2.0000      -9.948994      -270.7259
  14   2.0000      -9.946085      -270.6467
  15   2.0000      -9.882988      -268.9298
  16   2.0000      -9.881689      -268.8944
  17   2.0000      -9.881662      -268.8937
  18   2.0000      -9.878483      -268.8072
  19   2.0000      -7.690207      -209.2612
  20   2.0000      -7.685579      -209.1352
  21   2.0000      -7.631689      -207.6688
  22   2.0000      -7.625147      -207.4908
  23   2.0000      -6.423353      -174.7883
  24   2.0000      -6.420129      -174.7006
  25   2.0000      -5.718561      -155.6100
  26   2.0000      -5.714708      -155.5051
  27   2.0000      -5.713664      -155.4767
  28   2.0000      -5.710040      -155.3781
  29   2.0000      -5.706628      -155.2853
  30   2.0000      -5.702278      -155.1669
  31   2.0000      -5.660823      -154.0388
  32   2.0000      -5.654319      -153.8619
  33   2.0000      -5.652473      -153.8116
  34   2.0000      -5.651489      -153.7848
  35   2.0000      -5.645912      -153.6331
  36   2.0000      -5.644995      -153.6081
  37   2.0000      -4.645702      -126.4160
  38   2.0000      -4.645341      -126.4061
  39   2.0000      -4.643880      -126.3664
  40   2.0000      -4.642653      -126.3330
  41   2.0000      -4.641892      -126.3123
  42   2.0000      -4.640730      -126.2807
  43   2.0000      -0.984801       -26.7978
  44   2.0000      -0.980720       -26.6868
  45   2.0000      -0.942178       -25.6380
  46   2.0000      -0.939058       -25.5531
  47   2.0000      -0.762854       -20.7583
  48   2.0000      -0.717465       -19.5232
  49   2.0000      -0.704867       -19.1804
  50   2.0000      -0.685035       -18.6407
  51   2.0000      -0.682940       -18.5837
  52   2.0000      -0.672163       -18.2905
  53   2.0000      -0.652824       -17.7643
  54   2.0000      -0.636990       -17.3334
  55   2.0000      -0.600478       -16.3398
  56   2.0000      -0.590523       -16.0690
  57   2.0000      -0.570733       -15.5304
  58   2.0000      -0.568182       -15.4610
  59   2.0000      -0.565349       -15.3839
  60   2.0000      -0.491706       -13.3800
  61   2.0000      -0.490224       -13.3397
  62   2.0000      -0.470981       -12.8161
  63   2.0000      -0.466142       -12.6844
  64   2.0000      -0.455487       -12.3944
  65   2.0000      -0.447983       -12.1902
  66   2.0000      -0.438019       -11.9191
  67   2.0000      -0.432863       -11.7788
  68   2.0000      -0.421377       -11.4662
  69   2.0000      -0.420247       -11.4355
  70   2.0000      -0.410213       -11.1625
  71   2.0000      -0.395766       -10.7693
  72   2.0000      -0.392327       -10.6757
  73   2.0000      -0.386437       -10.5155
  74   2.0000      -0.381714       -10.3870
  75   2.0000      -0.376699       -10.2505
  76   2.0000      -0.369547       -10.0559
  77   2.0000      -0.354404        -9.6438
  78   2.0000      -0.350527        -9.5383
  79   2.0000      -0.346957        -9.4412
  80   2.0000      -0.345075        -9.3900
  81   2.0000      -0.343301        -9.3417
  82   2.0000      -0.338016        -9.1979
  83   2.0000      -0.336319        -9.1517
  84   2.0000      -0.327805        -8.9200
  85   2.0000      -0.319313        -8.6890
  86   2.0000      -0.309341        -8.4176
  87   2.0000      -0.295608        -8.0439
  88   2.0000      -0.293912        -7.9978
  89   2.0000      -0.283746        -7.7211
  90   2.0000      -0.280445        -7.6313
  91   2.0000      -0.273626        -7.4457
  92   2.0000      -0.267193        -7.2707
  93   2.0000      -0.263671        -7.1748
  94   2.0000      -0.258080        -7.0227
  95   2.0000      -0.231922        -6.3109
  96   2.0000      -0.216521        -5.8918
  97   2.0000      -0.208617        -5.6767
  98   2.0000      -0.204538        -5.5657
  99   2.0000      -0.191227        -5.2035
 100   2.0000      -0.184508        -5.0207
 101   0.0000      -0.056696        -1.5428
 102   0.0000      -0.032711        -0.8901
 103   0.0000      -0.017233        -0.4689
 104   0.0000      -0.001648        -0.0448
 105   0.0000       0.018939         0.5154

MULLIKEN ATOMIC CHARGES
-----------------------
   0 C :   -0.314228
   1 C :   -0.000903
   2 O :   -0.379129
   3 P :    0.631277
   4 S :   -0.310345
   5 O :   -0.375084
   6 C :   -0.031939
   7 C :   -0.279011
   8 S :   -0.113061
   9 C :   -0.319550
  10 S :   -0.056547
  11 P :    0.609954
  12 S :   -0.294872
  13 O :   -0.389315
  14 C :   -0.026396
  15 C :   -0.295909
  16 O :   -0.378960
  17 C :   -0.007213
  18 C :   -0.304386
  19 H :    0.121621
  20 H :    0.110002
  21 H :    0.118366
  22 H :    0.109959
  23 H :    0.101329
  24 H :    0.111110
  25 H :    0.103339
  26 H :    0.107220
  27 H :    0.115150
  28 H :    0.122731
  29 H :    0.193827
  30 H :    0.180044
  31 H :    0.119659
  32 H :    0.118120
  33 H :    0.113540
  34 H :    0.109392
  35 H :    0.123737
  36 H :    0.101644
  37 H :    0.109430
  38 H :    0.124001
  39 H :    0.109954
  40 H :    0.111439
Sum of atomic charges:    0.0000000

LOEWDIN ATOMIC CHARGES
----------------------
   0 C :   -0.371595
   1 C :   -0.121268
   2 O :   -0.249247
   3 P :    0.565220
   4 S :   -0.297814
   5 O :   -0.244366
   6 C :   -0.122533
   7 C :   -0.359803
   8 S :    0.084122
   9 C :   -0.468606
  10 S :    0.113043
  11 P :    0.579148
  12 S :   -0.300456
  13 O :   -0.246981
  14 C :   -0.120383
  15 C :   -0.367458
  16 O :   -0.252221
  17 C :   -0.123489
  18 C :   -0.366976
  19 H :    0.117739
  20 H :    0.129287
  21 H :    0.122261
  22 H :    0.108834
  23 H :    0.116701
  24 H :    0.108450
  25 H :    0.113752
  26 H :    0.128400
  27 H :    0.126854
  28 H :    0.125573
  29 H :    0.130299
  30 H :    0.138400
  31 H :    0.119386
  32 H :    0.113345
  33 H :    0.124942
  34 H :    0.129914
  35 H :    0.121291
  36 H :    0.116588
  37 H :    0.108035
  38 H :    0.120196
  39 H :    0.121514
  40 H :    0.129902

  Mayer bond orders larger than 0.100000
B(  0-C ,  1-C ) :   1.1686 B(  0-C , 19-H ) :   0.9338 B(  0-C , 20-H ) :   0.9370
B(  0-C , 21-H ) :   0.9417 B(  1-C ,  2-O ) :   0.9131 B(  1-C , 22-H ) :   0.9139
B(  1-C , 23-H ) :   0.9333 B(  2-O ,  3-P ) :   1.0832 B(  3-P ,  4-S ) :   1.5761
B(  3-P ,  5-O ) :   1.1118 B(  3-P ,  8-S ) :   0.9748 B(  4-S ,  8-S ) :   0.1368
B(  5-O ,  6-C ) :   0.9066 B(  6-C ,  7-C ) :   1.1711 B(  6-C , 24-H ) :   0.9070
B(  6-C , 25-H ) :   0.9299 B(  7-C , 26-H ) :   0.9391 B(  7-C , 27-H ) :   0.9470
B(  7-C , 28-H ) :   0.9411 B(  8-S ,  9-C ) :   0.9626 B(  9-C , 10-S ) :   1.0171
B(  9-C , 29-H ) :   0.8898 B(  9-C , 30-H ) :   0.9098 B( 10-S , 11-P ) :   0.9666
B( 11-P , 12-S ) :   1.6400 B( 11-P , 13-O ) :   1.0749 B( 11-P , 16-O ) :   1.0547
B( 13-O , 14-C ) :   0.8940 B( 14-C , 15-C ) :   1.1622 B( 14-C , 31-H ) :   0.9218
B( 14-C , 32-H ) :   0.9176 B( 15-C , 33-H ) :   0.9432 B( 15-C , 34-H ) :   0.9371
B( 15-C , 35-H ) :   0.9308 B( 16-O , 17-C ) :   0.9177 B( 17-C , 18-C ) :   1.1659
B( 17-C , 36-H ) :   0.9336 B( 17-C , 37-H ) :   0.9113 B( 18-C , 38-H ) :   0.9371
B( 18-C , 39-H ) :   0.9458 B( 18-C , 40-H ) :   0.9386

Dispersion correction           -0.069969497
FINAL SINGLE POINT ENERGY     -2929.504005986191

DIPOLE MOMENT
-------------

Method             : SCF
Type of density    : Electron Density
Multiplicity       :   1
Irrep              :   0
Energy             : -2929.6222191203100920 Eh
Relativity type    :
Basis              : AO
                                X                 Y                 Z
Electronic contribution:     -0.155574076      -0.790308225      -6.848110587
Nuclear contribution   :      0.128852612      -0.090121002       7.633519677
                        -----------------------------------------
Total Dipole Moment    :     -0.026721464      -0.880429227       0.785409091
                        -----------------------------------------
Magnitude (a.u.)       :      1.180142830
Magnitude (Debye)      :      2.999684685

Rotational constants in cm-1:             0.012525             0.005916             0.005079
Rotational constants in MHz :           375.475499           177.342496           152.262712

                             ****ORCA TERMINATED NORMALLY****
TOTAL RUN TIME: 0 days 0 hours 0 minutes 22 seconds 11 msec
