                         Program Version 6.0.0  -   RELEASE  -
|  1> ! pbe def2-sv(p) def2/J RI DEFGRID1 loosescf d4 GCP(DFT/SV(P)) printgap
|  2> %output
|  3>     printlevel normal
|  4> end
|  5> * xyz 0 1
|  6> C 2.6971352336 -2.2752377163 -2.6056678049
|  7> C 1.6840989872 -2.177528515 -1.4844880708
|  8> O 1.3529097913 -0.7892618641 -1.2116567408
|  9> P 2.0017476388 0.0394336711 -0.0348249006
| 10> S 1.377042787 1.8941322766 -0.0069293198
| 11> O 3.5572862144 -0.1569267933 -0.292925056
| 12> C 4.5563583981 0.6927656967 0.2983057487
| 13> C 4.6203144673 0.5463813846 1.8045673984
| 14> S 1.6465181966 -1.1182421732 1.7137467644
| 15> C -0.0815070423 -0.661160069 1.971682087
| 16> S -1.1934705073 -1.293976555 0.676856821
| 17> P -2.0453566175 0.5308131234 -0.0226218573
| 18> S -2.0065110473 2.0386040165 1.2190322801
| 19> O -3.5022051292 0.072536207 -0.4747646523
| 20> C -4.6289709336 0.068906174 0.4202822625
| 21> C -4.4829445495 -0.9406199593 1.5401861987
| 22> O -1.3628957278 0.8288969439 -1.4129614801
| 23> C -1.4264989441 -0.0874540001 -2.5336758551
| 24> C -2.4931040439 0.3428433623 -3.5188219489
| 25> H 2.8752997285 -3.3225056123 -2.8285673855
| 26> H 2.3224785347 -1.7780149501 -3.4961201241
| 27> H 3.6319678432 -1.8070726403 -2.3097447397
| 28> H 2.062090678 -2.6380530885 -0.5677974715
| 29> H 0.7330673143 -2.6376964506 -1.7597212601
| 30> H 5.4841779279 0.3712686883 -0.1770654155
| 31> H 4.334417374 1.727967356 0.0214484056
| 32> H 3.7159012461 0.9507887902 2.2567595116
| 33> H 4.7136796799 -0.5009403957 2.0806735441
| 34> H 5.4759367724 1.0975688117 2.18132616
| 35> H -0.1800692559 0.4276411007 2.0096004899
| 36> H -0.3715926272 -1.1137340913 2.9164345338
| 37> H -4.745515358 1.0779957439 0.8270660273
| 38> H -5.4725685343 -0.1704002841 -0.2288003821
| 39> H -4.2422944708 -1.9220020467 1.1394581563
| 40> H -3.6902710233 -0.6298898842 2.2188714757
| 41> H -5.4153560723 -0.9942391461 2.0928902224
| 42> H -0.4294801791 -0.0425223887 -2.9764202961
| 43> H -1.6180525898 -1.095311759 -2.154263054
| 44> H -2.3116714968 1.3659207947 -3.8371633572
| 45> H -2.4617376006 -0.3138731056 -4.3826121556
| 46> H -3.4759802139 0.2874425038 -3.0587903719
| 47> *
| 48>
| 49>                          ****END OF INPUT****

CARTESIAN COORDINATES (ANGSTROEM)
---------------------------------
  C      2.697135   -2.275238   -2.605668
  C      1.684099   -2.177529   -1.484488
  O      1.352910   -0.789262   -1.211657
  P      2.001748    0.039434   -0.034825
  S      1.377043    1.894132   -0.006929
  O      3.557286   -0.156927   -0.292925
  C      4.556358    0.692766    0.298306
  C      4.620314    0.546381    1.804567
  S      1.646518   -1.118242    1.713747
  C     -0.081507   -0.661160    1.971682
  S     -1.193471   -1.293977    0.676857
  P     -2.045357    0.530813   -0.022622
  S     -2.006511    2.038604    1.219032
  O     -3.502205    0.072536   -0.474765
  C     -4.628971    0.068906    0.420282
  C     -4.482945   -0.940620    1.540186
  O     -1.362896    0.828897   -1.412961
  C     -1.426499   -0.087454   -2.533676
  C     -2.493104    0.342843   -3.518822
  H      2.875300   -3.322506   -2.828567
  H      2.322479   -1.778015   -3.496120
  H      3.631968   -1.807073   -2.309745
  H      2.062091   -2.638053   -0.567797
  H      0.733067   -2.637696   -1.759721
  H      5.484178    0.371269   -0.177065
  H      4.334417    1.727967    0.021448
  H      3.715901    0.950789    2.256760
  H      4.713680   -0.500940    2.080674
  H      5.475937    1.097569    2.181326
  H     -0.180069    0.427641    2.009600
  H     -0.371593   -1.113734    2.916435
  H     -4.745515    1.077996    0.827066
  H     -5.472569   -0.170400   -0.228800
  H     -4.242294   -1.922002    1.139458
  H     -3.690271   -0.629890    2.218871
  H     -5.415356   -0.994239    2.092890
  H     -0.429480   -0.042522   -2.976420
  H     -1.618053   -1.095312   -2.154263
  H     -2.311671    1.365921   -3.837163
  H     -2.461738   -0.313873   -4.382612
  H     -3.475980    0.287443   -3.058790

 Total Charge           Charge          ....    0
 Multiplicity           Mult            ....    1
 Number of Electrons    NEL             ....  202
 Basis Dimension        Dim             ....  334

ORBITAL ENERGIES
----------------

  NO   OCC          E(Eh)            E(eV)
   0   2.0000     -88.042333     -2395.7537
   1   2.0000     -88.038404     -2395.6468
   2   2.0000     -87.980353     -2394.0671
   3   2.0000     -87.978805     -2394.0250
   4   2.0000     -76.422823     -2079.5707
   5   2.0000     -76.420877     -2079.5178
   6   2.0000     -18.794139      -511.4145
   7   2.0000     -18.790800      -511.3237
   8   2.0000     -18.789764      -511.2955
   9   2.0000     -18.781749      -511.0774
  10   2.0000      -9.955435      -270.9012
  11   2.0000      -9.953678      -270.8533
  12   2.0000      -9.952614      -270.8244
  13   2.0000      -9.950446      -270.7654
  14   2.0000      -9.948895      -270.7232
  15   2.0000      -9.888211      -269.0719
  16   2.0000      -9.884458      -268.9698
  17   2.0000      -9.881802      -268.8975
  18   2.0000      -9.881036      -268.8767
  19   2.0000      -7.687396      -209.1847
  20   2.0000      -7.683157      -209.0693
  21   2.0000      -7.625540      -207.5015
  22   2.0000      -7.623796      -207.4540
  23   2.0000      -6.420338      -174.7063
  24   2.0000      -6.418313      -174.6512
  25   2.0000      -5.715200      -155.5185
  26   2.0000      -5.711764      -155.4250
  27   2.0000      -5.711004      -155.4043
  28   2.0000      -5.707705      -155.3146
  29   2.0000      -5.704577      -155.2294
  30   2.0000      -5.700134      -155.1085
  31   2.0000      -5.654587      -153.8691
  32   2.0000      -5.652889      -153.8229
  33   2.0000      -5.646065      -153.6372
  34   2.0000      -5.645616      -153.6250
  35   2.0000      -5.644222      -153.5871
  36   2.0000      -5.643999      -153.5810
  37   2.0000      -4.643249      -126.3492
  38   2.0000      -4.642095      -126.3178
  39   2.0000      -4.641133      -126.2917
  40   2.0000      -4.640450      -126.2731
  41   2.0000      -4.639895      -126.2580
  42   2.0000      -4.638742      -126.2266
  43   2.0000      -0.988069       -26.8867
  44   2.0000      -0.982579       -26.7373
  45   2.0000      -0.945317       -25.7234
  46   2.0000      -0.937912       -25.5219
  47   2.0000      -0.759840       -20.6763
  48   2.0000      -0.717485       -19.5237
  49   2.0000      -0.708339       -19.2749
  50   2.0000      -0.691055       -18.8046
  51   2.0000      -0.686440       -18.6790
  52   2.0000      -0.675214       -18.3735
  53   2.0000      -0.648063       -17.6347
  54   2.0000      -0.631534       -17.1849
  55   2.0000      -0.596392       -16.2286
  56   2.0000      -0.587860       -15.9965
  57   2.0000      -0.575763       -15.6673
  58   2.0000      -0.569223       -15.4893
  59   2.0000      -0.559696       -15.2301
  60   2.0000      -0.502737       -13.6802
  61   2.0000      -0.494087       -13.4448
  62   2.0000      -0.474525       -12.9125
  63   2.0000      -0.469586       -12.7781
  64   2.0000      -0.450016       -12.2456
  65   2.0000      -0.445854       -12.1323
  66   2.0000      -0.443154       -12.0588
  67   2.0000      -0.434254       -11.8167
  68   2.0000      -0.428880       -11.6704
  69   2.0000      -0.421872       -11.4797
  70   2.0000      -0.412511       -11.2250
  71   2.0000      -0.394080       -10.7235
  72   2.0000      -0.389752       -10.6057
  73   2.0000      -0.382502       -10.4084
  74   2.0000      -0.378699       -10.3049
  75   2.0000      -0.365325        -9.9410
  76   2.0000      -0.362842        -9.8734
  77   2.0000      -0.359332        -9.7779
  78   2.0000      -0.354128        -9.6363
  79   2.0000      -0.350522        -9.5382
  80   2.0000      -0.348958        -9.4956
  81   2.0000      -0.347632        -9.4595
  82   2.0000      -0.340693        -9.2707
  83   2.0000      -0.335232        -9.1221
  84   2.0000      -0.334376        -9.0988
  85   2.0000      -0.316575        -8.6144
  86   2.0000      -0.310825        -8.4580
  87   2.0000      -0.297466        -8.0945
  88   2.0000      -0.292588        -7.9617
  89   2.0000      -0.291788        -7.9400
  90   2.0000      -0.288059        -7.8385
  91   2.0000      -0.272519        -7.4156
  92   2.0000      -0.263012        -7.1569
  93   2.0000      -0.262130        -7.1329
  94   2.0000      -0.255687        -6.9576
  95   2.0000      -0.233706        -6.3595
  96   2.0000      -0.217094        -5.9074
  97   2.0000      -0.212839        -5.7917
  98   2.0000      -0.199995        -5.4421
  99   2.0000      -0.189391        -5.1536
 100   2.0000      -0.182981        -4.9792
 101   0.0000      -0.037712        -1.0262
 102   0.0000      -0.029865        -0.8127
 103   0.0000      -0.009943        -0.2706
 104   0.0000       0.010057         0.2737
 105   0.0000       0.020330         0.5532

MULLIKEN ATOMIC CHARGES
-----------------------
   0 C :   -0.286259
   1 C :   -0.012303
   2 O :   -0.353425
   3 P :    0.581698
   4 S :   -0.275016
   5 O :   -0.382259
   6 C :    0.001726
   7 C :   -0.322900
   8 S :   -0.104066
   9 C :   -0.347148
  10 S :   -0.121025
  11 P :    0.604979
  12 S :   -0.289257
  13 O :   -0.387187
  14 C :    0.001760
  15 C :   -0.310349
  16 O :   -0.341840
  17 C :   -0.023624
  18 C :   -0.278532
  19 H :    0.108985
  20 H :    0.116330
  21 H :    0.122304
  22 H :    0.103432
  23 H :    0.106031
  24 H :    0.103427
  25 H :    0.113099
  26 H :    0.133368
  27 H :    0.116674
  28 H :    0.115126
  29 H :    0.205855
  30 H :    0.180548
  31 H :    0.111903
  32 H :    0.101663
  33 H :    0.115370
  34 H :    0.121087
  35 H :    0.111250
  36 H :    0.118903
  37 H :    0.096927
  38 H :    0.121505
  39 H :    0.103539
  40 H :    0.117700
Sum of atomic charges:   -0.0000000

LOEWDIN ATOMIC CHARGES
----------------------
   0 C :   -0.358567
   1 C :   -0.118784
   2 O :   -0.232555
   3 P :    0.559676
   4 S :   -0.284563
   5 O :   -0.249146
   6 C :   -0.117007
   7 C :   -0.372174
   8 S :    0.073655
   9 C :   -0.481169
  10 S :    0.061538
  11 P :    0.574269
  12 S :   -0.291651
  13 O :   -0.251115
  14 C :   -0.117056
  15 C :   -0.370953
  16 O :   -0.226094
  17 C :   -0.114696
  18 C :   -0.358279
  19 H :    0.129309
  20 H :    0.125988
  21 H :    0.127092
  22 H :    0.103708
  23 H :    0.114428
  24 H :    0.117594
  25 H :    0.113561
  26 H :    0.123675
  27 H :    0.122493
  28 H :    0.132237
  29 H :    0.125711
  30 H :    0.136267
  31 H :    0.112258
  32 H :    0.116726
  33 H :    0.122011
  34 H :    0.119650
  35 H :    0.129849
  36 H :    0.119926
  37 H :    0.100527
  38 H :    0.129968
  39 H :    0.126769
  40 H :    0.124924

  Mayer bond orders larger than 0.100000
B(  0-C ,  1-C ) :   1.1645 B(  0-C , 19-H ) :   0.9400 B(  0-C , 20-H ) :   0.9486
B(  0-C , 21-H ) :   0.9414 B(  1-C ,  2-O ) :   0.8848 B(  1-C , 22-H ) :   0.9091
B(  1-C , 23-H ) :   0.9305 B(  2-O ,  3-P ) :   1.1201 B(  3-P ,  4-S ) :   1.6782
B(  3-P ,  5-O ) :   1.0760 B(  3-P ,  8-S ) :   0.9429 B(  4-S ,  8-S ) :   0.1080
B(  5-O ,  6-C ) :   0.9055 B(  6-C ,  7-C ) :   1.1667 B(  6-C , 24-H ) :   0.9340
B(  6-C , 25-H ) :   0.9168 B(  7-C , 26-H ) :   0.9336 B(  7-C , 27-H ) :   0.9435
B(  7-C , 28-H ) :   0.9370 B(  8-S ,  9-C ) :   0.9986 B(  9-C , 10-S ) :   0.9963
B(  9-C , 29-H ) :   0.8458 B(  9-C , 30-H ) :   0.9114 B( 10-S , 11-P ) :   0.9441
B( 10-S , 12-S ) :   0.1144 B( 11-P , 12-S ) :   1.6331 B( 11-P , 13-O ) :   1.0671
B( 11-P , 16-O ) :   1.1451 B( 13-O , 14-C ) :   0.9109 B( 14-C , 15-C ) :   1.1676
B( 14-C , 31-H ) :   0.9173 B( 14-C , 32-H ) :   0.9342 B( 15-C , 33-H ) :   0.9427
B( 15-C , 34-H ) :   0.9366 B( 15-C , 35-H ) :   0.9370 B( 16-O , 17-C ) :   0.8958
B( 17-C , 18-C ) :   1.1584 B( 17-C , 36-H ) :   0.9266 B( 17-C , 37-H ) :   0.9147
B( 18-C , 38-H ) :   0.9465 B( 18-C , 39-H ) :   0.9404 B( 18-C , 40-H ) :   0.9421

Dispersion correction           -0.067901217
FINAL SINGLE POINT ENERGY     -2929.515714241730

DIPOLE MOMENT
-------------

Method             : SCF
Type of density    : Electron Density
Multiplicity       :   1
Irrep              :   0
Energy             : -2929.6346573204918968 Eh
Relativity type    :
Basis              : AO
                                X                 Y                 Z
Electronic contribution:     -0.648791071       9.721289209       8.995895313
Nuclear contribution   :      0.921393360     -11.492962298      -9.515443913
                        -----------------------------------------
Total Dipole Moment    :      0.272602289      -1.771673089      -0.519548600
                        -----------------------------------------
Magnitude (a.u.)       :      1.866298018
Magnitude (Debye)      :      4.743752569

Rotational constants in cm-1:             0.012511             0.005464             0.004985
Rotational constants in MHz :           375.073802           163.816831           149.441105

                             ****ORCA TERMINATED NORMALLY****
TOTAL RUN TIME: 0 days 0 hours 0 minutes 22 seconds 529 msec
