                         Program Version 6.0.1  -  RELEASE   -
|  1> ! pbe def2-sv(p) def2/J RI DEFGRID1 loosescf d4 GCP(DFT/SV(P)) printgap
|  2> %output
|  3>     printlevel normal
|  4> end
|  5> * xyz 0 1
|  6> C 3.0838793631 -1.7990868794 1.681471007
|  7> C 2.9247281859 -2.3609898941 0.278816349
|  8> O 2.7039451826 -1.3022959865 -0.674872275
|  9> C 1.4855798279 -1.0339480478 -1.078632334
| 10> O 0.4874644575 -1.6177758855 -0.6925662897
| 11> C 1.4648314086 0.0639505508 -2.1180780879
| 12> C 0.3154600181 1.0454063537 -1.8891691958
| 13> H 0.2615282803 1.7418248156 -2.7307224864
| 14> C 0.4708534579 1.856527761 -0.6143013652
| 15> O -0.4451355564 2.03241916 0.1639234026
| 16> O 1.6784699337 2.3359426056 -0.4851125662
| 17> C 2.0052829679 3.0930513075 0.701719457
| 18> C 2.55593702 2.1734852608 1.7783285411
| 19> S -1.3307413116 0.2471431026 -1.8607188042
| 20> P -1.6130139338 -0.2921753312 0.166068775
| 21> S -0.4538078328 -0.3676358788 1.7622247722
| 22> O -2.8821856273 0.6628131977 0.3618780984
| 23> C -3.5964421844 0.7277151615 1.5975032624
| 24> O -2.4064524348 -1.682034829 0.0018669471
| 25> C -1.8660832519 -2.9816632729 0.2220070897
| 26> H 3.8955360454 -1.0781866907 1.7086509858
| 27> H 2.1641261681 -1.3114355551 2.0005012263
| 28> H 3.3028074314 -2.6102721328 2.3675958734
| 29> H 2.0821431037 -3.0560645278 0.2324774588
| 30> H 3.8405233831 -2.8481479391 -0.0586031538
| 31> H 1.3232611638 -0.410874067 -3.0910181263
| 32> H 2.418589992 0.5909847979 -2.1012960013
| 33> H 2.7541039782 3.8101853723 0.3653763036
| 34> H 1.1056252038 3.6072393739 1.0491008556
| 35> H 2.8396575051 2.7623891324 2.6438613774
| 36> H 1.7993473555 1.450387133 2.0802018102
| 37> H 3.425002396 1.6390096669 1.4055078412
| 38> H -2.897591413 0.8146576474 2.4324747423
| 39> H -4.2094243001 -0.165529266 1.7206062732
| 40> H -4.2183632837 1.6166597932 1.5301354474
| 41> H -1.1458818477 -2.9515535289 1.0417044938
| 42> H -1.3747964155 -3.3333958842 -0.6832024386
| 43> H -2.7120302885 -3.6155081719 0.4778959423
| 44> *
| 45>
| 46>                          ****END OF INPUT****

CARTESIAN COORDINATES (ANGSTROEM)
---------------------------------
  C      3.083879   -1.799087    1.681471
  C      2.924728   -2.360990    0.278816
  O      2.703945   -1.302296   -0.674872
  C      1.485580   -1.033948   -1.078632
  O      0.487464   -1.617776   -0.692566
  C      1.464831    0.063951   -2.118078
  C      0.315460    1.045406   -1.889169
  H      0.261528    1.741825   -2.730722
  C      0.470853    1.856528   -0.614301
  O     -0.445136    2.032419    0.163923
  O      1.678470    2.335943   -0.485113
  C      2.005283    3.093051    0.701719
  C      2.555937    2.173485    1.778329
  S     -1.330741    0.247143   -1.860719
  P     -1.613014   -0.292175    0.166069
  S     -0.453808   -0.367636    1.762225
  O     -2.882186    0.662813    0.361878
  C     -3.596442    0.727715    1.597503
  O     -2.406452   -1.682035    0.001867
  C     -1.866083   -2.981663    0.222007
  H      3.895536   -1.078187    1.708651
  H      2.164126   -1.311436    2.000501
  H      3.302807   -2.610272    2.367596
  H      2.082143   -3.056065    0.232477
  H      3.840523   -2.848148   -0.058603
  H      1.323261   -0.410874   -3.091018
  H      2.418590    0.590985   -2.101296
  H      2.754104    3.810185    0.365376
  H      1.105625    3.607239    1.049101
  H      2.839658    2.762389    2.643861
  H      1.799347    1.450387    2.080202
  H      3.425002    1.639010    1.405508
  H     -2.897591    0.814658    2.432475
  H     -4.209424   -0.165529    1.720606
  H     -4.218363    1.616660    1.530135
  H     -1.145882   -2.951554    1.041704
  H     -1.374796   -3.333396   -0.683202
  H     -2.712030   -3.615508    0.477896

 Total Charge           Charge          ....    0
 Multiplicity           Mult            ....    1
 Number of Electrons    NEL             ....  174
 Basis Dimension        Dim             ....  316

ORBITAL ENERGIES
----------------

  NO   OCC          E(Eh)            E(eV)
   0   2.0000     -88.023901     -2395.2521
   1   2.0000     -87.965412     -2393.6606
   2   2.0000     -76.411324     -2079.2578
   3   2.0000     -18.816182      -512.0143
   4   2.0000     -18.811714      -511.8928
   5   2.0000     -18.765353      -510.6312
   6   2.0000     -18.759584      -510.4742
   7   2.0000     -18.749409      -510.1974
   8   2.0000     -18.748001      -510.1590
   9   2.0000     -10.020851      -272.6812
  10   2.0000     -10.019589      -272.6469
  11   2.0000      -9.953660      -270.8529
  12   2.0000      -9.952385      -270.8182
  13   2.0000      -9.950299      -270.7614
  14   2.0000      -9.920922      -269.9620
  15   2.0000      -9.920257      -269.9439
  16   2.0000      -9.917705      -269.8745
  17   2.0000      -9.884839      -268.9801
  18   2.0000      -9.882949      -268.9287
  19   2.0000      -7.669253      -208.6910
  20   2.0000      -7.610201      -207.0841
  21   2.0000      -6.406223      -174.3222
  22   2.0000      -5.697758      -155.0439
  23   2.0000      -5.694296      -154.9497
  24   2.0000      -5.684923      -154.6946
  25   2.0000      -5.639355      -153.4547
  26   2.0000      -5.630938      -153.2256
  27   2.0000      -5.629929      -153.1982
  28   2.0000      -4.628809      -125.9563
  29   2.0000      -4.628538      -125.9489
  30   2.0000      -4.626763      -125.9006
  31   2.0000      -1.025337       -27.9008
  32   2.0000      -1.019192       -27.7336
  33   2.0000      -0.956925       -26.0392
  34   2.0000      -0.929008       -25.2796
  35   2.0000      -0.924839       -25.1662
  36   2.0000      -0.912443       -24.8288
  37   2.0000      -0.764373       -20.7997
  38   2.0000      -0.714152       -19.4331
  39   2.0000      -0.707721       -19.2581
  40   2.0000      -0.682286       -18.5660
  41   2.0000      -0.649105       -17.6630
  42   2.0000      -0.619196       -16.8492
  43   2.0000      -0.611020       -16.6267
  44   2.0000      -0.607080       -16.5195
  45   2.0000      -0.596035       -16.2189
  46   2.0000      -0.565756       -15.3950
  47   2.0000      -0.509527       -13.8649
  48   2.0000      -0.503816       -13.7095
  49   2.0000      -0.493786       -13.4366
  50   2.0000      -0.485892       -13.2218
  51   2.0000      -0.455416       -12.3925
  52   2.0000      -0.454937       -12.3795
  53   2.0000      -0.453366       -12.3367
  54   2.0000      -0.435166       -11.8415
  55   2.0000      -0.428939       -11.6720
  56   2.0000      -0.419296       -11.4096
  57   2.0000      -0.410707       -11.1759
  58   2.0000      -0.407782       -11.0963
  59   2.0000      -0.397238       -10.8094
  60   2.0000      -0.394845       -10.7443
  61   2.0000      -0.389595       -10.6014
  62   2.0000      -0.386992       -10.5306
  63   2.0000      -0.377491       -10.2721
  64   2.0000      -0.376395       -10.2422
  65   2.0000      -0.367713       -10.0060
  66   2.0000      -0.361282        -9.8310
  67   2.0000      -0.353270        -9.6130
  68   2.0000      -0.344970        -9.3871
  69   2.0000      -0.342349        -9.3158
  70   2.0000      -0.338368        -9.2075
  71   2.0000      -0.329748        -8.9729
  72   2.0000      -0.324268        -8.8238
  73   2.0000      -0.304159        -8.2766
  74   2.0000      -0.297754        -8.1023
  75   2.0000      -0.292586        -7.9617
  76   2.0000      -0.281947        -7.6722
  77   2.0000      -0.270651        -7.3648
  78   2.0000      -0.269298        -7.3280
  79   2.0000      -0.263280        -7.1642
  80   2.0000      -0.249434        -6.7874
  81   2.0000      -0.243385        -6.6228
  82   2.0000      -0.241664        -6.5760
  83   2.0000      -0.228488        -6.2175
  84   2.0000      -0.189828        -5.1655
  85   2.0000      -0.183283        -4.9874
  86   2.0000      -0.174888        -4.7589
  87   0.0000      -0.045029        -1.2253
  88   0.0000      -0.042330        -1.1519
  89   0.0000      -0.030661        -0.8343
  90   0.0000       0.009391         0.2556
  91   0.0000       0.034764         0.9460

MULLIKEN ATOMIC CHARGES
-----------------------
   0 C :   -0.320286
   1 C :   -0.021177
   2 O :   -0.219128
   3 C :    0.112334
   4 O :   -0.202646
   5 C :   -0.043326
   6 C :   -0.320424
   7 H :    0.152853
   8 C :    0.204034
   9 O :   -0.170095
  10 O :   -0.226998
  11 C :   -0.009854
  12 C :   -0.328997
  13 S :   -0.056828
  14 P :    0.659655
  15 S :   -0.355067
  16 O :   -0.375794
  17 C :   -0.090873
  18 O :   -0.397940
  19 C :   -0.086522
  20 H :    0.113493
  21 H :    0.152760
  22 H :    0.108988
  23 H :    0.113518
  24 H :    0.103294
  25 H :    0.127049
  26 H :    0.118239
  27 H :    0.104125
  28 H :    0.117339
  29 H :    0.111369
  30 H :    0.153593
  31 H :    0.114762
  32 H :    0.112676
  33 H :    0.103748
  34 H :    0.115752
  35 H :    0.109261
  36 H :    0.108976
  37 H :    0.108139
Sum of atomic charges:    0.0000000

LOEWDIN ATOMIC CHARGES
----------------------
   0 C :   -0.360532
   1 C :   -0.108706
   2 O :   -0.045123
   3 C :    0.037039
   4 O :   -0.167840
   5 C :   -0.252027
   6 C :   -0.264184
   7 H :    0.153566
   8 C :    0.010110
   9 O :   -0.144461
  10 O :   -0.044520
  11 C :   -0.104966
  12 C :   -0.362142
  13 S :    0.124355
  14 P :    0.606870
  15 S :   -0.317242
  16 O :   -0.255021
  17 C :   -0.214652
  18 O :   -0.263583
  19 C :   -0.215727
  20 H :    0.121733
  21 H :    0.127110
  22 H :    0.130433
  23 H :    0.121284
  24 H :    0.117562
  25 H :    0.150069
  26 H :    0.139622
  27 H :    0.118295
  28 H :    0.124475
  29 H :    0.131167
  30 H :    0.129921
  31 H :    0.122402
  32 H :    0.106573
  33 H :    0.107498
  34 H :    0.117561
  35 H :    0.102500
  36 H :    0.108509
  37 H :    0.112069

  Mayer bond orders larger than 0.100000
B(  0-C ,  1-C ) :   1.1814 B(  0-C , 20-H ) :   0.9440 B(  0-C , 21-H ) :   0.9226
B(  0-C , 22-H ) :   0.9399 B(  1-C ,  2-O ) :   0.9020 B(  1-C , 23-H ) :   0.9084
B(  1-C , 24-H ) :   0.9358 B(  2-O ,  3-C ) :   1.2630 B(  3-C ,  4-O ) :   1.9304
B(  3-C ,  5-C ) :   1.0063 B(  5-C ,  6-C ) :   1.0156 B(  5-C , 25-H ) :   0.8831
B(  5-C , 26-H ) :   0.8861 B(  6-C ,  7-H ) :   0.8704 B(  6-C ,  8-C ) :   0.8899
B(  6-C , 13-S ) :   1.0573 B(  8-C ,  9-O ) :   2.0069 B(  8-C , 10-O ) :   1.2576
B( 10-O , 11-C ) :   0.8961 B( 11-C , 12-C ) :   1.1793 B( 11-C , 27-H ) :   0.9367
B( 11-C , 28-H ) :   0.9113 B( 12-C , 29-H ) :   0.9395 B( 12-C , 30-H ) :   0.9233
B( 12-C , 31-H ) :   0.9439 B( 13-S , 14-P ) :   0.9204 B( 13-S , 15-S ) :   0.1191
B( 14-P , 15-S ) :   1.4945 B( 14-P , 16-O ) :   1.0975 B( 14-P , 18-O ) :   1.0785
B( 16-O , 17-C ) :   0.9432 B( 17-C , 32-H ) :   0.9319 B( 17-C , 33-H ) :   0.9512
B( 17-C , 34-H ) :   0.9601 B( 18-O , 19-C ) :   0.9415 B( 19-C , 35-H ) :   0.9299
B( 19-C , 36-H ) :   0.9511 B( 19-C , 37-H ) :   0.9559

Dispersion correction           -0.056268434
FINAL SINGLE POINT ENERGY     -1978.996862730767

DIPOLE MOMENT
-------------

Method             : SCF
Type of density    : Electron Density
Multiplicity       :   1
Irrep              :   0
Energy             : -1979.1251652291593928 Eh
Relativity type    :
Basis              : AO
                                X                 Y                 Z
Electronic contribution:    -13.702194059       2.908062749     -11.730922503
Nuclear contribution   :     15.228221423      -2.869747284      11.459959972
                        -----------------------------------------
Total Dipole Moment    :      1.526027364       0.038315465      -0.270962531
                        -----------------------------------------
Magnitude (a.u.)       :      1.550370370
Magnitude (Debye)      :      3.940728304

Rotational constants in cm-1:             0.012376             0.009326             0.007914
Rotational constants in MHz :           371.015840           279.593270           237.251558

                             ****ORCA TERMINATED NORMALLY****
TOTAL RUN TIME: 0 days 0 hours 1 minutes 36 seconds 630 msec
