                         Program Version 6.0.1  -  RELEASE   -
|  1> ! pbe def2-sv(p) def2/J RI DEFGRID1 loosescf d4 GCP(DFT/SV(P)) printgap
|  2> %output
|  3>     printlevel normal
|  4> end
|  5> * xyz 0 1
|  6> C 2.0730030048 -3.3438511221 0.7337242885
|  7> C 3.1596434402 -2.4061954302 0.2336984667
|  8> O 2.6994128694 -1.6622898381 -0.9113694771
|  9> C 2.1475420518 -0.4854170834 -0.7325464863
| 10> O 2.0011360265 0.0677901427 0.3390897464
| 11> C 1.7210770175 0.1549554039 -2.0377826101
| 12> C 0.4064171129 0.9040069734 -1.8302231752
| 13> H 0.2040024158 1.5516697963 -2.6867764046
| 14> C 0.4307241738 1.7606344696 -0.5776196659
| 15> O -0.4044696401 1.6451608226 0.3052944422
| 16> O 1.3439683146 2.6841511999 -0.6352901888
| 17> C 1.497642851 3.5941212728 0.4783311428
| 18> C 2.5965189451 3.1107473751 1.4085709393
| 19> S -1.0146813587 -0.238454858 -1.7263183309
| 20> P -1.6895738881 -0.3093319789 0.2738626373
| 21> S -0.6496851963 -0.804851553 1.8750686092
| 22> O -2.783138394 0.8491650163 0.393313035
| 23> C -3.8131586515 0.762022968 1.3881607947
| 24> O -2.7356748068 -1.5232884631 -0.0078017007
| 25> C -2.3463709961 -2.8944848356 -0.0164146872
| 26> H 1.7254668821 -3.9803519819 -0.0752559179
| 27> H 2.4696504616 -3.9606983178 1.5329460982
| 28> H 1.2330027745 -2.7707843296 1.1234665285
| 29> H 4.0261771694 -2.9591369449 -0.1299093615
| 30> H 3.4520282312 -1.701788468 1.0172892789
| 31> H 1.6146579108 -0.6037552169 -2.8108999232
| 32> H 2.4963962345 0.86775925 -2.3277411965
| 33> H 1.7545278116 4.5473197866 0.014810217
| 34> H 0.5424178858 3.6661693609 1.0045660184
| 35> H 2.3551704323 2.116405774 1.779149496
| 36> H 3.5445365471 3.0650056617 0.8807027266
| 37> H 2.6824244004 3.7924297905 2.2480855052
| 38> H -3.3834250572 0.4932604387 2.3551263661
| 39> H -4.551203411 0.0177737132 1.0911767957
| 40> H -4.2559373679 1.7540424529 1.4309918098
| 41> H -1.8559294444 -3.1363178567 -0.9593031641
| 42> H -3.2650073792 -3.4654030729 0.094022663
| 43> H -1.6716830891 -3.0949784396 0.8190920332
| 44> *
| 45>
| 46>                          ****END OF INPUT****

CARTESIAN COORDINATES (ANGSTROEM)
---------------------------------
  C      2.073003   -3.343851    0.733724
  C      3.159643   -2.406195    0.233698
  O      2.699413   -1.662290   -0.911369
  C      2.147542   -0.485417   -0.732546
  O      2.001136    0.067790    0.339090
  C      1.721077    0.154955   -2.037783
  C      0.406417    0.904007   -1.830223
  H      0.204002    1.551670   -2.686776
  C      0.430724    1.760634   -0.577620
  O     -0.404470    1.645161    0.305294
  O      1.343968    2.684151   -0.635290
  C      1.497643    3.594121    0.478331
  C      2.596519    3.110747    1.408571
  S     -1.014681   -0.238455   -1.726318
  P     -1.689574   -0.309332    0.273863
  S     -0.649685   -0.804852    1.875069
  O     -2.783138    0.849165    0.393313
  C     -3.813159    0.762023    1.388161
  O     -2.735675   -1.523288   -0.007802
  C     -2.346371   -2.894485   -0.016415
  H      1.725467   -3.980352   -0.075256
  H      2.469650   -3.960698    1.532946
  H      1.233003   -2.770784    1.123467
  H      4.026177   -2.959137   -0.129909
  H      3.452028   -1.701788    1.017289
  H      1.614658   -0.603755   -2.810900
  H      2.496396    0.867759   -2.327741
  H      1.754528    4.547320    0.014810
  H      0.542418    3.666169    1.004566
  H      2.355170    2.116406    1.779149
  H      3.544537    3.065006    0.880703
  H      2.682424    3.792430    2.248086
  H     -3.383425    0.493260    2.355126
  H     -4.551203    0.017774    1.091177
  H     -4.255937    1.754042    1.430992
  H     -1.855929   -3.136318   -0.959303
  H     -3.265007   -3.465403    0.094023
  H     -1.671683   -3.094978    0.819092

 Total Charge           Charge          ....    0
 Multiplicity           Mult            ....    1
 Number of Electrons    NEL             ....  174
 Basis Dimension        Dim             ....  316

ORBITAL ENERGIES
----------------

  NO   OCC          E(Eh)            E(eV)
   0   2.0000     -88.033421     -2395.5112
   1   2.0000     -87.957790     -2393.4531
   2   2.0000     -76.412446     -2079.2884
   3   2.0000     -18.816343      -512.0187
   4   2.0000     -18.809914      -511.8438
   5   2.0000     -18.765383      -510.6320
   6   2.0000     -18.764705      -510.6136
   7   2.0000     -18.756092      -510.3792
   8   2.0000     -18.747787      -510.1532
   9   2.0000     -10.028419      -272.8872
  10   2.0000     -10.017638      -272.5938
  11   2.0000      -9.953564      -270.8502
  12   2.0000      -9.952236      -270.8141
  13   2.0000      -9.947543      -270.6864
  14   2.0000      -9.926845      -270.1232
  15   2.0000      -9.923747      -270.0389
  16   2.0000      -9.920063      -269.9386
  17   2.0000      -9.882148      -268.9069
  18   2.0000      -9.877474      -268.7797
  19   2.0000      -7.678567      -208.9444
  20   2.0000      -7.602832      -206.8836
  21   2.0000      -6.407248      -174.3501
  22   2.0000      -5.706848      -155.2912
  23   2.0000      -5.702684      -155.1779
  24   2.0000      -5.695483      -154.9820
  25   2.0000      -5.631933      -153.2527
  26   2.0000      -5.623994      -153.0366
  27   2.0000      -5.622211      -152.9881
  28   2.0000      -4.630419      -126.0001
  29   2.0000      -4.629074      -125.9635
  30   2.0000      -4.627711      -125.9264
  31   2.0000      -1.027830       -27.9687
  32   2.0000      -1.017078       -27.6761
  33   2.0000      -0.960403       -26.1339
  34   2.0000      -0.933719       -25.4078
  35   2.0000      -0.925031       -25.1714
  36   2.0000      -0.913536       -24.8586
  37   2.0000      -0.767601       -20.8875
  38   2.0000      -0.711854       -19.3705
  39   2.0000      -0.707231       -19.2447
  40   2.0000      -0.682147       -18.5622
  41   2.0000      -0.649421       -17.6716
  42   2.0000      -0.619884       -16.8679
  43   2.0000      -0.612190       -16.6585
  44   2.0000      -0.605048       -16.4642
  45   2.0000      -0.594226       -16.1697
  46   2.0000      -0.565296       -15.3825
  47   2.0000      -0.509489       -13.8639
  48   2.0000      -0.500572       -13.6213
  49   2.0000      -0.498975       -13.5778
  50   2.0000      -0.488544       -13.2940
  51   2.0000      -0.462678       -12.5901
  52   2.0000      -0.455141       -12.3850
  53   2.0000      -0.446728       -12.1561
  54   2.0000      -0.438518       -11.9327
  55   2.0000      -0.428997       -11.6736
  56   2.0000      -0.426900       -11.6165
  57   2.0000      -0.416828       -11.3425
  58   2.0000      -0.405460       -11.0331
  59   2.0000      -0.398148       -10.8341
  60   2.0000      -0.395265       -10.7557
  61   2.0000      -0.392154       -10.6710
  62   2.0000      -0.385996       -10.5035
  63   2.0000      -0.379818       -10.3354
  64   2.0000      -0.377996       -10.2858
  65   2.0000      -0.364624        -9.9219
  66   2.0000      -0.358423        -9.7532
  67   2.0000      -0.354018        -9.6333
  68   2.0000      -0.346310        -9.4236
  69   2.0000      -0.336640        -9.1604
  70   2.0000      -0.332694        -9.0531
  71   2.0000      -0.327603        -8.9145
  72   2.0000      -0.321509        -8.7487
  73   2.0000      -0.304044        -8.2735
  74   2.0000      -0.296028        -8.0553
  75   2.0000      -0.292795        -7.9674
  76   2.0000      -0.283436        -7.7127
  77   2.0000      -0.272786        -7.4229
  78   2.0000      -0.272150        -7.4056
  79   2.0000      -0.261590        -7.1182
  80   2.0000      -0.250965        -6.8291
  81   2.0000      -0.243352        -6.6220
  82   2.0000      -0.235485        -6.4079
  83   2.0000      -0.233751        -6.3607
  84   2.0000      -0.220452        -5.9988
  85   2.0000      -0.179192        -4.8761
  86   2.0000      -0.167409        -4.5554
  87   0.0000      -0.040706        -1.1077
  88   0.0000      -0.031311        -0.8520
  89   0.0000      -0.024564        -0.6684
  90   0.0000       0.004438         0.1208
  91   0.0000       0.036843         1.0026

MULLIKEN ATOMIC CHARGES
-----------------------
   0 C :   -0.325253
   1 C :   -0.015004
   2 O :   -0.219097
   3 C :    0.111688
   4 O :   -0.180549
   5 C :   -0.063117
   6 C :   -0.280730
   7 H :    0.148561
   8 C :    0.239745
   9 O :   -0.199736
  10 O :   -0.227820
  11 C :   -0.020664
  12 C :   -0.305223
  13 S :   -0.103679
  14 P :    0.662101
  15 S :   -0.332831
  16 O :   -0.382110
  17 C :   -0.090764
  18 O :   -0.412934
  19 C :   -0.101143
  20 H :    0.107951
  21 H :    0.108719
  22 H :    0.153607
  23 H :    0.102079
  24 H :    0.111368
  25 H :    0.120023
  26 H :    0.128576
  27 H :    0.104252
  28 H :    0.121530
  29 H :    0.155736
  30 H :    0.106557
  31 H :    0.110892
  32 H :    0.110214
  33 H :    0.113435
  34 H :    0.116497
  35 H :    0.102003
  36 H :    0.112198
  37 H :    0.112923
Sum of atomic charges:   -0.0000000

LOEWDIN ATOMIC CHARGES
----------------------
   0 C :   -0.364265
   1 C :   -0.108640
   2 O :   -0.046471
   3 C :    0.036100
   4 O :   -0.139986
   5 C :   -0.249849
   6 C :   -0.260286
   7 H :    0.148726
   8 C :    0.030737
   9 O :   -0.141403
  10 O :   -0.040430
  11 C :   -0.103546
  12 C :   -0.356793
  13 S :    0.104802
  14 P :    0.589352
  15 S :   -0.326872
  16 O :   -0.258202
  17 C :   -0.209817
  18 O :   -0.279143
  19 C :   -0.225074
  20 H :    0.122465
  21 H :    0.129945
  22 H :    0.126924
  23 H :    0.116843
  24 H :    0.121472
  25 H :    0.137792
  26 H :    0.149431
  27 H :    0.117805
  28 H :    0.125435
  29 H :    0.141058
  30 H :    0.122428
  31 H :    0.129864
  32 H :    0.109701
  33 H :    0.110644
  34 H :    0.118193
  35 H :    0.102789
  36 H :    0.115795
  37 H :    0.102473

  Mayer bond orders larger than 0.100000
B(  0-C ,  1-C ) :   1.1788 B(  0-C , 20-H ) :   0.9479 B(  0-C , 21-H ) :   0.9409
B(  0-C , 22-H ) :   0.9166 B(  1-C ,  2-O ) :   0.9024 B(  1-C , 23-H ) :   0.9368
B(  1-C , 24-H ) :   0.9109 B(  2-O ,  3-C ) :   1.2670 B(  3-C ,  4-O ) :   1.9568
B(  3-C ,  5-C ) :   0.9926 B(  4-O ,  8-C ) :   0.1213 B(  5-C ,  6-C ) :   1.0305
B(  5-C , 25-H ) :   0.9072 B(  5-C , 26-H ) :   0.8725 B(  6-C ,  7-H ) :   0.8759
B(  6-C ,  8-C ) :   0.9052 B(  6-C , 13-S ) :   1.0233 B(  8-C ,  9-O ) :   1.8677
B(  8-C , 10-O ) :   1.2660 B(  9-O , 14-P ) :   0.1925 B( 10-O , 11-C ) :   0.8983
B( 11-C , 12-C ) :   1.1819 B( 11-C , 27-H ) :   0.9373 B( 11-C , 28-H ) :   0.9119
B( 12-C , 29-H ) :   0.9320 B( 12-C , 30-H ) :   0.9498 B( 12-C , 31-H ) :   0.9414
B( 13-S , 14-P ) :   0.9475 B( 13-S , 15-S ) :   0.1168 B( 14-P , 15-S ) :   1.5746
B( 14-P , 16-O ) :   1.0917 B( 14-P , 18-O ) :   0.9935 B( 16-O , 17-C ) :   0.9376
B( 17-C , 32-H ) :   0.9349 B( 17-C , 33-H ) :   0.9499 B( 17-C , 34-H ) :   0.9594
B( 18-O , 19-C ) :   0.9530 B( 19-C , 35-H ) :   0.9505 B( 19-C , 36-H ) :   0.9586
B( 19-C , 37-H ) :   0.9227

Dispersion correction           -0.053805854
FINAL SINGLE POINT ENERGY     -1979.006465422488

DIPOLE MOMENT
-------------

Method             : SCF
Type of density    : Electron Density
Multiplicity       :   1
Irrep              :   0
Energy             : -1979.1364234391148784 Eh
Relativity type    :
Basis              : AO
                                X                 Y                 Z
Electronic contribution:     -9.143383146       3.572129257      -6.533076640
Nuclear contribution   :     10.113186437      -3.229232783       5.749083218
                        -----------------------------------------
Total Dipole Moment    :      0.969803291       0.342896474      -0.783993422
                        -----------------------------------------
Magnitude (a.u.)       :      1.293345314
Magnitude (Debye)      :      3.287422532

Rotational constants in cm-1:             0.011565             0.009271             0.006937
Rotational constants in MHz :           346.695885           277.931562           207.967543

                             ****ORCA TERMINATED NORMALLY****
TOTAL RUN TIME: 0 days 0 hours 0 minutes 37 seconds 878 msec
