                         Program Version 6.0.1  -  RELEASE   -
|  1> ! pbe def2-sv(p) def2/J RI DEFGRID1 loosescf d4 GCP(DFT/SV(P)) printgap
|  2> %output
|  3>     printlevel normal
|  4> end
|  5> * xyz 0 1
|  6> C 4.0091205641 -2.7973115732 1.2227213395
|  7> C 2.6789037003 -2.0716601204 1.2439985265
|  8> O 2.468210634 -1.4904560731 -0.0589733919
|  9> C 1.5690745818 -0.5578575119 -0.196599175
| 10> O 0.8977543606 -0.0961533344 0.7158453735
| 11> C 1.4460214024 -0.0533550253 -1.6133437446
| 12> C 0.3726476397 1.0235694594 -1.6617765218
| 13> H 0.4227546315 1.5743354606 -2.6049851031
| 14> C 0.5078970579 2.0185893028 -0.5149885618
| 15> O -0.4231950859 2.4629629172 0.1135533607
| 16> O 1.7691176162 2.3776331389 -0.3606764093
| 17> C 2.0729371643 3.363757263 0.6463695414
| 18> C 1.8699280036 4.772172651 0.1122377296
| 19> S -1.3293648868 0.3645242895 -1.680383275
| 20> P -1.7135105749 -0.7482720231 0.0733488446
| 21> S -0.8644893602 -2.4981970099 0.3824010026
| 22> O -1.858178379 0.2410175931 1.298932004
| 23> C -1.2735644648 0.0564984377 2.5872578733
| 24> O -3.2838187753 -0.9427253792 -0.1820838272
| 25> C -3.7805258726 -1.8383809796 -1.181370241
| 26> H 3.9977678114 -3.5623915712 0.4528436751
| 27> H 4.8150748156 -2.0994689587 1.016127334
| 28> H 4.1757810153 -3.2632848234 2.1879705754
| 29> H 2.6562468616 -1.2702156354 1.9890239933
| 30> H 1.8462388705 -2.754934348 1.4394026632
| 31> H 1.1998929464 -0.8849643147 -2.2753374727
| 32> H 2.4106914282 0.356503928 -1.9175324759
| 33> H 1.4346477609 3.1800470173 1.5154062094
| 34> H 3.117510786 3.1781853328 0.8970931838
| 35> H 2.4677883648 4.9227260268 -0.7821944492
| 36> H 0.8214653435 4.9330846847 -0.1282244509
| 37> H 2.1708824889 5.4877712977 0.870173999
| 38> H -0.4691523571 0.780566386 2.7058133701
| 39> H -0.8754454368 -0.9554653058 2.686627638
| 40> H -2.0634043379 0.2296631769 3.3149431061
| 41> H -4.8300561034 -1.9900483853 -0.9419780651
| 42> H -3.2395383926 -2.7858229693 -1.1358522378
| 43> H -3.6717526007 -1.3933065862 -2.1699509435
| 44> *
| 45>
| 46>                          ****END OF INPUT****

CARTESIAN COORDINATES (ANGSTROEM)
---------------------------------
  C      4.009121   -2.797312    1.222721
  C      2.678904   -2.071660    1.243999
  O      2.468211   -1.490456   -0.058973
  C      1.569075   -0.557858   -0.196599
  O      0.897754   -0.096153    0.715845
  C      1.446021   -0.053355   -1.613344
  C      0.372648    1.023569   -1.661777
  H      0.422755    1.574335   -2.604985
  C      0.507897    2.018589   -0.514989
  O     -0.423195    2.462963    0.113553
  O      1.769118    2.377633   -0.360676
  C      2.072937    3.363757    0.646370
  C      1.869928    4.772173    0.112238
  S     -1.329365    0.364524   -1.680383
  P     -1.713511   -0.748272    0.073349
  S     -0.864489   -2.498197    0.382401
  O     -1.858178    0.241018    1.298932
  C     -1.273564    0.056498    2.587258
  O     -3.283819   -0.942725   -0.182084
  C     -3.780526   -1.838381   -1.181370
  H      3.997768   -3.562392    0.452844
  H      4.815075   -2.099469    1.016127
  H      4.175781   -3.263285    2.187971
  H      2.656247   -1.270216    1.989024
  H      1.846239   -2.754934    1.439403
  H      1.199893   -0.884964   -2.275337
  H      2.410691    0.356504   -1.917532
  H      1.434648    3.180047    1.515406
  H      3.117511    3.178185    0.897093
  H      2.467788    4.922726   -0.782194
  H      0.821465    4.933085   -0.128224
  H      2.170882    5.487771    0.870174
  H     -0.469152    0.780566    2.705813
  H     -0.875445   -0.955465    2.686628
  H     -2.063404    0.229663    3.314943
  H     -4.830056   -1.990048   -0.941978
  H     -3.239538   -2.785823   -1.135852
  H     -3.671753   -1.393307   -2.169951

 Total Charge           Charge          ....    0
 Multiplicity           Mult            ....    1
 Number of Electrons    NEL             ....  174
 Basis Dimension        Dim             ....  316

ORBITAL ENERGIES
----------------

  NO   OCC          E(Eh)            E(eV)
   0   2.0000     -88.031096     -2395.4479
   1   2.0000     -87.970051     -2393.7868
   2   2.0000     -76.416565     -2079.4005
   3   2.0000     -18.812621      -511.9174
   4   2.0000     -18.804735      -511.7029
   5   2.0000     -18.775925      -510.9189
   6   2.0000     -18.774962      -510.8927
   7   2.0000     -18.751192      -510.2459
   8   2.0000     -18.730642      -509.6867
   9   2.0000     -10.021935      -272.7107
  10   2.0000     -10.012037      -272.4414
  11   2.0000      -9.950755      -270.7738
  12   2.0000      -9.949701      -270.7451
  13   2.0000      -9.949261      -270.7331
  14   2.0000      -9.931432      -270.2480
  15   2.0000      -9.926794      -270.1218
  16   2.0000      -9.916800      -269.8498
  17   2.0000      -9.891367      -269.1578
  18   2.0000      -9.888491      -269.0795
  19   2.0000      -7.676132      -208.8782
  20   2.0000      -7.615254      -207.2216
  21   2.0000      -6.412893      -174.5037
  22   2.0000      -5.704561      -155.2290
  23   2.0000      -5.700424      -155.1164
  24   2.0000      -5.692691      -154.9060
  25   2.0000      -5.644161      -153.5854
  26   2.0000      -5.635907      -153.3608
  27   2.0000      -5.635289      -153.3440
  28   2.0000      -4.635306      -126.1331
  29   2.0000      -4.635064      -126.1265
  30   2.0000      -4.633370      -126.0804
  31   2.0000      -1.022933       -27.8354
  32   2.0000      -1.010431       -27.4952
  33   2.0000      -0.969958       -26.3939
  34   2.0000      -0.929060       -25.2810
  35   2.0000      -0.925233       -25.1769
  36   2.0000      -0.912847       -24.8398
  37   2.0000      -0.763786       -20.7837
  38   2.0000      -0.717699       -19.5296
  39   2.0000      -0.704936       -19.1823
  40   2.0000      -0.687176       -18.6990
  41   2.0000      -0.655214       -17.8293
  42   2.0000      -0.623324       -16.9615
  43   2.0000      -0.617081       -16.7916
  44   2.0000      -0.611212       -16.6319
  45   2.0000      -0.592811       -16.1312
  46   2.0000      -0.563848       -15.3431
  47   2.0000      -0.514971       -14.0131
  48   2.0000      -0.509305       -13.8589
  49   2.0000      -0.494081       -13.4446
  50   2.0000      -0.482273       -13.1233
  51   2.0000      -0.463807       -12.6208
  52   2.0000      -0.456853       -12.4316
  53   2.0000      -0.446804       -12.1582
  54   2.0000      -0.429769       -11.6946
  55   2.0000      -0.429016       -11.6741
  56   2.0000      -0.423869       -11.5341
  57   2.0000      -0.418588       -11.3904
  58   2.0000      -0.409466       -11.1421
  59   2.0000      -0.405174       -11.0253
  60   2.0000      -0.399823       -10.8797
  61   2.0000      -0.390670       -10.6307
  62   2.0000      -0.386814       -10.5257
  63   2.0000      -0.383672       -10.4402
  64   2.0000      -0.379734       -10.3331
  65   2.0000      -0.364066        -9.9067
  66   2.0000      -0.361520        -9.8375
  67   2.0000      -0.354421        -9.6443
  68   2.0000      -0.348765        -9.4904
  69   2.0000      -0.340453        -9.2642
  70   2.0000      -0.333898        -9.0858
  71   2.0000      -0.329254        -8.9595
  72   2.0000      -0.322151        -8.7662
  73   2.0000      -0.305713        -8.3189
  74   2.0000      -0.302361        -8.2277
  75   2.0000      -0.296624        -8.0715
  76   2.0000      -0.288729        -7.8567
  77   2.0000      -0.276325        -7.5192
  78   2.0000      -0.269597        -7.3361
  79   2.0000      -0.259961        -7.0739
  80   2.0000      -0.251263        -6.8372
  81   2.0000      -0.247292        -6.7292
  82   2.0000      -0.236599        -6.4382
  83   2.0000      -0.224861        -6.1188
  84   2.0000      -0.214483        -5.8364
  85   2.0000      -0.187738        -5.1086
  86   2.0000      -0.183703        -4.9988
  87   0.0000      -0.041688        -1.1344
  88   0.0000      -0.022828        -0.6212
  89   0.0000      -0.021045        -0.5727
  90   0.0000      -0.005088        -0.1385
  91   0.0000       0.033196         0.9033

MULLIKEN ATOMIC CHARGES
-----------------------
   0 C :   -0.276306
   1 C :   -0.035457
   2 O :   -0.208771
   3 C :    0.135478
   4 O :   -0.229949
   5 C :   -0.058984
   6 C :   -0.305727
   7 H :    0.144362
   8 C :    0.200618
   9 O :   -0.170936
  10 O :   -0.250592
  11 C :   -0.009030
  12 C :   -0.305776
  13 S :   -0.086420
  14 P :    0.635485
  15 S :   -0.371585
  16 O :   -0.348648
  17 C :   -0.088332
  18 O :   -0.373775
  19 C :   -0.103730
  20 H :    0.119480
  21 H :    0.111609
  22 H :    0.113664
  23 H :    0.104920
  24 H :    0.127586
  25 H :    0.136170
  26 H :    0.125537
  27 H :    0.115758
  28 H :    0.098577
  29 H :    0.110451
  30 H :    0.131992
  31 H :    0.113172
  32 H :    0.121791
  33 H :    0.111924
  34 H :    0.115071
  35 H :    0.122123
  36 H :    0.113788
  37 H :    0.114463
Sum of atomic charges:   -0.0000000

LOEWDIN ATOMIC CHARGES
----------------------
   0 C :   -0.350745
   1 C :   -0.108249
   2 O :   -0.035041
   3 C :    0.035293
   4 O :   -0.164235
   5 C :   -0.253977
   6 C :   -0.263863
   7 H :    0.151306
   8 C :    0.007337
   9 O :   -0.151160
  10 O :   -0.068096
  11 C :   -0.107484
  12 C :   -0.357055
  13 S :    0.117839
  14 P :    0.579472
  15 S :   -0.341172
  16 O :   -0.220998
  17 C :   -0.207366
  18 O :   -0.256053
  19 C :   -0.219739
  20 H :    0.129005
  21 H :    0.124599
  22 H :    0.132037
  23 H :    0.116004
  24 H :    0.119645
  25 H :    0.149093
  26 H :    0.149546
  27 H :    0.122257
  28 H :    0.115944
  29 H :    0.123338
  30 H :    0.132562
  31 H :    0.130915
  32 H :    0.113416
  33 H :    0.105116
  34 H :    0.115617
  35 H :    0.120939
  36 H :    0.106726
  37 H :    0.107227

  Mayer bond orders larger than 0.100000
B(  0-C ,  1-C ) :   1.1549 B(  0-C , 20-H ) :   0.9481 B(  0-C , 21-H ) :   0.9515
B(  0-C , 22-H ) :   0.9437 B(  1-C ,  2-O ) :   0.8926 B(  1-C , 23-H ) :   0.9250
B(  1-C , 24-H ) :   0.9215 B(  2-O ,  3-C ) :   1.2926 B(  3-C ,  4-O ) :   1.8750
B(  3-C ,  5-C ) :   1.0136 B(  5-C ,  6-C ) :   1.0314 B(  5-C , 25-H ) :   0.8871
B(  5-C , 26-H ) :   0.8708 B(  6-C ,  7-H ) :   0.8663 B(  6-C ,  8-C ) :   0.8667
B(  6-C , 13-S ) :   1.0593 B(  8-C ,  9-O ) :   2.0982 B(  8-C , 10-O ) :   1.2091
B( 10-O , 11-C ) :   0.9135 B( 11-C , 12-C ) :   1.1753 B( 11-C , 27-H ) :   0.9146
B( 11-C , 28-H ) :   0.9378 B( 12-C , 29-H ) :   0.9486 B( 12-C , 30-H ) :   0.9444
B( 12-C , 31-H ) :   0.9440 B( 13-S , 14-P ) :   0.9748 B( 13-S , 15-S ) :   0.1129
B( 14-P , 15-S ) :   1.5600 B( 14-P , 16-O ) :   1.1543 B( 14-P , 18-O ) :   1.0793
B( 16-O , 17-C ) :   0.9261 B( 17-C , 32-H ) :   0.9513 B( 17-C , 33-H ) :   0.9302
B( 17-C , 34-H ) :   0.9540 B( 18-O , 19-C ) :   0.9409 B( 19-C , 35-H ) :   0.9595
B( 19-C , 36-H ) :   0.9291 B( 19-C , 37-H ) :   0.9483

Dispersion correction           -0.054017894
FINAL SINGLE POINT ENERGY     -1979.009008318017

DIPOLE MOMENT
-------------

Method             : SCF
Type of density    : Electron Density
Multiplicity       :   1
Irrep              :   0
Energy             : -1979.1390539638564405 Eh
Relativity type    :
Basis              : AO
                                X                 Y                 Z
Electronic contribution:    -15.325495461      -3.873949579      -6.762381384
Nuclear contribution   :     16.962355234       4.223419219       6.673835632
                        -----------------------------------------
Total Dipole Moment    :      1.636859773       0.349469641      -0.088545753
                        -----------------------------------------
Magnitude (a.u.)       :      1.676090480
Magnitude (Debye)      :      4.260283430

Rotational constants in cm-1:             0.011354             0.008872             0.006350
Rotational constants in MHz :           340.390420           265.970456           190.375479

                             ****ORCA TERMINATED NORMALLY****
TOTAL RUN TIME: 0 days 0 hours 0 minutes 40 seconds 483 msec
