                         Program Version 6.0.0  -   RELEASE  -
|  1> ! pbe def2-sv(p) def2/J RI DEFGRID1 loosescf d4 GCP(DFT/SV(P)) printgap
|  2> %output
|  3>     printlevel normal
|  4> end
|  5> * xyz 0 1
|  6> C 4.7980933667 1.0853603096 -1.319429968
|  7> C 4.8083311555 0.8979723391 0.183480824
|  8> O 3.8287105978 -0.0596856355 0.6242570394
|  9> P 2.2660797625 0.1817571053 0.48293192
| 10> S 1.6295278702 1.9994431231 0.8450212928
| 11> O 1.6671986022 -0.8443239835 1.5220660755
| 12> C 2.2106189836 -2.1436577046 1.8608175385
| 13> C 2.2076323827 -3.1036677349 0.6902521808
| 14> S 1.7873025369 -0.5259093282 -1.4727218068
| 15> C 0.0686427397 -0.0093044279 -1.4643920519
| 16> S -0.9619426215 -1.1586529728 -0.4700604521
| 17> P -2.5772723394 0.1759938995 -0.1624295716
| 18> S -4.1925633117 -0.5505290376 0.6710294228
| 19> O -2.7775859386 0.8624242295 -1.5830150352
| 20> C -3.7664427696 0.3811320369 -2.5135277552
| 21> C -3.3924722493 -0.9636585698 -3.1055011307
| 22> O -1.9122801574 1.429411657 0.5560829977
| 23> C -2.0118624576 1.6261827944 1.9765588834
| 24> C -1.335068306 0.5228022099 2.7644252189
| 25> H 3.876225555 1.5750137774 -1.6288684962
| 26> H 5.6393303373 1.7079060797 -1.6069854011
| 27> H 4.8704646227 0.1247343495 -1.822862255
| 28> H 4.6148600246 1.8478227974 0.6912816188
| 29> H 5.7533389821 0.4775655126 0.5306502575
| 30> H 3.2205308732 -1.9986018203 2.2485587071
| 31> H 1.5490537634 -2.4854043459 2.658393637
| 32> H 2.4928213815 -4.0892372056 1.04485999
| 33> H 1.2142357432 -3.1572238256 0.2489597814
| 34> H 2.916329094 -2.7823211327 -0.0698015826
| 35> H -0.2713111733 -0.027810424 -2.4961135202
| 36> H -0.0107721907 0.9916206685 -1.0350247272
| 37> H -4.7271008589 0.3137858157 -1.9933894141
| 38> H -3.811133587 1.1614570563 -3.2744394562
| 39> H -3.3494350467 -1.7163577584 -2.3185592892
| 40> H -4.1474891835 -1.2557410279 -3.8284688949
| 41> H -2.4262865537 -0.9135454129 -3.6009066993
| 42> H -1.5246638195 2.5890657206 2.139656292
| 43> H -3.0715962962 1.6898213461 2.2417643998
| 44> H -1.8246337069 -0.4308189648 2.5656436201
| 45> H -0.2858283804 0.4456034706 2.487216852
| 46> H -1.4069910099 0.7440956633 3.8243483161
| 47> *
| 48>
| 49>                          ****END OF INPUT****

CARTESIAN COORDINATES (ANGSTROEM)
---------------------------------
  C      4.798093    1.085360   -1.319430
  C      4.808331    0.897972    0.183481
  O      3.828711   -0.059686    0.624257
  P      2.266080    0.181757    0.482932
  S      1.629528    1.999443    0.845021
  O      1.667199   -0.844324    1.522066
  C      2.210619   -2.143658    1.860818
  C      2.207632   -3.103668    0.690252
  S      1.787303   -0.525909   -1.472722
  C      0.068643   -0.009304   -1.464392
  S     -0.961943   -1.158653   -0.470060
  P     -2.577272    0.175994   -0.162430
  S     -4.192563   -0.550529    0.671029
  O     -2.777586    0.862424   -1.583015
  C     -3.766443    0.381132   -2.513528
  C     -3.392472   -0.963659   -3.105501
  O     -1.912280    1.429412    0.556083
  C     -2.011862    1.626183    1.976559
  C     -1.335068    0.522802    2.764425
  H      3.876226    1.575014   -1.628868
  H      5.639330    1.707906   -1.606985
  H      4.870465    0.124734   -1.822862
  H      4.614860    1.847823    0.691282
  H      5.753339    0.477566    0.530650
  H      3.220531   -1.998602    2.248559
  H      1.549054   -2.485404    2.658394
  H      2.492821   -4.089237    1.044860
  H      1.214236   -3.157224    0.248960
  H      2.916329   -2.782321   -0.069802
  H     -0.271311   -0.027810   -2.496114
  H     -0.010772    0.991621   -1.035025
  H     -4.727101    0.313786   -1.993389
  H     -3.811134    1.161457   -3.274439
  H     -3.349435   -1.716358   -2.318559
  H     -4.147489   -1.255741   -3.828469
  H     -2.426287   -0.913545   -3.600907
  H     -1.524664    2.589066    2.139656
  H     -3.071596    1.689821    2.241764
  H     -1.824634   -0.430819    2.565644
  H     -0.285828    0.445603    2.487217
  H     -1.406991    0.744096    3.824348

 Total Charge           Charge          ....    0
 Multiplicity           Mult            ....    1
 Number of Electrons    NEL             ....  202
 Basis Dimension        Dim             ....  334

ORBITAL ENERGIES
----------------

  NO   OCC          E(Eh)            E(eV)
   0   2.0000     -88.051346     -2395.9989
   1   2.0000     -88.037954     -2395.6345
   2   2.0000     -87.990840     -2394.3525
   3   2.0000     -87.985086     -2394.1959
   4   2.0000     -76.433812     -2079.8698
   5   2.0000     -76.421582     -2079.5370
   6   2.0000     -18.806219      -511.7432
   7   2.0000     -18.795734      -511.4579
   8   2.0000     -18.786478      -511.2060
   9   2.0000     -18.779126      -511.0060
  10   2.0000      -9.962939      -271.1054
  11   2.0000      -9.960180      -271.0303
  12   2.0000      -9.955577      -270.9050
  13   2.0000      -9.950714      -270.7727
  14   2.0000      -9.938408      -270.4378
  15   2.0000      -9.892359      -269.1848
  16   2.0000      -9.889604      -269.1098
  17   2.0000      -9.884380      -268.9676
  18   2.0000      -9.863720      -268.4055
  19   2.0000      -7.696166      -209.4233
  20   2.0000      -7.682833      -209.0605
  21   2.0000      -7.635643      -207.7764
  22   2.0000      -7.630222      -207.6289
  23   2.0000      -6.431057      -174.9980
  24   2.0000      -6.419013      -174.6702
  25   2.0000      -5.723974      -155.7572
  26   2.0000      -5.720769      -155.6700
  27   2.0000      -5.713149      -155.4627
  28   2.0000      -5.711056      -155.4057
  29   2.0000      -5.707359      -155.3051
  30   2.0000      -5.699510      -155.0915
  31   2.0000      -5.664605      -154.1417
  32   2.0000      -5.659196      -153.9946
  33   2.0000      -5.656321      -153.9163
  34   2.0000      -5.655716      -153.8999
  35   2.0000      -5.650696      -153.7632
  36   2.0000      -5.650487      -153.7576
  37   2.0000      -4.654195      -126.6471
  38   2.0000      -4.652580      -126.6031
  39   2.0000      -4.651246      -126.5668
  40   2.0000      -4.641355      -126.2977
  41   2.0000      -4.641064      -126.2898
  42   2.0000      -4.639460      -126.2461
  43   2.0000      -0.996883       -27.1266
  44   2.0000      -0.980674       -26.6855
  45   2.0000      -0.952440       -25.9172
  46   2.0000      -0.937183       -25.5020
  47   2.0000      -0.765087       -20.8191
  48   2.0000      -0.723002       -19.6739
  49   2.0000      -0.708716       -19.2852
  50   2.0000      -0.697852       -18.9895
  51   2.0000      -0.681126       -18.5344
  52   2.0000      -0.671036       -18.2598
  53   2.0000      -0.655515       -17.8375
  54   2.0000      -0.638142       -17.3647
  55   2.0000      -0.603583       -16.4243
  56   2.0000      -0.590807       -16.0767
  57   2.0000      -0.585883       -15.9427
  58   2.0000      -0.563126       -15.3234
  59   2.0000      -0.558501       -15.1976
  60   2.0000      -0.503168       -13.6919
  61   2.0000      -0.487979       -13.2786
  62   2.0000      -0.477086       -12.9822
  63   2.0000      -0.459106       -12.4929
  64   2.0000      -0.457128       -12.4391
  65   2.0000      -0.451896       -12.2967
  66   2.0000      -0.444756       -12.1024
  67   2.0000      -0.433798       -11.8042
  68   2.0000      -0.432031       -11.7562
  69   2.0000      -0.420869       -11.4524
  70   2.0000      -0.413596       -11.2545
  71   2.0000      -0.405642       -11.0381
  72   2.0000      -0.393484       -10.7072
  73   2.0000      -0.385735       -10.4964
  74   2.0000      -0.380055       -10.3418
  75   2.0000      -0.376974       -10.2580
  76   2.0000      -0.371301       -10.1036
  77   2.0000      -0.361246        -9.8300
  78   2.0000      -0.355861        -9.6835
  79   2.0000      -0.350215        -9.5298
  80   2.0000      -0.347836        -9.4651
  81   2.0000      -0.343204        -9.3390
  82   2.0000      -0.337844        -9.1932
  83   2.0000      -0.331747        -9.0273
  84   2.0000      -0.326664        -8.8890
  85   2.0000      -0.324743        -8.8367
  86   2.0000      -0.311822        -8.4851
  87   2.0000      -0.302941        -8.2434
  88   2.0000      -0.300635        -8.1807
  89   2.0000      -0.294926        -8.0253
  90   2.0000      -0.279318        -7.6006
  91   2.0000      -0.278677        -7.5832
  92   2.0000      -0.269541        -7.3346
  93   2.0000      -0.260147        -7.0790
  94   2.0000      -0.254061        -6.9134
  95   2.0000      -0.234828        -6.3900
  96   2.0000      -0.215533        -5.8649
  97   2.0000      -0.212212        -5.7746
  98   2.0000      -0.205692        -5.5972
  99   2.0000      -0.201637        -5.4868
 100   2.0000      -0.199747        -5.4354
 101   0.0000      -0.045690        -1.2433
 102   0.0000      -0.027570        -0.7502
 103   0.0000      -0.021570        -0.5870
 104   0.0000      -0.001124        -0.0306
 105   0.0000       0.012732         0.3464

MULLIKEN ATOMIC CHARGES
-----------------------
   0 C :   -0.325978
   1 C :    0.000271
   2 O :   -0.383514
   3 P :    0.621898
   4 S :   -0.308461
   5 O :   -0.352498
   6 C :    0.008162
   7 C :   -0.326815
   8 S :   -0.098642
   9 C :   -0.369017
  10 S :   -0.087578
  11 P :    0.586887
  12 S :   -0.316795
  13 O :   -0.373961
  14 C :   -0.002657
  15 C :   -0.319501
  16 O :   -0.364059
  17 C :    0.013544
  18 C :   -0.343035
  19 H :    0.134388
  20 H :    0.118811
  21 H :    0.119080
  22 H :    0.116176
  23 H :    0.107653
  24 H :    0.109709
  25 H :    0.114048
  26 H :    0.114963
  27 H :    0.135955
  28 H :    0.120634
  29 H :    0.187173
  30 H :    0.213006
  31 H :    0.113846
  32 H :    0.106078
  33 H :    0.130767
  34 H :    0.112646
  35 H :    0.114307
  36 H :    0.105563
  37 H :    0.105025
  38 H :    0.112773
  39 H :    0.147231
  40 H :    0.101916
Sum of atomic charges:    0.0000000

LOEWDIN ATOMIC CHARGES
----------------------
   0 C :   -0.372197
   1 C :   -0.115156
   2 O :   -0.245224
   3 P :    0.580300
   4 S :   -0.300217
   5 O :   -0.230090
   6 C :   -0.106687
   7 C :   -0.371409
   8 S :    0.093736
   9 C :   -0.480455
  10 S :    0.067527
  11 P :    0.574308
  12 S :   -0.317608
  13 O :   -0.243841
  14 C :   -0.118353
  15 C :   -0.367705
  16 O :   -0.236844
  17 C :   -0.115087
  18 C :   -0.379811
  19 H :    0.123772
  20 H :    0.134345
  21 H :    0.123830
  22 H :    0.115268
  23 H :    0.119980
  24 H :    0.114533
  25 H :    0.124777
  26 H :    0.132038
  27 H :    0.124905
  28 H :    0.116677
  29 H :    0.130450
  30 H :    0.127508
  31 H :    0.111454
  32 H :    0.118898
  33 H :    0.123379
  34 H :    0.131328
  35 H :    0.120837
  36 H :    0.119442
  37 H :    0.107946
  38 H :    0.114422
  39 H :    0.121792
  40 H :    0.127232

  Mayer bond orders larger than 0.100000
B(  0-C ,  1-C ) :   1.1668 B(  0-C , 19-H ) :   0.9332 B(  0-C , 20-H ) :   0.9364
B(  0-C , 21-H ) :   0.9437 B(  1-C ,  2-O ) :   0.8997 B(  1-C , 22-H ) :   0.9186
B(  1-C , 23-H ) :   0.9339 B(  2-O ,  3-P ) :   1.0865 B(  3-P ,  4-S ) :   1.6347
B(  3-P ,  5-O ) :   1.1314 B(  3-P ,  8-S ) :   0.9323 B(  4-S ,  8-S ) :   0.1084
B(  5-O ,  6-C ) :   0.8941 B(  6-C ,  7-C ) :   1.1707 B(  6-C , 24-H ) :   0.9284
B(  6-C , 25-H ) :   0.9331 B(  7-C , 26-H ) :   0.9348 B(  7-C , 27-H ) :   0.9371
B(  7-C , 28-H ) :   0.9400 B(  8-S ,  9-C ) :   1.0220 B(  9-C , 10-S ) :   0.9595
B(  9-C , 29-H ) :   0.8995 B(  9-C , 30-H ) :   0.8524 B( 10-S , 11-P ) :   0.9747
B( 11-P , 12-S ) :   1.6229 B( 11-P , 13-O ) :   1.0784 B( 11-P , 16-O ) :   1.1120
B( 13-O , 14-C ) :   0.9146 B( 14-C , 15-C ) :   1.1605 B( 14-C , 31-H ) :   0.9148
B( 14-C , 32-H ) :   0.9345 B( 15-C , 33-H ) :   0.9345 B( 15-C , 34-H ) :   0.9379
B( 15-C , 35-H ) :   0.9433 B( 16-O , 17-C ) :   0.9012 B( 17-C , 18-C ) :   1.1669
B( 17-C , 36-H ) :   0.9298 B( 17-C , 37-H ) :   0.9223 B( 18-C , 38-H ) :   0.9322
B( 18-C , 39-H ) :   0.9216 B( 18-C , 40-H ) :   0.9369

Dispersion correction           -0.066722647
FINAL SINGLE POINT ENERGY     -2929.517129879593

DIPOLE MOMENT
-------------

Method             : SCF
Type of density    : Electron Density
Multiplicity       :   1
Irrep              :   0
Energy             : -2929.6378432104552303 Eh
Relativity type    :
Basis              : AO
                                X                 Y                 Z
Electronic contribution:     -7.425729164       4.644944014       2.421188452
Nuclear contribution   :      9.055858548      -5.160046887      -3.066406660
                        -----------------------------------------
Total Dipole Moment    :      1.630129385      -0.515102873      -0.645218209
                        -----------------------------------------
Magnitude (a.u.)       :      1.827281948
Magnitude (Debye)      :      4.644581600

Rotational constants in cm-1:             0.013104             0.004845             0.004602
Rotational constants in MHz :           392.855870           145.249037           137.958412

                             ****ORCA TERMINATED NORMALLY****
TOTAL RUN TIME: 0 days 0 hours 0 minutes 21 seconds 416 msec
