                         Program Version 6.0.0  -   RELEASE  -
|  1> ! pbe def2-sv(p) def2/J RI DEFGRID1 loosescf d4 GCP(DFT/SV(P)) printgap
|  2> %output
|  3>     printlevel normal
|  4> end
|  5> * xyz 0 1
|  6> C 0.0008771405 -2.4705159697 -7.94582e-05
|  7> C 1.2025247035 -1.7819633872 0.0116487063
|  8> C 1.1932058546 -0.3927526479 0.0149570884
|  9> C -0.0010326922 0.3144201053 0.0017082856
| 10> C -1.1943672486 -0.3945941766 -0.0121225756
| 11> C -1.2018625182 -1.7836617997 -0.0109843197
| 12> C -2.4779448065 0.3841311101 -0.0047421687
| 13> F -3.5598367205 -0.3607578542 -0.2716710193
| 14> F -2.7153651481 0.9677786484 1.1907908838
| 15> F -2.481047925 1.3880956006 -0.9029366641
| 16> C 2.4773147567 0.3850937531 0.0054047565
| 17> F 2.7406207268 0.9224832465 -1.2065464689
| 18> F 2.4640571794 1.421884045 0.8645958204
| 19> F 3.5523295858 -0.3507353277 0.3220045367
| 20> H 0.0016362515 -3.5476898841 -0.0008576325
| 21> H 2.1405836397 -2.3139023429 0.0220009559
| 22> H -0.0020904378 1.3936329309 0.0025954614
| 23> H -2.1391007855 -2.3170217439 -0.0218121776
| 24> *
| 25>
| 26>                          ****END OF INPUT****

CARTESIAN COORDINATES (ANGSTROEM)
---------------------------------
  C      0.000877   -2.470516   -0.000079
  C      1.202525   -1.781963    0.011649
  C      1.193206   -0.392753    0.014957
  C     -0.001033    0.314420    0.001708
  C     -1.194367   -0.394594   -0.012123
  C     -1.201863   -1.783662   -0.010984
  C     -2.477945    0.384131   -0.004742
  F     -3.559837   -0.360758   -0.271671
  F     -2.715365    0.967779    1.190791
  F     -2.481048    1.388096   -0.902937
  C      2.477315    0.385094    0.005405
  F      2.740621    0.922483   -1.206546
  F      2.464057    1.421884    0.864596
  F      3.552330   -0.350735    0.322005
  H      0.001636   -3.547690   -0.000858
  H      2.140584   -2.313902    0.022001
  H     -0.002090    1.393633    0.002595
  H     -2.139101   -2.317022   -0.021812

 Total Charge           Charge          ....    0
 Multiplicity           Mult            ....    1
 Number of Electrons    NEL             ....  106
 Basis Dimension        Dim             ....  204

ORBITAL ENERGIES
----------------

  NO   OCC          E(Eh)            E(eV)
   0   2.0000     -24.297308      -661.1634
   1   2.0000     -24.297078      -661.1571
   2   2.0000     -24.291953      -661.0177
   3   2.0000     -24.291500      -661.0053
   4   2.0000     -24.287629      -660.9000
   5   2.0000     -24.287414      -660.8941
   6   2.0000     -10.133899      -275.7574
   7   2.0000     -10.133869      -275.7566
   8   2.0000      -9.941735      -270.5284
   9   2.0000      -9.941683      -270.5269
  10   2.0000      -9.934825      -270.3403
  11   2.0000      -9.934063      -270.3196
  12   2.0000      -9.934029      -270.3187
  13   2.0000      -9.930877      -270.2329
  14   2.0000      -1.196326       -32.5537
  15   2.0000      -1.196283       -32.5525
  16   2.0000      -1.105503       -30.0823
  17   2.0000      -1.105471       -30.0814
  18   2.0000      -1.098027       -29.8788
  19   2.0000      -1.097996       -29.8780
  20   2.0000      -0.823047       -22.3962
  21   2.0000      -0.740173       -20.1411
  22   2.0000      -0.721674       -19.6378
  23   2.0000      -0.641181       -17.4474
  24   2.0000      -0.637472       -17.3465
  25   2.0000      -0.584580       -15.9072
  26   2.0000      -0.580000       -15.7826
  27   2.0000      -0.548518       -14.9259
  28   2.0000      -0.533552       -14.5187
  29   2.0000      -0.528729       -14.3874
  30   2.0000      -0.528126       -14.3710
  31   2.0000      -0.522749       -14.2247
  32   2.0000      -0.480061       -13.0631
  33   2.0000      -0.473037       -12.8720
  34   2.0000      -0.444867       -12.1055
  35   2.0000      -0.422045       -11.4844
  36   2.0000      -0.405810       -11.0426
  37   2.0000      -0.403297       -10.9743
  38   2.0000      -0.401883       -10.9358
  39   2.0000      -0.401442       -10.9238
  40   2.0000      -0.381960       -10.3937
  41   2.0000      -0.374707       -10.1963
  42   2.0000      -0.373275       -10.1573
  43   2.0000      -0.364194        -9.9102
  44   2.0000      -0.361319        -9.8320
  45   2.0000      -0.359168        -9.7735
  46   2.0000      -0.350086        -9.5263
  47   2.0000      -0.341664        -9.2972
  48   2.0000      -0.341546        -9.2939
  49   2.0000      -0.333016        -9.0618
  50   2.0000      -0.326643        -8.8884
  51   2.0000      -0.269199        -7.3253
  52   2.0000      -0.266941        -7.2638
  53   0.0000      -0.083388        -2.2691
  54   0.0000      -0.079119        -2.1529
  55   0.0000       0.032796         0.8924
  56   0.0000       0.046663         1.2698
  57   0.0000       0.076646         2.0857

MULLIKEN ATOMIC CHARGES
-----------------------
   0 C :   -0.042267
   1 C :   -0.072538
   2 C :   -0.019301
   3 C :   -0.144781
   4 C :   -0.019429
   5 C :   -0.072848
   6 C :    0.446754
   7 F :   -0.129205
   8 F :   -0.141827
   9 F :   -0.140383
  10 C :    0.446782
  11 F :   -0.141495
  12 F :   -0.139581
  13 F :   -0.129771
  14 H :    0.073152
  15 H :    0.072331
  16 H :    0.082224
  17 H :    0.072183
Sum of atomic charges:    0.0000000

LOEWDIN ATOMIC CHARGES
----------------------
   0 C :   -0.106326
   1 C :   -0.093798
   2 C :   -0.083292
   3 C :   -0.076377
   4 C :   -0.083309
   5 C :   -0.094089
   6 C :    0.128307
   7 F :   -0.037445
   8 F :   -0.052611
   9 F :   -0.046027
  10 C :    0.128340
  11 F :   -0.052952
  12 F :   -0.045207
  13 F :   -0.037816
  14 H :    0.134545
  15 H :    0.137674
  16 H :    0.142722
  17 H :    0.137659

  Mayer bond orders larger than 0.100000
B(  0-C ,  1-C ) :   1.3599 B(  0-C ,  5-C ) :   1.3582 B(  0-C , 14-H ) :   0.9652
B(  1-C ,  2-C ) :   1.3893 B(  1-C , 15-H ) :   0.9640 B(  2-C ,  3-C ) :   1.3464
B(  2-C , 10-C ) :   0.9404 B(  3-C ,  4-C ) :   1.3445 B(  3-C , 16-H ) :   0.9679
B(  4-C ,  5-C ) :   1.3911 B(  4-C ,  6-C ) :   0.9407 B(  5-C , 17-H ) :   0.9639
B(  6-C ,  7-F ) :   1.1781 B(  6-C ,  8-F ) :   1.1818 B(  6-C ,  9-F ) :   1.1660
B( 10-C , 11-F ) :   1.1836 B( 10-C , 12-F ) :   1.1657 B( 10-C , 13-F ) :   1.1770

Dispersion correction           -0.020434986
FINAL SINGLE POINT ENERGY      -904.634766158286

DIPOLE MOMENT
-------------

Method             : SCF
Type of density    : Electron Density
Multiplicity       :   1
Irrep              :   0
Energy             :  -904.7195211032302495 Eh
Relativity type    :
Basis              : AO
                                X                 Y                 Z
Electronic contribution:     -0.001203221       9.028719575      -0.002265205
Nuclear contribution   :      0.000263037     -10.061238468       0.005293976
                        -----------------------------------------
Total Dipole Moment    :     -0.000940184      -1.032518893       0.003028771
                        -----------------------------------------
Magnitude (a.u.)       :      1.032523763
Magnitude (Debye)      :      2.624466836

Rotational constants in cm-1:             0.043783             0.012880             0.011101
Rotational constants in MHz :          1312.575161           386.120982           332.802169

                             ****ORCA TERMINATED NORMALLY****
TOTAL RUN TIME: 0 days 0 hours 0 minutes 14 seconds 341 msec
