                         Program Version 6.0.0  -   RELEASE  -
|  1> ! pbe def2-sv(p) def2/J RI DEFGRID1 loosescf d4 GCP(DFT/SV(P)) printgap
|  2> %output
|  3>     printlevel normal
|  4> end
|  5> * xyz 0 1
|  6> C 3.752440996 -2.4932539527 1.0529724529
|  7> C 2.4016730181 -2.3177768706 0.3900736374
|  8> O 1.9187291391 -0.9679357383 0.5443387378
|  9> P 2.516112575 0.2425601882 -0.3156380542
| 10> S 3.2985909752 -0.2580301172 -2.033662834
| 11> O 3.5613779331 0.9910433388 0.6080845322
| 12> C 3.3046224215 1.3457954232 1.9897087973
| 13> C 2.8598753198 2.7896635081 2.1057826531
| 14> S 0.819180804 1.5056331914 -0.3882857022
| 15> C -0.0330246253 0.5894873378 -1.6977771918
| 16> S -0.90520914 -0.8645765818 -1.0833228898
| 17> P -2.4369545151 0.2169073768 -0.0512017031
| 18> S -3.0410864201 1.8094216883 -1.0196676175
| 19> O -1.9284298409 0.5734881755 1.3933322963
| 20> C -1.8937658856 -0.3168557432 2.5377345762
| 21> C -0.9943627391 -1.5138143224 2.3158858083
| 22> O -3.5410530944 -0.8879566354 0.2246141423
| 23> C -4.3684935779 -1.3948510222 -0.8438078114
| 24> C -5.5821263656 -2.0524951778 -0.2190884104
| 25> H 3.6957512338 -2.2405940745 2.1084889033
| 26> H 4.0737869209 -3.5244511985 0.9468881314
| 27> H 4.4836395746 -1.8443952438 0.5709398998
| 28> H 1.6315954972 -2.9341855968 0.855330569
| 29> H 2.4622025834 -2.5453617746 -0.6783661448
| 30> H 2.5543212724 0.6654056396 2.3987570758
| 31> H 4.2621760945 1.1876303383 2.4888938208
| 32> H 3.5908890752 3.4429603697 1.6375477641
| 33> H 1.8986337824 2.9366260489 1.6165882779
| 34> H 2.7673322524 3.0497632085 3.1556569855
| 35> H 0.6974939468 0.249169625 -2.4329886062
| 36> H -0.7554705003 1.2757113473 -2.1417340722
| 37> H -1.5208489585 0.3265332437 3.3362563189
| 38> H -2.9163120719 -0.6293447393 2.7559543076
| 39> H -0.9237471955 -2.0800235669 3.2394759443
| 40> H -1.4021090208 -2.153471201 1.5353519734
| 41> H -0.0012469732 -1.1880704025 2.016778376
| 42> H -4.6528675602 -0.5588188145 -1.4911543864
| 43> H -3.7764727509 -2.109489672 -1.4213528745
| 44> H -5.2725036606 -2.8597061041 0.4380902293
| 45> H -6.1468367273 -1.3242178764 0.3562661709
| 46> H -6.2131513537 -2.4522290144 -1.0059868022
| 47> *
| 48>
| 49>                          ****END OF INPUT****

CARTESIAN COORDINATES (ANGSTROEM)
---------------------------------
  C      3.752441   -2.493254    1.052972
  C      2.401673   -2.317777    0.390074
  O      1.918729   -0.967936    0.544339
  P      2.516113    0.242560   -0.315638
  S      3.298591   -0.258030   -2.033663
  O      3.561378    0.991043    0.608085
  C      3.304622    1.345795    1.989709
  C      2.859875    2.789664    2.105783
  S      0.819181    1.505633   -0.388286
  C     -0.033025    0.589487   -1.697777
  S     -0.905209   -0.864577   -1.083323
  P     -2.436955    0.216907   -0.051202
  S     -3.041086    1.809422   -1.019668
  O     -1.928430    0.573488    1.393332
  C     -1.893766   -0.316856    2.537735
  C     -0.994363   -1.513814    2.315886
  O     -3.541053   -0.887957    0.224614
  C     -4.368494   -1.394851   -0.843808
  C     -5.582126   -2.052495   -0.219088
  H      3.695751   -2.240594    2.108489
  H      4.073787   -3.524451    0.946888
  H      4.483640   -1.844395    0.570940
  H      1.631595   -2.934186    0.855331
  H      2.462203   -2.545362   -0.678366
  H      2.554321    0.665406    2.398757
  H      4.262176    1.187630    2.488894
  H      3.590889    3.442960    1.637548
  H      1.898634    2.936626    1.616588
  H      2.767332    3.049763    3.155657
  H      0.697494    0.249170   -2.432989
  H     -0.755471    1.275711   -2.141734
  H     -1.520849    0.326533    3.336256
  H     -2.916312   -0.629345    2.755954
  H     -0.923747   -2.080024    3.239476
  H     -1.402109   -2.153471    1.535352
  H     -0.001247   -1.188070    2.016778
  H     -4.652868   -0.558819   -1.491154
  H     -3.776473   -2.109490   -1.421353
  H     -5.272504   -2.859706    0.438090
  H     -6.146837   -1.324218    0.356266
  H     -6.213151   -2.452229   -1.005987

 Total Charge           Charge          ....    0
 Multiplicity           Mult            ....    1
 Number of Electrons    NEL             ....  202
 Basis Dimension        Dim             ....  334

ORBITAL ENERGIES
----------------

  NO   OCC          E(Eh)            E(eV)
   0   2.0000     -88.039733     -2395.6829
   1   2.0000     -88.038422     -2395.6473
   2   2.0000     -87.986839     -2394.2436
   3   2.0000     -87.983077     -2394.1412
   4   2.0000     -76.427135     -2079.6881
   5   2.0000     -76.426872     -2079.6809
   6   2.0000     -18.800480      -511.5871
   7   2.0000     -18.798510      -511.5335
   8   2.0000     -18.794923      -511.4359
   9   2.0000     -18.792558      -511.3715
  10   2.0000      -9.963175      -271.1118
  11   2.0000      -9.959822      -271.0205
  12   2.0000      -9.957993      -270.9708
  13   2.0000      -9.953360      -270.8447
  14   2.0000      -9.948068      -270.7007
  15   2.0000      -9.893163      -269.2066
  16   2.0000      -9.892028      -269.1758
  17   2.0000      -9.889012      -269.0937
  18   2.0000      -9.888640      -269.0836
  19   2.0000      -7.684850      -209.1154
  20   2.0000      -7.683452      -209.0774
  21   2.0000      -7.632127      -207.6807
  22   2.0000      -7.628378      -207.5787
  23   2.0000      -6.424894      -174.8302
  24   2.0000      -6.424587      -174.8219
  25   2.0000      -5.712659      -155.4494
  26   2.0000      -5.711115      -155.4073
  27   2.0000      -5.709560      -155.3650
  28   2.0000      -5.708152      -155.3267
  29   2.0000      -5.701684      -155.1507
  30   2.0000      -5.700488      -155.1182
  31   2.0000      -5.661151      -154.0477
  32   2.0000      -5.657328      -153.9437
  33   2.0000      -5.652740      -153.8189
  34   2.0000      -5.652116      -153.8019
  35   2.0000      -5.649122      -153.7204
  36   2.0000      -5.648337      -153.6991
  37   2.0000      -4.647958      -126.4774
  38   2.0000      -4.647769      -126.4722
  39   2.0000      -4.646201      -126.4295
  40   2.0000      -4.646136      -126.4278
  41   2.0000      -4.645292      -126.4048
  42   2.0000      -4.644669      -126.3879
  43   2.0000      -0.992734       -27.0137
  44   2.0000      -0.989338       -26.9213
  45   2.0000      -0.948747       -25.8167
  46   2.0000      -0.948516       -25.8104
  47   2.0000      -0.762993       -20.7621
  48   2.0000      -0.725069       -19.7301
  49   2.0000      -0.714311       -19.4374
  50   2.0000      -0.697034       -18.9673
  51   2.0000      -0.695654       -18.9297
  52   2.0000      -0.676410       -18.4061
  53   2.0000      -0.650276       -17.6949
  54   2.0000      -0.635545       -17.2941
  55   2.0000      -0.597298       -16.2533
  56   2.0000      -0.592556       -16.1243
  57   2.0000      -0.583018       -15.8647
  58   2.0000      -0.577455       -15.7133
  59   2.0000      -0.558659       -15.2019
  60   2.0000      -0.510542       -13.8926
  61   2.0000      -0.502707       -13.6793
  62   2.0000      -0.483206       -13.1487
  63   2.0000      -0.478209       -13.0127
  64   2.0000      -0.460312       -12.5257
  65   2.0000      -0.449114       -12.2210
  66   2.0000      -0.448482       -12.2038
  67   2.0000      -0.440446       -11.9852
  68   2.0000      -0.432701       -11.7744
  69   2.0000      -0.418362       -11.3842
  70   2.0000      -0.408009       -11.1025
  71   2.0000      -0.404821       -11.0157
  72   2.0000      -0.399819       -10.8796
  73   2.0000      -0.381324       -10.3764
  74   2.0000      -0.375873       -10.2280
  75   2.0000      -0.374771       -10.1980
  76   2.0000      -0.371630       -10.1126
  77   2.0000      -0.360693        -9.8150
  78   2.0000      -0.360386        -9.8066
  79   2.0000      -0.356854        -9.7105
  80   2.0000      -0.354298        -9.6409
  81   2.0000      -0.349321        -9.5055
  82   2.0000      -0.347554        -9.4574
  83   2.0000      -0.344703        -9.3799
  84   2.0000      -0.337328        -9.1792
  85   2.0000      -0.325828        -8.8662
  86   2.0000      -0.317498        -8.6396
  87   2.0000      -0.306442        -8.3387
  88   2.0000      -0.305122        -8.3028
  89   2.0000      -0.296977        -8.0811
  90   2.0000      -0.284487        -7.7413
  91   2.0000      -0.278805        -7.5867
  92   2.0000      -0.273849        -7.4518
  93   2.0000      -0.271494        -7.3877
  94   2.0000      -0.256233        -6.9724
  95   2.0000      -0.231981        -6.3125
  96   2.0000      -0.218752        -5.9526
  97   2.0000      -0.211006        -5.7418
  98   2.0000      -0.202946        -5.5224
  99   2.0000      -0.199547        -5.4299
 100   2.0000      -0.195202        -5.3117
 101   0.0000      -0.044861        -1.2207
 102   0.0000      -0.023172        -0.6306
 103   0.0000      -0.002089        -0.0568
 104   0.0000       0.001426         0.0388
 105   0.0000       0.011507         0.3131

MULLIKEN ATOMIC CHARGES
-----------------------
   0 C :   -0.311715
   1 C :   -0.006035
   2 O :   -0.382157
   3 P :    0.617616
   4 S :   -0.310270
   5 O :   -0.365933
   6 C :   -0.032215
   7 C :   -0.301588
   8 S :   -0.084504
   9 C :   -0.367671
  10 S :   -0.103603
  11 P :    0.613604
  12 S :   -0.317981
  13 O :   -0.354397
  14 C :    0.012930
  15 C :   -0.362920
  16 O :   -0.389840
  17 C :   -0.011116
  18 C :   -0.281653
  19 H :    0.108943
  20 H :    0.114777
  21 H :    0.129772
  22 H :    0.105676
  23 H :    0.114045
  24 H :    0.112718
  25 H :    0.112106
  26 H :    0.126296
  27 H :    0.140998
  28 H :    0.112568
  29 H :    0.186527
  30 H :    0.200503
  31 H :    0.106928
  32 H :    0.109827
  33 H :    0.108791
  34 H :    0.119516
  35 H :    0.162290
  36 H :    0.110194
  37 H :    0.105924
  38 H :    0.113889
  39 H :    0.121931
  40 H :    0.115229
Sum of atomic charges:   -0.0000000

LOEWDIN ATOMIC CHARGES
----------------------
   0 C :   -0.364333
   1 C :   -0.122018
   2 O :   -0.249126
   3 P :    0.572693
   4 S :   -0.306692
   5 O :   -0.241062
   6 C :   -0.116881
   7 C :   -0.360651
   8 S :    0.089707
   9 C :   -0.490128
  10 S :    0.064359
  11 P :    0.570539
  12 S :   -0.312212
  13 O :   -0.233604
  14 C :   -0.104453
  15 C :   -0.378213
  16 O :   -0.249918
  17 C :   -0.119144
  18 C :   -0.350501
  19 H :    0.121347
  20 H :    0.132006
  21 H :    0.126233
  22 H :    0.115798
  23 H :    0.110181
  24 H :    0.109360
  25 H :    0.121878
  26 H :    0.132121
  27 H :    0.122227
  28 H :    0.131765
  29 H :    0.127567
  30 H :    0.129554
  31 H :    0.121440
  32 H :    0.114539
  33 H :    0.128799
  34 H :    0.117197
  35 H :    0.129829
  36 H :    0.111610
  37 H :    0.110564
  38 H :    0.125333
  39 H :    0.129608
  40 H :    0.132680

  Mayer bond orders larger than 0.100000
B(  0-C ,  1-C ) :   1.1625 B(  0-C , 19-H ) :   0.9477 B(  0-C , 20-H ) :   0.9402
B(  0-C , 21-H ) :   0.9359 B(  1-C ,  2-O ) :   0.8972 B(  1-C , 22-H ) :   0.9308
B(  1-C , 23-H ) :   0.9107 B(  2-O ,  3-P ) :   1.0590 B(  3-P ,  4-S ) :   1.6307
B(  3-P ,  5-O ) :   1.1279 B(  3-P ,  8-S ) :   0.9723 B(  4-S ,  8-S ) :   0.1022
B(  5-O ,  6-C ) :   0.8982 B(  6-C ,  7-C ) :   1.1691 B(  6-C , 24-H ) :   0.9151
B(  6-C , 25-H ) :   0.9334 B(  7-C , 26-H ) :   0.9457 B(  7-C , 27-H ) :   0.9329
B(  7-C , 28-H ) :   0.9381 B(  8-S ,  9-C ) :   1.0021 B(  9-C , 10-S ) :   1.0096
B(  9-C , 29-H ) :   0.8656 B(  9-C , 30-H ) :   0.8656 B( 10-S , 11-P ) :   0.9415
B( 10-S , 12-S ) :   0.1136 B( 11-P , 12-S ) :   1.6457 B( 11-P , 13-O ) :   1.1450
B( 11-P , 16-O ) :   1.0769 B( 13-O , 14-C ) :   0.8974 B( 14-C , 15-C ) :   1.1707
B( 14-C , 31-H ) :   0.9344 B( 14-C , 32-H ) :   0.9291 B( 15-C , 33-H ) :   0.9343
B( 15-C , 34-H ) :   0.9387 B( 15-C , 35-H ) :   0.9176 B( 16-O , 17-C ) :   0.8981
B( 17-C , 18-C ) :   1.1602 B( 17-C , 36-H ) :   0.9091 B( 17-C , 37-H ) :   0.9293
B( 18-C , 38-H ) :   0.9514 B( 18-C , 39-H ) :   0.9505 B( 18-C , 40-H ) :   0.9414

Dispersion correction           -0.064384995
FINAL SINGLE POINT ENERGY     -2929.517227614495

DIPOLE MOMENT
-------------

Method             : SCF
Type of density    : Electron Density
Multiplicity       :   1
Irrep              :   0
Energy             : -2929.6387313799336880 Eh
Relativity type    :
Basis              : AO
                                X                 Y                 Z
Electronic contribution:      1.145465531      13.359572147     -17.597730859
Nuclear contribution   :     -1.448778398     -14.842252270      19.531242164
                        -----------------------------------------
Total Dipole Moment    :     -0.303312867      -1.482680124       1.933511305
                        -----------------------------------------
Magnitude (a.u.)       :      2.455362501
Magnitude (Debye)      :      6.241035494

Rotational constants in cm-1:             0.012560             0.004632             0.004542
Rotational constants in MHz :           376.535302           138.863221           136.152748

                             ****ORCA TERMINATED NORMALLY****
TOTAL RUN TIME: 0 days 0 hours 0 minutes 21 seconds 381 msec
