                         Program Version 6.0.0  -   RELEASE  -
|  1> ! pbe def2-sv(p) def2/J RI DEFGRID1 loosescf d4 GCP(DFT/SV(P)) printgap
|  2> %output
|  3>     printlevel normal
|  4> end
|  5> * xyz 0 1
|  6> C 0.5162305752 -2.1953302369 2.3997851887
|  7> C 1.5935982603 -1.1312219092 2.4644663585
|  8> O 1.3718717362 -0.1316023315 1.4416347233
|  9> P 2.2324975671 -0.047427887 0.1199366264
| 10> S 2.9614374503 -1.7226990333 -0.5980146646
| 11> O 3.3403701608 1.0061166936 0.5578832035
| 12> C 4.4680515627 1.3258877141 -0.2824687627
| 13> C 5.5585795058 1.9024342824 0.5977199522
| 14> S 0.9727531613 1.0799675717 -1.140963335
| 15> C 0.2040245978 -0.3181549936 -2.0097659268
| 16> S -0.7182787753 -1.4157186191 -0.9064466942
| 17> P -2.118728204 0.0234337759 -0.226337884
| 18> S -2.7119413817 1.3216811049 -1.5755644543
| 19> O -1.4239488616 0.6274804849 1.0584962504
| 20> C -1.5070472246 2.0202349284 1.4092084214
| 21> C -2.8357405268 2.3295559643 2.0662361187
| 22> O -3.2179290747 -0.881794745 0.4741630445
| 23> C -4.0578528182 -1.8099699581 -0.2407640477
| 24> C -5.3090596537 -1.1332102924 -0.7666733078
| 25> H -0.4666101423 -1.7300737657 2.4218068728
| 26> H 0.6084715879 -2.769888294 1.4802224818
| 27> H 0.6203081397 -2.8627702279 3.2491270317
| 28> H 2.5862175149 -1.570530413 2.3308363807
| 29> H 1.5576224396 -0.5807842088 3.4058373525
| 30> H 4.7993224874 0.4103443338 -0.7842820845
| 31> H 4.1369079072 2.0475185618 -1.033764694
| 32> H 6.4073972555 2.1748647867 -0.0207711136
| 33> H 5.1901258238 2.7842496307 1.1137401675
| 34> H 5.8723443714 1.1682603968 1.3344008977
| 35> H 0.9756784016 -0.9278658856 -2.4780925355
| 36> H -0.4691493151 0.1158733408 -2.7486187454
| 37> H -0.6651112179 2.1774003304 2.0851568684
| 38> H -1.3691371303 2.6233897665 0.5052093196
| 39> H -2.8541517434 3.3699807914 2.3746539118
| 40> H -3.6421162553 2.1542831611 1.3550004593
| 41> H -2.9855458783 1.6896647074 2.931458346
| 42> H -3.4821918161 -2.2625956104 -1.0534438051
| 43> H -4.3019274612 -2.5738226651 0.4999941048
| 44> H -5.9386869302 -1.8732513024 -1.2499977739
| 45> H -5.8577504211 -0.6737773463 0.0508297891
| 46> H -5.0491223336 -0.3628649471 -1.489216171
| 47> *
| 48>
| 49>                          ****END OF INPUT****

CARTESIAN COORDINATES (ANGSTROEM)
---------------------------------
  C      0.516231   -2.195330    2.399785
  C      1.593598   -1.131222    2.464466
  O      1.371872   -0.131602    1.441635
  P      2.232498   -0.047428    0.119937
  S      2.961437   -1.722699   -0.598015
  O      3.340370    1.006117    0.557883
  C      4.468052    1.325888   -0.282469
  C      5.558580    1.902434    0.597720
  S      0.972753    1.079968   -1.140963
  C      0.204025   -0.318155   -2.009766
  S     -0.718279   -1.415719   -0.906447
  P     -2.118728    0.023434   -0.226338
  S     -2.711941    1.321681   -1.575564
  O     -1.423949    0.627480    1.058496
  C     -1.507047    2.020235    1.409208
  C     -2.835741    2.329556    2.066236
  O     -3.217929   -0.881795    0.474163
  C     -4.057853   -1.809970   -0.240764
  C     -5.309060   -1.133210   -0.766673
  H     -0.466610   -1.730074    2.421807
  H      0.608472   -2.769888    1.480222
  H      0.620308   -2.862770    3.249127
  H      2.586218   -1.570530    2.330836
  H      1.557622   -0.580784    3.405837
  H      4.799322    0.410344   -0.784282
  H      4.136908    2.047519   -1.033765
  H      6.407397    2.174865   -0.020771
  H      5.190126    2.784250    1.113740
  H      5.872344    1.168260    1.334401
  H      0.975678   -0.927866   -2.478093
  H     -0.469149    0.115873   -2.748619
  H     -0.665111    2.177400    2.085157
  H     -1.369137    2.623390    0.505209
  H     -2.854152    3.369981    2.374654
  H     -3.642116    2.154283    1.355000
  H     -2.985546    1.689665    2.931458
  H     -3.482192   -2.262596   -1.053444
  H     -4.301927   -2.573823    0.499994
  H     -5.938687   -1.873251   -1.249998
  H     -5.857750   -0.673777    0.050830
  H     -5.049122   -0.362865   -1.489216

 Total Charge           Charge          ....    0
 Multiplicity           Mult            ....    1
 Number of Electrons    NEL             ....  202
 Basis Dimension        Dim             ....  334

ORBITAL ENERGIES
----------------

  NO   OCC          E(Eh)            E(eV)
   0   2.0000     -88.043285     -2395.7796
   1   2.0000     -88.042636     -2395.7619
   2   2.0000     -87.989481     -2394.3155
   3   2.0000     -87.987566     -2394.2634
   4   2.0000     -76.427389     -2079.6950
   5   2.0000     -76.425239     -2079.6365
   6   2.0000     -18.795922      -511.4630
   7   2.0000     -18.791815      -511.3513
   8   2.0000     -18.787610      -511.2369
   9   2.0000     -18.787202      -511.2257
  10   2.0000      -9.956604      -270.9330
  11   2.0000      -9.954907      -270.8868
  12   2.0000      -9.951300      -270.7886
  13   2.0000      -9.950335      -270.7624
  14   2.0000      -9.946196      -270.6498
  15   2.0000      -9.887883      -269.0630
  16   2.0000      -9.882048      -268.9042
  17   2.0000      -9.880417      -268.8598
  18   2.0000      -9.875662      -268.7304
  19   2.0000      -7.688326      -209.2100
  20   2.0000      -7.687408      -209.1850
  21   2.0000      -7.634332      -207.7407
  22   2.0000      -7.632576      -207.6930
  23   2.0000      -6.424733      -174.8259
  24   2.0000      -6.422942      -174.7771
  25   2.0000      -5.716198      -155.5457
  26   2.0000      -5.715228      -155.5192
  27   2.0000      -5.712896      -155.4558
  28   2.0000      -5.711928      -155.4295
  29   2.0000      -5.705222      -155.2470
  30   2.0000      -5.704412      -155.2249
  31   2.0000      -5.663175      -154.1028
  32   2.0000      -5.661353      -154.0532
  33   2.0000      -5.654854      -153.8764
  34   2.0000      -5.654685      -153.8718
  35   2.0000      -5.653303      -153.8342
  36   2.0000      -5.652787      -153.8202
  37   2.0000      -4.647066      -126.4531
  38   2.0000      -4.646614      -126.4408
  39   2.0000      -4.645323      -126.4057
  40   2.0000      -4.645317      -126.4055
  41   2.0000      -4.644713      -126.3891
  42   2.0000      -4.643541      -126.3572
  43   2.0000      -0.988039       -26.8859
  44   2.0000      -0.984545       -26.7908
  45   2.0000      -0.945755       -25.7353
  46   2.0000      -0.942405       -25.6441
  47   2.0000      -0.765935       -20.8421
  48   2.0000      -0.721815       -19.6416
  49   2.0000      -0.708871       -19.2894
  50   2.0000      -0.685490       -18.6531
  51   2.0000      -0.684099       -18.6153
  52   2.0000      -0.672222       -18.2921
  53   2.0000      -0.650313       -17.6959
  54   2.0000      -0.639774       -17.4091
  55   2.0000      -0.598481       -16.2855
  56   2.0000      -0.591398       -16.0928
  57   2.0000      -0.570855       -15.5338
  58   2.0000      -0.566602       -15.4180
  59   2.0000      -0.559096       -15.2138
  60   2.0000      -0.507492       -13.8096
  61   2.0000      -0.498145       -13.5552
  62   2.0000      -0.475595       -12.9416
  63   2.0000      -0.474159       -12.9025
  64   2.0000      -0.456071       -12.4103
  65   2.0000      -0.441027       -12.0009
  66   2.0000      -0.438938       -11.9441
  67   2.0000      -0.433671       -11.8008
  68   2.0000      -0.429495       -11.6872
  69   2.0000      -0.410745       -11.1769
  70   2.0000      -0.405634       -11.0379
  71   2.0000      -0.396350       -10.7852
  72   2.0000      -0.387998       -10.5580
  73   2.0000      -0.384552       -10.4642
  74   2.0000      -0.380029       -10.3411
  75   2.0000      -0.375837       -10.2270
  76   2.0000      -0.371213       -10.1012
  77   2.0000      -0.353842        -9.6285
  78   2.0000      -0.352341        -9.5877
  79   2.0000      -0.348978        -9.4962
  80   2.0000      -0.346918        -9.4401
  81   2.0000      -0.344982        -9.3874
  82   2.0000      -0.338201        -9.2029
  83   2.0000      -0.336628        -9.1601
  84   2.0000      -0.333834        -9.0841
  85   2.0000      -0.321398        -8.7457
  86   2.0000      -0.304050        -8.2736
  87   2.0000      -0.299710        -8.1555
  88   2.0000      -0.297865        -8.1053
  89   2.0000      -0.289243        -7.8707
  90   2.0000      -0.282022        -7.6742
  91   2.0000      -0.279353        -7.6016
  92   2.0000      -0.270395        -7.3578
  93   2.0000      -0.262847        -7.1524
  94   2.0000      -0.257705        -7.0125
  95   2.0000      -0.233503        -6.3539
  96   2.0000      -0.219388        -5.9699
  97   2.0000      -0.214100        -5.8260
  98   2.0000      -0.207864        -5.6563
  99   2.0000      -0.200721        -5.4619
 100   2.0000      -0.199038        -5.4161
 101   0.0000      -0.045525        -1.2388
 102   0.0000      -0.024308        -0.6615
 103   0.0000      -0.001368        -0.0372
 104   0.0000       0.004027         0.1096
 105   0.0000       0.008507         0.2315

MULLIKEN ATOMIC CHARGES
-----------------------
   0 C :   -0.296976
   1 C :   -0.000753
   2 O :   -0.356311
   3 P :    0.615794
   4 S :   -0.341443
   5 O :   -0.376970
   6 C :   -0.009484
   7 C :   -0.280238
   8 S :   -0.085886
   9 C :   -0.357212
  10 S :   -0.080670
  11 P :    0.622178
  12 S :   -0.334531
  13 O :   -0.353858
  14 C :   -0.006143
  15 C :   -0.296881
  16 O :   -0.370203
  17 C :   -0.014072
  18 C :   -0.297245
  19 H :    0.121210
  20 H :    0.128431
  21 H :    0.103119
  22 H :    0.103218
  23 H :    0.102931
  24 H :    0.105483
  25 H :    0.101002
  26 H :    0.111999
  27 H :    0.116264
  28 H :    0.117338
  29 H :    0.191763
  30 H :    0.191397
  31 H :    0.103315
  32 H :    0.114246
  33 H :    0.109946
  34 H :    0.119543
  35 H :    0.112232
  36 H :    0.105274
  37 H :    0.108737
  38 H :    0.108214
  39 H :    0.114290
  40 H :    0.130953
Sum of atomic charges:   -0.0000000

LOEWDIN ATOMIC CHARGES
----------------------
   0 C :   -0.363127
   1 C :   -0.109621
   2 O :   -0.234267
   3 P :    0.566882
   4 S :   -0.328649
   5 O :   -0.252560
   6 C :   -0.121000
   7 C :   -0.350413
   8 S :    0.089452
   9 C :   -0.479846
  10 S :    0.097410
  11 P :    0.569363
  12 S :   -0.318754
  13 O :   -0.226141
  14 C :   -0.120334
  15 C :   -0.362489
  16 O :   -0.242489
  17 C :   -0.116521
  18 C :   -0.364692
  19 H :    0.124020
  20 H :    0.123162
  21 H :    0.125674
  22 H :    0.108199
  23 H :    0.116803
  24 H :    0.107085
  25 H :    0.110091
  26 H :    0.130774
  27 H :    0.126608
  28 H :    0.127596
  29 H :    0.131613
  30 H :    0.130537
  31 H :    0.117149
  32 H :    0.107376
  33 H :    0.129343
  34 H :    0.122174
  35 H :    0.124284
  36 H :    0.106191
  37 H :    0.119725
  38 H :    0.129122
  39 H :    0.126094
  40 H :    0.124176

  Mayer bond orders larger than 0.100000
B(  0-C ,  1-C ) :   1.1724 B(  0-C , 19-H ) :   0.9418 B(  0-C , 20-H ) :   0.9386
B(  0-C , 21-H ) :   0.9389 B(  1-C ,  2-O ) :   0.8911 B(  1-C , 22-H ) :   0.9127
B(  1-C , 23-H ) :   0.9339 B(  2-O ,  3-P ) :   1.1473 B(  3-P ,  4-S ) :   1.5938
B(  3-P ,  5-O ) :   1.1121 B(  3-P ,  8-S ) :   0.9598 B(  4-S ,  8-S ) :   0.1092
B(  5-O ,  6-C ) :   0.9060 B(  6-C ,  7-C ) :   1.1607 B(  6-C , 24-H ) :   0.9076
B(  6-C , 25-H ) :   0.9296 B(  7-C , 26-H ) :   0.9421 B(  7-C , 27-H ) :   0.9509
B(  7-C , 28-H ) :   0.9513 B(  8-S ,  9-C ) :   0.9998 B(  9-C , 10-S ) :   1.0102
B(  9-C , 29-H ) :   0.8860 B(  9-C , 30-H ) :   0.8831 B( 10-S , 11-P ) :   0.9539
B( 10-S , 12-S ) :   0.1082 B( 11-P , 12-S ) :   1.5900 B( 11-P , 13-O ) :   1.1245
B( 11-P , 16-O ) :   1.1155 B( 13-O , 14-C ) :   0.8996 B( 14-C , 15-C ) :   1.1626
B( 14-C , 31-H ) :   0.9319 B( 14-C , 32-H ) :   0.9103 B( 15-C , 33-H ) :   0.9410
B( 15-C , 34-H ) :   0.9377 B( 15-C , 35-H ) :   0.9475 B( 16-O , 17-C ) :   0.9077
B( 17-C , 18-C ) :   1.1662 B( 17-C , 36-H ) :   0.9162 B( 17-C , 37-H ) :   0.9359
B( 18-C , 38-H ) :   0.9389 B( 18-C , 39-H ) :   0.9475 B( 18-C , 40-H ) :   0.9314

Dispersion correction           -0.066102440
FINAL SINGLE POINT ENERGY     -2929.528211801707

DIPOLE MOMENT
-------------

Method             : SCF
Type of density    : Electron Density
Multiplicity       :   1
Irrep              :   0
Energy             : -2929.6460472302928792 Eh
Relativity type    :
Basis              : AO
                                X                 Y                 Z
Electronic contribution:      4.172579194      -2.309414154     -12.846713205
Nuclear contribution   :     -4.174767566       2.423279420      13.666743232
                        -----------------------------------------
Total Dipole Moment    :     -0.002188372       0.113865266       0.820030027
                        -----------------------------------------
Magnitude (a.u.)       :      0.827900557
Magnitude (Debye)      :      2.104355980

Rotational constants in cm-1:             0.013520             0.004858             0.004710
Rotational constants in MHz :           405.332046           145.628304           141.207264

                             ****ORCA TERMINATED NORMALLY****
TOTAL RUN TIME: 0 days 0 hours 0 minutes 21 seconds 454 msec
