                         Program Version 6.0.0  -   RELEASE  -
|  1> ! r2scan-3c def2/J RI DEFGRID2 scfconv6 printgap
|  2> %output
|  3>     printlevel normal
|  4> end
|  5> * xyz 0 1
|  6> C 4.996268654 -2.3941494516 -1.7869535174
|  7> C 4.011930512 -1.2422880949 -1.8151020628
|  8> O 3.0187964562 -1.4809248728 -0.7971682544
|  9> P 2.1235742825 -0.3077145097 -0.202182281
| 10> S 3.137033662 1.29649746 0.3032063183
| 11> O 1.3630016212 -1.0809807081 0.9466955989
| 12> C 1.8311106279 -1.1066032208 2.3148660984
| 13> C 1.04852364 -0.1231105011 3.1618895578
| 14> S 0.6183930493 -0.0747635884 -1.6573376589
| 15> C 0.0767251268 1.5873136216 -1.1736010579
| 16> S -0.6010725564 1.6567577148 0.5063846796
| 17> P -2.2162338276 0.3414788207 0.1935391247
| 18> S -3.0891410149 0.3506651559 -1.5658677424
| 19> O -3.2077519569 0.6222677365 1.4073882924
| 20> C -4.2721137367 1.5865708251 1.3292216379
| 21> C -3.7493191882 3.0075627742 1.2768916957
| 22> O -1.5559158803 -1.0170568782 0.6693780455
| 23> C -2.1324629709 -2.3077666023 0.3701218911
| 24> C -1.3782352198 -2.9694018295 -0.7663225
| 25> H 5.4906308955 -2.4406357482 -0.8207104003
| 26> H 4.4749165129 -3.33083164 -1.9614525625
| 27> H 5.7397602875 -2.245329822 -2.5630402183
| 28> H 3.5007671324 -1.1763813812 -2.7790840372
| 29> H 4.5049349071 -0.287349676 -1.603486594
| 30> H 1.6703652566 -2.1347446242 2.6428315714
| 31> H 2.899764807 -0.8751345491 2.3355555213
| 32> H 1.3296303432 -0.2435222874 4.2031484751
| 33> H 1.2626842456 0.897064796 2.849564232
| 34> H -0.0182094232 -0.3025700718 3.0508303015
| 35> H -0.6863712411 1.8790283726 -1.8941512073
| 36> H 0.9252394276 2.2704817447 -1.1892797275
| 37> H -4.8738301836 1.3647664458 0.4419144155
| 38> H -4.8575106047 1.4042231931 2.2313499711
| 39> H -3.0633738287 3.1886170763 2.1005899654
| 40> H -3.2219730669 3.1761874812 0.3389198116
| 41> H -4.5828063449 3.6996165002 1.3413447862
| 42> H -2.0409135327 -2.8777557401 1.2960979683
| 43> H -3.1895419721 -2.1827092759 0.1181396451
| 44> H -0.3162229018 -3.0055881444 -0.5349375057
| 45> H -1.7530669403 -3.9779211794 -0.9080077126
| 46> H -1.5130777265 -2.4048105347 -1.6868464558
| 47> *
| 48>
| 49>                          ****END OF INPUT****

CARTESIAN COORDINATES (ANGSTROEM)
---------------------------------
  C      4.996269   -2.394149   -1.786954
  C      4.011931   -1.242288   -1.815102
  O      3.018796   -1.480925   -0.797168
  P      2.123574   -0.307715   -0.202182
  S      3.137034    1.296497    0.303206
  O      1.363002   -1.080981    0.946696
  C      1.831111   -1.106603    2.314866
  C      1.048524   -0.123111    3.161890
  S      0.618393   -0.074764   -1.657338
  C      0.076725    1.587314   -1.173601
  S     -0.601073    1.656758    0.506385
  P     -2.216234    0.341479    0.193539
  S     -3.089141    0.350665   -1.565868
  O     -3.207752    0.622268    1.407388
  C     -4.272114    1.586571    1.329222
  C     -3.749319    3.007563    1.276892
  O     -1.555916   -1.017057    0.669378
  C     -2.132463   -2.307767    0.370122
  C     -1.378235   -2.969402   -0.766323
  H      5.490631   -2.440636   -0.820710
  H      4.474917   -3.330832   -1.961453
  H      5.739760   -2.245330   -2.563040
  H      3.500767   -1.176381   -2.779084
  H      4.504935   -0.287350   -1.603487
  H      1.670365   -2.134745    2.642832
  H      2.899765   -0.875135    2.335556
  H      1.329630   -0.243522    4.203148
  H      1.262684    0.897065    2.849564
  H     -0.018209   -0.302570    3.050830
  H     -0.686371    1.879028   -1.894151
  H      0.925239    2.270482   -1.189280
  H     -4.873830    1.364766    0.441914
  H     -4.857511    1.404223    2.231350
  H     -3.063374    3.188617    2.100590
  H     -3.221973    3.176187    0.338920
  H     -4.582806    3.699617    1.341345
  H     -2.040914   -2.877756    1.296098
  H     -3.189542   -2.182709    0.118140
  H     -0.316223   -3.005588   -0.534938
  H     -1.753067   -3.977921   -0.908008
  H     -1.513078   -2.404811   -1.686846

 Total Charge           Charge          ....    0
 Multiplicity           Mult            ....    1
 Number of Electrons    NEL             ....  202
 Basis Dimension        Dim             ....  539

ORBITAL ENERGIES
----------------

  NO   OCC          E(Eh)            E(eV)
   0   2.0000     -88.575700     -2410.2673
   1   2.0000     -88.575345     -2410.2577
   2   2.0000     -88.521029     -2408.7797
   3   2.0000     -88.519510     -2408.7383
   4   2.0000     -76.913054     -2092.9106
   5   2.0000     -76.912332     -2092.8910
   6   2.0000     -18.991489      -516.7847
   7   2.0000     -18.990107      -516.7471
   8   2.0000     -18.986177      -516.6401
   9   2.0000     -18.984399      -516.5918
  10   2.0000     -10.106798      -275.0199
  11   2.0000     -10.097280      -274.7610
  12   2.0000     -10.096662      -274.7441
  13   2.0000     -10.096611      -274.7427
  14   2.0000     -10.095970      -274.7253
  15   2.0000     -10.032318      -272.9932
  16   2.0000     -10.028196      -272.8811
  17   2.0000     -10.020943      -272.6837
  18   2.0000     -10.020891      -272.6823
  19   2.0000      -7.870201      -214.1591
  20   2.0000      -7.869716      -214.1459
  21   2.0000      -7.815802      -212.6788
  22   2.0000      -7.814334      -212.6388
  23   2.0000      -6.591558      -179.3654
  24   2.0000      -6.590861      -179.3464
  25   2.0000      -5.817115      -158.2918
  26   2.0000      -5.816625      -158.2784
  27   2.0000      -5.814117      -158.2102
  28   2.0000      -5.813568      -158.1952
  29   2.0000      -5.807167      -158.0211
  30   2.0000      -5.806782      -158.0106
  31   2.0000      -5.763413      -156.8304
  32   2.0000      -5.761949      -156.7906
  33   2.0000      -5.756204      -156.6343
  34   2.0000      -5.755723      -156.6212
  35   2.0000      -5.754680      -156.5928
  36   2.0000      -5.754299      -156.5824
  37   2.0000      -4.737002      -128.9004
  38   2.0000      -4.736400      -128.8840
  39   2.0000      -4.736246      -128.8798
  40   2.0000      -4.735768      -128.8668
  41   2.0000      -4.735433      -128.8577
  42   2.0000      -4.734719      -128.8383
  43   2.0000      -1.047704       -28.5095
  44   2.0000      -1.046599       -28.4794
  45   2.0000      -1.007778       -27.4230
  46   2.0000      -1.006436       -27.3865
  47   2.0000      -0.803515       -21.8647
  48   2.0000      -0.758435       -20.6381
  49   2.0000      -0.747703       -20.3460
  50   2.0000      -0.729215       -19.8429
  51   2.0000      -0.727552       -19.7977
  52   2.0000      -0.708580       -19.2814
  53   2.0000      -0.683880       -18.6093
  54   2.0000      -0.669372       -18.2145
  55   2.0000      -0.631229       -17.1766
  56   2.0000      -0.620045       -16.8723
  57   2.0000      -0.605028       -16.4636
  58   2.0000      -0.600264       -16.3340
  59   2.0000      -0.587371       -15.9832
  60   2.0000      -0.530844       -14.4450
  61   2.0000      -0.523574       -14.2472
  62   2.0000      -0.493176       -13.4200
  63   2.0000      -0.487865       -13.2755
  64   2.0000      -0.476310       -12.9610
  65   2.0000      -0.458795       -12.4844
  66   2.0000      -0.456621       -12.4253
  67   2.0000      -0.450116       -12.2483
  68   2.0000      -0.447640       -12.1809
  69   2.0000      -0.432764       -11.7761
  70   2.0000      -0.423844       -11.5334
  71   2.0000      -0.410893       -11.1810
  72   2.0000      -0.401366       -10.9217
  73   2.0000      -0.397454       -10.8153
  74   2.0000      -0.395631       -10.7657
  75   2.0000      -0.391658       -10.6576
  76   2.0000      -0.383981       -10.4487
  77   2.0000      -0.369637       -10.0583
  78   2.0000      -0.367624       -10.0036
  79   2.0000      -0.365263        -9.9393
  80   2.0000      -0.360978        -9.8227
  81   2.0000      -0.358294        -9.7497
  82   2.0000      -0.354493        -9.6462
  83   2.0000      -0.351969        -9.5776
  84   2.0000      -0.348341        -9.4788
  85   2.0000      -0.329204        -8.9581
  86   2.0000      -0.315349        -8.5811
  87   2.0000      -0.312554        -8.5050
  88   2.0000      -0.309977        -8.4349
  89   2.0000      -0.305920        -8.3245
  90   2.0000      -0.295577        -8.0431
  91   2.0000      -0.293304        -7.9812
  92   2.0000      -0.280901        -7.6437
  93   2.0000      -0.278424        -7.5763
  94   2.0000      -0.274688        -7.4746
  95   2.0000      -0.244275        -6.6471
  96   2.0000      -0.229935        -6.2568
  97   2.0000      -0.227284        -6.1847
  98   2.0000      -0.219583        -5.9752
  99   2.0000      -0.213893        -5.8203
 100   2.0000      -0.212237        -5.7753
 101   0.0000      -0.048261        -1.3132
 102   0.0000      -0.026422        -0.7190
 103   0.0000      -0.000732        -0.0199
 104   0.0000       0.002360         0.0642
 105   0.0000       0.010527         0.2865

MULLIKEN ATOMIC CHARGES
-----------------------
   0 C :   -0.443381
   1 C :   -0.152164
   2 O :   -0.283708
   3 P :    0.692188
   4 S :   -0.487367
   5 O :   -0.256289
   6 C :   -0.123525
   7 C :   -0.471769
   8 S :   -0.126155
   9 C :   -0.251069
  10 S :   -0.105416
  11 P :    0.672817
  12 S :   -0.479575
  13 O :   -0.297907
  14 C :   -0.154704
  15 C :   -0.447315
  16 O :   -0.255671
  17 C :   -0.123018
  18 C :   -0.472977
  19 H :    0.155963
  20 H :    0.153168
  21 H :    0.146574
  22 H :    0.151101
  23 H :    0.170169
  24 H :    0.147002
  25 H :    0.158216
  26 H :    0.141302
  27 H :    0.178241
  28 H :    0.164205
  29 H :    0.208099
  30 H :    0.209409
  31 H :    0.172955
  32 H :    0.147570
  33 H :    0.155565
  34 H :    0.173886
  35 H :    0.147884
  36 H :    0.147005
  37 H :    0.154794
  38 H :    0.164403
  39 H :    0.141206
  40 H :    0.178289
Sum of atomic charges:    0.0000000

LOEWDIN ATOMIC CHARGES
----------------------
   0 C :   -0.386374
   1 C :    0.018777
   2 O :   -0.665509
   3 P :    0.373816
   4 S :   -0.134840
   5 O :   -0.661950
   6 C :    0.027614
   7 C :   -0.404040
   8 S :    0.180448
   9 C :   -0.417738
  10 S :    0.184585
  11 P :    0.377895
  12 S :   -0.130496
  13 O :   -0.661367
  14 C :    0.018467
  15 C :   -0.406763
  16 O :   -0.671576
  17 C :    0.027084
  18 C :   -0.403001
  19 H :    0.160406
  20 H :    0.159453
  21 H :    0.159800
  22 H :    0.171418
  23 H :    0.180650
  24 H :    0.176978
  25 H :    0.177364
  26 H :    0.155843
  27 H :    0.166811
  28 H :    0.164030
  29 H :    0.189246
  30 H :    0.190540
  31 H :    0.179771
  32 H :    0.179106
  33 H :    0.160322
  34 H :    0.164596
  35 H :    0.159142
  36 H :    0.176808
  37 H :    0.176398
  38 H :    0.163765
  39 H :    0.155666
  40 H :    0.166854

  Mayer bond orders larger than 0.100000
B(  0-C ,  1-C ) :   0.9574 B(  0-C , 19-H ) :   0.9725 B(  0-C , 20-H ) :   0.9717
B(  0-C , 21-H ) :   0.9647 B(  1-C ,  2-O ) :   0.7795 B(  1-C , 22-H ) :   0.9444
B(  1-C , 23-H ) :   0.9514 B(  2-O ,  3-P ) :   1.0868 B(  3-P ,  4-S ) :   1.7406
B(  3-P ,  5-O ) :   1.1736 B(  3-P ,  8-S ) :   1.0674 B(  5-O ,  6-C ) :   0.7568
B(  6-C ,  7-C ) :   0.9438 B(  6-C , 24-H ) :   0.9607 B(  6-C , 25-H ) :   0.9645
B(  7-C , 26-H ) :   0.9633 B(  7-C , 27-H ) :   0.9628 B(  7-C , 28-H ) :   0.9687
B(  8-S ,  9-C ) :   0.9039 B(  9-C , 10-S ) :   0.9015 B(  9-C , 29-H ) :   0.9119
B(  9-C , 30-H ) :   0.9093 B( 10-S , 11-P ) :   1.0967 B( 11-P , 12-S ) :   1.7486
B( 11-P , 13-O ) :   1.0624 B( 11-P , 16-O ) :   1.1538 B( 13-O , 14-C ) :   0.8187
B( 14-C , 15-C ) :   0.9224 B( 14-C , 31-H ) :   0.9672 B( 14-C , 32-H ) :   0.9586
B( 15-C , 33-H ) :   0.9683 B( 15-C , 34-H ) :   0.9632 B( 15-C , 35-H ) :   0.9592
B( 16-O , 17-C ) :   0.7587 B( 17-C , 18-C ) :   0.9435 B( 17-C , 36-H ) :   0.9615
B( 17-C , 37-H ) :   0.9637 B( 18-C , 38-H ) :   0.9694 B( 18-C , 39-H ) :   0.9637
B( 18-C , 40-H ) :   0.9629

Dispersion correction           -0.022012941
FINAL SINGLE POINT ENERGY     -2932.464774857597

DIPOLE MOMENT
-------------

Method             : SCF
Type of density    : Electron Density
Multiplicity       :   1
Irrep              :   0
Energy             : -2932.4890422164485244 Eh
Relativity type    :
Basis              : AO
                                X                 Y                 Z
Electronic contribution:     -1.731923468       8.449457984      -6.134125849
Nuclear contribution   :      1.653062063      -9.178853665       6.686480460
                        -----------------------------------------
Total Dipole Moment    :     -0.078861405      -0.729395681       0.552354610
                        -----------------------------------------
Magnitude (a.u.)       :      0.918331528
Magnitude (Debye)      :      2.334213242

Rotational constants in cm-1:             0.013156             0.005132             0.004839
Rotational constants in MHz :           394.419448           153.857046           145.083046

                             ****ORCA TERMINATED NORMALLY****
TOTAL RUN TIME: 0 days 0 hours 1 minutes 21 seconds 40 msec
