                         Program Version 6.0.0  -   RELEASE  -
|  1> ! r2scan-3c def2/J RI DEFGRID2 scfconv6 printgap
|  2> %output
|  3>     printlevel normal
|  4> end
|  5> %cpcm
|  6>     smd true
|  7>     smdsolvent "water"
|  8> end
|  9> * xyz 0 1
| 10> C 4.996268654 -2.3941494516 -1.7869535174
| 11> C 4.011930512 -1.2422880949 -1.8151020628
| 12> O 3.0187964562 -1.4809248728 -0.7971682544
| 13> P 2.1235742825 -0.3077145097 -0.202182281
| 14> S 3.137033662 1.29649746 0.3032063183
| 15> O 1.3630016212 -1.0809807081 0.9466955989
| 16> C 1.8311106279 -1.1066032208 2.3148660984
| 17> C 1.04852364 -0.1231105011 3.1618895578
| 18> S 0.6183930493 -0.0747635884 -1.6573376589
| 19> C 0.0767251268 1.5873136216 -1.1736010579
| 20> S -0.6010725564 1.6567577148 0.5063846796
| 21> P -2.2162338276 0.3414788207 0.1935391247
| 22> S -3.0891410149 0.3506651559 -1.5658677424
| 23> O -3.2077519569 0.6222677365 1.4073882924
| 24> C -4.2721137367 1.5865708251 1.3292216379
| 25> C -3.7493191882 3.0075627742 1.2768916957
| 26> O -1.5559158803 -1.0170568782 0.6693780455
| 27> C -2.1324629709 -2.3077666023 0.3701218911
| 28> C -1.3782352198 -2.9694018295 -0.7663225
| 29> H 5.4906308955 -2.4406357482 -0.8207104003
| 30> H 4.4749165129 -3.33083164 -1.9614525625
| 31> H 5.7397602875 -2.245329822 -2.5630402183
| 32> H 3.5007671324 -1.1763813812 -2.7790840372
| 33> H 4.5049349071 -0.287349676 -1.603486594
| 34> H 1.6703652566 -2.1347446242 2.6428315714
| 35> H 2.899764807 -0.8751345491 2.3355555213
| 36> H 1.3296303432 -0.2435222874 4.2031484751
| 37> H 1.2626842456 0.897064796 2.849564232
| 38> H -0.0182094232 -0.3025700718 3.0508303015
| 39> H -0.6863712411 1.8790283726 -1.8941512073
| 40> H 0.9252394276 2.2704817447 -1.1892797275
| 41> H -4.8738301836 1.3647664458 0.4419144155
| 42> H -4.8575106047 1.4042231931 2.2313499711
| 43> H -3.0633738287 3.1886170763 2.1005899654
| 44> H -3.2219730669 3.1761874812 0.3389198116
| 45> H -4.5828063449 3.6996165002 1.3413447862
| 46> H -2.0409135327 -2.8777557401 1.2960979683
| 47> H -3.1895419721 -2.1827092759 0.1181396451
| 48> H -0.3162229018 -3.0055881444 -0.5349375057
| 49> H -1.7530669403 -3.9779211794 -0.9080077126
| 50> H -1.5130777265 -2.4048105347 -1.6868464558
| 51> *
| 52>
| 53>                          ****END OF INPUT****

CARTESIAN COORDINATES (ANGSTROEM)
---------------------------------
  C      4.996269   -2.394149   -1.786954
  C      4.011931   -1.242288   -1.815102
  O      3.018796   -1.480925   -0.797168
  P      2.123574   -0.307715   -0.202182
  S      3.137034    1.296497    0.303206
  O      1.363002   -1.080981    0.946696
  C      1.831111   -1.106603    2.314866
  C      1.048524   -0.123111    3.161890
  S      0.618393   -0.074764   -1.657338
  C      0.076725    1.587314   -1.173601
  S     -0.601073    1.656758    0.506385
  P     -2.216234    0.341479    0.193539
  S     -3.089141    0.350665   -1.565868
  O     -3.207752    0.622268    1.407388
  C     -4.272114    1.586571    1.329222
  C     -3.749319    3.007563    1.276892
  O     -1.555916   -1.017057    0.669378
  C     -2.132463   -2.307767    0.370122
  C     -1.378235   -2.969402   -0.766323
  H      5.490631   -2.440636   -0.820710
  H      4.474917   -3.330832   -1.961453
  H      5.739760   -2.245330   -2.563040
  H      3.500767   -1.176381   -2.779084
  H      4.504935   -0.287350   -1.603487
  H      1.670365   -2.134745    2.642832
  H      2.899765   -0.875135    2.335556
  H      1.329630   -0.243522    4.203148
  H      1.262684    0.897065    2.849564
  H     -0.018209   -0.302570    3.050830
  H     -0.686371    1.879028   -1.894151
  H      0.925239    2.270482   -1.189280
  H     -4.873830    1.364766    0.441914
  H     -4.857511    1.404223    2.231350
  H     -3.063374    3.188617    2.100590
  H     -3.221973    3.176187    0.338920
  H     -4.582806    3.699617    1.341345
  H     -2.040914   -2.877756    1.296098
  H     -3.189542   -2.182709    0.118140
  H     -0.316223   -3.005588   -0.534938
  H     -1.753067   -3.977921   -0.908008
  H     -1.513078   -2.404811   -1.686846

 Total Charge           Charge          ....    0
 Multiplicity           Mult            ....    1
 Number of Electrons    NEL             ....  202
 Basis Dimension        Dim             ....  539

ORBITAL ENERGIES
----------------

  NO   OCC          E(Eh)            E(eV)
   0   2.0000     -88.579359     -2410.3669
   1   2.0000     -88.578868     -2410.3535
   2   2.0000     -88.527507     -2408.9559
   3   2.0000     -88.527083     -2408.9444
   4   2.0000     -76.918205     -2093.0508
   5   2.0000     -76.918050     -2093.0466
   6   2.0000     -18.994077      -516.8551
   7   2.0000     -18.993488      -516.8391
   8   2.0000     -18.990957      -516.7702
   9   2.0000     -18.988622      -516.7067
  10   2.0000     -10.105842      -274.9940
  11   2.0000     -10.089946      -274.5614
  12   2.0000     -10.089075      -274.5377
  13   2.0000     -10.088754      -274.5290
  14   2.0000     -10.088520      -274.5226
  15   2.0000     -10.019241      -272.6374
  16   2.0000     -10.018152      -272.6078
  17   2.0000     -10.015531      -272.5365
  18   2.0000     -10.015444      -272.5341
  19   2.0000      -7.873751      -214.2557
  20   2.0000      -7.873384      -214.2457
  21   2.0000      -7.822554      -212.8625
  22   2.0000      -7.822187      -212.8525
  23   2.0000      -6.596764      -179.5071
  24   2.0000      -6.596584      -179.5022
  25   2.0000      -5.820644      -158.3878
  26   2.0000      -5.820299      -158.3784
  27   2.0000      -5.817584      -158.3045
  28   2.0000      -5.817293      -158.2966
  29   2.0000      -5.810860      -158.1215
  30   2.0000      -5.810362      -158.1080
  31   2.0000      -5.770118      -157.0129
  32   2.0000      -5.769750      -157.0029
  33   2.0000      -5.762943      -156.8176
  34   2.0000      -5.762526      -156.8063
  35   2.0000      -5.762485      -156.8052
  36   2.0000      -5.762159      -156.7963
  37   2.0000      -4.742113      -129.0395
  38   2.0000      -4.741991      -129.0361
  39   2.0000      -4.741683      -129.0278
  40   2.0000      -4.741440      -129.0212
  41   2.0000      -4.740671      -129.0002
  42   2.0000      -4.740507      -128.9957
  43   2.0000      -1.051224       -28.6053
  44   2.0000      -1.049896       -28.5691
  45   2.0000      -1.010755       -27.5041
  46   2.0000      -1.009228       -27.4625
  47   2.0000      -0.805484       -21.9183
  48   2.0000      -0.756645       -20.5894
  49   2.0000      -0.743162       -20.2225
  50   2.0000      -0.722257       -19.6536
  51   2.0000      -0.721071       -19.6213
  52   2.0000      -0.708751       -19.2861
  53   2.0000      -0.687838       -18.7170
  54   2.0000      -0.675146       -18.3717
  55   2.0000      -0.631120       -17.1736
  56   2.0000      -0.617139       -16.7932
  57   2.0000      -0.600262       -16.3340
  58   2.0000      -0.594642       -16.1810
  59   2.0000      -0.585646       -15.9362
  60   2.0000      -0.528548       -14.3825
  61   2.0000      -0.520803       -14.1718
  62   2.0000      -0.492061       -13.3897
  63   2.0000      -0.485452       -13.2098
  64   2.0000      -0.477300       -12.9880
  65   2.0000      -0.456063       -12.4101
  66   2.0000      -0.454018       -12.3544
  67   2.0000      -0.446659       -12.1542
  68   2.0000      -0.444306       -12.0902
  69   2.0000      -0.431159       -11.7324
  70   2.0000      -0.422243       -11.4898
  71   2.0000      -0.410072       -11.1586
  72   2.0000      -0.400048       -10.8859
  73   2.0000      -0.396968       -10.8020
  74   2.0000      -0.393730       -10.7140
  75   2.0000      -0.388362       -10.5679
  76   2.0000      -0.381735       -10.3875
  77   2.0000      -0.367353        -9.9962
  78   2.0000      -0.362049        -9.8519
  79   2.0000      -0.357855        -9.7377
  80   2.0000      -0.355882        -9.6840
  81   2.0000      -0.352750        -9.5988
  82   2.0000      -0.348987        -9.4964
  83   2.0000      -0.347960        -9.4685
  84   2.0000      -0.344281        -9.3684
  85   2.0000      -0.327992        -8.9251
  86   2.0000      -0.313641        -8.5346
  87   2.0000      -0.310817        -8.4578
  88   2.0000      -0.306738        -8.3468
  89   2.0000      -0.304424        -8.2838
  90   2.0000      -0.295790        -8.0489
  91   2.0000      -0.293390        -7.9835
  92   2.0000      -0.281923        -7.6715
  93   2.0000      -0.279297        -7.6001
  94   2.0000      -0.275896        -7.5075
  95   2.0000      -0.247712        -6.7406
  96   2.0000      -0.235404        -6.4057
  97   2.0000      -0.234613        -6.3841
  98   2.0000      -0.226543        -6.1645
  99   2.0000      -0.221271        -6.0211
 100   2.0000      -0.219015        -5.9597
 101   0.0000      -0.052762        -1.4357
 102   0.0000      -0.032288        -0.8786
 103   0.0000      -0.004930        -0.1342
 104   0.0000      -0.001750        -0.0476
 105   0.0000       0.009101         0.2476

MULLIKEN ATOMIC CHARGES
-----------------------
   0 C :   -0.484828
   1 C :   -0.145809
   2 O :   -0.312866
   3 P :    0.721805
   4 S :   -0.530092
   5 O :   -0.285407
   6 C :   -0.127485
   7 C :   -0.496498
   8 S :   -0.137302
   9 C :   -0.263801
  10 S :   -0.114234
  11 P :    0.710120
  12 S :   -0.523184
  13 O :   -0.326828
  14 C :   -0.154040
  15 C :   -0.483925
  16 O :   -0.285012
  17 C :   -0.131480
  18 C :   -0.496510
  19 H :    0.166135
  20 H :    0.165502
  21 H :    0.169308
  22 H :    0.170643
  23 H :    0.171287
  24 H :    0.175248
  25 H :    0.170507
  26 H :    0.167381
  27 H :    0.171367
  28 H :    0.165346
  29 H :    0.231675
  30 H :    0.231291
  31 H :    0.177174
  32 H :    0.174146
  33 H :    0.168778
  34 H :    0.171410
  35 H :    0.172344
  36 H :    0.175058
  37 H :    0.169168
  38 H :    0.165297
  39 H :    0.167070
  40 H :    0.171238
Sum of atomic charges:   -0.0000000

LOEWDIN ATOMIC CHARGES
----------------------
   0 C :   -0.390216
   1 C :    0.023051
   2 O :   -0.679021
   3 P :    0.378094
   4 S :   -0.162214
   5 O :   -0.678204
   6 C :    0.032017
   7 C :   -0.406516
   8 S :    0.175105
   9 C :   -0.410823
  10 S :    0.180884
  11 P :    0.383466
  12 S :   -0.156953
  13 O :   -0.673509
  14 C :    0.023724
  15 C :   -0.409985
  16 O :   -0.688122
  17 C :    0.030843
  18 C :   -0.405605
  19 H :    0.162511
  20 H :    0.162875
  21 H :    0.168728
  22 H :    0.179255
  23 H :    0.181304
  24 H :    0.188727
  25 H :    0.181621
  26 H :    0.165326
  27 H :    0.162295
  28 H :    0.163225
  29 H :    0.196856
  30 H :    0.197347
  31 H :    0.181142
  32 H :    0.190311
  33 H :    0.163488
  34 H :    0.161227
  35 H :    0.168061
  36 H :    0.188232
  37 H :    0.181243
  38 H :    0.162885
  39 H :    0.165026
  40 H :    0.162299

  Mayer bond orders larger than 0.100000
B(  0-C ,  1-C ) :   0.9531 B(  0-C , 19-H ) :   0.9701 B(  0-C , 20-H ) :   0.9689
B(  0-C , 21-H ) :   0.9587 B(  1-C ,  2-O ) :   0.7725 B(  1-C , 22-H ) :   0.9358
B(  1-C , 23-H ) :   0.9486 B(  2-O ,  3-P ) :   1.0916 B(  3-P ,  4-S ) :   1.7072
B(  3-P ,  5-O ) :   1.1753 B(  3-P ,  8-S ) :   1.0827 B(  5-O ,  6-C ) :   0.7443
B(  6-C ,  7-C ) :   0.9331 B(  6-C , 24-H ) :   0.9502 B(  6-C , 25-H ) :   0.9615
B(  7-C , 26-H ) :   0.9590 B(  7-C , 27-H ) :   0.9652 B(  7-C , 28-H ) :   0.9670
B(  8-S ,  9-C ) :   0.8949 B(  9-C , 10-S ) :   0.8934 B(  9-C , 29-H ) :   0.9053
B(  9-C , 30-H ) :   0.9036 B( 10-S , 11-P ) :   1.1070 B( 11-P , 12-S ) :   1.7107
B( 11-P , 13-O ) :   1.0694 B( 11-P , 16-O ) :   1.1572 B( 13-O , 14-C ) :   0.8070
B( 14-C , 15-C ) :   0.9109 B( 14-C , 31-H ) :   0.9653 B( 14-C , 32-H ) :   0.9491
B( 15-C , 33-H ) :   0.9658 B( 15-C , 34-H ) :   0.9638 B( 15-C , 35-H ) :   0.9539
B( 16-O , 17-C ) :   0.7457 B( 17-C , 18-C ) :   0.9331 B( 17-C , 36-H ) :   0.9512
B( 17-C , 37-H ) :   0.9601 B( 18-C , 38-H ) :   0.9676 B( 18-C , 39-H ) :   0.9594
B( 18-C , 40-H ) :   0.9655

Dispersion correction           -0.022012941
FINAL SINGLE POINT ENERGY     -2932.472087107990

DIPOLE MOMENT
-------------

Method             : SCF
Type of density    : Electron Density
Multiplicity       :   1
Irrep              :   0
Energy             : -2932.4963544668416944 Eh
Relativity type    :
Basis              : AO
                                X                 Y                 Z
Electronic contribution:     -1.809495531       8.308769659      -6.001067859
Nuclear contribution   :      1.653062063      -9.178853665       6.686480460
                        -----------------------------------------
Total Dipole Moment    :     -0.156433468      -0.870084006       0.685412600
                        -----------------------------------------
Magnitude (a.u.)       :      1.118618809
Magnitude (Debye)      :      2.843303052

Rotational constants in cm-1:             0.013156             0.005132             0.004839
Rotational constants in MHz :           394.419448           153.857046           145.083046

                             ****ORCA TERMINATED NORMALLY****
TOTAL RUN TIME: 0 days 0 hours 1 minutes 58 seconds 590 msec
