                         Program Version 6.0.1  -  RELEASE   -
|  1> ! pbe def2-sv(p) def2/J RI DEFGRID1 loosescf d4 GCP(DFT/SV(P)) printgap
|  2> %output
|  3>     printlevel normal
|  4> end
|  5> * xyz 0 1
|  6> C 4.1786179048 -3.254955425 -2.5240148605
|  7> C 2.8439933754 -3.2712667414 -1.8052683154
|  8> O 2.7511823125 -2.0761519818 -1.0036721718
|  9> C 1.8267188769 -2.0256075303 -0.0711498538
| 10> O 1.0501414002 -2.9234643985 0.1737326488
| 11> C 1.8176338297 -0.6852384452 0.6373031741
| 12> C 1.2373970398 0.3752919874 -0.3006294765
| 13> H 1.9291244923 0.5450639918 -1.1328185922
| 14> C 1.0403822305 1.7020893643 0.4168496703
| 15> O 1.8379921305 2.1236807324 1.2183952007
| 16> O -0.0551904664 2.3260558301 0.0295070826
| 17> C -0.3369971565 3.6197303571 0.6012778984
| 18> C 0.3461552476 4.7188153305 -0.1937860057
| 19> S -0.2911138588 -0.1880681463 -1.1215959255
| 20> P -1.7255171077 0.0986097802 0.422995812
| 21> S -1.1412524151 0.3471365049 2.2772543841
| 22> O -2.6877000402 1.2551602183 -0.0556749607
| 23> C -3.3102670398 1.2533148806 -1.3568264153
| 24> O -2.6722125869 -1.1766521431 0.2084150061
| 25> C -2.2850410032 -2.4753102978 0.6693703747
| 26> H 4.9917770242 -3.2432431173 -1.8042940919
| 27> H 4.2623634604 -4.1418899304 -3.1429691617
| 28> H 4.2525177608 -2.3717790229 -3.150962647
| 29> H 2.7423902928 -4.138769736 -1.1461381647
| 30> H 2.0058825741 -3.2683282399 -2.508634693
| 31> H 2.8315390799 -0.3923569657 0.9095043454
| 32> H 1.209448551 -0.7678450653 1.5401059534
| 33> H -1.4236255183 3.7018920129 0.5607941337
| 34> H -0.0012338077 3.6133442382 1.6422043188
| 35> H 1.4263219211 4.615578799 -0.1218323799
| 36> H 0.0501250909 4.6661382616 -1.2377802453
| 37> H 0.0566263436 5.6816964927 0.2134224933
| 38> H -3.8398107407 2.2003298254 -1.4187901403
| 39> H -4.0015451667 0.4166669686 -1.4351555328
| 40> H -2.5475068513 1.1834339038 -2.1322730977
| 41> H -1.3435937517 -2.7867431891 0.213992223
| 42> H -3.091396073 -3.141415986 0.3751556278
| 43> H -2.1712939035 -2.4653037962 1.754044721
| 44> *
| 45>
| 46>                          ****END OF INPUT****

CARTESIAN COORDINATES (ANGSTROEM)
---------------------------------
  C      4.178618   -3.254955   -2.524015
  C      2.843993   -3.271267   -1.805268
  O      2.751182   -2.076152   -1.003672
  C      1.826719   -2.025608   -0.071150
  O      1.050141   -2.923464    0.173733
  C      1.817634   -0.685238    0.637303
  C      1.237397    0.375292   -0.300629
  H      1.929124    0.545064   -1.132819
  C      1.040382    1.702089    0.416850
  O      1.837992    2.123681    1.218395
  O     -0.055190    2.326056    0.029507
  C     -0.336997    3.619730    0.601278
  C      0.346155    4.718815   -0.193786
  S     -0.291114   -0.188068   -1.121596
  P     -1.725517    0.098610    0.422996
  S     -1.141252    0.347137    2.277254
  O     -2.687700    1.255160   -0.055675
  C     -3.310267    1.253315   -1.356826
  O     -2.672213   -1.176652    0.208415
  C     -2.285041   -2.475310    0.669370
  H      4.991777   -3.243243   -1.804294
  H      4.262363   -4.141890   -3.142969
  H      4.252518   -2.371779   -3.150963
  H      2.742390   -4.138770   -1.146138
  H      2.005883   -3.268328   -2.508635
  H      2.831539   -0.392357    0.909504
  H      1.209449   -0.767845    1.540106
  H     -1.423626    3.701892    0.560794
  H     -0.001234    3.613344    1.642204
  H      1.426322    4.615579   -0.121832
  H      0.050125    4.666138   -1.237780
  H      0.056626    5.681696    0.213422
  H     -3.839811    2.200330   -1.418790
  H     -4.001545    0.416667   -1.435156
  H     -2.547507    1.183434   -2.132273
  H     -1.343594   -2.786743    0.213992
  H     -3.091396   -3.141416    0.375156
  H     -2.171294   -2.465304    1.754045

 Total Charge           Charge          ....    0
 Multiplicity           Mult            ....    1
 Number of Electrons    NEL             ....  174
 Basis Dimension        Dim             ....  316

ORBITAL ENERGIES
----------------

  NO   OCC          E(Eh)            E(eV)
   0   2.0000     -88.040787     -2395.7116
   1   2.0000     -87.984193     -2394.1716
   2   2.0000     -76.426446     -2079.6693
   3   2.0000     -18.808780      -511.8129
   4   2.0000     -18.807117      -511.7677
   5   2.0000     -18.795263      -511.4451
   6   2.0000     -18.787584      -511.2362
   7   2.0000     -18.739107      -509.9170
   8   2.0000     -18.739043      -509.9153
   9   2.0000     -10.018261      -272.6107
  10   2.0000     -10.010460      -272.3985
  11   2.0000      -9.954101      -270.8649
  12   2.0000      -9.952306      -270.8160
  13   2.0000      -9.951714      -270.7999
  14   2.0000      -9.944614      -270.6067
  15   2.0000      -9.931642      -270.2537
  16   2.0000      -9.901383      -269.4303
  17   2.0000      -9.893493      -269.2156
  18   2.0000      -9.887189      -269.0441
  19   2.0000      -7.685403      -209.1304
  20   2.0000      -7.629193      -207.6009
  21   2.0000      -6.423322      -174.7875
  22   2.0000      -5.713363      -155.4685
  23   2.0000      -5.709939      -155.3753
  24   2.0000      -5.702268      -155.1666
  25   2.0000      -5.658389      -153.9726
  26   2.0000      -5.649696      -153.7360
  27   2.0000      -5.649152      -153.7212
  28   2.0000      -4.646068      -126.4259
  29   2.0000      -4.645202      -126.4024
  30   2.0000      -4.643690      -126.3612
  31   2.0000      -1.015767       -27.6404
  32   2.0000      -1.014598       -27.6086
  33   2.0000      -0.985677       -26.8216
  34   2.0000      -0.940203       -25.5842
  35   2.0000      -0.920937       -25.0600
  36   2.0000      -0.915938       -24.9239
  37   2.0000      -0.767992       -20.8981
  38   2.0000      -0.717552       -19.5256
  39   2.0000      -0.700850       -19.0711
  40   2.0000      -0.694622       -18.9016
  41   2.0000      -0.657804       -17.8998
  42   2.0000      -0.632139       -17.2014
  43   2.0000      -0.623110       -16.9557
  44   2.0000      -0.617081       -16.7916
  45   2.0000      -0.593839       -16.1592
  46   2.0000      -0.565278       -15.3820
  47   2.0000      -0.517146       -14.0722
  48   2.0000      -0.511652       -13.9228
  49   2.0000      -0.500215       -13.6115
  50   2.0000      -0.482747       -13.1362
  51   2.0000      -0.473154       -12.8752
  52   2.0000      -0.453277       -12.3343
  53   2.0000      -0.442582       -12.0433
  54   2.0000      -0.441039       -12.0013
  55   2.0000      -0.432250       -11.7621
  56   2.0000      -0.423463       -11.5230
  57   2.0000      -0.420569       -11.4443
  58   2.0000      -0.412852       -11.2343
  59   2.0000      -0.405249       -11.0274
  60   2.0000      -0.401158       -10.9161
  61   2.0000      -0.398092       -10.8326
  62   2.0000      -0.395652       -10.7662
  63   2.0000      -0.387199       -10.5362
  64   2.0000      -0.373503       -10.1635
  65   2.0000      -0.365931        -9.9575
  66   2.0000      -0.359511        -9.7828
  67   2.0000      -0.357476        -9.7274
  68   2.0000      -0.342995        -9.3334
  69   2.0000      -0.341188        -9.2842
  70   2.0000      -0.337096        -9.1728
  71   2.0000      -0.329314        -8.9611
  72   2.0000      -0.321707        -8.7541
  73   2.0000      -0.315611        -8.5882
  74   2.0000      -0.305024        -8.3001
  75   2.0000      -0.303180        -8.2499
  76   2.0000      -0.297774        -8.1028
  77   2.0000      -0.293578        -7.9887
  78   2.0000      -0.271914        -7.3992
  79   2.0000      -0.265647        -7.2286
  80   2.0000      -0.262655        -7.1472
  81   2.0000      -0.257794        -7.0149
  82   2.0000      -0.238043        -6.4775
  83   2.0000      -0.222087        -6.0433
  84   2.0000      -0.212573        -5.7844
  85   2.0000      -0.201616        -5.4862
  86   2.0000      -0.200856        -5.4656
  87   0.0000      -0.042548        -1.1578
  88   0.0000      -0.032856        -0.8941
  89   0.0000      -0.018131        -0.4934
  90   0.0000       0.003194         0.0869
  91   0.0000       0.015550         0.4231

MULLIKEN ATOMIC CHARGES
-----------------------
   0 C :   -0.274866
   1 C :   -0.029087
   2 O :   -0.234630
   3 C :    0.120049
   4 O :   -0.196546
   5 C :   -0.043574
   6 C :   -0.333226
   7 H :    0.154835
   8 C :    0.207627
   9 O :   -0.185101
  10 O :   -0.229424
  11 C :   -0.008362
  12 C :   -0.303198
  13 S :   -0.105321
  14 P :    0.619150
  15 S :   -0.305136
  16 O :   -0.364993
  17 C :   -0.109029
  18 O :   -0.390726
  19 C :   -0.125052
  20 H :    0.117780
  21 H :    0.113178
  22 H :    0.114184
  23 H :    0.112737
  24 H :    0.105442
  25 H :    0.118256
  26 H :    0.121620
  27 H :    0.107364
  28 H :    0.116689
  29 H :    0.124251
  30 H :    0.110401
  31 H :    0.114957
  32 H :    0.129332
  33 H :    0.128055
  34 H :    0.122424
  35 H :    0.144819
  36 H :    0.115920
  37 H :    0.119199
Sum of atomic charges:   -0.0000000

LOEWDIN ATOMIC CHARGES
----------------------
   0 C :   -0.350635
   1 C :   -0.107353
   2 O :   -0.062928
   3 C :    0.021645
   4 O :   -0.161191
   5 C :   -0.250126
   6 C :   -0.259275
   7 H :    0.151538
   8 C :    0.009588
   9 O :   -0.148436
  10 O :   -0.060459
  11 C :   -0.110221
  12 C :   -0.355766
  13 S :    0.097105
  14 P :    0.579105
  15 S :   -0.290282
  16 O :   -0.238189
  17 C :   -0.210961
  18 O :   -0.261716
  19 C :   -0.222888
  20 H :    0.127997
  21 H :    0.131431
  22 H :    0.126279
  23 H :    0.119550
  24 H :    0.117216
  25 H :    0.145747
  26 H :    0.135083
  27 H :    0.118590
  28 H :    0.123685
  29 H :    0.129187
  30 H :    0.123094
  31 H :    0.131715
  32 H :    0.124784
  33 H :    0.118187
  34 H :    0.109694
  35 H :    0.116804
  36 H :    0.118594
  37 H :    0.113808

  Mayer bond orders larger than 0.100000
B(  0-C ,  1-C ) :   1.1540 B(  0-C , 20-H ) :   0.9512 B(  0-C , 21-H ) :   0.9440
B(  0-C , 22-H ) :   0.9486 B(  1-C ,  2-O ) :   0.9033 B(  1-C , 23-H ) :   0.9248
B(  1-C , 24-H ) :   0.9341 B(  2-O ,  3-C ) :   1.2201 B(  3-C ,  4-O ) :   2.0075
B(  3-C ,  5-C ) :   1.0275 B(  5-C ,  6-C ) :   1.0620 B(  5-C , 25-H ) :   0.8719
B(  5-C , 26-H ) :   0.8773 B(  6-C ,  7-H ) :   0.8569 B(  6-C ,  8-C ) :   0.9220
B(  6-C , 13-S ) :   1.0131 B(  8-C ,  9-O ) :   2.0636 B(  8-C , 10-O ) :   1.2436
B( 10-O , 11-C ) :   0.8983 B( 11-C , 12-C ) :   1.1722 B( 11-C , 27-H ) :   0.9312
B( 11-C , 28-H ) :   0.9142 B( 12-C , 29-H ) :   0.9457 B( 12-C , 30-H ) :   0.9483
B( 12-C , 31-H ) :   0.9454 B( 13-S , 14-P ) :   0.9482 B( 13-S , 15-S ) :   0.1154
B( 14-P , 15-S ) :   1.6226 B( 14-P , 16-O ) :   1.1186 B( 14-P , 18-O ) :   1.0825
B( 16-O , 17-C ) :   0.9177 B( 17-C , 32-H ) :   0.9595 B( 17-C , 33-H ) :   0.9475
B( 17-C , 34-H ) :   0.9367 B( 18-O , 19-C ) :   0.9185 B( 19-C , 35-H ) :   0.9236
B( 19-C , 36-H ) :   0.9562 B( 19-C , 37-H ) :   0.9442

Dispersion correction           -0.053151474
FINAL SINGLE POINT ENERGY     -1979.022125587511

DIPOLE MOMENT
-------------

Method             : SCF
Type of density    : Electron Density
Multiplicity       :   1
Irrep              :   0
Energy             : -1979.1512232595391652 Eh
Relativity type    :
Basis              : AO
                                X                 Y                 Z
Electronic contribution:     -8.497090391       0.202603331       9.784801439
Nuclear contribution   :      8.470951497      -0.187441979     -11.682046623
                        -----------------------------------------
Total Dipole Moment    :     -0.026138895       0.015161352      -1.897245183
                        -----------------------------------------
Magnitude (a.u.)       :      1.897485809
Magnitude (Debye)      :      4.823025634

Rotational constants in cm-1:             0.012869             0.007316             0.005810
Rotational constants in MHz :           385.793165           219.317654           174.188756

                             ****ORCA TERMINATED NORMALLY****
TOTAL RUN TIME: 0 days 0 hours 0 minutes 40 seconds 886 msec
