                         Program Version 6.0.0  -   RELEASE  -
|  1> ! pbe def2-sv(p) def2/J RI DEFGRID1 loosescf d4 GCP(DFT/SV(P)) printgap
|  2> %output
|  3>     printlevel normal
|  4> end
|  5> * xyz 0 1
|  6> C 3.2831828852 1.9566710545 -1.9310932895
|  7> C 4.3291087952 1.1743673644 -1.1656601861
|  8> O 3.9013132384 0.8315355051 0.1753806219
|  9> P 2.6623708867 -0.0592295556 0.5572098639
| 10> S 2.8279327296 -0.6667657044 2.4104592648
| 11> O 2.7115681184 -1.1501365061 -0.6032081973
| 12> C 1.7196843102 -2.1437437493 -0.8971447609
| 13> C 1.5661923007 -3.1685058582 0.207748099
| 14> S 0.9364936889 1.1515647406 0.1927053434
| 15> C -0.0884526261 0.6501223587 1.5911851671
| 16> S -1.1190335104 -0.8136412999 1.2713339118
| 17> P -2.1364544239 -0.1330574193 -0.463831742
| 18> S -1.2832537129 -0.2714301306 -2.2180331001
| 19> O -2.5055035367 1.3539075831 -0.0095821412
| 20> C -2.5573349019 2.4481753711 -0.9416345338
| 21> C -3.8491982556 2.4229284943 -1.7326434551
| 22> O -3.4541192942 -1.010094271 -0.4786412593
| 23> C -4.2436999171 -1.4248426528 0.6599708381
| 24> C -4.8397794753 -0.253357101 1.4113960039
| 25> H 2.9746812817 2.8330067914 -1.3662540306
| 26> H 3.7024502424 2.2734301207 -2.8811213721
| 27> H 2.4072354688 1.3389702179 -2.1264598824
| 28> H 5.2269698464 1.7694068163 -0.9917653315
| 29> H 4.5882921637 0.2515530126 -1.6876464632
| 30> H 0.7682916672 -1.6448417833 -1.1095923225
| 31> H 2.085070092 -2.6056089042 -1.8165657547
| 32> H 2.5304944607 -3.609678756 0.4473633689
| 33> H 1.1622778891 -2.7087951235 1.1080973213
| 34> H 0.8852138536 -3.9461100543 -0.1233663757
| 35> H -0.7298922525 1.4922480175 1.8346336499
| 36> H 0.5571784282 0.3815302678 2.4310988756
| 37> H -2.4781063484 3.3402029586 -0.3188748593
| 38> H -1.6922939322 2.3842440458 -1.6092742149
| 39> H -4.7043792978 2.4799067525 -1.0645752601
| 40> H -3.8706632768 3.2646358586 -2.4173911762
| 41> H -3.9078382043 1.4977883913 -2.3055630009
| 42> H -5.0170342644 -2.0511896311 0.2121277283
| 43> H -3.6119398604 -2.0301908812 1.3145300767
| 44> H -5.4810535548 -0.6299347878 2.2023204278
| 45> H -4.0521449284 0.3530430225 1.8530348774
| 46> H -5.4280277242 0.3656081477 0.7388900412
| 47> *
| 48>
| 49>                          ****END OF INPUT****

CARTESIAN COORDINATES (ANGSTROEM)
---------------------------------
  C      3.283183    1.956671   -1.931093
  C      4.329109    1.174367   -1.165660
  O      3.901313    0.831536    0.175381
  P      2.662371   -0.059230    0.557210
  S      2.827933   -0.666766    2.410459
  O      2.711568   -1.150137   -0.603208
  C      1.719684   -2.143744   -0.897145
  C      1.566192   -3.168506    0.207748
  S      0.936494    1.151565    0.192705
  C     -0.088453    0.650122    1.591185
  S     -1.119034   -0.813641    1.271334
  P     -2.136454   -0.133057   -0.463832
  S     -1.283254   -0.271430   -2.218033
  O     -2.505504    1.353908   -0.009582
  C     -2.557335    2.448175   -0.941635
  C     -3.849198    2.422928   -1.732643
  O     -3.454119   -1.010094   -0.478641
  C     -4.243700   -1.424843    0.659971
  C     -4.839779   -0.253357    1.411396
  H      2.974681    2.833007   -1.366254
  H      3.702450    2.273430   -2.881121
  H      2.407235    1.338970   -2.126460
  H      5.226970    1.769407   -0.991765
  H      4.588292    0.251553   -1.687646
  H      0.768292   -1.644842   -1.109592
  H      2.085070   -2.605609   -1.816566
  H      2.530494   -3.609679    0.447363
  H      1.162278   -2.708795    1.108097
  H      0.885214   -3.946110   -0.123366
  H     -0.729892    1.492248    1.834634
  H      0.557178    0.381530    2.431099
  H     -2.478106    3.340203   -0.318875
  H     -1.692294    2.384244   -1.609274
  H     -4.704379    2.479907   -1.064575
  H     -3.870663    3.264636   -2.417391
  H     -3.907838    1.497788   -2.305563
  H     -5.017034   -2.051190    0.212128
  H     -3.611940   -2.030191    1.314530
  H     -5.481054   -0.629935    2.202320
  H     -4.052145    0.353043    1.853035
  H     -5.428028    0.365608    0.738890

 Total Charge           Charge          ....    0
 Multiplicity           Mult            ....    1
 Number of Electrons    NEL             ....  202
 Basis Dimension        Dim             ....  334

ORBITAL ENERGIES
----------------

  NO   OCC          E(Eh)            E(eV)
   0   2.0000     -88.047835     -2395.9034
   1   2.0000     -88.041616     -2395.7342
   2   2.0000     -87.986469     -2394.2335
   3   2.0000     -87.981794     -2394.1063
   4   2.0000     -76.431642     -2079.8107
   5   2.0000     -76.424689     -2079.6215
   6   2.0000     -18.800717      -511.5935
   7   2.0000     -18.797517      -511.5064
   8   2.0000     -18.788493      -511.2609
   9   2.0000     -18.787557      -511.2354
  10   2.0000      -9.963084      -271.1093
  11   2.0000      -9.956321      -270.9253
  12   2.0000      -9.955749      -270.9097
  13   2.0000      -9.955695      -270.9082
  14   2.0000      -9.940499      -270.4947
  15   2.0000      -9.893542      -269.2170
  16   2.0000      -9.889276      -269.1009
  17   2.0000      -9.888719      -269.0857
  18   2.0000      -9.869554      -268.5642
  19   2.0000      -7.692471      -209.3228
  20   2.0000      -7.686145      -209.1506
  21   2.0000      -7.631448      -207.6622
  22   2.0000      -7.627014      -207.5416
  23   2.0000      -6.428841      -174.9376
  24   2.0000      -6.421788      -174.7457
  25   2.0000      -5.720409      -155.6602
  26   2.0000      -5.716881      -155.5642
  27   2.0000      -5.714107      -155.4887
  28   2.0000      -5.710575      -155.3926
  29   2.0000      -5.709531      -155.3642
  30   2.0000      -5.703214      -155.1923
  31   2.0000      -5.660511      -154.0303
  32   2.0000      -5.656040      -153.9087
  33   2.0000      -5.652067      -153.8006
  34   2.0000      -5.651413      -153.7828
  35   2.0000      -5.647550      -153.6776
  36   2.0000      -5.647094      -153.6653
  37   2.0000      -4.651843      -126.5831
  38   2.0000      -4.650569      -126.5484
  39   2.0000      -4.649015      -126.5061
  40   2.0000      -4.644633      -126.3869
  41   2.0000      -4.643575      -126.3581
  42   2.0000      -4.642073      -126.3172
  43   2.0000      -0.990191       -26.9445
  44   2.0000      -0.984366       -26.7860
  45   2.0000      -0.953349       -25.9419
  46   2.0000      -0.938759       -25.5449
  47   2.0000      -0.764407       -20.8006
  48   2.0000      -0.723972       -19.7003
  49   2.0000      -0.712492       -19.3879
  50   2.0000      -0.697434       -18.9781
  51   2.0000      -0.685031       -18.6406
  52   2.0000      -0.673364       -18.3232
  53   2.0000      -0.654045       -17.7975
  54   2.0000      -0.638654       -17.3787
  55   2.0000      -0.598611       -16.2890
  56   2.0000      -0.591193       -16.0872
  57   2.0000      -0.581521       -15.8240
  58   2.0000      -0.574849       -15.6424
  59   2.0000      -0.564841       -15.3701
  60   2.0000      -0.503679       -13.7058
  61   2.0000      -0.490478       -13.3466
  62   2.0000      -0.484014       -13.1707
  63   2.0000      -0.468102       -12.7377
  64   2.0000      -0.459973       -12.5165
  65   2.0000      -0.448231       -12.1970
  66   2.0000      -0.442865       -12.0510
  67   2.0000      -0.437844       -11.9143
  68   2.0000      -0.421562       -11.4713
  69   2.0000      -0.419185       -11.4066
  70   2.0000      -0.412485       -11.2243
  71   2.0000      -0.404246       -11.0001
  72   2.0000      -0.397153       -10.8071
  73   2.0000      -0.392877       -10.6907
  74   2.0000      -0.386898       -10.5280
  75   2.0000      -0.375475       -10.2172
  76   2.0000      -0.364015        -9.9054
  77   2.0000      -0.358005        -9.7418
  78   2.0000      -0.354428        -9.6445
  79   2.0000      -0.352237        -9.5849
  80   2.0000      -0.350834        -9.5467
  81   2.0000      -0.348098        -9.4722
  82   2.0000      -0.343255        -9.3404
  83   2.0000      -0.335418        -9.1272
  84   2.0000      -0.328419        -8.9367
  85   2.0000      -0.321890        -8.7591
  86   2.0000      -0.311539        -8.4774
  87   2.0000      -0.310418        -8.4469
  88   2.0000      -0.292274        -7.9532
  89   2.0000      -0.287754        -7.8302
  90   2.0000      -0.285286        -7.7630
  91   2.0000      -0.278907        -7.5894
  92   2.0000      -0.273058        -7.4303
  93   2.0000      -0.268883        -7.3167
  94   2.0000      -0.255966        -6.9652
  95   2.0000      -0.244690        -6.6583
  96   2.0000      -0.220263        -5.9937
  97   2.0000      -0.203178        -5.5287
  98   2.0000      -0.201907        -5.4942
  99   2.0000      -0.201000        -5.4695
 100   2.0000      -0.190496        -5.1837
 101   0.0000      -0.050548        -1.3755
 102   0.0000      -0.024259        -0.6601
 103   0.0000      -0.015222        -0.4142
 104   0.0000       0.000517         0.0141
 105   0.0000       0.009158         0.2492

MULLIKEN ATOMIC CHARGES
-----------------------
   0 C :   -0.341831
   1 C :    0.007827
   2 O :   -0.362058
   3 P :    0.627133
   4 S :   -0.313467
   5 O :   -0.381846
   6 C :   -0.026962
   7 C :   -0.305645
   8 S :   -0.117258
   9 C :   -0.331511
  10 S :   -0.112283
  11 P :    0.623345
  12 S :   -0.297875
  13 O :   -0.390394
  14 C :   -0.015063
  15 C :   -0.308032
  16 O :   -0.365426
  17 C :   -0.017349
  18 C :   -0.313427
  19 H :    0.127334
  20 H :    0.118523
  21 H :    0.141363
  22 H :    0.110634
  23 H :    0.113010
  24 H :    0.127869
  25 H :    0.098791
  26 H :    0.112361
  27 H :    0.128194
  28 H :    0.105590
  29 H :    0.187038
  30 H :    0.192721
  31 H :    0.103772
  32 H :    0.118926
  33 H :    0.115876
  34 H :    0.114203
  35 H :    0.128238
  36 H :    0.113891
  37 H :    0.121132
  38 H :    0.115441
  39 H :    0.125735
  40 H :    0.121484
Sum of atomic charges:   -0.0000000

LOEWDIN ATOMIC CHARGES
----------------------
   0 C :   -0.374199
   1 C :   -0.108213
   2 O :   -0.235697
   3 P :    0.572700
   4 S :   -0.301157
   5 O :   -0.242870
   6 C :   -0.123745
   7 C :   -0.369506
   8 S :    0.080186
   9 C :   -0.483038
  10 S :    0.084125
  11 P :    0.568440
  12 S :   -0.298052
  13 O :   -0.249063
  14 C :   -0.124046
  15 C :   -0.363384
  16 O :   -0.240965
  17 C :   -0.115312
  18 C :   -0.366271
  19 H :    0.127276
  20 H :    0.134368
  21 H :    0.122951
  22 H :    0.122810
  23 H :    0.116444
  24 H :    0.098702
  25 H :    0.117426
  26 H :    0.124186
  27 H :    0.112691
  28 H :    0.128427
  29 H :    0.132941
  30 H :    0.127629
  31 H :    0.116939
  32 H :    0.110242
  33 H :    0.122768
  34 H :    0.132086
  35 H :    0.126094
  36 H :    0.123843
  37 H :    0.110778
  38 H :    0.132456
  39 H :    0.122689
  40 H :    0.126319

  Mayer bond orders larger than 0.100000
B(  0-C ,  1-C ) :   1.1701 B(  0-C , 19-H ) :   0.9413 B(  0-C , 20-H ) :   0.9349
B(  0-C , 21-H ) :   0.9307 B(  1-C ,  2-O ) :   0.8989 B(  1-C , 22-H ) :   0.9338
B(  1-C , 23-H ) :   0.9271 B(  2-O ,  3-P ) :   1.1467 B(  3-P ,  4-S ) :   1.6427
B(  3-P ,  5-O ) :   1.0849 B(  3-P ,  8-S ) :   0.9277 B(  4-S ,  8-S ) :   0.1128
B(  4-S , 30-H ) :   0.1181 B(  5-O ,  6-C ) :   0.9026 B(  6-C ,  7-C ) :   1.1665
B(  6-C , 24-H ) :   0.8947 B(  6-C , 25-H ) :   0.9349 B(  7-C , 26-H ) :   0.9442
B(  7-C , 27-H ) :   0.9278 B(  7-C , 28-H ) :   0.9380 B(  8-S ,  9-C ) :   1.0281
B(  9-C , 10-S ) :   0.9879 B(  9-C , 29-H ) :   0.8993 B(  9-C , 30-H ) :   0.8532
B( 10-S , 11-P ) :   0.9617 B( 11-P , 12-S ) :   1.6296 B( 11-P , 13-O ) :   1.0615
B( 11-P , 16-O ) :   1.1344 B( 13-O , 14-C ) :   0.8987 B( 14-C , 15-C ) :   1.1650
B( 14-C , 31-H ) :   0.9321 B( 14-C , 32-H ) :   0.9074 B( 15-C , 33-H ) :   0.9442
B( 15-C , 34-H ) :   0.9396 B( 15-C , 35-H ) :   0.9362 B( 16-O , 17-C ) :   0.9021
B( 17-C , 18-C ) :   1.1656 B( 17-C , 36-H ) :   0.9336 B( 17-C , 37-H ) :   0.9224
B( 18-C , 38-H ) :   0.9362 B( 18-C , 39-H ) :   0.9360 B( 18-C , 40-H ) :   0.9431

Dispersion correction           -0.066445887
FINAL SINGLE POINT ENERGY     -2929.516307658526

DIPOLE MOMENT
-------------

Method             : SCF
Type of density    : Electron Density
Multiplicity       :   1
Irrep              :   0
Energy             : -2929.6358555766842073 Eh
Relativity type    :
Basis              : AO
                                X                 Y                 Z
Electronic contribution:     12.435403776      -3.940673888       6.874952247
Nuclear contribution   :    -13.714018935       4.692056075      -7.346689447
                        -----------------------------------------
Total Dipole Moment    :     -1.278615159       0.751382188      -0.471737200
                        -----------------------------------------
Magnitude (a.u.)       :      1.556267298
Magnitude (Debye)      :      3.955717106

Rotational constants in cm-1:             0.012695             0.005078             0.004552
Rotational constants in MHz :           380.594947           152.222319           136.456774

                             ****ORCA TERMINATED NORMALLY****
TOTAL RUN TIME: 0 days 0 hours 0 minutes 21 seconds 516 msec
