                         Program Version 6.0.0  -   RELEASE  -
|  1> ! pbe def2-sv(p) def2/J RI DEFGRID1 loosescf d4 GCP(DFT/SV(P)) printgap
|  2> %output
|  3>     printlevel normal
|  4> end
|  5> * xyz 0 1
|  6> C 5.5208840589 -1.270144199 -1.1661104712
|  7> C 4.1592064899 -1.2522533948 -1.8332168264
|  8> O 3.1222671492 -1.5391670492 -0.8713335022
|  9> P 2.2555955565 -0.3906182814 -0.1929460408
| 10> S 3.2716981315 1.1509559284 0.4750524144
| 11> O 1.4305863646 -1.2255046866 0.8666784179
| 12> C 1.9448243576 -1.4828797235 2.1987390887
| 13> C 1.3953379333 -0.4788537703 3.1919227237
| 14> S 0.779074847 0.0286246199 -1.6426828645
| 15> C 0.195556075 1.5726971397 -0.8860389286
| 16> S -0.7163912922 1.2985021484 0.6446026254
| 17> P -2.3926920643 0.3301612549 -0.2639400195
| 18> S -2.8962642608 0.9916076175 -2.0337021818
| 19> O -3.4742516501 0.354716563 0.8993436071
| 20> C -3.8680383614 1.5241388583 1.6433849465
| 21> C -4.3271414887 2.6595595647 0.7535411747
| 22> O -2.051152368 -1.2057179702 -0.3575487478
| 23> C -1.7364526204 -2.0328429759 0.7871747993
| 24> C -2.9397205211 -2.8610765917 1.1872939642
| 25> H 5.6816873797 -2.2239720883 -0.6716816374
| 26> H 6.2887818726 -1.1205108328 -1.9181125473
| 27> H 5.587510596 -0.473179672 -0.4285582631
| 28> H 4.070564564 -2.0392938252 -2.58413234
| 29> H 3.9641806011 -0.2819220241 -2.2983476412
| 30> H 1.615264603 -2.4974157417 2.427278988
| 31> H 3.0368714024 -1.447410658 2.1739033789
| 32> H 1.7549190929 -0.7283998284 4.1849585953
| 33> H 1.7271246288 0.5249109504 2.9354527397
| 34> H 0.3093194882 -0.4940113099 3.1878662347
| 35> H -0.4591449194 2.0458868566 -1.6183852088
| 36> H 1.049773293 2.2038546509 -0.6397131589
| 37> H -4.679167809 1.1626278828 2.2778757707
| 38> H -3.0214556685 1.8360157446 2.2612480968
| 39> H -4.6958583436 3.4736128372 1.3692236427
| 40> H -3.4985933207 3.0207518305 0.1461165746
| 41> H -5.11806092 2.3239650494 0.0869894717
| 42> H -0.9058859601 -2.6601581667 0.4567119789
| 43> H -1.4038280354 -1.3918804845 1.6081049117
| 44> H -2.6676638672 -3.5104658668 2.0134545252
| 45> H -3.7565115175 -2.2116579734 1.4913391459
| 46> H -3.2692367097 -3.4658962388 0.3470185324
| 47> *
| 48>
| 49>                          ****END OF INPUT****

CARTESIAN COORDINATES (ANGSTROEM)
---------------------------------
  C      5.520884   -1.270144   -1.166110
  C      4.159206   -1.252253   -1.833217
  O      3.122267   -1.539167   -0.871334
  P      2.255596   -0.390618   -0.192946
  S      3.271698    1.150956    0.475052
  O      1.430586   -1.225505    0.866678
  C      1.944824   -1.482880    2.198739
  C      1.395338   -0.478854    3.191923
  S      0.779075    0.028625   -1.642683
  C      0.195556    1.572697   -0.886039
  S     -0.716391    1.298502    0.644603
  P     -2.392692    0.330161   -0.263940
  S     -2.896264    0.991608   -2.033702
  O     -3.474252    0.354717    0.899344
  C     -3.868038    1.524139    1.643385
  C     -4.327141    2.659560    0.753541
  O     -2.051152   -1.205718   -0.357549
  C     -1.736453   -2.032843    0.787175
  C     -2.939721   -2.861077    1.187294
  H      5.681687   -2.223972   -0.671682
  H      6.288782   -1.120511   -1.918113
  H      5.587511   -0.473180   -0.428558
  H      4.070565   -2.039294   -2.584132
  H      3.964181   -0.281922   -2.298348
  H      1.615265   -2.497416    2.427279
  H      3.036871   -1.447411    2.173903
  H      1.754919   -0.728400    4.184959
  H      1.727125    0.524911    2.935453
  H      0.309319   -0.494011    3.187866
  H     -0.459145    2.045887   -1.618385
  H      1.049773    2.203855   -0.639713
  H     -4.679168    1.162628    2.277876
  H     -3.021456    1.836016    2.261248
  H     -4.695858    3.473613    1.369224
  H     -3.498593    3.020752    0.146117
  H     -5.118061    2.323965    0.086989
  H     -0.905886   -2.660158    0.456712
  H     -1.403828   -1.391880    1.608105
  H     -2.667664   -3.510466    2.013455
  H     -3.756512   -2.211658    1.491339
  H     -3.269237   -3.465896    0.347019

 Total Charge           Charge          ....    0
 Multiplicity           Mult            ....    1
 Number of Electrons    NEL             ....  202
 Basis Dimension        Dim             ....  334

ORBITAL ENERGIES
----------------

  NO   OCC          E(Eh)            E(eV)
   0   2.0000     -88.042778     -2395.7658
   1   2.0000     -88.042097     -2395.7473
   2   2.0000     -87.991487     -2394.3701
   3   2.0000     -87.981915     -2394.1096
   4   2.0000     -76.429010     -2079.7391
   5   2.0000     -76.425910     -2079.6547
   6   2.0000     -18.798268      -511.5269
   7   2.0000     -18.794664      -511.4288
   8   2.0000     -18.794577      -511.4264
   9   2.0000     -18.787560      -511.2355
  10   2.0000      -9.961083      -271.0548
  11   2.0000      -9.959095      -271.0007
  12   2.0000      -9.955925      -270.9145
  13   2.0000      -9.952111      -270.8107
  14   2.0000      -9.951183      -270.7855
  15   2.0000      -9.885145      -268.9885
  16   2.0000      -9.884578      -268.9731
  17   2.0000      -9.884199      -268.9627
  18   2.0000      -9.883778      -268.9513
  19   2.0000      -7.687537      -209.1885
  20   2.0000      -7.687390      -209.1845
  21   2.0000      -7.636435      -207.7980
  22   2.0000      -7.627276      -207.5487
  23   2.0000      -6.426783      -174.8817
  24   2.0000      -6.423042      -174.7799
  25   2.0000      -5.715202      -155.5185
  26   2.0000      -5.715186      -155.5181
  27   2.0000      -5.712076      -155.4335
  28   2.0000      -5.712037      -155.4324
  29   2.0000      -5.704744      -155.2340
  30   2.0000      -5.704269      -155.2211
  31   2.0000      -5.665167      -154.1570
  32   2.0000      -5.657122      -153.9381
  33   2.0000      -5.656713      -153.9270
  34   2.0000      -5.656379      -153.9179
  35   2.0000      -5.647787      -153.6841
  36   2.0000      -5.647310      -153.6711
  37   2.0000      -4.649341      -126.5150
  38   2.0000      -4.648463      -126.4911
  39   2.0000      -4.647306      -126.4596
  40   2.0000      -4.645950      -126.4227
  41   2.0000      -4.645028      -126.3976
  42   2.0000      -4.643052      -126.3439
  43   2.0000      -0.989807       -26.9340
  44   2.0000      -0.989088       -26.9145
  45   2.0000      -0.947729       -25.7890
  46   2.0000      -0.944633       -25.7048
  47   2.0000      -0.765444       -20.8288
  48   2.0000      -0.722655       -19.6644
  49   2.0000      -0.711305       -19.3556
  50   2.0000      -0.691609       -18.8196
  51   2.0000      -0.688646       -18.7390
  52   2.0000      -0.675846       -18.3907
  53   2.0000      -0.651768       -17.7355
  54   2.0000      -0.639571       -17.4036
  55   2.0000      -0.596719       -16.2375
  56   2.0000      -0.590048       -16.0560
  57   2.0000      -0.575855       -15.6698
  58   2.0000      -0.573182       -15.5971
  59   2.0000      -0.563875       -15.3438
  60   2.0000      -0.510668       -13.8960
  61   2.0000      -0.499170       -13.5831
  62   2.0000      -0.479699       -13.0533
  63   2.0000      -0.474364       -12.9081
  64   2.0000      -0.460503       -12.5309
  65   2.0000      -0.447368       -12.1735
  66   2.0000      -0.440556       -11.9881
  67   2.0000      -0.434646       -11.8273
  68   2.0000      -0.433466       -11.7952
  69   2.0000      -0.413620       -11.2552
  70   2.0000      -0.408297       -11.1103
  71   2.0000      -0.400689       -10.9033
  72   2.0000      -0.397378       -10.8132
  73   2.0000      -0.389073       -10.5872
  74   2.0000      -0.381433       -10.3793
  75   2.0000      -0.372265       -10.1298
  76   2.0000      -0.366009        -9.9596
  77   2.0000      -0.356882        -9.7113
  78   2.0000      -0.355669        -9.6782
  79   2.0000      -0.350645        -9.5415
  80   2.0000      -0.349301        -9.5050
  81   2.0000      -0.346911        -9.4399
  82   2.0000      -0.343522        -9.3477
  83   2.0000      -0.339107        -9.2276
  84   2.0000      -0.334735        -9.1086
  85   2.0000      -0.322243        -8.7687
  86   2.0000      -0.312773        -8.5110
  87   2.0000      -0.301115        -8.1938
  88   2.0000      -0.298544        -8.1238
  89   2.0000      -0.293086        -7.9753
  90   2.0000      -0.287705        -7.8289
  91   2.0000      -0.282757        -7.6942
  92   2.0000      -0.276508        -7.5242
  93   2.0000      -0.266191        -7.2434
  94   2.0000      -0.258079        -7.0227
  95   2.0000      -0.234865        -6.3910
  96   2.0000      -0.220470        -5.9993
  97   2.0000      -0.212184        -5.7738
  98   2.0000      -0.204667        -5.5693
  99   2.0000      -0.199086        -5.4174
 100   2.0000      -0.197076        -5.3627
 101   0.0000      -0.044772        -1.2183
 102   0.0000      -0.024318        -0.6617
 103   0.0000      -0.006650        -0.1809
 104   0.0000      -0.002668        -0.0726
 105   0.0000       0.010807         0.2941

MULLIKEN ATOMIC CHARGES
-----------------------
   0 C :   -0.291119
   1 C :   -0.006719
   2 O :   -0.375311
   3 P :    0.605212
   4 S :   -0.340456
   5 O :   -0.362124
   6 C :   -0.001261
   7 C :   -0.301294
   8 S :   -0.053778
   9 C :   -0.373877
  10 S :   -0.104768
  11 P :    0.596798
  12 S :   -0.308657
  13 O :   -0.381767
  14 C :   -0.012142
  15 C :   -0.307014
  16 O :   -0.344913
  17 C :   -0.027461
  18 C :   -0.281657
  19 H :    0.111219
  20 H :    0.109484
  21 H :    0.126321
  22 H :    0.109274
  23 H :    0.104523
  24 H :    0.104913
  25 H :    0.106346
  26 H :    0.107518
  27 H :    0.129594
  28 H :    0.123036
  29 H :    0.195101
  30 H :    0.193363
  31 H :    0.108520
  32 H :    0.113207
  33 H :    0.111602
  34 H :    0.125975
  35 H :    0.127465
  36 H :    0.115789
  37 H :    0.106954
  38 H :    0.104584
  39 H :    0.117010
  40 H :    0.120510
Sum of atomic charges:   -0.0000000

LOEWDIN ATOMIC CHARGES
----------------------
   0 C :   -0.361437
   1 C :   -0.115401
   2 O :   -0.249936
   3 P :    0.568825
   4 S :   -0.323796
   5 O :   -0.239344
   6 C :   -0.110682
   7 C :   -0.362840
   8 S :    0.099190
   9 C :   -0.486997
  10 S :    0.069622
  11 P :    0.568142
  12 S :   -0.305559
  13 O :   -0.246084
  14 C :   -0.115243
  15 C :   -0.368539
  16 O :   -0.228462
  17 C :   -0.116213
  18 C :   -0.357931
  19 H :    0.124448
  20 H :    0.129717
  21 H :    0.124656
  22 H :    0.119567
  23 H :    0.109602
  24 H :    0.117535
  25 H :    0.111469
  26 H :    0.128577
  27 H :    0.125430
  28 H :    0.119738
  29 H :    0.129202
  30 H :    0.128317
  31 H :    0.120666
  32 H :    0.107847
  33 H :    0.130295
  34 H :    0.121800
  35 H :    0.130947
  36 H :    0.120427
  37 H :    0.101323
  38 H :    0.126865
  39 H :    0.125084
  40 H :    0.129172

  Mayer bond orders larger than 0.100000
B(  0-C ,  1-C ) :   1.1668 B(  0-C , 19-H ) :   0.9477 B(  0-C , 20-H ) :   0.9401
B(  0-C , 21-H ) :   0.9357 B(  1-C ,  2-O ) :   0.8988 B(  1-C , 22-H ) :   0.9350
B(  1-C , 23-H ) :   0.9145 B(  2-O ,  3-P ) :   1.1156 B(  3-P ,  4-S ) :   1.5805
B(  3-P ,  5-O ) :   1.1277 B(  3-P ,  8-S ) :   0.9780 B(  4-S ,  8-S ) :   0.1113
B(  5-O ,  6-C ) :   0.8874 B(  6-C ,  7-C ) :   1.1706 B(  6-C , 24-H ) :   0.9335
B(  6-C , 25-H ) :   0.9156 B(  7-C , 26-H ) :   0.9379 B(  7-C , 27-H ) :   0.9323
B(  7-C , 28-H ) :   0.9412 B(  8-S ,  9-C ) :   1.0048 B(  9-C , 10-S ) :   1.0091
B(  9-C , 29-H ) :   0.8729 B(  9-C , 30-H ) :   0.8734 B( 10-S , 11-P ) :   0.9381
B( 10-S , 12-S ) :   0.1101 B( 11-P , 12-S ) :   1.6462 B( 11-P , 13-O ) :   1.0774
B( 11-P , 16-O ) :   1.1421 B( 13-O , 14-C ) :   0.9116 B( 14-C , 15-C ) :   1.1680
B( 14-C , 31-H ) :   0.9329 B( 14-C , 32-H ) :   0.9255 B( 15-C , 33-H ) :   0.9348
B( 15-C , 34-H ) :   0.9320 B( 15-C , 35-H ) :   0.9432 B( 16-O , 17-C ) :   0.8923
B( 17-C , 18-C ) :   1.1559 B( 17-C , 36-H ) :   0.9306 B( 17-C , 37-H ) :   0.9084
B( 18-C , 38-H ) :   0.9413 B( 18-C , 39-H ) :   0.9431 B( 18-C , 40-H ) :   0.9466

Dispersion correction           -0.065742766
FINAL SINGLE POINT ENERGY     -2929.521988690415

DIPOLE MOMENT
-------------

Method             : SCF
Type of density    : Electron Density
Multiplicity       :   1
Irrep              :   0
Energy             : -2929.6410783316105153 Eh
Relativity type    :
Basis              : AO
                                X                 Y                 Z
Electronic contribution:     -1.328381118       6.812978711     -14.833979353
Nuclear contribution   :      1.606421064      -7.562701563      16.259561121
                        -----------------------------------------
Total Dipole Moment    :      0.278039945      -0.749722852       1.425581768
                        -----------------------------------------
Magnitude (a.u.)       :      1.634525602
Magnitude (Debye)      :      4.154633906

Rotational constants in cm-1:             0.013323             0.004759             0.004530
Rotational constants in MHz :           399.410121           142.675069           135.815508

                             ****ORCA TERMINATED NORMALLY****
TOTAL RUN TIME: 0 days 0 hours 0 minutes 21 seconds 255 msec
