                         Program Version 6.0.0  -   RELEASE  -
|  1> ! pbe def2-sv(p) def2/J RI DEFGRID1 loosescf d4 GCP(DFT/SV(P)) printgap
|  2> %output
|  3>     printlevel normal
|  4> end
|  5> * xyz 0 1
|  6> C 2.5499834515 -0.4956398397 -2.9092876222
|  7> C 2.6689603028 0.7888028805 -2.113960651
|  8> O 3.0931052759 0.5210158598 -0.7638519744
|  9> P 2.1432513333 0.3898729046 0.4996350401
| 10> S 1.0101254408 1.920921513 0.9388542321
| 11> O 3.1974188818 0.1828737567 1.6524048723
| 12> C 4.1955827628 -0.8717456898 1.6484535556
| 13> C 3.8626842979 -1.907032645 2.7040848674
| 14> S 1.1720883005 -1.4925854937 0.2679257296
| 15> C -0.1615749264 -1.2407395285 1.4825307589
| 16> S -1.8023397116 -1.6432761566 0.8240070737
| 17> P -2.1410222281 0.0315145292 -0.3995512723
| 18> S -0.8918438887 0.4975440138 -1.8438617465
| 19> O -2.3480487807 1.1194837473 0.7307363184
| 20> C -2.5278479472 2.5172416911 0.416417966
| 21> C -2.3700973381 3.3040635105 1.6996847886
| 22> O -3.6276938845 -0.1839223738 -0.9231844033
| 23> C -3.9159767862 -0.859718207 -2.1599244371
| 24> C -3.5522978026 -2.3287562611 -2.0967372848
| 25> H 2.3271941683 -0.2478036979 -3.9418407667
| 26> H 3.4803824383 -1.0541711137 -2.8620217199
| 27> H 1.7424295606 -1.1105194519 -2.5188623157
| 28> H 1.7186125017 1.3297903645 -2.0985409802
| 29> H 3.4487594351 1.4364474844 -2.5190632938
| 30> H 4.2434345743 -1.3170466977 0.6529788428
| 31> H 5.1360382011 -0.3650727109 1.8695006103
| 32> H 2.9558641171 -2.4446786885 2.4388599591
| 33> H 4.6834584187 -2.6134249467 2.7768187344
| 34> H 3.7202315615 -1.422990157 3.6662637387
| 35> H -0.1444428435 -0.1974303325 1.8069118337
| 36> H -0.0096234864 -1.9212141486 2.316066606
| 37> H -1.7725317679 2.8081121979 -0.3216236562
| 38> H -3.5239829779 2.6404059204 -0.0158455521
| 39> H -1.3564010605 3.1901857381 2.0764975522
| 40> H -2.5596847445 4.3532386533 1.4992463111
| 41> H -3.0716702163 2.9419193288 2.4453025199
| 42> H -4.9879198229 -0.7113065341 -2.2957101835
| 43> H -3.3640224021 -0.3601353686 -2.9627989962
| 44> H -2.4721073183 -2.4380983349 -2.0029056208
| 45> H -4.0264006918 -2.7990739249 -1.2389577087
| 46> H -3.878542188 -2.8206060021 -3.0073846441
| 47> *
| 48>
| 49>                          ****END OF INPUT****

CARTESIAN COORDINATES (ANGSTROEM)
---------------------------------
  C      2.549983   -0.495640   -2.909288
  C      2.668960    0.788803   -2.113961
  O      3.093105    0.521016   -0.763852
  P      2.143251    0.389873    0.499635
  S      1.010125    1.920922    0.938854
  O      3.197419    0.182874    1.652405
  C      4.195583   -0.871746    1.648454
  C      3.862684   -1.907033    2.704085
  S      1.172088   -1.492585    0.267926
  C     -0.161575   -1.240740    1.482531
  S     -1.802340   -1.643276    0.824007
  P     -2.141022    0.031515   -0.399551
  S     -0.891844    0.497544   -1.843862
  O     -2.348049    1.119484    0.730736
  C     -2.527848    2.517242    0.416418
  C     -2.370097    3.304064    1.699685
  O     -3.627694   -0.183922   -0.923184
  C     -3.915977   -0.859718   -2.159924
  C     -3.552298   -2.328756   -2.096737
  H      2.327194   -0.247804   -3.941841
  H      3.480382   -1.054171   -2.862022
  H      1.742430   -1.110519   -2.518862
  H      1.718613    1.329790   -2.098541
  H      3.448759    1.436447   -2.519063
  H      4.243435   -1.317047    0.652979
  H      5.136038   -0.365073    1.869501
  H      2.955864   -2.444679    2.438860
  H      4.683458   -2.613425    2.776819
  H      3.720232   -1.422990    3.666264
  H     -0.144443   -0.197430    1.806912
  H     -0.009623   -1.921214    2.316067
  H     -1.772532    2.808112   -0.321624
  H     -3.523983    2.640406   -0.015846
  H     -1.356401    3.190186    2.076498
  H     -2.559685    4.353239    1.499246
  H     -3.071670    2.941919    2.445303
  H     -4.987920   -0.711307   -2.295710
  H     -3.364022   -0.360135   -2.962799
  H     -2.472107   -2.438098   -2.002906
  H     -4.026401   -2.799074   -1.238958
  H     -3.878542   -2.820606   -3.007385

 Total Charge           Charge          ....    0
 Multiplicity           Mult            ....    1
 Number of Electrons    NEL             ....  202
 Basis Dimension        Dim             ....  334

ORBITAL ENERGIES
----------------

  NO   OCC          E(Eh)            E(eV)
   0   2.0000     -88.043726     -2395.7916
   1   2.0000     -88.040655     -2395.7080
   2   2.0000     -87.981418     -2394.0961
   3   2.0000     -87.979836     -2394.0531
   4   2.0000     -76.423100     -2079.5783
   5   2.0000     -76.422564     -2079.5637
   6   2.0000     -18.792426      -511.3679
   7   2.0000     -18.789785      -511.2960
   8   2.0000     -18.785098      -511.1685
   9   2.0000     -18.783675      -511.1298
  10   2.0000      -9.956072      -270.9185
  11   2.0000      -9.954721      -270.8817
  12   2.0000      -9.950049      -270.7546
  13   2.0000      -9.948540      -270.7135
  14   2.0000      -9.942403      -270.5466
  15   2.0000      -9.886658      -269.0296
  16   2.0000      -9.883586      -268.9460
  17   2.0000      -9.879744      -268.8415
  18   2.0000      -9.876176      -268.7444
  19   2.0000      -7.689333      -209.2374
  20   2.0000      -7.685331      -209.1285
  21   2.0000      -7.626202      -207.5195
  22   2.0000      -7.625023      -207.4874
  23   2.0000      -6.420596      -174.7133
  24   2.0000      -6.420283      -174.7048
  25   2.0000      -5.717247      -155.5742
  26   2.0000      -5.713857      -155.4820
  27   2.0000      -5.713140      -155.4624
  28   2.0000      -5.709960      -155.3759
  29   2.0000      -5.706138      -155.2719
  30   2.0000      -5.702296      -155.1674
  31   2.0000      -5.654932      -153.8785
  32   2.0000      -5.654040      -153.8543
  33   2.0000      -5.646845      -153.6585
  34   2.0000      -5.646513      -153.6494
  35   2.0000      -5.645810      -153.6303
  36   2.0000      -5.644820      -153.6034
  37   2.0000      -4.643396      -126.3532
  38   2.0000      -4.642857      -126.3386
  39   2.0000      -4.642411      -126.3264
  40   2.0000      -4.642028      -126.3160
  41   2.0000      -4.640816      -126.2830
  42   2.0000      -4.640739      -126.2809
  43   2.0000      -0.985140       -26.8070
  44   2.0000      -0.982561       -26.7369
  45   2.0000      -0.940743       -25.5989
  46   2.0000      -0.940716       -25.5982
  47   2.0000      -0.761876       -20.7317
  48   2.0000      -0.720217       -19.5981
  49   2.0000      -0.708220       -19.2716
  50   2.0000      -0.687282       -18.7019
  51   2.0000      -0.684179       -18.6175
  52   2.0000      -0.673079       -18.3154
  53   2.0000      -0.648463       -17.6456
  54   2.0000      -0.632003       -17.1977
  55   2.0000      -0.595716       -16.2102
  56   2.0000      -0.585583       -15.9345
  57   2.0000      -0.572961       -15.5911
  58   2.0000      -0.566204       -15.4072
  59   2.0000      -0.556088       -15.1319
  60   2.0000      -0.502516       -13.6741
  61   2.0000      -0.498215       -13.5571
  62   2.0000      -0.475686       -12.9441
  63   2.0000      -0.469734       -12.7821
  64   2.0000      -0.452348       -12.3090
  65   2.0000      -0.445792       -12.1306
  66   2.0000      -0.439637       -11.9631
  67   2.0000      -0.432954       -11.7813
  68   2.0000      -0.423816       -11.5326
  69   2.0000      -0.420299       -11.4369
  70   2.0000      -0.410254       -11.1636
  71   2.0000      -0.396822       -10.7981
  72   2.0000      -0.389615       -10.6020
  73   2.0000      -0.381157       -10.3718
  74   2.0000      -0.377026       -10.2594
  75   2.0000      -0.369287       -10.0488
  76   2.0000      -0.361688        -9.8420
  77   2.0000      -0.356367        -9.6973
  78   2.0000      -0.351635        -9.5685
  79   2.0000      -0.348386        -9.4801
  80   2.0000      -0.347279        -9.4499
  81   2.0000      -0.345359        -9.3977
  82   2.0000      -0.335920        -9.1409
  83   2.0000      -0.332110        -9.0372
  84   2.0000      -0.327415        -8.9094
  85   2.0000      -0.314023        -8.5450
  86   2.0000      -0.309633        -8.4255
  87   2.0000      -0.296671        -8.0728
  88   2.0000      -0.294416        -8.0115
  89   2.0000      -0.288865        -7.8604
  90   2.0000      -0.284249        -7.7348
  91   2.0000      -0.272079        -7.4036
  92   2.0000      -0.267977        -7.2920
  93   2.0000      -0.260334        -7.0840
  94   2.0000      -0.258757        -7.0411
  95   2.0000      -0.240936        -6.5562
  96   2.0000      -0.223894        -6.0925
  97   2.0000      -0.204958        -5.5772
  98   2.0000      -0.200132        -5.4459
  99   2.0000      -0.192121        -5.2279
 100   2.0000      -0.182609        -4.9690
 101   0.0000      -0.040419        -1.0999
 102   0.0000      -0.032359        -0.8805
 103   0.0000      -0.013977        -0.3803
 104   0.0000       0.001753         0.0477
 105   0.0000       0.021532         0.5859

MULLIKEN ATOMIC CHARGES
-----------------------
   0 C :   -0.310435
   1 C :   -0.011820
   2 O :   -0.379255
   3 P :    0.607456
   4 S :   -0.309496
   5 O :   -0.358917
   6 C :   -0.008439
   7 C :   -0.288910
   8 S :   -0.104843
   9 C :   -0.349794
  10 S :   -0.083188
  11 P :    0.627599
  12 S :   -0.337609
  13 O :   -0.368624
  14 C :   -0.005714
  15 C :   -0.288026
  16 O :   -0.377350
  17 C :   -0.002251
  18 C :   -0.323781
  19 H :    0.111355
  20 H :    0.108609
  21 H :    0.140064
  22 H :    0.128944
  23 H :    0.104597
  24 H :    0.102918
  25 H :    0.111168
  26 H :    0.115490
  27 H :    0.108673
  28 H :    0.119662
  29 H :    0.198460
  30 H :    0.181904
  31 H :    0.113307
  32 H :    0.098239
  33 H :    0.133703
  34 H :    0.106736
  35 H :    0.112107
  36 H :    0.104326
  37 H :    0.110682
  38 H :    0.129326
  39 H :    0.119268
  40 H :    0.113858
Sum of atomic charges:    0.0000000

LOEWDIN ATOMIC CHARGES
----------------------
   0 C :   -0.365512
   1 C :   -0.114650
   2 O :   -0.241642
   3 P :    0.568650
   4 S :   -0.298307
   5 O :   -0.242378
   6 C :   -0.113449
   7 C :   -0.360080
   8 S :    0.068623
   9 C :   -0.478412
  10 S :    0.094391
  11 P :    0.572245
  12 S :   -0.316620
  13 O :   -0.240571
  14 C :   -0.117936
  15 C :   -0.352921
  16 O :   -0.246172
  17 C :   -0.121202
  18 C :   -0.371365
  19 H :    0.131903
  20 H :    0.121736
  21 H :    0.122084
  22 H :    0.110633
  23 H :    0.118697
  24 H :    0.107022
  25 H :    0.121889
  26 H :    0.118577
  27 H :    0.129283
  28 H :    0.128758
  29 H :    0.125667
  30 H :    0.135203
  31 H :    0.110180
  32 H :    0.109571
  33 H :    0.126180
  34 H :    0.129006
  35 H :    0.125218
  36 H :    0.118276
  37 H :    0.109604
  38 H :    0.121922
  39 H :    0.124265
  40 H :    0.131632

  Mayer bond orders larger than 0.100000
B(  0-C ,  1-C ) :   1.1719 B(  0-C , 19-H ) :   0.9399 B(  0-C , 20-H ) :   0.9472
B(  0-C , 21-H ) :   0.9309 B(  1-C ,  2-O ) :   0.8947 B(  1-C , 22-H ) :   0.9048
B(  1-C , 23-H ) :   0.9338 B(  2-O ,  3-P ) :   1.1123 B(  3-P ,  4-S ) :   1.6382
B(  3-P ,  5-O ) :   1.1298 B(  3-P ,  8-S ) :   0.9382 B(  4-S ,  8-S ) :   0.1135
B(  5-O ,  6-C ) :   0.8922 B(  6-C ,  7-C ) :   1.1634 B(  6-C , 24-H ) :   0.9174
B(  6-C , 25-H ) :   0.9345 B(  7-C , 26-H ) :   0.9382 B(  7-C , 27-H ) :   0.9402
B(  7-C , 28-H ) :   0.9464 B(  8-S ,  9-C ) :   0.9884 B(  9-C , 10-S ) :   1.0044
B(  9-C , 29-H ) :   0.8528 B(  9-C , 30-H ) :   0.9104 B( 10-S , 11-P ) :   0.9678
B( 10-S , 12-S ) :   0.1179 B( 11-P , 12-S ) :   1.6192 B( 11-P , 13-O ) :   1.1314
B( 11-P , 16-O ) :   1.1025 B( 13-O , 14-C ) :   0.8922 B( 14-C , 15-C ) :   1.1654
B( 14-C , 31-H ) :   0.9104 B( 14-C , 32-H ) :   0.9306 B( 15-C , 33-H ) :   0.9437
B( 15-C , 34-H ) :   0.9410 B( 15-C , 35-H ) :   0.9493 B( 16-O , 17-C ) :   0.9090
B( 17-C , 18-C ) :   1.1641 B( 17-C , 36-H ) :   0.9329 B( 17-C , 37-H ) :   0.9128
B( 18-C , 38-H ) :   0.9331 B( 18-C , 39-H ) :   0.9444 B( 18-C , 40-H ) :   0.9381

Dispersion correction           -0.066293112
FINAL SINGLE POINT ENERGY     -2929.517611739138

DIPOLE MOMENT
-------------

Method             : SCF
Type of density    : Electron Density
Multiplicity       :   1
Irrep              :   0
Energy             : -2929.6354889432541313 Eh
Relativity type    :
Basis              : AO
                                X                 Y                 Z
Electronic contribution:     -2.030184092       2.467505535       3.769007661
Nuclear contribution   :      2.165036403      -3.261818441      -4.059663009
                        -----------------------------------------
Total Dipole Moment    :      0.134852311      -0.794312906      -0.290655349
                        -----------------------------------------
Magnitude (a.u.)       :      0.856503748
Magnitude (Debye)      :      2.177059514

Rotational constants in cm-1:             0.011221             0.005371             0.005099
Rotational constants in MHz :           336.404747           161.013037           152.876867

                             ****ORCA TERMINATED NORMALLY****
TOTAL RUN TIME: 0 days 0 hours 0 minutes 21 seconds 65 msec
