                         Program Version 6.0.0  -   RELEASE  -
|  1> ! r2scan-3c def2/J RI DEFGRID2 scfconv6 printgap
|  2> %output
|  3>     printlevel normal
|  4> end
|  5> * xyz 0 1
|  6> C 5.4790292008 -1.2843765578 -1.5743258947
|  7> C 4.0484340497 -1.5852294958 -1.9775254429
|  8> O 3.2075827877 -1.7327448523 -0.8141774389
|  9> P 2.3436501442 -0.53363074 -0.2269535963
| 10> S 3.3167493714 1.1306557897 0.1495455833
| 11> O 1.6678029117 -1.2510221596 1.0118483465
| 12> C 2.2362090462 -1.2071451462 2.3427067921
| 13> C 1.4754408669 -0.2238566491 3.2094214095
| 14> S 0.7323224442 -0.3987251999 -1.5811092322
| 15> C 0.1624908839 1.2483957089 -1.0736711217
| 16> S -0.534965262 1.2698277618 0.5954889653
| 17> P -2.4698246653 0.4733430364 0.1629141725
| 18> S -3.0204226754 0.6317227052 -1.7176612003
| 19> O -3.4152727372 1.2044519403 1.1946620888
| 20> C -3.9656728256 2.5100077997 0.9298696439
| 21> C -5.3468690545 2.5765721933 1.5509893383
| 22> O -2.5543531472 -0.93401703 0.8771295118
| 23> C -1.7229406146 -2.0752209085 0.607249588
| 24> C -2.0301278174 -2.7118001544 -0.7339002526
| 25> H 5.8512948098 -2.0610957959 -0.9122786356
| 26> H 6.0994325078 -1.2420914047 -2.4636845828
| 27> H 5.5326511412 -0.3276803487 -1.0593209891
| 28> H 3.9731358926 -2.5437507079 -2.4941516316
| 29> H 3.646115025 -0.7947750134 -2.6172570307
| 30> H 2.1477868087 -2.2277473569 2.7177794163
| 31> H 3.2912044155 -0.9290669842 2.2743149277
| 32> H 1.8682086405 -0.2612223764 4.2203365098
| 33> H 1.5887271375 0.7858403765 2.8197487368
| 34> H 0.4172697257 -0.4713231764 3.2242726236
| 35> H -0.6009576285 1.546223643 -1.793313654
| 36> H 1.0067737409 1.936937969 -1.0687665594
| 37> H -3.2939447658 3.2495675129 1.3729372948
| 38> H -4.0123705373 2.6655087027 -0.1540638483
| 39> H -5.9985233112 1.8391969412 1.0903102138
| 40> H -5.2835583527 2.3730561715 2.6158646164
| 41> H -5.7606050101 3.5676045817 1.3959082107
| 42> H -0.6707140313 -1.7803685888 0.6672499819
| 43> H -1.9539613168 -2.756891127 1.4284122495
| 44> H -1.7658736794 -2.0390503404 -1.5479336184
| 45> H -1.4524687202 -3.6250154798 -0.8353844788
| 46> H -3.0896285832 -2.9443994009 -0.8043669381
| 47> *
| 48>
| 49>                          ****END OF INPUT****

CARTESIAN COORDINATES (ANGSTROEM)
---------------------------------
  C      5.479029   -1.284377   -1.574326
  C      4.048434   -1.585229   -1.977525
  O      3.207583   -1.732745   -0.814177
  P      2.343650   -0.533631   -0.226954
  S      3.316749    1.130656    0.149546
  O      1.667803   -1.251022    1.011848
  C      2.236209   -1.207145    2.342707
  C      1.475441   -0.223857    3.209421
  S      0.732322   -0.398725   -1.581109
  C      0.162491    1.248396   -1.073671
  S     -0.534965    1.269828    0.595489
  P     -2.469825    0.473343    0.162914
  S     -3.020423    0.631723   -1.717661
  O     -3.415273    1.204452    1.194662
  C     -3.965673    2.510008    0.929870
  C     -5.346869    2.576572    1.550989
  O     -2.554353   -0.934017    0.877130
  C     -1.722941   -2.075221    0.607250
  C     -2.030128   -2.711800   -0.733900
  H      5.851295   -2.061096   -0.912279
  H      6.099433   -1.242091   -2.463685
  H      5.532651   -0.327680   -1.059321
  H      3.973136   -2.543751   -2.494152
  H      3.646115   -0.794775   -2.617257
  H      2.147787   -2.227747    2.717779
  H      3.291204   -0.929067    2.274315
  H      1.868209   -0.261222    4.220337
  H      1.588727    0.785840    2.819749
  H      0.417270   -0.471323    3.224273
  H     -0.600958    1.546224   -1.793314
  H      1.006774    1.936938   -1.068767
  H     -3.293945    3.249568    1.372937
  H     -4.012371    2.665509   -0.154064
  H     -5.998523    1.839197    1.090310
  H     -5.283558    2.373056    2.615865
  H     -5.760605    3.567605    1.395908
  H     -0.670714   -1.780369    0.667250
  H     -1.953961   -2.756891    1.428412
  H     -1.765874   -2.039050   -1.547934
  H     -1.452469   -3.625015   -0.835384
  H     -3.089629   -2.944399   -0.804367

 Total Charge           Charge          ....    0
 Multiplicity           Mult            ....    1
 Number of Electrons    NEL             ....  202
 Basis Dimension        Dim             ....  539

ORBITAL ENERGIES
----------------

  NO   OCC          E(Eh)            E(eV)
   0   2.0000     -88.580548     -2410.3993
   1   2.0000     -88.575916     -2410.2732
   2   2.0000     -88.526039     -2408.9160
   3   2.0000     -88.521810     -2408.8009
   4   2.0000     -76.919290     -2093.0803
   5   2.0000     -76.913943     -2092.9348
   6   2.0000     -18.995868      -516.9039
   7   2.0000     -18.994502      -516.8667
   8   2.0000     -18.989683      -516.7356
   9   2.0000     -18.989232      -516.7233
  10   2.0000     -10.104507      -274.9576
  11   2.0000     -10.103817      -274.9388
  12   2.0000     -10.102761      -274.9101
  13   2.0000     -10.095989      -274.7258
  14   2.0000     -10.093894      -274.6688
  15   2.0000     -10.029591      -272.9191
  16   2.0000     -10.028819      -272.8980
  17   2.0000     -10.027900      -272.8730
  18   2.0000     -10.019913      -272.6557
  19   2.0000      -7.874819      -214.2847
  20   2.0000      -7.869973      -214.1528
  21   2.0000      -7.820847      -212.8161
  22   2.0000      -7.816634      -212.7014
  23   2.0000      -6.597681      -179.5320
  24   2.0000      -6.592351      -179.3870
  25   2.0000      -5.821618      -158.4143
  26   2.0000      -5.818620      -158.3327
  27   2.0000      -5.816874      -158.2852
  28   2.0000      -5.813695      -158.1987
  29   2.0000      -5.812077      -158.1547
  30   2.0000      -5.807255      -158.0235
  31   2.0000      -5.768474      -156.9681
  32   2.0000      -5.764256      -156.8534
  33   2.0000      -5.761190      -156.7699
  34   2.0000      -5.760809      -156.7596
  35   2.0000      -5.756901      -156.6533
  36   2.0000      -5.756670      -156.6470
  37   2.0000      -4.743139      -129.0674
  38   2.0000      -4.742642      -129.0539
  39   2.0000      -4.741436      -129.0210
  40   2.0000      -4.737734      -128.9203
  41   2.0000      -4.737527      -128.9147
  42   2.0000      -4.735964      -128.8721
  43   2.0000      -1.053681       -28.6721
  44   2.0000      -1.051503       -28.6129
  45   2.0000      -1.013828       -27.5877
  46   2.0000      -1.008084       -27.4314
  47   2.0000      -0.802937       -21.8490
  48   2.0000      -0.761006       -20.7080
  49   2.0000      -0.751836       -20.4585
  50   2.0000      -0.732629       -19.9358
  51   2.0000      -0.725448       -19.7405
  52   2.0000      -0.712033       -19.3754
  53   2.0000      -0.687029       -18.6950
  54   2.0000      -0.671794       -18.2804
  55   2.0000      -0.629824       -17.1384
  56   2.0000      -0.625174       -17.0118
  57   2.0000      -0.609618       -16.5886
  58   2.0000      -0.595271       -16.1981
  59   2.0000      -0.593364       -16.1463
  60   2.0000      -0.535559       -14.5733
  61   2.0000      -0.524761       -14.2795
  62   2.0000      -0.499712       -13.5979
  63   2.0000      -0.489851       -13.3295
  64   2.0000      -0.476116       -12.9558
  65   2.0000      -0.462561       -12.5869
  66   2.0000      -0.456589       -12.4244
  67   2.0000      -0.453807       -12.3487
  68   2.0000      -0.445687       -12.1278
  69   2.0000      -0.430701       -11.7200
  70   2.0000      -0.424383       -11.5480
  71   2.0000      -0.421053       -11.4574
  72   2.0000      -0.416073       -11.3219
  73   2.0000      -0.401399       -10.9226
  74   2.0000      -0.392872       -10.6906
  75   2.0000      -0.388830       -10.5806
  76   2.0000      -0.383683       -10.4405
  77   2.0000      -0.375975       -10.2308
  78   2.0000      -0.368973       -10.0403
  79   2.0000      -0.366366        -9.9693
  80   2.0000      -0.362386        -9.8610
  81   2.0000      -0.357379        -9.7248
  82   2.0000      -0.354517        -9.6469
  83   2.0000      -0.350164        -9.5285
  84   2.0000      -0.347616        -9.4591
  85   2.0000      -0.334642        -9.1061
  86   2.0000      -0.321558        -8.7500
  87   2.0000      -0.316454        -8.6112
  88   2.0000      -0.313359        -8.5269
  89   2.0000      -0.310367        -8.4455
  90   2.0000      -0.302590        -8.2339
  91   2.0000      -0.295532        -8.0418
  92   2.0000      -0.282535        -7.6882
  93   2.0000      -0.281250        -7.6532
  94   2.0000      -0.272663        -7.4195
  95   2.0000      -0.251505        -6.8438
  96   2.0000      -0.233834        -6.3630
  97   2.0000      -0.228353        -6.2138
  98   2.0000      -0.220621        -6.0034
  99   2.0000      -0.218430        -5.9438
 100   2.0000      -0.215033        -5.8513
 101   0.0000      -0.050628        -1.3777
 102   0.0000      -0.030848        -0.8394
 103   0.0000      -0.008247        -0.2244
 104   0.0000      -0.002599        -0.0707
 105   0.0000       0.010988         0.2990

MULLIKEN ATOMIC CHARGES
-----------------------
   0 C :   -0.451007
   1 C :   -0.130826
   2 O :   -0.297342
   3 P :    0.657683
   4 S :   -0.470349
   5 O :   -0.269054
   6 C :   -0.120786
   7 C :   -0.461297
   8 S :   -0.135032
   9 C :   -0.240053
  10 S :   -0.134013
  11 P :    0.696782
  12 S :   -0.471024
  13 O :   -0.306601
  14 C :   -0.134756
  15 C :   -0.443543
  16 O :   -0.275670
  17 C :   -0.166068
  18 C :   -0.422439
  19 H :    0.151461
  20 H :    0.145860
  21 H :    0.180269
  22 H :    0.151178
  23 H :    0.153083
  24 H :    0.149842
  25 H :    0.159479
  26 H :    0.144509
  27 H :    0.177975
  28 H :    0.157043
  29 H :    0.216905
  30 H :    0.216956
  31 H :    0.150155
  32 H :    0.166684
  33 H :    0.159596
  34 H :    0.153217
  35 H :    0.145271
  36 H :    0.180240
  37 H :    0.147217
  38 H :    0.171078
  39 H :    0.145337
  40 H :    0.152036
Sum of atomic charges:    0.0000000

LOEWDIN ATOMIC CHARGES
----------------------
   0 C :   -0.400577
   1 C :    0.022657
   2 O :   -0.659827
   3 P :    0.372372
   4 S :   -0.128095
   5 O :   -0.685520
   6 C :    0.025189
   7 C :   -0.402487
   8 S :    0.163120
   9 C :   -0.426684
  10 S :    0.157159
  11 P :    0.388414
  12 S :   -0.132626
  13 O :   -0.654434
  14 C :    0.021524
  15 C :   -0.386031
  16 O :   -0.644121
  17 C :    0.021410
  18 C :   -0.409288
  19 H :    0.158330
  20 H :    0.158606
  21 H :    0.168493
  22 H :    0.179016
  23 H :    0.175962
  24 H :    0.177600
  25 H :    0.178487
  26 H :    0.157942
  27 H :    0.167136
  28 H :    0.160182
  29 H :    0.193999
  30 H :    0.191306
  31 H :    0.171732
  32 H :    0.180932
  33 H :    0.161827
  34 H :    0.159535
  35 H :    0.159174
  36 H :    0.192130
  37 H :    0.179635
  38 H :    0.166063
  39 H :    0.159070
  40 H :    0.160684

  Mayer bond orders larger than 0.100000
B(  0-C ,  1-C ) :   0.9579 B(  0-C , 19-H ) :   0.9749 B(  0-C , 20-H ) :   0.9645
B(  0-C , 21-H ) :   0.9571 B(  1-C ,  2-O ) :   0.7744 B(  1-C , 22-H ) :   0.9633
B(  1-C , 23-H ) :   0.9618 B(  2-O ,  3-P ) :   1.0756 B(  3-P ,  4-S ) :   1.7557
B(  3-P ,  5-O ) :   1.1562 B(  3-P ,  8-S ) :   1.1020 B(  5-O ,  6-C ) :   0.7560
B(  6-C ,  7-C ) :   0.9502 B(  6-C , 24-H ) :   0.9597 B(  6-C , 25-H ) :   0.9646
B(  7-C , 26-H ) :   0.9627 B(  7-C , 27-H ) :   0.9632 B(  7-C , 28-H ) :   0.9677
B(  8-S ,  9-C ) :   0.9001 B(  9-C , 10-S ) :   0.9112 B(  9-C , 29-H ) :   0.8994
B(  9-C , 30-H ) :   0.9086 B( 10-S , 11-P ) :   1.0273 B( 11-P , 12-S ) :   1.7457
B( 11-P , 13-O ) :   1.1373 B( 11-P , 16-O ) :   1.1608 B( 13-O , 14-C ) :   0.7699
B( 14-C , 15-C ) :   0.9634 B( 14-C , 31-H ) :   0.9490 B( 14-C , 32-H ) :   0.9527
B( 15-C , 33-H ) :   0.9711 B( 15-C , 34-H ) :   0.9720 B( 15-C , 35-H ) :   0.9653
B( 16-O , 17-C ) :   0.7990 B( 17-C , 18-C ) :   0.9303 B( 17-C , 36-H ) :   0.9503
B( 17-C , 37-H ) :   0.9636 B( 18-C , 38-H ) :   0.9524 B( 18-C , 39-H ) :   0.9660
B( 18-C , 40-H ) :   0.9688

Dispersion correction           -0.021305500
FINAL SINGLE POINT ENERGY     -2932.465425270270

DIPOLE MOMENT
-------------

Method             : SCF
Type of density    : Electron Density
Multiplicity       :   1
Irrep              :   0
Energy             : -2932.4906757481030581 Eh
Relativity type    :
Basis              : AO
                                X                 Y                 Z
Electronic contribution:     -1.027651491       5.148799356      -7.168542558
Nuclear contribution   :      1.527019849      -5.729615981       7.742004676
                        -----------------------------------------
Total Dipole Moment    :      0.499368359      -0.580816625       0.573462118
                        -----------------------------------------
Magnitude (a.u.)       :      0.956857100
Magnitude (Debye)      :      2.432137462

Rotational constants in cm-1:             0.014120             0.004424             0.004244
Rotational constants in MHz :           423.306498           132.617195           127.246288

                             ****ORCA TERMINATED NORMALLY****
TOTAL RUN TIME: 0 days 0 hours 1 minutes 17 seconds 923 msec
