                         Program Version 6.0.0  -   RELEASE  -
|  1> ! r2scan-3c def2/J RI DEFGRID2 scfconv6 printgap
|  2> %output
|  3>     printlevel normal
|  4> end
|  5> %cpcm
|  6>     smd true
|  7>     smdsolvent "water"
|  8> end
|  9> * xyz 0 1
| 10> C 5.4790292008 -1.2843765578 -1.5743258947
| 11> C 4.0484340497 -1.5852294958 -1.9775254429
| 12> O 3.2075827877 -1.7327448523 -0.8141774389
| 13> P 2.3436501442 -0.53363074 -0.2269535963
| 14> S 3.3167493714 1.1306557897 0.1495455833
| 15> O 1.6678029117 -1.2510221596 1.0118483465
| 16> C 2.2362090462 -1.2071451462 2.3427067921
| 17> C 1.4754408669 -0.2238566491 3.2094214095
| 18> S 0.7323224442 -0.3987251999 -1.5811092322
| 19> C 0.1624908839 1.2483957089 -1.0736711217
| 20> S -0.534965262 1.2698277618 0.5954889653
| 21> P -2.4698246653 0.4733430364 0.1629141725
| 22> S -3.0204226754 0.6317227052 -1.7176612003
| 23> O -3.4152727372 1.2044519403 1.1946620888
| 24> C -3.9656728256 2.5100077997 0.9298696439
| 25> C -5.3468690545 2.5765721933 1.5509893383
| 26> O -2.5543531472 -0.93401703 0.8771295118
| 27> C -1.7229406146 -2.0752209085 0.607249588
| 28> C -2.0301278174 -2.7118001544 -0.7339002526
| 29> H 5.8512948098 -2.0610957959 -0.9122786356
| 30> H 6.0994325078 -1.2420914047 -2.4636845828
| 31> H 5.5326511412 -0.3276803487 -1.0593209891
| 32> H 3.9731358926 -2.5437507079 -2.4941516316
| 33> H 3.646115025 -0.7947750134 -2.6172570307
| 34> H 2.1477868087 -2.2277473569 2.7177794163
| 35> H 3.2912044155 -0.9290669842 2.2743149277
| 36> H 1.8682086405 -0.2612223764 4.2203365098
| 37> H 1.5887271375 0.7858403765 2.8197487368
| 38> H 0.4172697257 -0.4713231764 3.2242726236
| 39> H -0.6009576285 1.546223643 -1.793313654
| 40> H 1.0067737409 1.936937969 -1.0687665594
| 41> H -3.2939447658 3.2495675129 1.3729372948
| 42> H -4.0123705373 2.6655087027 -0.1540638483
| 43> H -5.9985233112 1.8391969412 1.0903102138
| 44> H -5.2835583527 2.3730561715 2.6158646164
| 45> H -5.7606050101 3.5676045817 1.3959082107
| 46> H -0.6707140313 -1.7803685888 0.6672499819
| 47> H -1.9539613168 -2.756891127 1.4284122495
| 48> H -1.7658736794 -2.0390503404 -1.5479336184
| 49> H -1.4524687202 -3.6250154798 -0.8353844788
| 50> H -3.0896285832 -2.9443994009 -0.8043669381
| 51> *
| 52>
| 53>                          ****END OF INPUT****

CARTESIAN COORDINATES (ANGSTROEM)
---------------------------------
  C      5.479029   -1.284377   -1.574326
  C      4.048434   -1.585229   -1.977525
  O      3.207583   -1.732745   -0.814177
  P      2.343650   -0.533631   -0.226954
  S      3.316749    1.130656    0.149546
  O      1.667803   -1.251022    1.011848
  C      2.236209   -1.207145    2.342707
  C      1.475441   -0.223857    3.209421
  S      0.732322   -0.398725   -1.581109
  C      0.162491    1.248396   -1.073671
  S     -0.534965    1.269828    0.595489
  P     -2.469825    0.473343    0.162914
  S     -3.020423    0.631723   -1.717661
  O     -3.415273    1.204452    1.194662
  C     -3.965673    2.510008    0.929870
  C     -5.346869    2.576572    1.550989
  O     -2.554353   -0.934017    0.877130
  C     -1.722941   -2.075221    0.607250
  C     -2.030128   -2.711800   -0.733900
  H      5.851295   -2.061096   -0.912279
  H      6.099433   -1.242091   -2.463685
  H      5.532651   -0.327680   -1.059321
  H      3.973136   -2.543751   -2.494152
  H      3.646115   -0.794775   -2.617257
  H      2.147787   -2.227747    2.717779
  H      3.291204   -0.929067    2.274315
  H      1.868209   -0.261222    4.220337
  H      1.588727    0.785840    2.819749
  H      0.417270   -0.471323    3.224273
  H     -0.600958    1.546224   -1.793314
  H      1.006774    1.936938   -1.068767
  H     -3.293945    3.249568    1.372937
  H     -4.012371    2.665509   -0.154064
  H     -5.998523    1.839197    1.090310
  H     -5.283558    2.373056    2.615865
  H     -5.760605    3.567605    1.395908
  H     -0.670714   -1.780369    0.667250
  H     -1.953961   -2.756891    1.428412
  H     -1.765874   -2.039050   -1.547934
  H     -1.452469   -3.625015   -0.835384
  H     -3.089629   -2.944399   -0.804367

 Total Charge           Charge          ....    0
 Multiplicity           Mult            ....    1
 Number of Electrons    NEL             ....  202
 Basis Dimension        Dim             ....  539

ORBITAL ENERGIES
----------------

  NO   OCC          E(Eh)            E(eV)
   0   2.0000     -88.582158     -2410.4431
   1   2.0000     -88.580116     -2410.3875
   2   2.0000     -88.530829     -2409.0463
   3   2.0000     -88.529525     -2409.0109
   4   2.0000     -76.921043     -2093.1280
   5   2.0000     -76.920859     -2093.1230
   6   2.0000     -18.996188      -516.9126
   7   2.0000     -18.995471      -516.8931
   8   2.0000     -18.995384      -516.8907
   9   2.0000     -18.992837      -516.8214
  10   2.0000     -10.104420      -274.9553
  11   2.0000     -10.091513      -274.6040
  12   2.0000     -10.090615      -274.5796
  13   2.0000     -10.089848      -274.5587
  14   2.0000     -10.089683      -274.5542
  15   2.0000     -10.019155      -272.6351
  16   2.0000     -10.016840      -272.5721
  17   2.0000     -10.016701      -272.5683
  18   2.0000     -10.016157      -272.5535
  19   2.0000      -7.876484      -214.3300
  20   2.0000      -7.874149      -214.2665
  21   2.0000      -7.825906      -212.9537
  22   2.0000      -7.824591      -212.9179
  23   2.0000      -6.599560      -179.5832
  24   2.0000      -6.599269      -179.5752
  25   2.0000      -5.823275      -158.4594
  26   2.0000      -5.821069      -158.3993
  27   2.0000      -5.820289      -158.3781
  28   2.0000      -5.817872      -158.3124
  29   2.0000      -5.813741      -158.1999
  30   2.0000      -5.811422      -158.1368
  31   2.0000      -5.773468      -157.1040
  32   2.0000      -5.772167      -157.0687
  33   2.0000      -5.766157      -156.9051
  34   2.0000      -5.765971      -156.9001
  35   2.0000      -5.764930      -156.8717
  36   2.0000      -5.764561      -156.8617
  37   2.0000      -4.744923      -129.1159
  38   2.0000      -4.744726      -129.1106
  39   2.0000      -4.744676      -129.1092
  40   2.0000      -4.744218      -129.0967
  41   2.0000      -4.743209      -129.0693
  42   2.0000      -4.743114      -129.0667
  43   2.0000      -1.057788       -28.7839
  44   2.0000      -1.052324       -28.6352
  45   2.0000      -1.013473       -27.5780
  46   2.0000      -1.011692       -27.5295
  47   2.0000      -0.804471       -21.8908
  48   2.0000      -0.758418       -20.6376
  49   2.0000      -0.746566       -20.3151
  50   2.0000      -0.721992       -19.6464
  51   2.0000      -0.720581       -19.6080
  52   2.0000      -0.711471       -19.3601
  53   2.0000      -0.690240       -18.7824
  54   2.0000      -0.676617       -18.4117
  55   2.0000      -0.628753       -17.1092
  56   2.0000      -0.621902       -16.9228
  57   2.0000      -0.602113       -16.3843
  58   2.0000      -0.592045       -16.1104
  59   2.0000      -0.589367       -16.0375
  60   2.0000      -0.531089       -14.4517
  61   2.0000      -0.521960       -14.2032
  62   2.0000      -0.493313       -13.4237
  63   2.0000      -0.491148       -13.3648
  64   2.0000      -0.476524       -12.9669
  65   2.0000      -0.456248       -12.4151
  66   2.0000      -0.455653       -12.3989
  67   2.0000      -0.449916       -12.2428
  68   2.0000      -0.441025       -12.0009
  69   2.0000      -0.429915       -11.6986
  70   2.0000      -0.423741       -11.5306
  71   2.0000      -0.417505       -11.3609
  72   2.0000      -0.413453       -11.2506
  73   2.0000      -0.397157       -10.8072
  74   2.0000      -0.391101       -10.6424
  75   2.0000      -0.385140       -10.4802
  76   2.0000      -0.381681       -10.3861
  77   2.0000      -0.371091       -10.0979
  78   2.0000      -0.362374        -9.8607
  79   2.0000      -0.357176        -9.7193
  80   2.0000      -0.356039        -9.6883
  81   2.0000      -0.351063        -9.5529
  82   2.0000      -0.350594        -9.5401
  83   2.0000      -0.347202        -9.4478
  84   2.0000      -0.343526        -9.3478
  85   2.0000      -0.332929        -9.0595
  86   2.0000      -0.318425        -8.6648
  87   2.0000      -0.312125        -8.4933
  88   2.0000      -0.309211        -8.4141
  89   2.0000      -0.307202        -8.3594
  90   2.0000      -0.300906        -8.1881
  91   2.0000      -0.291369        -7.9286
  92   2.0000      -0.282550        -7.6886
  93   2.0000      -0.281445        -7.6585
  94   2.0000      -0.276698        -7.5293
  95   2.0000      -0.253104        -6.8873
  96   2.0000      -0.238815        -6.4985
  97   2.0000      -0.235202        -6.4002
  98   2.0000      -0.225932        -6.1479
  99   2.0000      -0.223802        -6.0900
 100   2.0000      -0.222448        -6.0531
 101   0.0000      -0.055022        -1.4972
 102   0.0000      -0.035727        -0.9722
 103   0.0000      -0.012211        -0.3323
 104   0.0000      -0.005691        -0.1549
 105   0.0000       0.009909         0.2696

MULLIKEN ATOMIC CHARGES
-----------------------
   0 C :   -0.490172
   1 C :   -0.126233
   2 O :   -0.325205
   3 P :    0.690180
   4 S :   -0.513154
   5 O :   -0.288784
   6 C :   -0.119216
   7 C :   -0.495181
   8 S :   -0.143410
   9 C :   -0.249207
  10 S :   -0.137711
  11 P :    0.716410
  12 S :   -0.508741
  13 O :   -0.335732
  14 C :   -0.128874
  15 C :   -0.484888
  16 O :   -0.306498
  17 C :   -0.151870
  18 C :   -0.469938
  19 H :    0.166826
  20 H :    0.169845
  21 H :    0.171075
  22 H :    0.176741
  23 H :    0.164408
  24 H :    0.175647
  25 H :    0.170545
  26 H :    0.168422
  27 H :    0.169385
  28 H :    0.167185
  29 H :    0.230591
  30 H :    0.237389
  31 H :    0.172478
  32 H :    0.168898
  33 H :    0.166202
  34 H :    0.165900
  35 H :    0.169442
  36 H :    0.178006
  37 H :    0.176526
  38 H :    0.165516
  39 H :    0.172318
  40 H :    0.164880
Sum of atomic charges:    0.0000000

LOEWDIN ATOMIC CHARGES
----------------------
   0 C :   -0.405053
   1 C :    0.027581
   2 O :   -0.672482
   3 P :    0.377669
   4 S :   -0.154800
   5 O :   -0.692574
   6 C :    0.030917
   7 C :   -0.406042
   8 S :    0.158888
   9 C :   -0.420837
  10 S :    0.157984
  11 P :    0.389388
  12 S :   -0.159589
  13 O :   -0.672087
  14 C :    0.026061
  15 C :   -0.390331
  16 O :   -0.660969
  17 C :    0.026831
  18 C :   -0.414243
  19 H :    0.162447
  20 H :    0.167541
  21 H :    0.162714
  22 H :    0.189864
  23 H :    0.180182
  24 H :    0.188757
  25 H :    0.181925
  26 H :    0.166346
  27 H :    0.161746
  28 H :    0.162268
  29 H :    0.198405
  30 H :    0.197506
  31 H :    0.180985
  32 H :    0.182202
  33 H :    0.162264
  34 H :    0.162945
  35 H :    0.168711
  36 H :    0.192318
  37 H :    0.191846
  38 H :    0.161242
  39 H :    0.168852
  40 H :    0.162625

  Mayer bond orders larger than 0.100000
B(  0-C ,  1-C ) :   0.9472 B(  0-C , 19-H ) :   0.9722 B(  0-C , 20-H ) :   0.9595
B(  0-C , 21-H ) :   0.9613 B(  1-C ,  2-O ) :   0.7622 B(  1-C , 22-H ) :   0.9533
B(  1-C , 23-H ) :   0.9554 B(  2-O ,  3-P ) :   1.0799 B(  3-P ,  4-S ) :   1.7215
B(  3-P ,  5-O ) :   1.1657 B(  3-P ,  8-S ) :   1.1080 B(  5-O ,  6-C ) :   0.7445
B(  6-C ,  7-C ) :   0.9379 B(  6-C , 24-H ) :   0.9493 B(  6-C , 25-H ) :   0.9625
B(  7-C , 26-H ) :   0.9587 B(  7-C , 27-H ) :   0.9658 B(  7-C , 28-H ) :   0.9660
B(  8-S ,  9-C ) :   0.8968 B(  9-C , 10-S ) :   0.9044 B(  9-C , 29-H ) :   0.8965
B(  9-C , 30-H ) :   0.9027 B( 10-S , 11-P ) :   1.0434 B( 11-P , 12-S ) :   1.7242
B( 11-P , 13-O ) :   1.1382 B( 11-P , 16-O ) :   1.1588 B( 13-O , 14-C ) :   0.7622
B( 14-C , 15-C ) :   0.9570 B( 14-C , 31-H ) :   0.9399 B( 14-C , 32-H ) :   0.9491
B( 15-C , 33-H ) :   0.9697 B( 15-C , 34-H ) :   0.9693 B( 15-C , 35-H ) :   0.9592
B( 16-O , 17-C ) :   0.7917 B( 17-C , 18-C ) :   0.9135 B( 17-C , 36-H ) :   0.9482
B( 17-C , 37-H ) :   0.9542 B( 18-C , 38-H ) :   0.9548 B( 18-C , 39-H ) :   0.9603
B( 18-C , 40-H ) :   0.9693

Dispersion correction           -0.021305500
FINAL SINGLE POINT ENERGY     -2932.471213388960

DIPOLE MOMENT
-------------

Method             : SCF
Type of density    : Electron Density
Multiplicity       :   1
Irrep              :   0
Energy             : -2932.4964638667929648 Eh
Relativity type    :
Basis              : AO
                                X                 Y                 Z
Electronic contribution:     -0.767267902       4.986522765      -7.060373691
Nuclear contribution   :      1.527019849      -5.729615981       7.742004676
                        -----------------------------------------
Total Dipole Moment    :      0.759751947      -0.743093216       0.681630985
                        -----------------------------------------
Magnitude (a.u.)       :      1.262549543
Magnitude (Debye)      :      3.209145904

Rotational constants in cm-1:             0.014120             0.004424             0.004244
Rotational constants in MHz :           423.306498           132.617195           127.246288

                             ****ORCA TERMINATED NORMALLY****
TOTAL RUN TIME: 0 days 0 hours 1 minutes 45 seconds 920 msec
