                         Program Version 6.0.0  -   RELEASE  -
|  1> ! pbe def2-sv(p) def2/J RI DEFGRID1 loosescf d4 GCP(DFT/SV(P)) printgap
|  2> %output
|  3>     printlevel normal
|  4> end
|  5> * xyz 0 1
|  6> C 5.4249764566 -1.2687038287 -0.6906683944
|  7> C 4.15750123 -2.1000298146 -0.7073024114
|  8> O 3.0398019317 -1.3686642043 -1.2553052606
|  9> P 2.2500460906 -0.2506433061 -0.4586748778
| 10> S 3.0738152398 1.5098392826 -0.1793919141
| 11> O 1.8340649684 -0.9971428389 0.8901886778
| 12> C 1.8623508049 -0.3995614201 2.1984519367
| 13> C 3.060556539 -0.9106680587 2.9735236281
| 14> S 0.5560966871 -0.2903045598 -1.7164347709
| 15> C -0.1604570958 1.2737473296 -1.1345104259
| 16> S -0.7274869813 1.187349416 0.5827403913
| 17> P -2.6217734507 0.2467638609 0.2561323484
| 18> S -3.3316815243 0.4007386776 -1.5703478862
| 19> O -3.5594275944 0.8294154888 1.3853727225
| 20> C -4.384485557 1.9868651265 1.1664455334
| 21> C -3.5662267744 3.2600206704 1.0801322299
| 22> O -2.5017664283 -1.189177097 0.9128727738
| 23> C -1.5774198931 -2.2225793728 0.5379173501
| 24> C -1.9247192133 -2.8541228071 -0.7958868438
| 25> H 5.3066712083 -0.4058707846 -0.0374550552
| 26> H 6.2492723895 -1.8765454822 -0.3310689326
| 27> H 5.6520697243 -0.9106173866 -1.6915044774
| 28> H 3.8953114109 -2.4409881502 0.2975339829
| 29> H 4.254740335 -2.9586739695 -1.3739781538
| 30> H 1.9012362888 0.6893823053 2.0944742944
| 31> H 0.9217712515 -0.6839094128 2.6736022262
| 32> H 3.9809648657 -0.58986501 2.489832841
| 33> H 3.031819766 -0.5039970083 3.9790985427
| 34> H 3.0428632657 -1.9959067132 3.0252430744
| 35> H -1.0068898381 1.4908779426 -1.7874480057
| 36> H 0.5949580289 2.0577882531 -1.1781195352
| 37> H -4.9625177671 1.8369777252 0.2486214097
| 38> H -5.0540106491 1.9971438486 2.0275296879
| 39> H -2.9593640632 3.2536047334 0.1757675866
| 40> H -4.2341689507 4.1148021575 1.0479982219
| 41> H -2.9101733834 3.3459153459 1.942577707
| 42> H -0.5620009045 -1.8142688195 0.5193118272
| 43> H -1.6613526721 -2.9468066565 1.3507909825
| 44> H -1.26673383 -3.6987225914 -0.9735439826
| 45> H -2.9569694849 -3.1944371884 -0.7911671562
| 46> H -1.7966866788 -2.1364476223 -1.6043562368
| 47> *
| 48>
| 49>                          ****END OF INPUT****

CARTESIAN COORDINATES (ANGSTROEM)
---------------------------------
  C      5.424976   -1.268704   -0.690668
  C      4.157501   -2.100030   -0.707302
  O      3.039802   -1.368664   -1.255305
  P      2.250046   -0.250643   -0.458675
  S      3.073815    1.509839   -0.179392
  O      1.834065   -0.997143    0.890189
  C      1.862351   -0.399561    2.198452
  C      3.060557   -0.910668    2.973524
  S      0.556097   -0.290305   -1.716435
  C     -0.160457    1.273747   -1.134510
  S     -0.727487    1.187349    0.582740
  P     -2.621773    0.246764    0.256132
  S     -3.331682    0.400739   -1.570348
  O     -3.559428    0.829415    1.385373
  C     -4.384486    1.986865    1.166446
  C     -3.566227    3.260021    1.080132
  O     -2.501766   -1.189177    0.912873
  C     -1.577420   -2.222579    0.537917
  C     -1.924719   -2.854123   -0.795887
  H      5.306671   -0.405871   -0.037455
  H      6.249272   -1.876545   -0.331069
  H      5.652070   -0.910617   -1.691504
  H      3.895311   -2.440988    0.297534
  H      4.254740   -2.958674   -1.373978
  H      1.901236    0.689382    2.094474
  H      0.921771   -0.683909    2.673602
  H      3.980965   -0.589865    2.489833
  H      3.031820   -0.503997    3.979099
  H      3.042863   -1.995907    3.025243
  H     -1.006890    1.490878   -1.787448
  H      0.594958    2.057788   -1.178120
  H     -4.962518    1.836978    0.248621
  H     -5.054011    1.997144    2.027530
  H     -2.959364    3.253605    0.175768
  H     -4.234169    4.114802    1.047998
  H     -2.910173    3.345915    1.942578
  H     -0.562001   -1.814269    0.519312
  H     -1.661353   -2.946807    1.350791
  H     -1.266734   -3.698723   -0.973544
  H     -2.956969   -3.194437   -0.791167
  H     -1.796687   -2.136448   -1.604356

 Total Charge           Charge          ....    0
 Multiplicity           Mult            ....    1
 Number of Electrons    NEL             ....  202
 Basis Dimension        Dim             ....  334

ORBITAL ENERGIES
----------------

  NO   OCC          E(Eh)            E(eV)
   0   2.0000     -88.045535     -2395.8408
   1   2.0000     -88.043912     -2395.7966
   2   2.0000     -87.994863     -2394.4620
   3   2.0000     -87.992071     -2394.3860
   4   2.0000     -76.432490     -2079.8338
   5   2.0000     -76.428896     -2079.7360
   6   2.0000     -18.800028      -511.5748
   7   2.0000     -18.799237      -511.5533
   8   2.0000     -18.791436      -511.3410
   9   2.0000     -18.789066      -511.2765
  10   2.0000      -9.962923      -271.1049
  11   2.0000      -9.954382      -270.8725
  12   2.0000      -9.952901      -270.8322
  13   2.0000      -9.951683      -270.7991
  14   2.0000      -9.948895      -270.7232
  15   2.0000      -9.892080      -269.1772
  16   2.0000      -9.888788      -269.0876
  17   2.0000      -9.883377      -268.9404
  18   2.0000      -9.875298      -268.7205
  19   2.0000      -7.689970      -209.2547
  20   2.0000      -7.688973      -209.2276
  21   2.0000      -7.639715      -207.8872
  22   2.0000      -7.636919      -207.8111
  23   2.0000      -6.429974      -174.9685
  24   2.0000      -6.426065      -174.8621
  25   2.0000      -5.717789      -155.5889
  26   2.0000      -5.716831      -155.5629
  27   2.0000      -5.714451      -155.4981
  28   2.0000      -5.713613      -155.4753
  29   2.0000      -5.707141      -155.2992
  30   2.0000      -5.705815      -155.2631
  31   2.0000      -5.668514      -154.2481
  32   2.0000      -5.665722      -154.1721
  33   2.0000      -5.660599      -154.0327
  34   2.0000      -5.659747      -154.0096
  35   2.0000      -5.657491      -153.9482
  36   2.0000      -5.657271      -153.9422
  37   2.0000      -4.652825      -126.6098
  38   2.0000      -4.651432      -126.5719
  39   2.0000      -4.650479      -126.5460
  40   2.0000      -4.648302      -126.4867
  41   2.0000      -4.648135      -126.4822
  42   2.0000      -4.646555      -126.4392
  43   2.0000      -0.993273       -27.0283
  44   2.0000      -0.989419       -26.9235
  45   2.0000      -0.951007       -25.8782
  46   2.0000      -0.944028       -25.6883
  47   2.0000      -0.765932       -20.8421
  48   2.0000      -0.726301       -19.7636
  49   2.0000      -0.712086       -19.3768
  50   2.0000      -0.694168       -18.8893
  51   2.0000      -0.681333       -18.5400
  52   2.0000      -0.676362       -18.4047
  53   2.0000      -0.655570       -17.8390
  54   2.0000      -0.642243       -17.4763
  55   2.0000      -0.603394       -16.4192
  56   2.0000      -0.596446       -16.2301
  57   2.0000      -0.582935       -15.8625
  58   2.0000      -0.568147       -15.4601
  59   2.0000      -0.561467       -15.2783
  60   2.0000      -0.506743       -13.7892
  61   2.0000      -0.493835       -13.4379
  62   2.0000      -0.483190       -13.1483
  63   2.0000      -0.468780       -12.7562
  64   2.0000      -0.462180       -12.5766
  65   2.0000      -0.447407       -12.1746
  66   2.0000      -0.441161       -12.0046
  67   2.0000      -0.436806       -11.8861
  68   2.0000      -0.419955       -11.4276
  69   2.0000      -0.419108       -11.4045
  70   2.0000      -0.413158       -11.2426
  71   2.0000      -0.406558       -11.0630
  72   2.0000      -0.397319       -10.8116
  73   2.0000      -0.385410       -10.4875
  74   2.0000      -0.382326       -10.4036
  75   2.0000      -0.378945       -10.3116
  76   2.0000      -0.372024       -10.1233
  77   2.0000      -0.360470        -9.8089
  78   2.0000      -0.357498        -9.7280
  79   2.0000      -0.355729        -9.6799
  80   2.0000      -0.348147        -9.4736
  81   2.0000      -0.344845        -9.3837
  82   2.0000      -0.342186        -9.3114
  83   2.0000      -0.338475        -9.2104
  84   2.0000      -0.334751        -9.1090
  85   2.0000      -0.324747        -8.8368
  86   2.0000      -0.310866        -8.4591
  87   2.0000      -0.299422        -8.1477
  88   2.0000      -0.298979        -8.1356
  89   2.0000      -0.296526        -8.0689
  90   2.0000      -0.287358        -7.8194
  91   2.0000      -0.283618        -7.7176
  92   2.0000      -0.271722        -7.3939
  93   2.0000      -0.267187        -7.2705
  94   2.0000      -0.260703        -7.0941
  95   2.0000      -0.238279        -6.4839
  96   2.0000      -0.220459        -5.9990
  97   2.0000      -0.217290        -5.9128
  98   2.0000      -0.208446        -5.6721
  99   2.0000      -0.205880        -5.6023
 100   2.0000      -0.204602        -5.5675
 101   0.0000      -0.050638        -1.3779
 102   0.0000      -0.030037        -0.8174
 103   0.0000      -0.006622        -0.1802
 104   0.0000      -0.002861        -0.0779
 105   0.0000       0.010282         0.2798

MULLIKEN ATOMIC CHARGES
-----------------------
   0 C :   -0.313808
   1 C :   -0.016595
   2 O :   -0.374061
   3 P :    0.639614
   4 S :   -0.325349
   5 O :   -0.378466
   6 C :   -0.015980
   7 C :   -0.292201
   8 S :   -0.073816
   9 C :   -0.364510
  10 S :   -0.110240
  11 P :    0.607194
  12 S :   -0.327147
  13 O :   -0.356732
  14 C :   -0.004879
  15 C :   -0.310025
  16 O :   -0.353168
  17 C :   -0.036573
  18 C :   -0.303824
  19 H :    0.135715
  20 H :    0.110871
  21 H :    0.123941
  22 H :    0.109261
  23 H :    0.111867
  24 H :    0.116703
  25 H :    0.106672
  26 H :    0.117035
  27 H :    0.115424
  28 H :    0.116382
  29 H :    0.193554
  30 H :    0.196229
  31 H :    0.114422
  32 H :    0.107118
  33 H :    0.121694
  34 H :    0.112502
  35 H :    0.117568
  36 H :    0.128454
  37 H :    0.101702
  38 H :    0.104594
  39 H :    0.115011
  40 H :    0.133846
Sum of atomic charges:    0.0000000

LOEWDIN ATOMIC CHARGES
----------------------
   0 C :   -0.365578
   1 C :   -0.111734
   2 O :   -0.244206
   3 P :    0.569216
   4 S :   -0.307911
   5 O :   -0.243995
   6 C :   -0.127753
   7 C :   -0.358464
   8 S :    0.106030
   9 C :   -0.488805
  10 S :    0.080878
  11 P :    0.572219
  12 S :   -0.305344
  13 O :   -0.233278
  14 C :   -0.118942
  15 C :   -0.367578
  16 O :   -0.231656
  17 C :   -0.123685
  18 C :   -0.367122
  19 H :    0.121956
  20 H :    0.129987
  21 H :    0.131375
  22 H :    0.110228
  23 H :    0.122573
  24 H :    0.104540
  25 H :    0.114294
  26 H :    0.123264
  27 H :    0.132962
  28 H :    0.123352
  29 H :    0.126848
  30 H :    0.130470
  31 H :    0.110723
  32 H :    0.119795
  33 H :    0.119814
  34 H :    0.130532
  35 H :    0.124901
  36 H :    0.101766
  37 H :    0.117744
  38 H :    0.128093
  39 H :    0.125983
  40 H :    0.116508

  Mayer bond orders larger than 0.100000
B(  0-C ,  1-C ) :   1.1641 B(  0-C , 19-H ) :   0.9325 B(  0-C , 20-H ) :   0.9379
B(  0-C , 21-H ) :   0.9453 B(  1-C ,  2-O ) :   0.9089 B(  1-C , 22-H ) :   0.9217
B(  1-C , 23-H ) :   0.9351 B(  2-O ,  3-P ) :   1.1287 B(  3-P ,  4-S ) :   1.6137
B(  3-P ,  5-O ) :   1.0712 B(  3-P ,  8-S ) :   0.9636 B(  4-S ,  8-S ) :   0.1077
B(  5-O ,  6-C ) :   0.8975 B(  6-C ,  7-C ) :   1.1639 B(  6-C , 24-H ) :   0.9006
B(  6-C , 25-H ) :   0.9298 B(  7-C , 26-H ) :   0.9409 B(  7-C , 27-H ) :   0.9398
B(  7-C , 28-H ) :   0.9450 B(  8-S ,  9-C ) :   1.0049 B(  9-C , 10-S ) :   1.0031
B(  9-C , 29-H ) :   0.8662 B(  9-C , 30-H ) :   0.8742 B( 10-S , 11-P ) :   0.9229
B( 10-S , 12-S ) :   0.1193 B( 11-P , 12-S ) :   1.6020 B( 11-P , 13-O ) :   1.1345
B( 11-P , 16-O ) :   1.1381 B( 13-O , 14-C ) :   0.9110 B( 14-C , 15-C ) :   1.1636
B( 14-C , 31-H ) :   0.9145 B( 14-C , 32-H ) :   0.9339 B( 15-C , 33-H ) :   0.9384
B( 15-C , 34-H ) :   0.9385 B( 15-C , 35-H ) :   0.9451 B( 16-O , 17-C ) :   0.9129
B( 17-C , 18-C ) :   1.1656 B( 17-C , 36-H ) :   0.8973 B( 17-C , 37-H ) :   0.9346
B( 18-C , 38-H ) :   0.9385 B( 18-C , 39-H ) :   0.9451 B( 18-C , 40-H ) :   0.9302

Dispersion correction           -0.065946452
FINAL SINGLE POINT ENERGY     -2929.526428496090

DIPOLE MOMENT
-------------

Method             : SCF
Type of density    : Electron Density
Multiplicity       :   1
Irrep              :   0
Energy             : -2929.6454690445357301 Eh
Relativity type    :
Basis              : AO
                                X                 Y                 Z
Electronic contribution:     -8.561779008       6.323274192     -10.517698932
Nuclear contribution   :      9.202847043      -7.033028595      11.648458642
                        -----------------------------------------
Total Dipole Moment    :      0.641068035      -0.709754403       1.130759709
                        -----------------------------------------
Magnitude (a.u.)       :      1.480991917
Magnitude (Debye)      :      3.764382294

Rotational constants in cm-1:             0.013781             0.004603             0.004417
Rotational constants in MHz :           413.145076           137.993758           132.411527

                             ****ORCA TERMINATED NORMALLY****
TOTAL RUN TIME: 0 days 0 hours 0 minutes 21 seconds 372 msec
