                         Program Version 6.0.0  -   RELEASE  -
|  1> ! r2scan-3c def2/J RI DEFGRID2 scfconv6 printgap
|  2> %output
|  3>     printlevel normal
|  4> end
|  5> * xyz 0 1
|  6> C 5.5430415422 0.9047432528 -0.2066766212
|  7> C 4.2506589337 1.3961935531 -0.8295224698
|  8> O 3.3063726263 0.3164941491 -0.9885048919
|  9> P 2.2289938758 -0.050666264 0.1171254573
| 10> S 2.8881526842 -0.47094606 1.9182258673
| 11> O 1.4244284598 -1.2025168972 -0.6043543009
| 12> C 1.6745096739 -2.5981444365 -0.3523489214
| 13> C 3.0191884396 -3.02409399 -0.9004091314
| 14> S 0.8741984972 1.5640374034 -0.0003900982
| 15> C 0.0070946885 1.2211199685 1.5529236461
| 16> S -0.9127562888 -0.3478943237 1.5358412318
| 17> P -2.0773679621 -0.0808459731 -0.2224596586
| 18> S -1.3951656947 -0.5409373479 -1.9926604652
| 19> O -2.4946431537 1.4461866918 -0.0023895812
| 20> C -2.8172651384 2.3079226438 -1.1114276485
| 21> C -4.199755105 2.004507859 -1.6509888444
| 22> O -3.3461016637 -0.9777592508 0.0910649692
| 23> C -4.1787512919 -0.7887137572 1.2638732427
| 24> C -5.6058332446 -1.1289882912 0.8853923555
| 25> H 5.967419706 0.1054824645 -0.8079592391
| 26> H 6.248530025 1.7276239199 -0.1541989366
| 27> H 5.360377653 0.5298382308 0.7979811043
| 28> H 4.4125761118 1.7646106079 -1.844251451
| 29> H 3.7965443942 2.1857153419 -0.2235909821
| 30> H 1.6179613035 -2.7714080504 0.7279256637
| 31> H 0.8470449437 -3.1044384991 -0.8525959326
| 32> H 3.8126930908 -2.500313141 -0.3678389392
| 33> H 3.143759642 -4.093509303 -0.7629363254
| 34> H 3.0844852021 -2.7811960977 -1.9578202541
| 35> H -0.6775916742 2.0470357346 1.7237215003
| 36> H 0.7319833459 1.1272130472 2.3627471294
| 37> H -2.7501364513 3.3147618887 -0.6973546531
| 38> H -2.0594195451 2.17476034 -1.889656884
| 39> H -4.427317936 2.6869097448 -2.4636666888
| 40> H -4.2269306555 0.9826469459 -2.0290080696
| 41> H -4.9454740009 2.1157101904 -0.8680095042
| 42> H -3.8006302133 -1.4558907212 2.0415447943
| 43> H -4.0890392577 0.247096752 1.6000792336
| 44> H -5.6560597134 -2.1471453912 0.5103987464
| 45> H -6.2379888849 -1.0368890419 1.7627121283
| 46> H -5.9631599057 -0.4555173307 0.1111924277
| 47> *
| 48>
| 49>                          ****END OF INPUT****

CARTESIAN COORDINATES (ANGSTROEM)
---------------------------------
  C      5.543042    0.904743   -0.206677
  C      4.250659    1.396194   -0.829522
  O      3.306373    0.316494   -0.988505
  P      2.228994   -0.050666    0.117125
  S      2.888153   -0.470946    1.918226
  O      1.424428   -1.202517   -0.604354
  C      1.674510   -2.598144   -0.352349
  C      3.019188   -3.024094   -0.900409
  S      0.874198    1.564037   -0.000390
  C      0.007095    1.221120    1.552924
  S     -0.912756   -0.347894    1.535841
  P     -2.077368   -0.080846   -0.222460
  S     -1.395166   -0.540937   -1.992660
  O     -2.494643    1.446187   -0.002390
  C     -2.817265    2.307923   -1.111428
  C     -4.199755    2.004508   -1.650989
  O     -3.346102   -0.977759    0.091065
  C     -4.178751   -0.788714    1.263873
  C     -5.605833   -1.128988    0.885392
  H      5.967420    0.105482   -0.807959
  H      6.248530    1.727624   -0.154199
  H      5.360378    0.529838    0.797981
  H      4.412576    1.764611   -1.844251
  H      3.796544    2.185715   -0.223591
  H      1.617961   -2.771408    0.727926
  H      0.847045   -3.104438   -0.852596
  H      3.812693   -2.500313   -0.367839
  H      3.143760   -4.093509   -0.762936
  H      3.084485   -2.781196   -1.957820
  H     -0.677592    2.047036    1.723722
  H      0.731983    1.127213    2.362747
  H     -2.750136    3.314762   -0.697355
  H     -2.059420    2.174760   -1.889657
  H     -4.427318    2.686910   -2.463667
  H     -4.226931    0.982647   -2.029008
  H     -4.945474    2.115710   -0.868010
  H     -3.800630   -1.455891    2.041545
  H     -4.089039    0.247097    1.600079
  H     -5.656060   -2.147145    0.510399
  H     -6.237989   -1.036889    1.762712
  H     -5.963160   -0.455517    0.111192

 Total Charge           Charge          ....    0
 Multiplicity           Mult            ....    1
 Number of Electrons    NEL             ....  202
 Basis Dimension        Dim             ....  539

ORBITAL ENERGIES
----------------

  NO   OCC          E(Eh)            E(eV)
   0   2.0000     -88.574125     -2410.2245
   1   2.0000     -88.571319     -2410.1481
   2   2.0000     -88.517369     -2408.6801
   3   2.0000     -88.510037     -2408.4806
   4   2.0000     -76.910808     -2092.8495
   5   2.0000     -76.909616     -2092.8170
   6   2.0000     -18.992810      -516.8206
   7   2.0000     -18.990692      -516.7630
   8   2.0000     -18.989350      -516.7265
   9   2.0000     -18.979747      -516.4652
  10   2.0000     -10.106801      -275.0200
  11   2.0000     -10.101105      -274.8650
  12   2.0000     -10.099933      -274.8331
  13   2.0000     -10.098232      -274.7869
  14   2.0000     -10.086693      -274.4729
  15   2.0000     -10.035206      -273.0718
  16   2.0000     -10.031314      -272.9659
  17   2.0000     -10.024678      -272.7853
  18   2.0000     -10.020293      -272.6660
  19   2.0000      -7.868591      -214.1153
  20   2.0000      -7.865586      -214.0335
  21   2.0000      -7.812320      -212.5840
  22   2.0000      -7.804829      -212.3802
  23   2.0000      -6.589225      -179.3019
  24   2.0000      -6.587834      -179.2641
  25   2.0000      -5.815448      -158.2464
  26   2.0000      -5.812749      -158.1730
  27   2.0000      -5.812419      -158.1640
  28   2.0000      -5.809232      -158.0772
  29   2.0000      -5.805722      -157.9817
  30   2.0000      -5.802633      -157.8977
  31   2.0000      -5.759864      -156.7339
  32   2.0000      -5.752722      -156.5395
  33   2.0000      -5.752647      -156.5375
  34   2.0000      -5.752350      -156.5294
  35   2.0000      -5.745059      -156.3310
  36   2.0000      -5.744648      -156.3198
  37   2.0000      -4.734626      -128.8357
  38   2.0000      -4.734169      -128.8233
  39   2.0000      -4.733911      -128.8163
  40   2.0000      -4.733067      -128.7933
  41   2.0000      -4.732689      -128.7830
  42   2.0000      -4.731116      -128.7402
  43   2.0000      -1.046975       -28.4896
  44   2.0000      -1.045226       -28.4421
  45   2.0000      -1.009896       -27.4807
  46   2.0000      -1.005272       -27.3549
  47   2.0000      -0.800000       -21.7691
  48   2.0000      -0.757789       -20.6205
  49   2.0000      -0.746633       -20.3169
  50   2.0000      -0.736156       -20.0318
  51   2.0000      -0.725228       -19.7345
  52   2.0000      -0.704934       -19.1822
  53   2.0000      -0.682902       -18.5827
  54   2.0000      -0.668124       -18.1806
  55   2.0000      -0.625313       -17.0156
  56   2.0000      -0.619073       -16.8458
  57   2.0000      -0.605367       -16.4729
  58   2.0000      -0.600580       -16.3426
  59   2.0000      -0.591800       -16.1037
  60   2.0000      -0.529658       -14.4127
  61   2.0000      -0.518916       -14.1204
  62   2.0000      -0.500860       -13.6291
  63   2.0000      -0.488645       -13.2967
  64   2.0000      -0.473973       -12.8974
  65   2.0000      -0.460501       -12.5309
  66   2.0000      -0.455805       -12.4031
  67   2.0000      -0.453221       -12.3328
  68   2.0000      -0.440037       -11.9740
  69   2.0000      -0.420332       -11.4378
  70   2.0000      -0.418713       -11.3938
  71   2.0000      -0.413911       -11.2631
  72   2.0000      -0.409527       -11.1438
  73   2.0000      -0.407051       -11.0764
  74   2.0000      -0.400067       -10.8864
  75   2.0000      -0.386911       -10.5284
  76   2.0000      -0.380303       -10.3486
  77   2.0000      -0.373251       -10.1567
  78   2.0000      -0.367246        -9.9933
  79   2.0000      -0.363136        -9.8814
  80   2.0000      -0.361356        -9.8330
  81   2.0000      -0.358323        -9.7505
  82   2.0000      -0.356919        -9.7123
  83   2.0000      -0.346818        -9.4374
  84   2.0000      -0.344797        -9.3824
  85   2.0000      -0.333613        -9.0781
  86   2.0000      -0.323892        -8.8136
  87   2.0000      -0.321000        -8.7348
  88   2.0000      -0.309659        -8.4263
  89   2.0000      -0.296838        -8.0774
  90   2.0000      -0.294749        -8.0205
  91   2.0000      -0.283033        -7.7017
  92   2.0000      -0.282300        -7.6818
  93   2.0000      -0.280699        -7.6382
  94   2.0000      -0.276347        -7.5198
  95   2.0000      -0.247195        -6.7265
  96   2.0000      -0.228926        -6.2294
  97   2.0000      -0.218690        -5.9509
  98   2.0000      -0.214778        -5.8444
  99   2.0000      -0.205574        -5.5940
 100   2.0000      -0.200446        -5.4544
 101   0.0000      -0.048431        -1.3179
 102   0.0000      -0.020871        -0.5679
 103   0.0000      -0.008626        -0.2347
 104   0.0000       0.006615         0.1800
 105   0.0000       0.021530         0.5859

MULLIKEN ATOMIC CHARGES
-----------------------
   0 C :   -0.454627
   1 C :   -0.136375
   2 O :   -0.294615
   3 P :    0.705977
   4 S :   -0.491009
   5 O :   -0.247583
   6 C :   -0.154972
   7 C :   -0.448592
   8 S :   -0.153832
   9 C :   -0.204051
  10 S :   -0.162215
  11 P :    0.694911
  12 S :   -0.424856
  13 O :   -0.333591
  14 C :   -0.144933
  15 C :   -0.463681
  16 O :   -0.282874
  17 C :   -0.119929
  18 C :   -0.455118
  19 H :    0.152727
  20 H :    0.144383
  21 H :    0.182572
  22 H :    0.151877
  23 H :    0.151969
  24 H :    0.169854
  25 H :    0.164763
  26 H :    0.164810
  27 H :    0.145739
  28 H :    0.158974
  29 H :    0.186964
  30 H :    0.209620
  31 H :    0.146965
  32 H :    0.182346
  33 H :    0.149012
  34 H :    0.184329
  35 H :    0.147787
  36 H :    0.154520
  37 H :    0.161458
  38 H :    0.160122
  39 H :    0.147498
  40 H :    0.153676
Sum of atomic charges:   -0.0000000

LOEWDIN ATOMIC CHARGES
----------------------
   0 C :   -0.402389
   1 C :    0.022500
   2 O :   -0.654916
   3 P :    0.378055
   4 S :   -0.135753
   5 O :   -0.673183
   6 C :    0.018731
   7 C :   -0.399863
   8 S :    0.167623
   9 C :   -0.412344
  10 S :    0.168240
  11 P :    0.378701
  12 S :   -0.067296
  13 O :   -0.707666
  14 C :    0.015350
  15 C :   -0.400467
  16 O :   -0.666728
  17 C :    0.015232
  18 C :   -0.386538
  19 H :    0.158578
  20 H :    0.157714
  21 H :    0.169247
  22 H :    0.179580
  23 H :    0.174981
  24 H :    0.179834
  25 H :    0.185559
  26 H :    0.163590
  27 H :    0.158767
  28 H :    0.161302
  29 H :    0.182309
  30 H :    0.192099
  31 H :    0.176614
  32 H :    0.184135
  33 H :    0.161034
  34 H :    0.169269
  35 H :    0.154831
  36 H :    0.174634
  37 H :    0.177192
  38 H :    0.163037
  39 H :    0.159251
  40 H :    0.159157

  Mayer bond orders larger than 0.100000
B(  0-C ,  1-C ) :   0.9534 B(  0-C , 19-H ) :   0.9742 B(  0-C , 20-H ) :   0.9645
B(  0-C , 21-H ) :   0.9565 B(  1-C ,  2-O ) :   0.7806 B(  1-C , 22-H ) :   0.9635
B(  1-C , 23-H ) :   0.9645 B(  2-O ,  3-P ) :   1.0739 B(  3-P ,  4-S ) :   1.7307
B(  3-P ,  5-O ) :   1.1735 B(  3-P ,  8-S ) :   1.0801 B(  5-O ,  6-C ) :   0.7821
B(  6-C ,  7-C ) :   0.9203 B(  6-C , 24-H ) :   0.9652 B(  6-C , 25-H ) :   0.9590
B(  7-C , 26-H ) :   0.9604 B(  7-C , 27-H ) :   0.9634 B(  7-C , 28-H ) :   0.9726
B(  8-S ,  9-C ) :   0.9122 B(  9-C , 10-S ) :   0.9013 B(  9-C , 29-H ) :   0.9174
B(  9-C , 30-H ) :   0.9083 B( 10-S , 11-P ) :   1.0330 B( 11-P , 12-S ) :   1.8686
B( 11-P , 13-O ) :   1.0443 B( 11-P , 16-O ) :   1.1137 B( 13-O , 14-C ) :   0.7982
B( 14-C , 15-C ) :   0.9235 B( 14-C , 31-H ) :   0.9618 B( 14-C , 32-H ) :   0.9575
B( 15-C , 33-H ) :   0.9611 B( 15-C , 34-H ) :   0.9608 B( 15-C , 35-H ) :   0.9733
B( 16-O , 17-C ) :   0.7417 B( 17-C , 18-C ) :   0.9583 B( 17-C , 36-H ) :   0.9427
B( 17-C , 37-H ) :   0.9633 B( 18-C , 38-H ) :   0.9716 B( 18-C , 39-H ) :   0.9663
B( 18-C , 40-H ) :   0.9706

Dispersion correction           -0.021534815
FINAL SINGLE POINT ENERGY     -2932.457334111801

DIPOLE MOMENT
-------------

Method             : SCF
Type of density    : Electron Density
Multiplicity       :   1
Irrep              :   0
Energy             : -2932.4820791764491332 Eh
Relativity type    :
Basis              : AO
                                X                 Y                 Z
Electronic contribution:      4.919331198       0.201474966       3.290176344
Nuclear contribution   :     -5.645146593       0.727508963      -3.048205458
                        -----------------------------------------
Total Dipole Moment    :     -0.725815396       0.928983929       0.241970887
                        -----------------------------------------
Magnitude (a.u.)       :      1.203482047
Magnitude (Debye)      :      3.059008261

Rotational constants in cm-1:             0.014522             0.004600             0.004387
Rotational constants in MHz :           435.364715           137.904730           131.520516

                             ****ORCA TERMINATED NORMALLY****
TOTAL RUN TIME: 0 days 0 hours 1 minutes 21 seconds 871 msec
