                         Program Version 6.0.0  -   RELEASE  -
|  1> ! r2scan-3c def2/J RI DEFGRID2 scfconv6 printgap
|  2> %output
|  3>     printlevel normal
|  4> end
|  5> %cpcm
|  6>     smd true
|  7>     smdsolvent "water"
|  8> end
|  9> * xyz 0 1
| 10> C 5.5430415422 0.9047432528 -0.2066766212
| 11> C 4.2506589337 1.3961935531 -0.8295224698
| 12> O 3.3063726263 0.3164941491 -0.9885048919
| 13> P 2.2289938758 -0.050666264 0.1171254573
| 14> S 2.8881526842 -0.47094606 1.9182258673
| 15> O 1.4244284598 -1.2025168972 -0.6043543009
| 16> C 1.6745096739 -2.5981444365 -0.3523489214
| 17> C 3.0191884396 -3.02409399 -0.9004091314
| 18> S 0.8741984972 1.5640374034 -0.0003900982
| 19> C 0.0070946885 1.2211199685 1.5529236461
| 20> S -0.9127562888 -0.3478943237 1.5358412318
| 21> P -2.0773679621 -0.0808459731 -0.2224596586
| 22> S -1.3951656947 -0.5409373479 -1.9926604652
| 23> O -2.4946431537 1.4461866918 -0.0023895812
| 24> C -2.8172651384 2.3079226438 -1.1114276485
| 25> C -4.199755105 2.004507859 -1.6509888444
| 26> O -3.3461016637 -0.9777592508 0.0910649692
| 27> C -4.1787512919 -0.7887137572 1.2638732427
| 28> C -5.6058332446 -1.1289882912 0.8853923555
| 29> H 5.967419706 0.1054824645 -0.8079592391
| 30> H 6.248530025 1.7276239199 -0.1541989366
| 31> H 5.360377653 0.5298382308 0.7979811043
| 32> H 4.4125761118 1.7646106079 -1.844251451
| 33> H 3.7965443942 2.1857153419 -0.2235909821
| 34> H 1.6179613035 -2.7714080504 0.7279256637
| 35> H 0.8470449437 -3.1044384991 -0.8525959326
| 36> H 3.8126930908 -2.500313141 -0.3678389392
| 37> H 3.143759642 -4.093509303 -0.7629363254
| 38> H 3.0844852021 -2.7811960977 -1.9578202541
| 39> H -0.6775916742 2.0470357346 1.7237215003
| 40> H 0.7319833459 1.1272130472 2.3627471294
| 41> H -2.7501364513 3.3147618887 -0.6973546531
| 42> H -2.0594195451 2.17476034 -1.889656884
| 43> H -4.427317936 2.6869097448 -2.4636666888
| 44> H -4.2269306555 0.9826469459 -2.0290080696
| 45> H -4.9454740009 2.1157101904 -0.8680095042
| 46> H -3.8006302133 -1.4558907212 2.0415447943
| 47> H -4.0890392577 0.247096752 1.6000792336
| 48> H -5.6560597134 -2.1471453912 0.5103987464
| 49> H -6.2379888849 -1.0368890419 1.7627121283
| 50> H -5.9631599057 -0.4555173307 0.1111924277
| 51> *
| 52>
| 53>                          ****END OF INPUT****

CARTESIAN COORDINATES (ANGSTROEM)
---------------------------------
  C      5.543042    0.904743   -0.206677
  C      4.250659    1.396194   -0.829522
  O      3.306373    0.316494   -0.988505
  P      2.228994   -0.050666    0.117125
  S      2.888153   -0.470946    1.918226
  O      1.424428   -1.202517   -0.604354
  C      1.674510   -2.598144   -0.352349
  C      3.019188   -3.024094   -0.900409
  S      0.874198    1.564037   -0.000390
  C      0.007095    1.221120    1.552924
  S     -0.912756   -0.347894    1.535841
  P     -2.077368   -0.080846   -0.222460
  S     -1.395166   -0.540937   -1.992660
  O     -2.494643    1.446187   -0.002390
  C     -2.817265    2.307923   -1.111428
  C     -4.199755    2.004508   -1.650989
  O     -3.346102   -0.977759    0.091065
  C     -4.178751   -0.788714    1.263873
  C     -5.605833   -1.128988    0.885392
  H      5.967420    0.105482   -0.807959
  H      6.248530    1.727624   -0.154199
  H      5.360378    0.529838    0.797981
  H      4.412576    1.764611   -1.844251
  H      3.796544    2.185715   -0.223591
  H      1.617961   -2.771408    0.727926
  H      0.847045   -3.104438   -0.852596
  H      3.812693   -2.500313   -0.367839
  H      3.143760   -4.093509   -0.762936
  H      3.084485   -2.781196   -1.957820
  H     -0.677592    2.047036    1.723722
  H      0.731983    1.127213    2.362747
  H     -2.750136    3.314762   -0.697355
  H     -2.059420    2.174760   -1.889657
  H     -4.427318    2.686910   -2.463667
  H     -4.226931    0.982647   -2.029008
  H     -4.945474    2.115710   -0.868010
  H     -3.800630   -1.455891    2.041545
  H     -4.089039    0.247097    1.600079
  H     -5.656060   -2.147145    0.510399
  H     -6.237989   -1.036889    1.762712
  H     -5.963160   -0.455517    0.111192

 Total Charge           Charge          ....    0
 Multiplicity           Mult            ....    1
 Number of Electrons    NEL             ....  202
 Basis Dimension        Dim             ....  539

ORBITAL ENERGIES
----------------

  NO   OCC          E(Eh)            E(eV)
   0   2.0000     -88.578685     -2410.3486
   1   2.0000     -88.575477     -2410.2613
   2   2.0000     -88.526145     -2408.9189
   3   2.0000     -88.521558     -2408.7940
   4   2.0000     -76.917983     -2093.0447
   5   2.0000     -76.916399     -2093.0016
   6   2.0000     -18.995654      -516.8980
   7   2.0000     -18.992720      -516.8182
   8   2.0000     -18.992483      -516.8117
   9   2.0000     -18.987817      -516.6848
  10   2.0000     -10.104890      -274.9680
  11   2.0000     -10.091799      -274.6118
  12   2.0000     -10.089978      -274.5622
  13   2.0000     -10.087506      -274.4950
  14   2.0000     -10.087491      -274.4946
  15   2.0000     -10.019633      -272.6481
  16   2.0000     -10.018021      -272.6042
  17   2.0000     -10.017876      -272.6003
  18   2.0000     -10.016642      -272.5667
  19   2.0000      -7.873117      -214.2384
  20   2.0000      -7.869767      -214.1472
  21   2.0000      -7.821349      -212.8297
  22   2.0000      -7.816765      -212.7050
  23   2.0000      -6.596491      -179.4997
  24   2.0000      -6.594607      -179.4484
  25   2.0000      -5.819952      -158.3690
  26   2.0000      -5.816938      -158.2869
  27   2.0000      -5.816932      -158.2868
  28   2.0000      -5.813392      -158.1904
  29   2.0000      -5.810291      -158.1061
  30   2.0000      -5.806842      -158.0122
  31   2.0000      -5.768847      -156.9783
  32   2.0000      -5.764529      -156.8608
  33   2.0000      -5.761658      -156.7827
  34   2.0000      -5.761396      -156.7755
  35   2.0000      -5.756973      -156.6552
  36   2.0000      -5.756655      -156.6465
  37   2.0000      -4.741866      -129.0327
  38   2.0000      -4.741449      -129.0214
  39   2.0000      -4.740594      -128.9981
  40   2.0000      -4.740356      -128.9917
  41   2.0000      -4.739432      -128.9665
  42   2.0000      -4.738068      -128.9294
  43   2.0000      -1.051403       -28.6101
  44   2.0000      -1.047933       -28.5157
  45   2.0000      -1.011338       -27.5199
  46   2.0000      -1.010413       -27.4947
  47   2.0000      -0.801876       -21.8202
  48   2.0000      -0.754773       -20.5384
  49   2.0000      -0.743040       -20.2191
  50   2.0000      -0.725762       -19.7490
  51   2.0000      -0.722273       -19.6540
  52   2.0000      -0.705633       -19.2012
  53   2.0000      -0.687091       -18.6967
  54   2.0000      -0.674975       -18.3670
  55   2.0000      -0.626884       -17.0584
  56   2.0000      -0.614993       -16.7348
  57   2.0000      -0.598716       -16.2919
  58   2.0000      -0.596492       -16.2314
  59   2.0000      -0.591429       -16.0936
  60   2.0000      -0.527187       -14.3455
  61   2.0000      -0.517139       -14.0721
  62   2.0000      -0.496020       -13.4974
  63   2.0000      -0.490629       -13.3507
  64   2.0000      -0.472549       -12.8587
  65   2.0000      -0.454660       -12.3719
  66   2.0000      -0.452811       -12.3216
  67   2.0000      -0.451868       -12.2960
  68   2.0000      -0.437443       -11.9034
  69   2.0000      -0.419088       -11.4040
  70   2.0000      -0.416804       -11.3418
  71   2.0000      -0.410216       -11.1625
  72   2.0000      -0.408678       -11.1207
  73   2.0000      -0.403875       -10.9900
  74   2.0000      -0.400908       -10.9093
  75   2.0000      -0.385541       -10.4911
  76   2.0000      -0.375944       -10.2300
  77   2.0000      -0.366558        -9.9745
  78   2.0000      -0.361661        -9.8413
  79   2.0000      -0.360388        -9.8067
  80   2.0000      -0.352481        -9.5915
  81   2.0000      -0.350550        -9.5389
  82   2.0000      -0.348453        -9.4819
  83   2.0000      -0.345255        -9.3949
  84   2.0000      -0.344735        -9.3807
  85   2.0000      -0.332901        -9.0587
  86   2.0000      -0.321444        -8.7469
  87   2.0000      -0.315386        -8.5821
  88   2.0000      -0.306503        -8.3404
  89   2.0000      -0.298440        -8.1210
  90   2.0000      -0.295161        -8.0317
  91   2.0000      -0.287486        -7.8229
  92   2.0000      -0.282890        -7.6978
  93   2.0000      -0.279208        -7.5976
  94   2.0000      -0.278290        -7.5726
  95   2.0000      -0.252874        -6.8810
  96   2.0000      -0.235370        -6.4047
  97   2.0000      -0.228627        -6.2212
  98   2.0000      -0.224096        -6.0979
  99   2.0000      -0.215493        -5.8639
 100   2.0000      -0.212416        -5.7801
 101   0.0000      -0.053527        -1.4565
 102   0.0000      -0.027624        -0.7517
 103   0.0000      -0.013691        -0.3725
 104   0.0000       0.001421         0.0387
 105   0.0000       0.017682         0.4812

MULLIKEN ATOMIC CHARGES
-----------------------
   0 C :   -0.492193
   1 C :   -0.129529
   2 O :   -0.323894
   3 P :    0.725713
   4 S :   -0.534118
   5 O :   -0.270397
   6 C :   -0.155193
   7 C :   -0.485570
   8 S :   -0.158823
   9 C :   -0.210079
  10 S :   -0.178063
  11 P :    0.719222
  12 S :   -0.496579
  13 O :   -0.341348
  14 C :   -0.134713
  15 C :   -0.492118
  16 O :   -0.314683
  17 C :   -0.108534
  18 C :   -0.504728
  19 H :    0.167605
  20 H :    0.169807
  21 H :    0.172009
  22 H :    0.177259
  23 H :    0.164668
  24 H :    0.175011
  25 H :    0.177930
  26 H :    0.166824
  27 H :    0.171984
  28 H :    0.170134
  29 H :    0.224488
  30 H :    0.225415
  31 H :    0.176173
  32 H :    0.176894
  33 H :    0.171247
  34 H :    0.171701
  35 H :    0.169071
  36 H :    0.172746
  37 H :    0.177531
  38 H :    0.167781
  39 H :    0.171040
  40 H :    0.168311
Sum of atomic charges:   -0.0000000

LOEWDIN ATOMIC CHARGES
----------------------
   0 C :   -0.406137
   1 C :    0.028489
   2 O :   -0.671201
   3 P :    0.380389
   4 S :   -0.162387
   5 O :   -0.690750
   6 C :    0.019964
   7 C :   -0.403022
   8 S :    0.167220
   9 C :   -0.402343
  10 S :    0.162906
  11 P :    0.383283
  12 S :   -0.118666
  13 O :   -0.704452
  14 C :    0.021831
  15 C :   -0.402476
  16 O :   -0.686256
  17 C :    0.022428
  18 C :   -0.390271
  19 H :    0.162414
  20 H :    0.167409
  21 H :    0.163113
  22 H :    0.190560
  23 H :    0.180288
  24 H :    0.181473
  25 H :    0.190242
  26 H :    0.162407
  27 H :    0.168390
  28 H :    0.163840
  29 H :    0.196596
  30 H :    0.197575
  31 H :    0.189023
  32 H :    0.182052
  33 H :    0.168565
  34 H :    0.163106
  35 H :    0.162902
  36 H :    0.181755
  37 H :    0.184202
  38 H :    0.163786
  39 H :    0.169132
  40 H :    0.162621

  Mayer bond orders larger than 0.100000
B(  0-C ,  1-C ) :   0.9431 B(  0-C , 19-H ) :   0.9718 B(  0-C , 20-H ) :   0.9591
B(  0-C , 21-H ) :   0.9609 B(  1-C ,  2-O ) :   0.7689 B(  1-C , 22-H ) :   0.9534
B(  1-C , 23-H ) :   0.9567 B(  2-O ,  3-P ) :   1.0775 B(  3-P ,  4-S ) :   1.6959
B(  3-P ,  5-O ) :   1.1749 B(  3-P ,  8-S ) :   1.0990 B(  5-O ,  6-C ) :   0.7734
B(  6-C ,  7-C ) :   0.9122 B(  6-C , 24-H ) :   0.9601 B(  6-C , 25-H ) :   0.9532
B(  7-C , 26-H ) :   0.9594 B(  7-C , 27-H ) :   0.9573 B(  7-C , 28-H ) :   0.9712
B(  8-S ,  9-C ) :   0.9100 B(  9-C , 10-S ) :   0.8929 B(  9-C , 29-H ) :   0.9065
B(  9-C , 30-H ) :   0.9046 B( 10-S , 11-P ) :   1.0458 B( 11-P , 12-S ) :   1.8241
B( 11-P , 13-O ) :   1.0665 B( 11-P , 16-O ) :   1.1229 B( 13-O , 14-C ) :   0.7826
B( 14-C , 15-C ) :   0.9192 B( 14-C , 31-H ) :   0.9518 B( 14-C , 32-H ) :   0.9568
B( 15-C , 33-H ) :   0.9569 B( 15-C , 34-H ) :   0.9631 B( 15-C , 35-H ) :   0.9678
B( 16-O , 17-C ) :   0.7332 B( 17-C , 18-C ) :   0.9502 B( 17-C , 36-H ) :   0.9355
B( 17-C , 37-H ) :   0.9518 B( 18-C , 38-H ) :   0.9706 B( 18-C , 39-H ) :   0.9591
B( 18-C , 40-H ) :   0.9687

Dispersion correction           -0.021534815
FINAL SINGLE POINT ENERGY     -2932.467568148903

DIPOLE MOMENT
-------------

Method             : SCF
Type of density    : Electron Density
Multiplicity       :   1
Irrep              :   0
Energy             : -2932.4923132135509150 Eh
Relativity type    :
Basis              : AO
                                X                 Y                 Z
Electronic contribution:      4.647976719       0.825371329       3.661244656
Nuclear contribution   :     -5.645146593       0.727508963      -3.048205458
                        -----------------------------------------
Total Dipole Moment    :     -0.997169875       1.552880291       0.613039198
                        -----------------------------------------
Magnitude (a.u.)       :      1.944634160
Magnitude (Debye)      :      4.942867219

Rotational constants in cm-1:             0.014522             0.004600             0.004387
Rotational constants in MHz :           435.364715           137.904730           131.520516

                             ****ORCA TERMINATED NORMALLY****
TOTAL RUN TIME: 0 days 0 hours 1 minutes 45 seconds 994 msec
