                         Program Version 6.0.0  -   RELEASE  -
|  1> ! pbe def2-sv(p) def2/J RI DEFGRID1 loosescf d4 GCP(DFT/SV(P)) printgap
|  2> %output
|  3>     printlevel normal
|  4> end
|  5> * xyz 0 1
|  6> C 3.8152212832 -2.8449899176 -0.588859656
|  7> C 4.2912372027 -1.4967365597 -0.0856181183
|  8> O 3.7207207243 -0.4308667895 -0.8935670973
|  9> P 2.620795411 0.5654411112 -0.3596822749
| 10> S 2.156783233 1.886942691 -1.724106227
| 11> O 3.2918252121 1.1204248221 0.9714723105
| 12> C 2.8609705793 2.3284913456 1.6229435605
| 13> C 1.4822892102 2.1900664288 2.2353991372
| 14> S 1.0530895977 -0.6853832341 0.3454547077
| 15> C 0.2105765197 -0.8454567629 -1.2657915627
| 16> S -1.4151606075 -1.583684838 -1.0773279239
| 17> P -2.4438634511 0.0619235461 -0.1696334631
| 18> S -1.5218104611 1.7866041809 -0.2979214347
| 19> O -2.7955219753 -0.4204335182 1.3037688925
| 20> C -1.8276189442 -0.4273372008 2.3711181708
| 21> C -2.5781505961 -0.6392725562 3.6700608015
| 22> O -3.860842277 0.1091624985 -0.8484393636
| 23> C -4.9580558351 -0.7990625294 -0.5717549439
| 24> C -4.6231335951 -2.2347015268 -0.9129201969
| 25> H 2.7482724526 -2.9643793114 -0.4168031165
| 26> H 4.0161154912 -2.9362947895 -1.6528297921
| 27> H 4.3469024665 -3.6275693203 -0.0570090049
| 28> H 5.3700537297 -1.3865963781 -0.20317614
| 29> H 4.0169527238 -1.3397724265 0.9593111684
| 30> H 3.6249081381 2.4957850258 2.3838350465
| 31> H 2.8772890495 3.1423001277 0.8915217081
| 32> H 1.2706926011 3.0649033235 2.841724065
| 33> H 0.7281113423 2.1239963228 1.4511126824
| 34> H 1.4326651096 1.298194701 2.8555530085
| 35> H 0.7820725352 -1.504838811 -1.9155806732
| 36> H 0.1185721206 0.1538276395 -1.6993354413
| 37> H -1.1102649498 -1.2320194812 2.1844139032
| 38> H -1.2954661715 0.5290092344 2.3639509081
| 39> H -3.1160171767 -1.5821141898 3.6399580845
| 40> H -1.8683094197 -0.6569594808 4.4901690591
| 41> H -3.2875978742 0.1681239866 3.8276946304
| 42> H -5.224893118 -0.697041696 0.481245177
| 43> H -5.7614401718 -0.4115734846 -1.1999994057
| 44> H -4.2997242626 -2.3150631869 -1.9475098292
| 45> H -3.8249811017 -2.6009624944 -0.2698148161
| 46> H -5.5062196744 -2.8485945045 -0.7651747595
| 47> *
| 48>
| 49>                          ****END OF INPUT****

CARTESIAN COORDINATES (ANGSTROEM)
---------------------------------
  C      3.815221   -2.844990   -0.588860
  C      4.291237   -1.496737   -0.085618
  O      3.720721   -0.430867   -0.893567
  P      2.620795    0.565441   -0.359682
  S      2.156783    1.886943   -1.724106
  O      3.291825    1.120425    0.971472
  C      2.860971    2.328491    1.622944
  C      1.482289    2.190066    2.235399
  S      1.053090   -0.685383    0.345455
  C      0.210577   -0.845457   -1.265792
  S     -1.415161   -1.583685   -1.077328
  P     -2.443863    0.061924   -0.169633
  S     -1.521810    1.786604   -0.297921
  O     -2.795522   -0.420434    1.303769
  C     -1.827619   -0.427337    2.371118
  C     -2.578151   -0.639273    3.670061
  O     -3.860842    0.109162   -0.848439
  C     -4.958056   -0.799063   -0.571755
  C     -4.623134   -2.234702   -0.912920
  H      2.748272   -2.964379   -0.416803
  H      4.016115   -2.936295   -1.652830
  H      4.346902   -3.627569   -0.057009
  H      5.370054   -1.386596   -0.203176
  H      4.016953   -1.339772    0.959311
  H      3.624908    2.495785    2.383835
  H      2.877289    3.142300    0.891522
  H      1.270693    3.064903    2.841724
  H      0.728111    2.123996    1.451113
  H      1.432665    1.298195    2.855553
  H      0.782073   -1.504839   -1.915581
  H      0.118572    0.153828   -1.699335
  H     -1.110265   -1.232019    2.184414
  H     -1.295466    0.529009    2.363951
  H     -3.116017   -1.582114    3.639958
  H     -1.868309   -0.656959    4.490169
  H     -3.287598    0.168124    3.827695
  H     -5.224893   -0.697042    0.481245
  H     -5.761440   -0.411573   -1.199999
  H     -4.299724   -2.315063   -1.947510
  H     -3.824981   -2.600962   -0.269815
  H     -5.506220   -2.848595   -0.765175

 Total Charge           Charge          ....    0
 Multiplicity           Mult            ....    1
 Number of Electrons    NEL             ....  202
 Basis Dimension        Dim             ....  334

ORBITAL ENERGIES
----------------

  NO   OCC          E(Eh)            E(eV)
   0   2.0000     -88.046206     -2395.8591
   1   2.0000     -88.039559     -2395.6782
   2   2.0000     -87.981988     -2394.1116
   3   2.0000     -87.979784     -2394.0516
   4   2.0000     -76.426078     -2079.6593
   5   2.0000     -76.421937     -2079.5466
   6   2.0000     -18.794416      -511.4221
   7   2.0000     -18.794112      -511.4138
   8   2.0000     -18.791265      -511.3363
   9   2.0000     -18.786941      -511.2187
  10   2.0000      -9.961024      -271.0532
  11   2.0000      -9.955866      -270.9129
  12   2.0000      -9.954134      -270.8658
  13   2.0000      -9.950501      -270.7669
  14   2.0000      -9.950225      -270.7594
  15   2.0000      -9.894748      -269.2498
  16   2.0000      -9.891408      -269.1589
  17   2.0000      -9.887539      -269.0536
  18   2.0000      -9.878931      -268.8194
  19   2.0000      -7.690914      -209.2804
  20   2.0000      -7.684004      -209.0924
  21   2.0000      -7.626697      -207.5330
  22   2.0000      -7.625041      -207.4879
  23   2.0000      -6.423631      -174.7959
  24   2.0000      -6.419461      -174.6824
  25   2.0000      -5.718888      -155.6189
  26   2.0000      -5.715233      -155.5194
  27   2.0000      -5.711734      -155.4242
  28   2.0000      -5.708800      -155.3443
  29   2.0000      -5.708104      -155.3254
  30   2.0000      -5.700940      -155.1305
  31   2.0000      -5.655809      -153.9024
  32   2.0000      -5.654105      -153.8560
  33   2.0000      -5.647105      -153.6655
  34   2.0000      -5.646884      -153.6595
  35   2.0000      -5.645573      -153.6239
  36   2.0000      -5.645112      -153.6113
  37   2.0000      -4.646556      -126.4392
  38   2.0000      -4.645244      -126.4035
  39   2.0000      -4.643872      -126.3662
  40   2.0000      -4.642375      -126.3255
  41   2.0000      -4.641149      -126.2921
  42   2.0000      -4.639677      -126.2520
  43   2.0000      -0.990759       -26.9599
  44   2.0000      -0.984965       -26.8023
  45   2.0000      -0.946442       -25.7540
  46   2.0000      -0.941815       -25.6281
  47   2.0000      -0.761648       -20.7255
  48   2.0000      -0.722596       -19.6628
  49   2.0000      -0.712951       -19.4004
  50   2.0000      -0.697286       -18.9741
  51   2.0000      -0.687189       -18.6994
  52   2.0000      -0.677603       -18.4385
  53   2.0000      -0.648557       -17.6481
  54   2.0000      -0.632059       -17.1992
  55   2.0000      -0.596370       -16.2281
  56   2.0000      -0.588949       -16.0261
  57   2.0000      -0.576886       -15.6979
  58   2.0000      -0.574722       -15.6390
  59   2.0000      -0.558525       -15.1982
  60   2.0000      -0.507945       -13.8219
  61   2.0000      -0.499892       -13.6028
  62   2.0000      -0.478189       -13.0122
  63   2.0000      -0.470451       -12.8016
  64   2.0000      -0.449482       -12.2310
  65   2.0000      -0.448215       -12.1965
  66   2.0000      -0.447638       -12.1809
  67   2.0000      -0.440138       -11.9768
  68   2.0000      -0.432821       -11.7776
  69   2.0000      -0.425202       -11.5703
  70   2.0000      -0.413756       -11.2589
  71   2.0000      -0.397956       -10.8289
  72   2.0000      -0.394371       -10.7314
  73   2.0000      -0.384733       -10.4691
  74   2.0000      -0.378741       -10.3061
  75   2.0000      -0.368421       -10.0252
  76   2.0000      -0.365327        -9.9411
  77   2.0000      -0.361206        -9.8289
  78   2.0000      -0.357416        -9.7258
  79   2.0000      -0.354555        -9.6479
  80   2.0000      -0.349089        -9.4992
  81   2.0000      -0.346960        -9.4413
  82   2.0000      -0.346338        -9.4243
  83   2.0000      -0.341668        -9.2973
  84   2.0000      -0.331591        -9.0230
  85   2.0000      -0.315973        -8.5981
  86   2.0000      -0.310976        -8.4621
  87   2.0000      -0.304387        -8.2828
  88   2.0000      -0.299845        -8.1592
  89   2.0000      -0.297123        -8.0851
  90   2.0000      -0.289573        -7.8797
  91   2.0000      -0.276808        -7.5323
  92   2.0000      -0.269171        -7.3245
  93   2.0000      -0.262251        -7.1362
  94   2.0000      -0.257403        -7.0043
  95   2.0000      -0.233393        -6.3509
  96   2.0000      -0.218771        -5.9531
  97   2.0000      -0.205492        -5.5917
  98   2.0000      -0.199717        -5.4346
  99   2.0000      -0.194987        -5.3059
 100   2.0000      -0.190008        -5.1704
 101   0.0000      -0.044452        -1.2096
 102   0.0000      -0.031935        -0.8690
 103   0.0000      -0.009070        -0.2468
 104   0.0000       0.007390         0.2011
 105   0.0000       0.012834         0.3492

MULLIKEN ATOMIC CHARGES
-----------------------
   0 C :   -0.291827
   1 C :   -0.009264
   2 O :   -0.362160
   3 P :    0.602094
   4 S :   -0.297311
   5 O :   -0.381653
   6 C :    0.011369
   7 C :   -0.362581
   8 S :   -0.131033
   9 C :   -0.336531
  10 S :   -0.125529
  11 P :    0.604635
  12 S :   -0.285491
  13 O :   -0.388578
  14 C :   -0.032838
  15 C :   -0.273290
  16 O :   -0.359285
  17 C :    0.006614
  18 C :   -0.337526
  19 H :    0.118787
  20 H :    0.120022
  21 H :    0.108840
  22 H :    0.111821
  23 H :    0.104365
  24 H :    0.101585
  25 H :    0.113012
  26 H :    0.112167
  27 H :    0.172501
  28 H :    0.108689
  29 H :    0.178326
  30 H :    0.215396
  31 H :    0.108199
  32 H :    0.123760
  33 H :    0.112744
  34 H :    0.111526
  35 H :    0.119121
  36 H :    0.111897
  37 H :    0.114209
  38 H :    0.132434
  39 H :    0.130953
  40 H :    0.119831
Sum of atomic charges:    0.0000000

LOEWDIN ATOMIC CHARGES
----------------------
   0 C :   -0.360984
   1 C :   -0.112799
   2 O :   -0.244119
   3 P :    0.567283
   4 S :   -0.293107
   5 O :   -0.249287
   6 C :   -0.114218
   7 C :   -0.378727
   8 S :    0.060987
   9 C :   -0.482811
  10 S :    0.072812
  11 P :    0.565164
  12 S :   -0.281427
  13 O :   -0.251702
  14 C :   -0.122899
  15 C :   -0.350216
  16 O :   -0.235081
  17 C :   -0.107407
  18 C :   -0.372857
  19 H :    0.119469
  20 H :    0.128627
  21 H :    0.129541
  22 H :    0.122183
  23 H :    0.108113
  24 H :    0.116977
  25 H :    0.114350
  26 H :    0.131088
  27 H :    0.123357
  28 H :    0.118277
  29 H :    0.131568
  30 H :    0.124729
  31 H :    0.102653
  32 H :    0.113241
  33 H :    0.124902
  34 H :    0.130980
  35 H :    0.128253
  36 H :    0.115611
  37 H :    0.124555
  38 H :    0.130032
  39 H :    0.117949
  40 H :    0.134937

  Mayer bond orders larger than 0.100000
B(  0-C ,  1-C ) :   1.1640 B(  0-C , 19-H ) :   0.9361 B(  0-C , 20-H ) :   0.9461
B(  0-C , 21-H ) :   0.9398 B(  1-C ,  2-O ) :   0.8910 B(  1-C , 22-H ) :   0.9343
B(  1-C , 23-H ) :   0.9175 B(  2-O ,  3-P ) :   1.1301 B(  3-P ,  4-S ) :   1.6586
B(  3-P ,  5-O ) :   1.0925 B(  3-P ,  8-S ) :   0.9387 B(  4-S ,  8-S ) :   0.1125
B(  5-O ,  6-C ) :   0.9061 B(  6-C ,  7-C ) :   1.1634 B(  6-C , 24-H ) :   0.9340
B(  6-C , 25-H ) :   0.9176 B(  7-C , 26-H ) :   0.9364 B(  7-C , 27-H ) :   0.9141
B(  7-C , 28-H ) :   0.9427 B(  8-S ,  9-C ) :   0.9739 B(  9-C , 10-S ) :   1.0197
B(  9-C , 29-H ) :   0.9029 B(  9-C , 30-H ) :   0.8495 B( 10-S , 11-P ) :   0.9213
B( 10-S , 12-S ) :   0.1156 B( 11-P , 12-S ) :   1.6740 B( 11-P , 13-O ) :   1.0652
B( 11-P , 16-O ) :   1.1481 B( 13-O , 14-C ) :   0.9021 B( 14-C , 15-C ) :   1.1570
B( 14-C , 31-H ) :   0.9194 B( 14-C , 32-H ) :   0.9124 B( 15-C , 33-H ) :   0.9508
B( 15-C , 34-H ) :   0.9420 B( 15-C , 35-H ) :   0.9502 B( 16-O , 17-C ) :   0.8970
B( 17-C , 18-C ) :   1.1700 B( 17-C , 36-H ) :   0.9272 B( 17-C , 37-H ) :   0.9335
B( 18-C , 38-H ) :   0.9416 B( 18-C , 39-H ) :   0.9306 B( 18-C , 40-H ) :   0.9350

Dispersion correction           -0.064310487
FINAL SINGLE POINT ENERGY     -2929.514570780735

DIPOLE MOMENT
-------------

Method             : SCF
Type of density    : Electron Density
Multiplicity       :   1
Irrep              :   0
Energy             : -2929.6349344567365733 Eh
Relativity type    :
Basis              : AO
                                X                 Y                 Z
Electronic contribution:      3.501317449      11.220096653     -16.060806704
Nuclear contribution   :     -3.878038180     -12.911587771      17.675870349
                        -----------------------------------------
Total Dipole Moment    :     -0.376720731      -1.691491119       1.615063645
                        -----------------------------------------
Magnitude (a.u.)       :      2.368858647
Magnitude (Debye)      :      6.021160172

Rotational constants in cm-1:             0.012080             0.004714             0.004445
Rotational constants in MHz :           362.156556           141.330507           133.270018

                             ****ORCA TERMINATED NORMALLY****
TOTAL RUN TIME: 0 days 0 hours 0 minutes 20 seconds 815 msec
