                         Program Version 6.0.0  -   RELEASE  -
|  1> ! pbe def2-sv(p) def2/J RI DEFGRID1 loosescf d4 GCP(DFT/SV(P)) printgap
|  2> %output
|  3>     printlevel normal
|  4> end
|  5> * xyz 0 1
|  6> C 1.3103048566 -0.7077462564 0.0002769684
|  7> C 1.310414769 0.7076494095 -3.79881e-05
|  8> C 0.0579099957 1.2270935994 -0.0005094997
|  9> S -1.1483207015 4.63586e-05 0.0002029236
| 10> C 0.0577851421 -1.2271131414 -0.0004037379
| 11> H 2.2037999315 -1.3048122511 0.0008793966
| 12> H 2.204114572 1.3046647313 0.0010392832
| 13> H -0.2422938343 2.2552803419 0.0007156434
| 14> H -0.2424692956 -2.2552206866 -0.0010552396
| 15> *
| 16>
| 17>                          ****END OF INPUT****

CARTESIAN COORDINATES (ANGSTROEM)
---------------------------------
  C      1.310305   -0.707746    0.000277
  C      1.310415    0.707649   -0.000038
  C      0.057910    1.227094   -0.000509
  S     -1.148321    0.000046    0.000203
  C      0.057785   -1.227113   -0.000404
  H      2.203800   -1.304812    0.000879
  H      2.204115    1.304665    0.001039
  H     -0.242294    2.255280    0.000716
  H     -0.242469   -2.255221   -0.001055

 Total Charge           Charge          ....    0
 Multiplicity           Mult            ....    1
 Number of Electrons    NEL             ....   44
 Basis Dimension        Dim             ....   82

ORBITAL ENERGIES
----------------

  NO   OCC          E(Eh)            E(eV)
   0   2.0000     -88.059908     -2396.2319
   1   2.0000      -9.908389      -269.6210
   2   2.0000      -9.908365      -269.6203
   3   2.0000      -9.891075      -269.1498
   4   2.0000      -9.890958      -269.1466
   5   2.0000      -7.704359      -209.6463
   6   2.0000      -5.731535      -155.9630
   7   2.0000      -5.726913      -155.8372
   8   2.0000      -5.724406      -155.7690
   9   2.0000      -0.803820       -21.8730
  10   2.0000      -0.664174       -18.0731
  11   2.0000      -0.648267       -17.6402
  12   2.0000      -0.504365       -13.7245
  13   2.0000      -0.496443       -13.5089
  14   2.0000      -0.466741       -12.7007
  15   2.0000      -0.366358        -9.9691
  16   2.0000      -0.348872        -9.4933
  17   2.0000      -0.346439        -9.4271
  18   2.0000      -0.341760        -9.2998
  19   2.0000      -0.307673        -8.3722
  20   2.0000      -0.225167        -6.1271
  21   2.0000      -0.210687        -5.7331
  22   0.0000      -0.038471        -1.0468
  23   0.0000       0.016922         0.4605
  24   0.0000       0.031265         0.8508
  25   0.0000       0.053471         1.4550
  26   0.0000       0.084860         2.3092

MULLIKEN ATOMIC CHARGES
-----------------------
   0 C :   -0.037993
   1 C :   -0.037984
   2 C :   -0.187147
   3 S :    0.108727
   4 C :   -0.187093
   5 H :    0.066561
   6 H :    0.066628
   7 H :    0.104164
   8 H :    0.104137
Sum of atomic charges:    0.0000000

LOEWDIN ATOMIC CHARGES
----------------------
   0 C :   -0.169850
   1 C :   -0.169840
   2 C :   -0.302001
   3 S :    0.426611
   4 C :   -0.302006
   5 H :    0.129162
   6 H :    0.129167
   7 H :    0.129379
   8 H :    0.129379

  Mayer bond orders larger than 0.100000
B(  0-C ,  1-C ) :   1.2793 B(  0-C ,  4-C ) :   1.5566 B(  0-C ,  5-H ) :   0.9711
B(  1-C ,  2-C ) :   1.5566 B(  1-C ,  6-H ) :   0.9710 B(  2-C ,  3-S ) :   1.1883
B(  2-C ,  7-H ) :   0.9474 B(  3-S ,  4-C ) :   1.1883 B(  4-C ,  8-H ) :   0.9474

Dispersion correction           -0.008647408
FINAL SINGLE POINT ENERGY      -552.365401852129

DIPOLE MOMENT
-------------

Method             : SCF
Type of density    : Electron Density
Multiplicity       :   1
Irrep              :   0
Energy             :  -552.3877209055078765 Eh
Relativity type    :
Basis              : AO
                                X                 Y                 Z
Electronic contribution:     -3.556262018       0.000062174      -0.000614899
Nuclear contribution   :      3.713565550      -0.000083763       0.001475631
                        -----------------------------------------
Total Dipole Moment    :      0.157303532      -0.000021589       0.000860732
                        -----------------------------------------
Magnitude (a.u.)       :      0.157305889
Magnitude (Debye)      :      0.399839793

Rotational constants in cm-1:             0.272387             0.180269             0.108477
Rotational constants in MHz :          8165.951524          5404.329130          3252.069502

                             ****ORCA TERMINATED NORMALLY****
TOTAL RUN TIME: 0 days 0 hours 0 minutes 5 seconds 827 msec
