                         Program Version 6.0.0  -   RELEASE  -
|  1> ! r2scan-3c def2/J RI DEFGRID2 scfconv6 printgap
|  2> %output
|  3>     printlevel normal
|  4> end
|  5> * xyz 0 1
|  6> C 2.9782744945 -1.8589504067 0.3019327527
|  7> C 1.6877493459 -1.1566268456 0.1091449304
|  8> C 1.5150426148 0.182969539 0.0039211739
|  9> C 0.2088005335 0.781026069 -0.194672877
| 10> O 0.0721714581 1.9550088494 -0.5086707578
| 11> N -0.8731315969 -0.080931801 0.0013517315
| 12> C -0.7111476 -1.442391492 -0.1754824211
| 13> O -1.6016126699 -2.2222717843 -0.4598346098
| 14> N 0.5652698299 -1.9203894182 -0.0121830915
| 15> C -2.2490899435 0.4892540116 0.166954436
| 16> C -3.1469315532 -0.4877903595 0.9339292956
| 17> C -2.180273291 1.7633823001 1.017494009
| 18> C -2.8227614151 0.7813036862 -1.2182652055
| 19> Cl 2.8369888407 1.3011780974 0.0248560406
| 20> H 2.9189877173 -2.5072828555 1.1728001981
| 21> H 3.7765216528 -1.1380397176 0.439060925
| 22> H 3.1992331116 -2.4753729148 -0.5667356888
| 23> H 0.6574276079 -2.9292370288 -0.0813618326
| 24> H -2.6642511667 -0.8017161179 1.8564357463
| 25> H -4.0727684031 0.0212452956 1.1830294855
| 26> H -3.3867529469 -1.3682483737 0.3488202604
| 27> H -1.6840875669 2.5760379232 0.4981277451
| 28> H -1.6487557043 1.5682550513 1.9464200812
| 29> H -3.1917323571 2.0779101146 1.2544144578
| 30> H -3.8186612131 1.2022110049 -1.123518018
| 31> H -2.1877556586 1.4929503373 -1.7413556941
| 32> H -2.8805688374 -0.1380068255 -1.796786007
| 33> *
| 34>
| 35>                          ****END OF INPUT****

CARTESIAN COORDINATES (ANGSTROEM)
---------------------------------
  C      2.978274   -1.858950    0.301933
  C      1.687749   -1.156627    0.109145
  C      1.515043    0.182970    0.003921
  C      0.208801    0.781026   -0.194673
  O      0.072171    1.955009   -0.508671
  N     -0.873132   -0.080932    0.001352
  C     -0.711148   -1.442391   -0.175482
  O     -1.601613   -2.222272   -0.459835
  N      0.565270   -1.920389   -0.012183
  C     -2.249090    0.489254    0.166954
  C     -3.146932   -0.487790    0.933929
  C     -2.180273    1.763382    1.017494
  C     -2.822761    0.781304   -1.218265
  Cl     2.836989    1.301178    0.024856
  H      2.918988   -2.507283    1.172800
  H      3.776522   -1.138040    0.439061
  H      3.199233   -2.475373   -0.566736
  H      0.657428   -2.929237   -0.081362
  H     -2.664251   -0.801716    1.856436
  H     -4.072768    0.021245    1.183029
  H     -3.386753   -1.368248    0.348820
  H     -1.684088    2.576038    0.498128
  H     -1.648756    1.568255    1.946420
  H     -3.191732    2.077910    1.254414
  H     -3.818661    1.202211   -1.123518
  H     -2.187756    1.492950   -1.741356
  H     -2.880569   -0.138007   -1.796786

 Total Charge           Charge          ....    0
 Multiplicity           Mult            ....    1
 Number of Electrons    NEL             ....  114
 Basis Dimension        Dim             ....  359

ORBITAL ENERGIES
----------------

  NO   OCC          E(Eh)            E(eV)
   0   2.0000    -101.225611     -2754.4889
   1   2.0000     -18.932303      -515.1741
   2   2.0000     -18.928412      -515.0683
   3   2.0000     -14.235218      -387.3600
   4   2.0000     -14.225692      -387.1008
   5   2.0000     -10.182232      -277.0726
   6   2.0000     -10.151602      -276.2391
   7   2.0000     -10.124818      -275.5103
   8   2.0000     -10.102416      -274.9007
   9   2.0000     -10.095568      -274.7144
  10   2.0000     -10.066885      -273.9339
  11   2.0000     -10.017146      -272.5804
  12   2.0000     -10.016453      -272.5615
  13   2.0000     -10.014924      -272.5199
  14   2.0000      -9.380979      -255.2694
  15   2.0000      -7.127662      -193.9535
  16   2.0000      -7.117043      -193.6646
  17   2.0000      -7.116585      -193.6521
  18   2.0000      -1.052496       -28.6399
  19   2.0000      -1.014185       -27.5974
  20   2.0000      -0.956201       -26.0196
  21   2.0000      -0.917028       -24.9536
  22   2.0000      -0.847408       -23.0591
  23   2.0000      -0.782971       -21.3057
  24   2.0000      -0.764667       -20.8076
  25   2.0000      -0.707002       -19.2385
  26   2.0000      -0.660844       -17.9825
  27   2.0000      -0.659514       -17.9463
  28   2.0000      -0.634472       -17.2649
  29   2.0000      -0.624414       -16.9912
  30   2.0000      -0.566636       -15.4190
  31   2.0000      -0.547702       -14.9037
  32   2.0000      -0.514406       -13.9977
  33   2.0000      -0.472677       -12.8622
  34   2.0000      -0.451619       -12.2892
  35   2.0000      -0.437224       -11.8975
  36   2.0000      -0.430823       -11.7233
  37   2.0000      -0.423472       -11.5233
  38   2.0000      -0.416450       -11.3322
  39   2.0000      -0.407538       -11.0897
  40   2.0000      -0.402579       -10.9547
  41   2.0000      -0.397893       -10.8272
  42   2.0000      -0.394946       -10.7470
  43   2.0000      -0.378216       -10.2918
  44   2.0000      -0.366147        -9.9634
  45   2.0000      -0.358093        -9.7442
  46   2.0000      -0.350964        -9.5502
  47   2.0000      -0.335109        -9.1188
  48   2.0000      -0.330633        -8.9970
  49   2.0000      -0.312091        -8.4924
  50   2.0000      -0.306092        -8.3292
  51   2.0000      -0.305425        -8.3110
  52   2.0000      -0.290241        -7.8979
  53   2.0000      -0.260897        -7.0994
  54   2.0000      -0.248524        -6.7627
  55   2.0000      -0.231460        -6.2984
  56   2.0000      -0.216376        -5.8879
  57   0.0000      -0.075518        -2.0549
  58   0.0000      -0.023021        -0.6264
  59   0.0000       0.001047         0.0285
  60   0.0000       0.041830         1.1382
  61   0.0000       0.054993         1.4964

MULLIKEN ATOMIC CHARGES
-----------------------
   0 C :   -0.608828
   1 C :    0.178068
   2 C :   -0.061385
   3 C :    0.154378
   4 O :   -0.415111
   5 N :    0.190996
   6 C :    0.191755
   7 O :   -0.440278
   8 N :   -0.019070
   9 C :    0.107657
  10 C :   -0.478607
  11 C :   -0.501016
  12 C :   -0.567397
  13 Cl:   -0.098054
  14 H :    0.173539
  15 H :    0.190164
  16 H :    0.177095
  17 H :    0.279710
  18 H :    0.158639
  19 H :    0.155258
  20 H :    0.198471
  21 H :    0.202914
  22 H :    0.161250
  23 H :    0.155434
  24 H :    0.156209
  25 H :    0.183893
  26 H :    0.174315
Sum of atomic charges:    0.0000000

LOEWDIN ATOMIC CHARGES
----------------------
   0 C :   -0.349816
   1 C :    0.153601
   2 C :   -0.127595
   3 C :    0.363251
   4 O :   -0.477798
   5 N :   -0.617154
   6 C :    0.462258
   7 O :   -0.426689
   8 N :   -0.522053
   9 C :    0.059105
  10 C :   -0.354762
  11 C :   -0.354138
  12 C :   -0.355718
  13 Cl:    0.181730
  14 H :    0.174741
  15 H :    0.180824
  16 H :    0.175941
  17 H :    0.298893
  18 H :    0.164541
  19 H :    0.159120
  20 H :    0.190391
  21 H :    0.192969
  22 H :    0.165026
  23 H :    0.159062
  24 H :    0.160717
  25 H :    0.174281
  26 H :    0.169273

  Mayer bond orders larger than 0.100000
B(  0-C ,  1-C ) :   0.8506 B(  0-C , 14-H ) :   0.9678 B(  0-C , 15-H ) :   0.9572
B(  0-C , 16-H ) :   0.9656 B(  1-C ,  2-C ) :   1.4874 B(  1-C ,  8-N ) :   1.1425
B(  2-C ,  3-C ) :   0.9613 B(  2-C , 13-Cl) :   1.1341 B(  3-C ,  4-O ) :   1.9053
B(  3-C ,  5-N ) :   1.0750 B(  5-N ,  6-C ) :   1.1279 B(  5-N ,  9-C ) :   0.8341
B(  6-C ,  7-O ) :   1.8976 B(  6-C ,  8-N ) :   1.0368 B(  8-N , 17-H ) :   0.9041
B(  9-C , 10-C ) :   0.8976 B(  9-C , 11-C ) :   0.9068 B(  9-C , 12-C ) :   0.9337
B( 10-C , 18-H ) :   0.9783 B( 10-C , 19-H ) :   0.9683 B( 10-C , 20-H ) :   0.9566
B( 11-C , 21-H ) :   0.9529 B( 11-C , 22-H ) :   0.9779 B( 11-C , 23-H ) :   0.9694
B( 12-C , 24-H ) :   0.9753 B( 12-C , 25-H ) :   0.9653 B( 12-C , 26-H ) :   0.9632

Dispersion correction           -0.011579103
FINAL SINGLE POINT ENERGY     -1070.814781687070

DIPOLE MOMENT
-------------

Method             : SCF
Type of density    : Electron Density
Multiplicity       :   1
Irrep              :   0
Energy             : -1070.8258777213013673 Eh
Relativity type    :
Basis              : AO
                                X                 Y                 Z
Electronic contribution:     18.525459211       2.733655357      -2.596533813
Nuclear contribution   :    -17.888943864      -4.031111842       3.132028312
                        -----------------------------------------
Total Dipole Moment    :      0.636515347      -1.297456485       0.535494500
                        -----------------------------------------
Magnitude (a.u.)       :      1.541200661
Magnitude (Debye)      :      3.917420757

Rotational constants in cm-1:             0.033334             0.016322             0.012068
Rotational constants in MHz :           999.319797           489.333236           361.802714

                             ****ORCA TERMINATED NORMALLY****
TOTAL RUN TIME: 0 days 0 hours 1 minutes 6 seconds 84 msec
