                         Program Version 6.0.0  -   RELEASE  -
|  1> ! r2scan-3c def2/J RI DEFGRID2 scfconv6 printgap
|  2> %output
|  3>     printlevel normal
|  4> end
|  5> %cpcm
|  6>     smd true
|  7>     smdsolvent "water"
|  8> end
|  9> * xyz 0 1
| 10> C 2.9782744945 -1.8589504067 0.3019327527
| 11> C 1.6877493459 -1.1566268456 0.1091449304
| 12> C 1.5150426148 0.182969539 0.0039211739
| 13> C 0.2088005335 0.781026069 -0.194672877
| 14> O 0.0721714581 1.9550088494 -0.5086707578
| 15> N -0.8731315969 -0.080931801 0.0013517315
| 16> C -0.7111476 -1.442391492 -0.1754824211
| 17> O -1.6016126699 -2.2222717843 -0.4598346098
| 18> N 0.5652698299 -1.9203894182 -0.0121830915
| 19> C -2.2490899435 0.4892540116 0.166954436
| 20> C -3.1469315532 -0.4877903595 0.9339292956
| 21> C -2.180273291 1.7633823001 1.017494009
| 22> C -2.8227614151 0.7813036862 -1.2182652055
| 23> Cl 2.8369888407 1.3011780974 0.0248560406
| 24> H 2.9189877173 -2.5072828555 1.1728001981
| 25> H 3.7765216528 -1.1380397176 0.439060925
| 26> H 3.1992331116 -2.4753729148 -0.5667356888
| 27> H 0.6574276079 -2.9292370288 -0.0813618326
| 28> H -2.6642511667 -0.8017161179 1.8564357463
| 29> H -4.0727684031 0.0212452956 1.1830294855
| 30> H -3.3867529469 -1.3682483737 0.3488202604
| 31> H -1.6840875669 2.5760379232 0.4981277451
| 32> H -1.6487557043 1.5682550513 1.9464200812
| 33> H -3.1917323571 2.0779101146 1.2544144578
| 34> H -3.8186612131 1.2022110049 -1.123518018
| 35> H -2.1877556586 1.4929503373 -1.7413556941
| 36> H -2.8805688374 -0.1380068255 -1.796786007
| 37> *
| 38>
| 39>                          ****END OF INPUT****

CARTESIAN COORDINATES (ANGSTROEM)
---------------------------------
  C      2.978274   -1.858950    0.301933
  C      1.687749   -1.156627    0.109145
  C      1.515043    0.182970    0.003921
  C      0.208801    0.781026   -0.194673
  O      0.072171    1.955009   -0.508671
  N     -0.873132   -0.080932    0.001352
  C     -0.711148   -1.442391   -0.175482
  O     -1.601613   -2.222272   -0.459835
  N      0.565270   -1.920389   -0.012183
  C     -2.249090    0.489254    0.166954
  C     -3.146932   -0.487790    0.933929
  C     -2.180273    1.763382    1.017494
  C     -2.822761    0.781304   -1.218265
  Cl     2.836989    1.301178    0.024856
  H      2.918988   -2.507283    1.172800
  H      3.776522   -1.138040    0.439061
  H      3.199233   -2.475373   -0.566736
  H      0.657428   -2.929237   -0.081362
  H     -2.664251   -0.801716    1.856436
  H     -4.072768    0.021245    1.183029
  H     -3.386753   -1.368248    0.348820
  H     -1.684088    2.576038    0.498128
  H     -1.648756    1.568255    1.946420
  H     -3.191732    2.077910    1.254414
  H     -3.818661    1.202211   -1.123518
  H     -2.187756    1.492950   -1.741356
  H     -2.880569   -0.138007   -1.796786

 Total Charge           Charge          ....    0
 Multiplicity           Mult            ....    1
 Number of Electrons    NEL             ....  114
 Basis Dimension        Dim             ....  359

ORBITAL ENERGIES
----------------

  NO   OCC          E(Eh)            E(eV)
   0   2.0000    -101.227872     -2754.5504
   1   2.0000     -18.937793      -515.3236
   2   2.0000     -18.937263      -515.3091
   3   2.0000     -14.226599      -387.1254
   4   2.0000     -14.223848      -387.0506
   5   2.0000     -10.183936      -277.1190
   6   2.0000     -10.157414      -276.3973
   7   2.0000     -10.117440      -275.3095
   8   2.0000     -10.097105      -274.7562
   9   2.0000     -10.093140      -274.6483
  10   2.0000     -10.038968      -273.1742
  11   2.0000     -10.014620      -272.5117
  12   2.0000     -10.011646      -272.4307
  13   2.0000     -10.011334      -272.4222
  14   2.0000      -9.383449      -255.3366
  15   2.0000      -7.129951      -194.0158
  16   2.0000      -7.119561      -193.7331
  17   2.0000      -7.119148      -193.7219
  18   2.0000      -1.054288       -28.6886
  19   2.0000      -1.023132       -27.8408
  20   2.0000      -0.951455       -25.8904
  21   2.0000      -0.915743       -24.9186
  22   2.0000      -0.847008       -23.0483
  23   2.0000      -0.778427       -21.1821
  24   2.0000      -0.753310       -20.4986
  25   2.0000      -0.696144       -18.9431
  26   2.0000      -0.657831       -17.9005
  27   2.0000      -0.657074       -17.8799
  28   2.0000      -0.628143       -17.0926
  29   2.0000      -0.616217       -16.7681
  30   2.0000      -0.562191       -15.2980
  31   2.0000      -0.544100       -14.8057
  32   2.0000      -0.503843       -13.7103
  33   2.0000      -0.468233       -12.7413
  34   2.0000      -0.444688       -12.1006
  35   2.0000      -0.440623       -11.9900
  36   2.0000      -0.426698       -11.6111
  37   2.0000      -0.419307       -11.4099
  38   2.0000      -0.415811       -11.3148
  39   2.0000      -0.399986       -10.8842
  40   2.0000      -0.399653       -10.8751
  41   2.0000      -0.393518       -10.7082
  42   2.0000      -0.386426       -10.5152
  43   2.0000      -0.370897       -10.0926
  44   2.0000      -0.360072        -9.7980
  45   2.0000      -0.353933        -9.6310
  46   2.0000      -0.345523        -9.4022
  47   2.0000      -0.333202        -9.0669
  48   2.0000      -0.327277        -8.9057
  49   2.0000      -0.311592        -8.4788
  50   2.0000      -0.305594        -8.3156
  51   2.0000      -0.304765        -8.2931
  52   2.0000      -0.293231        -7.9792
  53   2.0000      -0.265788        -7.2325
  54   2.0000      -0.253697        -6.9035
  55   2.0000      -0.241425        -6.5695
  56   2.0000      -0.214237        -5.8297
  57   0.0000      -0.070930        -1.9301
  58   0.0000      -0.024417        -0.6644
  59   0.0000       0.004302         0.1171
  60   0.0000       0.056920         1.5489
  61   0.0000       0.058466         1.5909

MULLIKEN ATOMIC CHARGES
-----------------------
   0 C :   -0.621657
   1 C :    0.212339
   2 C :   -0.078229
   3 C :    0.161334
   4 O :   -0.494143
   5 N :    0.204275
   6 C :    0.224119
   7 O :   -0.512012
   8 N :   -0.023587
   9 C :    0.137906
  10 C :   -0.524523
  11 C :   -0.546877
  12 C :   -0.585348
  13 Cl:   -0.129908
  14 H :    0.203569
  15 H :    0.189727
  16 H :    0.207858
  17 H :    0.336267
  18 H :    0.183808
  19 H :    0.179236
  20 H :    0.186948
  21 H :    0.188576
  22 H :    0.184984
  23 H :    0.180148
  24 H :    0.180738
  25 H :    0.177911
  26 H :    0.176540
Sum of atomic charges:    0.0000000

LOEWDIN ATOMIC CHARGES
----------------------
   0 C :   -0.343502
   1 C :    0.181898
   2 C :   -0.140051
   3 C :    0.365900
   4 O :   -0.546211
   5 N :   -0.606426
   6 C :    0.469928
   7 O :   -0.477506
   8 N :   -0.483627
   9 C :    0.061680
  10 C :   -0.358578
  11 C :   -0.358910
  12 C :   -0.359339
  13 Cl:    0.160486
  14 H :    0.190575
  15 H :    0.178834
  16 H :    0.191617
  17 H :    0.317364
  18 H :    0.171332
  19 H :    0.167233
  20 H :    0.184530
  21 H :    0.185825
  22 H :    0.171244
  23 H :    0.167365
  24 H :    0.168478
  25 H :    0.170834
  26 H :    0.169024

  Mayer bond orders larger than 0.100000
B(  0-C ,  1-C ) :   0.8646 B(  0-C , 14-H ) :   0.9467 B(  0-C , 15-H ) :   0.9650
B(  0-C , 16-H ) :   0.9473 B(  1-C ,  2-C ) :   1.4608 B(  1-C ,  8-N ) :   1.1531
B(  2-C ,  3-C ) :   0.9738 B(  2-C , 13-Cl) :   1.0642 B(  3-C ,  4-O ) :   1.8592
B(  3-C ,  5-N ) :   1.0944 B(  5-N ,  6-C ) :   1.1371 B(  5-N ,  9-C ) :   0.8270
B(  6-C ,  7-O ) :   1.8378 B(  6-C ,  8-N ) :   1.0589 B(  8-N , 17-H ) :   0.8795
B(  9-C , 10-C ) :   0.8791 B(  9-C , 11-C ) :   0.8862 B(  9-C , 12-C ) :   0.9371
B( 10-C , 18-H ) :   0.9783 B( 10-C , 19-H ) :   0.9636 B( 10-C , 20-H ) :   0.9584
B( 11-C , 21-H ) :   0.9562 B( 11-C , 22-H ) :   0.9781 B( 11-C , 23-H ) :   0.9645
B( 12-C , 24-H ) :   0.9722 B( 12-C , 25-H ) :   0.9639 B( 12-C , 26-H ) :   0.9600

Dispersion correction           -0.011579103
FINAL SINGLE POINT ENERGY     -1070.830232970555

DIPOLE MOMENT
-------------

Method             : SCF
Type of density    : Electron Density
Multiplicity       :   1
Irrep              :   0
Energy             : -1070.8413290047865303 Eh
Relativity type    :
Basis              : AO
                                X                 Y                 Z
Electronic contribution:     18.793711225       1.951574044      -2.275725729
Nuclear contribution   :    -17.888943864      -4.031111842       3.132028312
                        -----------------------------------------
Total Dipole Moment    :      0.904767361      -2.079537798       0.856302583
                        -----------------------------------------
Magnitude (a.u.)       :      2.424115415
Magnitude (Debye)      :      6.161611714

Rotational constants in cm-1:             0.033334             0.016322             0.012068
Rotational constants in MHz :           999.319797           489.333236           361.802714

                             ****ORCA TERMINATED NORMALLY****
TOTAL RUN TIME: 0 days 0 hours 1 minutes 27 seconds 575 msec
