                         Program Version 6.0.0  -   RELEASE  -
|  1> ! pbe def2-sv(p) def2/J RI DEFGRID1 loosescf d4 GCP(DFT/SV(P)) printgap
|  2> %output
|  3>     printlevel normal
|  4> end
|  5> * xyz 0 1
|  6> C 5.5498268959 -0.4460789125 -0.6994626018
|  7> C 4.3365595816 -1.3281378486 -0.9098652736
|  8> O 3.2545070132 -0.584483326 -1.5246358367
|  9> P 2.0968233959 0.1137325785 -0.7157876638
| 10> S 0.8779764259 1.0062387092 -1.956943927
| 11> O 2.88603035 1.0268596663 0.3096932179
| 12> C 2.2497016202 1.9644645794 1.1996231212
| 13> C 3.3253657481 2.8805965724 1.7447805654
| 14> S 1.2718241878 -1.4248112695 0.5087155996
| 15> C -0.0139574895 -2.0110056526 -0.6425801647
| 16> S -1.6346941738 -2.1907018503 0.1440258416
| 17> P -2.2278681414 -0.1714252764 0.2657089247
| 18> S -1.0925390114 1.1411791631 1.1880477641
| 19> O -3.6923401421 -0.281973225 0.870485062
| 20> C -3.9488249779 -0.2220561189 2.2841355082
| 21> C -3.3986386298 -1.4319289686 3.0112862726
| 22> O -2.5063412254 0.085919072 -1.2708186278
| 23> C -2.6672811349 1.4028935822 -1.8328635222
| 24> C -3.8845169479 2.1121970216 -1.2800832956
| 25> H 5.8535584685 -0.000282276 -1.6427055536
| 26> H 5.3219592701 0.3482981649 0.0058133865
| 27> H 6.363116902 -1.0501355254 -0.3095121832
| 28> H 3.9821347546 -1.7502070958 0.0349527839
| 29> H 4.5464995012 -2.1304375945 -1.6193975814
| 30> H 1.488303592 2.5199331143 0.6432805262
| 31> H 1.7521953993 1.4060917733 1.9968552844
| 32> H 4.0681035116 2.3015048957 2.2857160821
| 33> H 3.8109640792 3.4116972569 0.9307826039
| 34> H 2.8681994976 3.5973478202 2.4186887952
| 35> H 0.2584159166 -3.0050628353 -0.9867436823
| 36> H -0.0850102637 -1.3032064549 -1.4725703539
| 37> H -3.5037185168 0.6976169937 2.6779036699
| 38> H -5.036143623 -0.1688139494 2.3510342049
| 39> H -3.7611059867 -2.3471022687 2.5498207241
| 40> H -2.3097486932 -1.4270593628 2.9683795777
| 41> H -3.7103831451 -1.4009877681 4.0503259396
| 42> H -1.7541934979 1.9755487812 -1.6405033645
| 43> H -2.7529718635 1.2158598859 -2.9041324656
| 44> H -4.7677445027 1.4903426564 -1.4012752594
| 45> H -3.7419780759 2.3221744406 -0.2205645453
| 46> H -4.0230458905 3.0494587397 -1.80977988
| 47> *
| 48>
| 49>                          ****END OF INPUT****

CARTESIAN COORDINATES (ANGSTROEM)
---------------------------------
  C      5.549827   -0.446079   -0.699463
  C      4.336560   -1.328138   -0.909865
  O      3.254507   -0.584483   -1.524636
  P      2.096823    0.113733   -0.715788
  S      0.877976    1.006239   -1.956944
  O      2.886030    1.026860    0.309693
  C      2.249702    1.964465    1.199623
  C      3.325366    2.880597    1.744781
  S      1.271824   -1.424811    0.508716
  C     -0.013957   -2.011006   -0.642580
  S     -1.634694   -2.190702    0.144026
  P     -2.227868   -0.171425    0.265709
  S     -1.092539    1.141179    1.188048
  O     -3.692340   -0.281973    0.870485
  C     -3.948825   -0.222056    2.284136
  C     -3.398639   -1.431929    3.011286
  O     -2.506341    0.085919   -1.270819
  C     -2.667281    1.402894   -1.832864
  C     -3.884517    2.112197   -1.280083
  H      5.853558   -0.000282   -1.642706
  H      5.321959    0.348298    0.005813
  H      6.363117   -1.050136   -0.309512
  H      3.982135   -1.750207    0.034953
  H      4.546500   -2.130438   -1.619398
  H      1.488304    2.519933    0.643281
  H      1.752195    1.406092    1.996855
  H      4.068104    2.301505    2.285716
  H      3.810964    3.411697    0.930783
  H      2.868199    3.597348    2.418689
  H      0.258416   -3.005063   -0.986744
  H     -0.085010   -1.303206   -1.472570
  H     -3.503719    0.697617    2.677904
  H     -5.036144   -0.168814    2.351034
  H     -3.761106   -2.347102    2.549821
  H     -2.309749   -1.427059    2.968380
  H     -3.710383   -1.400988    4.050326
  H     -1.754193    1.975549   -1.640503
  H     -2.752972    1.215860   -2.904132
  H     -4.767745    1.490343   -1.401275
  H     -3.741978    2.322174   -0.220565
  H     -4.023046    3.049459   -1.809780

 Total Charge           Charge          ....    0
 Multiplicity           Mult            ....    1
 Number of Electrons    NEL             ....  202
 Basis Dimension        Dim             ....  334

ORBITAL ENERGIES
----------------

  NO   OCC          E(Eh)            E(eV)
   0   2.0000     -88.040884     -2395.7143
   1   2.0000     -88.037333     -2395.6176
   2   2.0000     -87.981560     -2394.1000
   3   2.0000     -87.980796     -2394.0792
   4   2.0000     -76.422737     -2079.5684
   5   2.0000     -76.422730     -2079.5682
   6   2.0000     -18.794887      -511.4349
   7   2.0000     -18.790117      -511.3051
   8   2.0000     -18.787454      -511.2326
   9   2.0000     -18.783999      -511.1386
  10   2.0000      -9.954107      -270.8650
  11   2.0000      -9.953473      -270.8478
  12   2.0000      -9.950597      -270.7695
  13   2.0000      -9.948571      -270.7144
  14   2.0000      -9.941595      -270.5246
  15   2.0000      -9.886586      -269.0277
  16   2.0000      -9.885102      -268.9873
  17   2.0000      -9.883093      -268.9326
  18   2.0000      -9.877414      -268.7781
  19   2.0000      -7.686405      -209.1577
  20   2.0000      -7.682332      -209.0469
  21   2.0000      -7.626376      -207.5242
  22   2.0000      -7.625956      -207.5128
  23   2.0000      -6.420463      -174.7097
  24   2.0000      -6.420196      -174.7024
  25   2.0000      -5.714247      -155.4926
  26   2.0000      -5.710953      -155.4029
  27   2.0000      -5.710173      -155.3817
  28   2.0000      -5.706945      -155.2939
  29   2.0000      -5.703280      -155.1941
  30   2.0000      -5.699269      -155.0850
  31   2.0000      -5.655124      -153.8837
  32   2.0000      -5.654909      -153.8779
  33   2.0000      -5.647053      -153.6641
  34   2.0000      -5.646807      -153.6574
  35   2.0000      -5.646649      -153.6531
  36   2.0000      -5.645770      -153.6292
  37   2.0000      -4.643320      -126.3512
  38   2.0000      -4.642690      -126.3340
  39   2.0000      -4.642205      -126.3208
  40   2.0000      -4.641981      -126.3147
  41   2.0000      -4.640741      -126.2810
  42   2.0000      -4.640643      -126.2783
  43   2.0000      -0.987160       -26.8620
  44   2.0000      -0.982799       -26.7433
  45   2.0000      -0.943987       -25.6872
  46   2.0000      -0.941941       -25.6315
  47   2.0000      -0.759288       -20.6613
  48   2.0000      -0.720484       -19.6054
  49   2.0000      -0.706685       -19.2299
  50   2.0000      -0.691098       -18.8057
  51   2.0000      -0.684054       -18.6141
  52   2.0000      -0.669972       -18.2309
  53   2.0000      -0.648904       -17.6576
  54   2.0000      -0.633566       -17.2402
  55   2.0000      -0.597399       -16.2561
  56   2.0000      -0.586263       -15.9530
  57   2.0000      -0.569026       -15.4840
  58   2.0000      -0.568831       -15.4787
  59   2.0000      -0.559688       -15.2299
  60   2.0000      -0.507615       -13.8129
  61   2.0000      -0.487614       -13.2687
  62   2.0000      -0.480223       -13.0675
  63   2.0000      -0.468860       -12.7583
  64   2.0000      -0.447816       -12.1857
  65   2.0000      -0.444308       -12.0902
  66   2.0000      -0.439012       -11.9461
  67   2.0000      -0.435256       -11.8439
  68   2.0000      -0.426819       -11.6143
  69   2.0000      -0.417507       -11.3609
  70   2.0000      -0.410109       -11.1596
  71   2.0000      -0.390651       -10.6302
  72   2.0000      -0.388501       -10.5717
  73   2.0000      -0.386230       -10.5098
  74   2.0000      -0.380842       -10.3632
  75   2.0000      -0.372505       -10.1364
  76   2.0000      -0.362784        -9.8719
  77   2.0000      -0.354820        -9.6552
  78   2.0000      -0.353306        -9.6139
  79   2.0000      -0.350691        -9.5428
  80   2.0000      -0.344280        -9.3683
  81   2.0000      -0.343768        -9.3544
  82   2.0000      -0.340904        -9.2765
  83   2.0000      -0.336386        -9.1535
  84   2.0000      -0.331824        -9.0294
  85   2.0000      -0.314800        -8.5661
  86   2.0000      -0.309187        -8.4134
  87   2.0000      -0.298226        -8.1151
  88   2.0000      -0.292660        -7.9637
  89   2.0000      -0.288931        -7.8622
  90   2.0000      -0.277781        -7.5588
  91   2.0000      -0.271637        -7.3916
  92   2.0000      -0.267630        -7.2826
  93   2.0000      -0.260584        -7.0908
  94   2.0000      -0.258177        -7.0254
  95   2.0000      -0.241258        -6.5650
  96   2.0000      -0.222482        -6.0540
  97   2.0000      -0.204516        -5.5652
  98   2.0000      -0.201544        -5.4843
  99   2.0000      -0.191332        -5.2064
 100   2.0000      -0.184319        -5.0156
 101   0.0000      -0.037911        -1.0316
 102   0.0000      -0.028866        -0.7855
 103   0.0000      -0.009804        -0.2668
 104   0.0000       0.005170         0.1407
 105   0.0000       0.023618         0.6427

MULLIKEN ATOMIC CHARGES
-----------------------
   0 C :   -0.293460
   1 C :   -0.011008
   2 O :   -0.355982
   3 P :    0.608333
   4 S :   -0.309090
   5 O :   -0.384167
   6 C :   -0.028596
   7 C :   -0.277614
   8 S :   -0.100209
   9 C :   -0.350035
  10 S :   -0.085427
  11 P :    0.623046
  12 S :   -0.337070
  13 O :   -0.372227
  14 C :   -0.003074
  15 C :   -0.321987
  16 O :   -0.366489
  17 C :   -0.009463
  18 C :   -0.307100
  19 H :    0.119541
  20 H :    0.124340
  21 H :    0.108240
  22 H :    0.099194
  23 H :    0.107501
  24 H :    0.120502
  25 H :    0.119361
  26 H :    0.113976
  27 H :    0.118910
  28 H :    0.114792
  29 H :    0.182521
  30 H :    0.196736
  31 H :    0.109537
  32 H :    0.105013
  33 H :    0.119830
  34 H :    0.130217
  35 H :    0.113363
  36 H :    0.129030
  37 H :    0.104105
  38 H :    0.114863
  39 H :    0.119634
  40 H :    0.110412
Sum of atomic charges:    0.0000000

LOEWDIN ATOMIC CHARGES
----------------------
   0 C :   -0.360674
   1 C :   -0.116304
   2 O :   -0.239410
   3 P :    0.570053
   4 S :   -0.297214
   5 O :   -0.242922
   6 C :   -0.119739
   7 C :   -0.351259
   8 S :    0.061291
   9 C :   -0.479094
  10 S :    0.092969
  11 P :    0.573957
  12 S :   -0.319247
  13 O :   -0.242569
  14 C :   -0.120597
  15 C :   -0.371350
  16 O :   -0.237047
  17 C :   -0.118808
  18 C :   -0.366537
  19 H :    0.128757
  20 H :    0.125687
  21 H :    0.128701
  22 H :    0.101572
  23 H :    0.120158
  24 H :    0.111987
  25 H :    0.111463
  26 H :    0.124312
  27 H :    0.127869
  28 H :    0.132424
  29 H :    0.136268
  30 H :    0.124127
  31 H :    0.109333
  32 H :    0.118591
  33 H :    0.124427
  34 H :    0.122553
  35 H :    0.131362
  36 H :    0.109936
  37 H :    0.119443
  38 H :    0.125094
  39 H :    0.120625
  40 H :    0.129815

  Mayer bond orders larger than 0.100000
B(  0-C ,  1-C ) :   1.1631 B(  0-C , 19-H ) :   0.9469 B(  0-C , 20-H ) :   0.9408
B(  0-C , 21-H ) :   0.9396 B(  1-C ,  2-O ) :   0.8993 B(  1-C , 22-H ) :   0.9098
B(  1-C , 23-H ) :   0.9368 B(  2-O ,  3-P ) :   1.1345 B(  3-P ,  4-S ) :   1.6353
B(  3-P ,  5-O ) :   1.0987 B(  3-P ,  8-S ) :   0.9561 B(  4-S ,  8-S ) :   0.1141
B(  4-S , 30-H ) :   0.1028 B(  5-O ,  6-C ) :   0.8974 B(  6-C ,  7-C ) :   1.1529
B(  6-C , 24-H ) :   0.9151 B(  6-C , 25-H ) :   0.9267 B(  7-C , 26-H ) :   0.9496
B(  7-C , 27-H ) :   0.9500 B(  7-C , 28-H ) :   0.9422 B(  8-S ,  9-C ) :   0.9888
B(  9-C , 10-S ) :   1.0040 B(  9-C , 29-H ) :   0.9122 B(  9-C , 30-H ) :   0.8523
B( 10-S , 11-P ) :   0.9625 B( 10-S , 12-S ) :   0.1162 B( 11-P , 12-S ) :   1.6088
B( 11-P , 13-O ) :   1.1019 B( 11-P , 16-O ) :   1.1329 B( 13-O , 14-C ) :   0.9081
B( 14-C , 15-C ) :   1.1660 B( 14-C , 31-H ) :   0.9133 B( 14-C , 32-H ) :   0.9331
B( 15-C , 33-H ) :   0.9438 B( 15-C , 34-H ) :   0.9336 B( 15-C , 35-H ) :   0.9379
B( 16-O , 17-C ) :   0.8993 B( 17-C , 18-C ) :   1.1624 B( 17-C , 36-H ) :   0.9099
B( 17-C , 37-H ) :   0.9362 B( 18-C , 38-H ) :   0.9448 B( 18-C , 39-H ) :   0.9357
B( 18-C , 40-H ) :   0.9390

Dispersion correction           -0.065538820
FINAL SINGLE POINT ENERGY     -2929.518366641435

DIPOLE MOMENT
-------------

Method             : SCF
Type of density    : Electron Density
Multiplicity       :   1
Irrep              :   0
Energy             : -2929.6375094883051133 Eh
Relativity type    :
Basis              : AO
                                X                 Y                 Z
Electronic contribution:     -4.406707147      -9.489224059      -7.994454105
Nuclear contribution   :      4.699406918       9.247289078       8.737291609
                        -----------------------------------------
Total Dipole Moment    :      0.292699771      -0.241934981       0.742837504
                        -----------------------------------------
Magnitude (a.u.)       :      0.834274084
Magnitude (Debye)      :      2.120556199

Rotational constants in cm-1:             0.012605             0.004848             0.004678
Rotational constants in MHz :           377.873906           145.336301           140.241677

                             ****ORCA TERMINATED NORMALLY****
TOTAL RUN TIME: 0 days 0 hours 0 minutes 20 seconds 556 msec
