                         Program Version 6.0.0  -   RELEASE  -
|  1> ! pbe def2-sv(p) def2/J RI DEFGRID1 loosescf d4 GCP(DFT/SV(P)) printgap
|  2> %output
|  3>     printlevel normal
|  4> end
|  5> * xyz 0 1
|  6> C 3.2665080136 -2.9980843171 -0.7069805997
|  7> C 3.654355995 -1.8838834191 -1.6538697657
|  8> O 3.8209145224 -0.6109287439 -0.9840543695
|  9> P 2.7852984165 0.0995440671 -0.033083563
| 10> S 3.1830542611 2.0065860467 0.1560679395
| 11> O 2.9254316672 -0.743278421 1.3091722434
| 12> C 2.5328250437 -0.2404016777 2.5957304361
| 13> C 1.0266604277 -0.1710969355 2.7464979403
| 14> S 0.8729639801 -0.3934733882 -0.8677130397
| 15> C 0.1877864419 1.2644878418 -1.0925259824
| 16> S -0.9875063251 1.7302396937 0.2020570428
| 17> P -2.5342128134 0.3816312032 -0.3681279881
| 18> S -2.7515573747 0.1812277508 -2.3021572779
| 19> O -3.8222399311 0.9780187977 0.3225051971
| 20> C -4.1979231391 0.7994819704 1.7112280293
| 21> C -3.1274402929 1.2651963241 2.674005972
| 22> O -2.2194545125 -0.9560638368 0.4417277978
| 23> C -1.9812472938 -2.2331243492 -0.1769848834
| 24> C -3.2833464762 -2.9910006933 -0.3419703902
| 25> H 2.2809170561 -2.8027229256 -0.2881788467
| 26> H 3.2387071548 -3.9352760231 -1.2541495979
| 27> H 3.9869750944 -3.0727835402 0.1030545631
| 28> H 2.9019056817 -1.7593955268 -2.4369866286
| 29> H 4.6326060088 -2.0563890398 -2.1049794957
| 30> H 2.9748666128 -0.9488941152 3.2979785201
| 31> H 2.9793006961 0.7492810499 2.7360632471
| 32> H 0.6211078217 0.6009968586 2.0942229576
| 33> H 0.5762365636 -1.1271520901 2.4911594527
| 34> H 0.7803857046 0.07983157 3.7733099277
| 35> H -0.3255815772 1.274727234 -2.0540652492
| 36> H 0.9989913915 1.9945137211 -1.0590184579
| 37> H -5.1076913039 1.3953491527 1.7981634999
| 38> H -4.4282775 -0.2563077774 1.8671322264
| 39> H -3.5121094369 1.2070051766 3.6874947065
| 40> H -2.2468700762 0.6316516454 2.5911162058
| 41> H -2.8413782365 2.2919982881 2.4578726224
| 42> H -1.4958746835 -2.0819186519 -1.1453261491
| 43> H -1.2970718789 -2.7465001161 0.4997385746
| 44> H -3.7730873359 -3.1188920703 0.6194775925
| 45> H -3.9465835939 -2.4414967062 -1.0081959791
| 46> H -3.0790671347 -3.9653667451 -0.7736821469
| 47> *
| 48>
| 49>                          ****END OF INPUT****

CARTESIAN COORDINATES (ANGSTROEM)
---------------------------------
  C      3.266508   -2.998084   -0.706981
  C      3.654356   -1.883883   -1.653870
  O      3.820915   -0.610929   -0.984054
  P      2.785298    0.099544   -0.033084
  S      3.183054    2.006586    0.156068
  O      2.925432   -0.743278    1.309172
  C      2.532825   -0.240402    2.595730
  C      1.026660   -0.171097    2.746498
  S      0.872964   -0.393473   -0.867713
  C      0.187786    1.264488   -1.092526
  S     -0.987506    1.730240    0.202057
  P     -2.534213    0.381631   -0.368128
  S     -2.751557    0.181228   -2.302157
  O     -3.822240    0.978019    0.322505
  C     -4.197923    0.799482    1.711228
  C     -3.127440    1.265196    2.674006
  O     -2.219455   -0.956064    0.441728
  C     -1.981247   -2.233124   -0.176985
  C     -3.283346   -2.991001   -0.341970
  H      2.280917   -2.802723   -0.288179
  H      3.238707   -3.935276   -1.254150
  H      3.986975   -3.072784    0.103055
  H      2.901906   -1.759396   -2.436987
  H      4.632606   -2.056389   -2.104979
  H      2.974867   -0.948894    3.297979
  H      2.979301    0.749281    2.736063
  H      0.621108    0.600997    2.094223
  H      0.576237   -1.127152    2.491159
  H      0.780386    0.079832    3.773310
  H     -0.325582    1.274727   -2.054065
  H      0.998991    1.994514   -1.059018
  H     -5.107691    1.395349    1.798163
  H     -4.428278   -0.256308    1.867132
  H     -3.512109    1.207005    3.687495
  H     -2.246870    0.631652    2.591116
  H     -2.841378    2.291998    2.457873
  H     -1.495875   -2.081919   -1.145326
  H     -1.297072   -2.746500    0.499739
  H     -3.773087   -3.118892    0.619478
  H     -3.946584   -2.441497   -1.008196
  H     -3.079067   -3.965367   -0.773682

 Total Charge           Charge          ....    0
 Multiplicity           Mult            ....    1
 Number of Electrons    NEL             ....  202
 Basis Dimension        Dim             ....  334

ORBITAL ENERGIES
----------------

  NO   OCC          E(Eh)            E(eV)
   0   2.0000     -88.046073     -2395.8554
   1   2.0000     -88.041755     -2395.7380
   2   2.0000     -87.989305     -2394.3107
   3   2.0000     -87.989186     -2394.3075
   4   2.0000     -76.429998     -2079.7660
   5   2.0000     -76.429166     -2079.7433
   6   2.0000     -18.796723      -511.4848
   7   2.0000     -18.796481      -511.4783
   8   2.0000     -18.793303      -511.3918
   9   2.0000     -18.792858      -511.3797
  10   2.0000      -9.963695      -271.1259
  11   2.0000      -9.960752      -271.0458
  12   2.0000      -9.955606      -270.9058
  13   2.0000      -9.952649      -270.8254
  14   2.0000      -9.950020      -270.7538
  15   2.0000      -9.894247      -269.2362
  16   2.0000      -9.893988      -269.2291
  17   2.0000      -9.887184      -269.0440
  18   2.0000      -9.882124      -268.9063
  19   2.0000      -7.690311      -209.2640
  20   2.0000      -7.686235      -209.1531
  21   2.0000      -7.634438      -207.7436
  22   2.0000      -7.634308      -207.7401
  23   2.0000      -6.427483      -174.9007
  24   2.0000      -6.426593      -174.8765
  25   2.0000      -5.718114      -155.5978
  26   2.0000      -5.714788      -155.5073
  27   2.0000      -5.714059      -155.4875
  28   2.0000      -5.710837      -155.3998
  29   2.0000      -5.707546      -155.3102
  30   2.0000      -5.703245      -155.1932
  31   2.0000      -5.663434      -154.1099
  32   2.0000      -5.663278      -154.1056
  33   2.0000      -5.654942      -153.8788
  34   2.0000      -5.654925      -153.8783
  35   2.0000      -5.654618      -153.8700
  36   2.0000      -5.654373      -153.8633
  37   2.0000      -4.650539      -126.5476
  38   2.0000      -4.649226      -126.5119
  39   2.0000      -4.648801      -126.5003
  40   2.0000      -4.648272      -126.4859
  41   2.0000      -4.647954      -126.4772
  42   2.0000      -4.647105      -126.4541
  43   2.0000      -0.990663       -26.9573
  44   2.0000      -0.988666       -26.9030
  45   2.0000      -0.948643       -25.8139
  46   2.0000      -0.947205       -25.7748
  47   2.0000      -0.763065       -20.7641
  48   2.0000      -0.725137       -19.7320
  49   2.0000      -0.715383       -19.4666
  50   2.0000      -0.697316       -18.9749
  51   2.0000      -0.692561       -18.8455
  52   2.0000      -0.678384       -18.4598
  53   2.0000      -0.653817       -17.7913
  54   2.0000      -0.639326       -17.3970
  55   2.0000      -0.603860       -16.4319
  56   2.0000      -0.598047       -16.2737
  57   2.0000      -0.583074       -15.8662
  58   2.0000      -0.578242       -15.7348
  59   2.0000      -0.559778       -15.2323
  60   2.0000      -0.502857       -13.6834
  61   2.0000      -0.494893       -13.4667
  62   2.0000      -0.481936       -13.1141
  63   2.0000      -0.474732       -12.9181
  64   2.0000      -0.460143       -12.5211
  65   2.0000      -0.451350       -12.2819
  66   2.0000      -0.447292       -12.1714
  67   2.0000      -0.440387       -11.9835
  68   2.0000      -0.435306       -11.8453
  69   2.0000      -0.422578       -11.4989
  70   2.0000      -0.411063       -11.1856
  71   2.0000      -0.402820       -10.9613
  72   2.0000      -0.398394       -10.8408
  73   2.0000      -0.391144       -10.6436
  74   2.0000      -0.383051       -10.4233
  75   2.0000      -0.374334       -10.1861
  76   2.0000      -0.370567       -10.0836
  77   2.0000      -0.362496        -9.8640
  78   2.0000      -0.358677        -9.7601
  79   2.0000      -0.357198        -9.7199
  80   2.0000      -0.353570        -9.6211
  81   2.0000      -0.350060        -9.5256
  82   2.0000      -0.346299        -9.4233
  83   2.0000      -0.343588        -9.3495
  84   2.0000      -0.338813        -9.2196
  85   2.0000      -0.322067        -8.7639
  86   2.0000      -0.311067        -8.4646
  87   2.0000      -0.306415        -8.3380
  88   2.0000      -0.297508        -8.0956
  89   2.0000      -0.294127        -8.0036
  90   2.0000      -0.292540        -7.9604
  91   2.0000      -0.277395        -7.5483
  92   2.0000      -0.275766        -7.5040
  93   2.0000      -0.266214        -7.2440
  94   2.0000      -0.259754        -7.0683
  95   2.0000      -0.229983        -6.2582
  96   2.0000      -0.220426        -5.9981
  97   2.0000      -0.215058        -5.8520
  98   2.0000      -0.205527        -5.5927
  99   2.0000      -0.204868        -5.5747
 100   2.0000      -0.201778        -5.4907
 101   0.0000      -0.048125        -1.3095
 102   0.0000      -0.029404        -0.8001
 103   0.0000      -0.014806        -0.4029
 104   0.0000       0.002088         0.0568
 105   0.0000       0.008043         0.2189

MULLIKEN ATOMIC CHARGES
-----------------------
   0 C :   -0.316376
   1 C :   -0.003894
   2 O :   -0.358363
   3 P :    0.605191
   4 S :   -0.306173
   5 O :   -0.373837
   6 C :    0.009599
   7 C :   -0.348271
   8 S :   -0.130270
   9 C :   -0.344788
  10 S :   -0.093038
  11 P :    0.621778
  12 S :   -0.309191
  13 O :   -0.367535
  14 C :    0.007108
  15 C :   -0.356680
  16 O :   -0.389167
  17 C :   -0.015157
  18 C :   -0.290728
  19 H :    0.122814
  20 H :    0.116344
  21 H :    0.126667
  22 H :    0.115394
  23 H :    0.114402
  24 H :    0.101268
  25 H :    0.112420
  26 H :    0.148170
  27 H :    0.115066
  28 H :    0.108984
  29 H :    0.196941
  30 H :    0.192656
  31 H :    0.114434
  32 H :    0.107838
  33 H :    0.118796
  34 H :    0.150131
  35 H :    0.134488
  36 H :    0.114272
  37 H :    0.104293
  38 H :    0.110001
  39 H :    0.124068
  40 H :    0.110344
Sum of atomic charges:    0.0000000

LOEWDIN ATOMIC CHARGES
----------------------
   0 C :   -0.366947
   1 C :   -0.114000
   2 O :   -0.235896
   3 P :    0.571996
   4 S :   -0.299224
   5 O :   -0.243320
   6 C :   -0.117427
   7 C :   -0.375292
   8 S :    0.073266
   9 C :   -0.488825
  10 S :    0.096768
  11 P :    0.573959
  12 S :   -0.303171
  13 O :   -0.240924
  14 C :   -0.106695
  15 C :   -0.376564
  16 O :   -0.251467
  17 C :   -0.123597
  18 C :   -0.361586
  19 H :    0.115951
  20 H :    0.132692
  21 H :    0.130946
  22 H :    0.111471
  23 H :    0.124685
  24 H :    0.117026
  25 H :    0.111600
  26 H :    0.112835
  27 H :    0.122228
  28 H :    0.129002
  29 H :    0.129433
  30 H :    0.127543
  31 H :    0.124499
  32 H :    0.113880
  33 H :    0.134565
  34 H :    0.126081
  35 H :    0.128361
  36 H :    0.103322
  37 H :    0.114841
  38 H :    0.121557
  39 H :    0.125908
  40 H :    0.130522

  Mayer bond orders larger than 0.100000
B(  0-C ,  1-C ) :   1.1695 B(  0-C , 19-H ) :   0.9368 B(  0-C , 20-H ) :   0.9348
B(  0-C , 21-H ) :   0.9420 B(  1-C ,  2-O ) :   0.9026 B(  1-C , 22-H ) :   0.9207
B(  1-C , 23-H ) :   0.9333 B(  2-O ,  3-P ) :   1.1492 B(  3-P ,  4-S ) :   1.6281
B(  3-P ,  5-O ) :   1.0895 B(  3-P ,  8-S ) :   0.9338 B(  4-S ,  8-S ) :   0.1097
B(  4-S , 30-H ) :   0.1085 B(  5-O ,  6-C ) :   0.9111 B(  6-C ,  7-C ) :   1.1601
B(  6-C , 24-H ) :   0.9330 B(  6-C , 25-H ) :   0.9140 B(  7-C , 26-H ) :   0.9190
B(  7-C , 27-H ) :   0.9445 B(  7-C , 28-H ) :   0.9372 B(  8-S ,  9-C ) :   1.0055
B(  9-C , 10-S ) :   1.0158 B(  9-C , 29-H ) :   0.8707 B(  9-C , 30-H ) :   0.8534
B( 10-S , 11-P ) :   0.9552 B( 10-S , 12-S ) :   0.1037 B( 11-P , 12-S ) :   1.6299
B( 11-P , 13-O ) :   1.1430 B( 11-P , 16-O ) :   1.0604 B( 13-O , 14-C ) :   0.8973
B( 14-C , 15-C ) :   1.1682 B( 14-C , 31-H ) :   0.9341 B( 14-C , 32-H ) :   0.9290
B( 15-C , 33-H ) :   0.9339 B( 15-C , 34-H ) :   0.9322 B( 15-C , 35-H ) :   0.9381
B( 16-O , 17-C ) :   0.8984 B( 17-C , 18-C ) :   1.1638 B( 17-C , 36-H ) :   0.9037
B( 17-C , 37-H ) :   0.9319 B( 18-C , 38-H ) :   0.9467 B( 18-C , 39-H ) :   0.9388
B( 18-C , 40-H ) :   0.9402

Dispersion correction           -0.065220082
FINAL SINGLE POINT ENERGY     -2929.515785316570

DIPOLE MOMENT
-------------

Method             : SCF
Type of density    : Electron Density
Multiplicity       :   1
Irrep              :   0
Energy             : -2929.6366552510899055 Eh
Relativity type    :
Basis              : AO
                                X                 Y                 Z
Electronic contribution:      5.555817831      17.630023863     -13.984339086
Nuclear contribution   :     -5.928664273     -19.397442230      15.365625756
                        -----------------------------------------
Total Dipole Moment    :     -0.372846442      -1.767418367       1.381286669
                        -----------------------------------------
Magnitude (a.u.)       :      2.273925024
Magnitude (Debye)      :      5.779858079

Rotational constants in cm-1:             0.011778             0.004939             0.004565
Rotational constants in MHz :           353.101105           148.058829           136.840611

                             ****ORCA TERMINATED NORMALLY****
TOTAL RUN TIME: 0 days 0 hours 0 minutes 21 seconds 829 msec
