                         Program Version 6.0.0  -   RELEASE  -
|  1> ! pbe def2-sv(p) def2/J RI DEFGRID1 loosescf d4 GCP(DFT/SV(P)) printgap
|  2> %output
|  3>     printlevel normal
|  4> end
|  5> * xyz 0 1
|  6> C 5.3996547006 -0.300801643 -0.7493246741
|  7> C 4.3888057163 -0.9395372034 0.1833948891
|  8> O 3.3888776324 0.0147166707 0.591227286
|  9> P 1.9875553938 0.1514087557 -0.1524079883
| 10> S 2.0642179088 0.4071814904 -2.0987034224
| 11> O 1.3242503949 1.2963250227 0.7131553687
| 12> C 1.41467406 2.6855602143 0.3447397915
| 13> C 2.8342927953 3.1999500539 0.442093274
| 14> S 1.0063642985 -1.5834395766 0.5139219878
| 15> C -0.1474562152 -1.8924434322 -0.8696422924
| 16> S -1.8653210615 -1.9543984508 -0.3361379737
| 17> P -2.0771165978 0.1078711558 0.1477759247
| 18> S -1.3599454819 1.3154161504 -1.2216289446
| 19> O -1.3699385842 0.4180720181 1.5218300295
| 20> C -1.8356655531 0.0432443162 2.842742305
| 21> C -1.8761054846 -1.4561713782 3.0528692471
| 22> O -3.6095507732 0.2401995083 0.5349612708
| 23> C -4.7057483894 -0.2989917982 -0.2284819057
| 24> C -4.7301309402 0.2067425651 -1.6551640514
| 25> H 5.857708 0.5605709095 -0.2713179617
| 26> H 6.1678456504 -1.0268592282 -0.994594687
| 27> H 4.9121666544 0.0226793858 -1.6665469353
| 28> H 4.8556429562 -1.2634307208 1.1154063917
| 29> H 3.9002543574 -1.7932944928 -0.2953178534
| 30> H 1.0220565066 2.8013110438 -0.6715085954
| 31> H 0.74481529 3.1841747379 1.0470104538
| 32> H 3.2359892864 3.0056563278 1.4331526861
| 33> H 3.4571396451 2.6972346389 -0.2971328578
| 34> H 2.8435904089 4.2674628843 0.2456919877
| 35> H 0.0773429427 -2.8715553743 -1.2845000367
| 36> H -0.0126548405 -1.1053421075 -1.6176120851
| 37> H -1.1055704263 0.5177081634 3.5006628218
| 38> H -2.8201307314 0.48996458 2.9928491765
| 39> H -0.9156743485 -1.9007539575 2.8003138822
| 40> H -2.0960434362 -1.6559040669 4.0970863513
| 41> H -2.6483365831 -1.9109494443 2.4365258595
| 42> H -4.6327647687 -1.3896368452 -0.2068446266
| 43> H -5.5872608397 0.0276639371 0.3260074346
| 44> H -5.6155411146 -0.1701319854 -2.1566153561
| 45> H -4.7399498799 1.2940313996 -1.6734849963
| 46> H -3.84592217 -0.1358337255 -2.1908199506
| 47> *
| 48>
| 49>                          ****END OF INPUT****

CARTESIAN COORDINATES (ANGSTROEM)
---------------------------------
  C      5.399655   -0.300802   -0.749325
  C      4.388806   -0.939537    0.183395
  O      3.388878    0.014717    0.591227
  P      1.987555    0.151409   -0.152408
  S      2.064218    0.407181   -2.098703
  O      1.324250    1.296325    0.713155
  C      1.414674    2.685560    0.344740
  C      2.834293    3.199950    0.442093
  S      1.006364   -1.583440    0.513922
  C     -0.147456   -1.892443   -0.869642
  S     -1.865321   -1.954398   -0.336138
  P     -2.077117    0.107871    0.147776
  S     -1.359945    1.315416   -1.221629
  O     -1.369939    0.418072    1.521830
  C     -1.835666    0.043244    2.842742
  C     -1.876105   -1.456171    3.052869
  O     -3.609551    0.240200    0.534961
  C     -4.705748   -0.298992   -0.228482
  C     -4.730131    0.206743   -1.655164
  H      5.857708    0.560571   -0.271318
  H      6.167846   -1.026859   -0.994595
  H      4.912167    0.022679   -1.666547
  H      4.855643   -1.263431    1.115406
  H      3.900254   -1.793294   -0.295318
  H      1.022057    2.801311   -0.671509
  H      0.744815    3.184175    1.047010
  H      3.235989    3.005656    1.433153
  H      3.457140    2.697235   -0.297133
  H      2.843590    4.267463    0.245692
  H      0.077343   -2.871555   -1.284500
  H     -0.012655   -1.105342   -1.617612
  H     -1.105570    0.517708    3.500663
  H     -2.820131    0.489965    2.992849
  H     -0.915674   -1.900754    2.800314
  H     -2.096043   -1.655904    4.097086
  H     -2.648337   -1.910949    2.436526
  H     -4.632765   -1.389637   -0.206845
  H     -5.587261    0.027664    0.326007
  H     -5.615541   -0.170132   -2.156615
  H     -4.739950    1.294031   -1.673485
  H     -3.845922   -0.135834   -2.190820

 Total Charge           Charge          ....    0
 Multiplicity           Mult            ....    1
 Number of Electrons    NEL             ....  202
 Basis Dimension        Dim             ....  334

ORBITAL ENERGIES
----------------

  NO   OCC          E(Eh)            E(eV)
   0   2.0000     -88.044333     -2395.8081
   1   2.0000     -88.039906     -2395.6876
   2   2.0000     -87.980051     -2394.0589
   3   2.0000     -87.975789     -2393.9429
   4   2.0000     -76.424365     -2079.6127
   5   2.0000     -76.419598     -2079.4830
   6   2.0000     -18.797917      -511.5173
   7   2.0000     -18.786667      -511.2112
   8   2.0000     -18.785567      -511.1813
   9   2.0000     -18.777567      -510.9636
  10   2.0000      -9.961906      -271.0772
  11   2.0000      -9.953803      -270.8567
  12   2.0000      -9.953097      -270.8375
  13   2.0000      -9.949624      -270.7430
  14   2.0000      -9.936901      -270.3968
  15   2.0000      -9.884561      -268.9726
  16   2.0000      -9.883572      -268.9457
  17   2.0000      -9.877312      -268.7753
  18   2.0000      -9.873851      -268.6811
  19   2.0000      -7.689354      -209.2380
  20   2.0000      -7.685032      -209.1204
  21   2.0000      -7.624965      -207.4858
  22   2.0000      -7.620717      -207.3702
  23   2.0000      -6.421356      -174.7340
  24   2.0000      -6.417098      -174.6181
  25   2.0000      -5.717105      -155.5703
  26   2.0000      -5.713758      -155.4792
  27   2.0000      -5.712882      -155.4554
  28   2.0000      -5.709462      -155.3624
  29   2.0000      -5.706569      -155.2836
  30   2.0000      -5.702033      -155.1602
  31   2.0000      -5.653826      -153.8484
  32   2.0000      -5.649816      -153.7393
  33   2.0000      -5.645717      -153.6278
  34   2.0000      -5.645054      -153.6097
  35   2.0000      -5.641305      -153.5077
  36   2.0000      -5.640713      -153.4916
  37   2.0000      -4.644421      -126.3811
  38   2.0000      -4.643324      -126.3513
  39   2.0000      -4.641228      -126.2942
  40   2.0000      -4.639392      -126.2443
  41   2.0000      -4.638788      -126.2278
  42   2.0000      -4.637909      -126.2039
  43   2.0000      -0.988451       -26.8971
  44   2.0000      -0.978768       -26.6336
  45   2.0000      -0.942887       -25.6573
  46   2.0000      -0.935797       -25.4643
  47   2.0000      -0.762007       -20.7353
  48   2.0000      -0.718466       -19.5505
  49   2.0000      -0.706683       -19.2298
  50   2.0000      -0.691399       -18.8139
  51   2.0000      -0.679722       -18.4962
  52   2.0000      -0.672235       -18.2924
  53   2.0000      -0.648075       -17.6350
  54   2.0000      -0.631158       -17.1747
  55   2.0000      -0.593053       -16.1378
  56   2.0000      -0.586890       -15.9701
  57   2.0000      -0.580637       -15.7999
  58   2.0000      -0.565458       -15.3869
  59   2.0000      -0.557668       -15.1749
  60   2.0000      -0.499672       -13.5968
  61   2.0000      -0.492852       -13.4112
  62   2.0000      -0.470463       -12.8020
  63   2.0000      -0.464915       -12.6510
  64   2.0000      -0.453178       -12.3316
  65   2.0000      -0.440070       -11.9749
  66   2.0000      -0.435796       -11.8586
  67   2.0000      -0.432890       -11.7795
  68   2.0000      -0.431001       -11.7281
  69   2.0000      -0.412818       -11.2333
  70   2.0000      -0.410719       -11.1762
  71   2.0000      -0.401470       -10.9246
  72   2.0000      -0.393410       -10.7052
  73   2.0000      -0.386172       -10.5083
  74   2.0000      -0.380074       -10.3423
  75   2.0000      -0.366117        -9.9626
  76   2.0000      -0.355365        -9.6700
  77   2.0000      -0.352817        -9.6006
  78   2.0000      -0.350965        -9.5502
  79   2.0000      -0.344720        -9.3803
  80   2.0000      -0.343614        -9.3502
  81   2.0000      -0.340600        -9.2682
  82   2.0000      -0.338896        -9.2218
  83   2.0000      -0.331536        -9.0216
  84   2.0000      -0.327892        -8.9224
  85   2.0000      -0.323057        -8.7908
  86   2.0000      -0.308095        -8.3837
  87   2.0000      -0.298681        -8.1275
  88   2.0000      -0.292139        -7.9495
  89   2.0000      -0.290147        -7.8953
  90   2.0000      -0.276980        -7.5370
  91   2.0000      -0.273633        -7.4459
  92   2.0000      -0.264456        -7.1962
  93   2.0000      -0.258312        -7.0290
  94   2.0000      -0.255726        -6.9586
  95   2.0000      -0.233494        -6.3537
  96   2.0000      -0.220292        -5.9945
  97   2.0000      -0.208954        -5.6859
  98   2.0000      -0.198225        -5.3940
  99   2.0000      -0.187947        -5.1143
 100   2.0000      -0.181385        -4.9357
 101   0.0000      -0.040842        -1.1114
 102   0.0000      -0.029007        -0.7893
 103   0.0000      -0.009507        -0.2587
 104   0.0000       0.013471         0.3666
 105   0.0000       0.019630         0.5342

MULLIKEN ATOMIC CHARGES
-----------------------
   0 C :   -0.292569
   1 C :   -0.006745
   2 O :   -0.374740
   3 P :    0.609404
   4 S :   -0.320104
   5 O :   -0.350667
   6 C :   -0.001740
   7 C :   -0.304492
   8 S :   -0.097746
   9 C :   -0.350208
  10 S :   -0.125291
  11 P :    0.602598
  12 S :   -0.299152
  13 O :   -0.344431
  14 C :    0.008228
  15 C :   -0.323191
  16 O :   -0.382629
  17 C :   -0.016421
  18 C :   -0.306307
  19 H :    0.113319
  20 H :    0.105393
  21 H :    0.128542
  22 H :    0.104117
  23 H :    0.096290
  24 H :    0.123173
  25 H :    0.100528
  26 H :    0.111226
  27 H :    0.123223
  28 H :    0.108161
  29 H :    0.181074
  30 H :    0.214026
  31 H :    0.108989
  32 H :    0.106800
  33 H :    0.132145
  34 H :    0.110103
  35 H :    0.117585
  36 H :    0.114864
  37 H :    0.109450
  38 H :    0.110925
  39 H :    0.126562
  40 H :    0.129708
Sum of atomic charges:    0.0000000

LOEWDIN ATOMIC CHARGES
----------------------
   0 C :   -0.363997
   1 C :   -0.117739
   2 O :   -0.247689
   3 P :    0.569771
   4 S :   -0.310809
   5 O :   -0.228355
   6 C :   -0.118204
   7 C :   -0.366847
   8 S :    0.081096
   9 C :   -0.478363
  10 S :    0.068273
  11 P :    0.563749
  12 S :   -0.291455
  13 O :   -0.228310
  14 C :   -0.107821
  15 C :   -0.371940
  16 O :   -0.246120
  17 C :   -0.114706
  18 C :   -0.368575
  19 H :    0.124591
  20 H :    0.127645
  21 H :    0.124194
  22 H :    0.117110
  23 H :    0.104575
  24 H :    0.109133
  25 H :    0.117842
  26 H :    0.123524
  27 H :    0.121146
  28 H :    0.128770
  29 H :    0.136652
  30 H :    0.126666
  31 H :    0.122500
  32 H :    0.112771
  33 H :    0.123280
  34 H :    0.129538
  35 H :    0.115065
  36 H :    0.107410
  37 H :    0.121177
  38 H :    0.130034
  39 H :    0.131133
  40 H :    0.123287

  Mayer bond orders larger than 0.100000
B(  0-C ,  1-C ) :   1.1674 B(  0-C , 19-H ) :   0.9461 B(  0-C , 20-H ) :   0.9398
B(  0-C , 21-H ) :   0.9305 B(  1-C ,  2-O ) :   0.9096 B(  1-C , 22-H ) :   0.9364
B(  1-C , 23-H ) :   0.9127 B(  2-O ,  3-P ) :   1.0946 B(  3-P ,  4-S ) :   1.5974
B(  3-P ,  5-O ) :   1.1542 B(  3-P ,  8-S ) :   0.9648 B(  4-S ,  8-S ) :   0.1159
B(  5-O ,  6-C ) :   0.9013 B(  6-C ,  7-C ) :   1.1575 B(  6-C , 24-H ) :   0.9122
B(  6-C , 25-H ) :   0.9360 B(  7-C , 26-H ) :   0.9449 B(  7-C , 27-H ) :   0.9342
B(  7-C , 28-H ) :   0.9390 B(  8-S ,  9-C ) :   0.9938 B(  9-C , 10-S ) :   1.0096
B(  9-C , 29-H ) :   0.9114 B(  9-C , 30-H ) :   0.8429 B( 10-S , 11-P ) :   0.9264
B( 10-S , 12-S ) :   0.1062 B( 11-P , 12-S ) :   1.6546 B( 11-P , 13-O ) :   1.1432
B( 11-P , 16-O ) :   1.0767 B( 13-O , 14-C ) :   0.8994 B( 14-C , 15-C ) :   1.1695
B( 14-C , 31-H ) :   0.9339 B( 14-C , 32-H ) :   0.9290 B( 15-C , 33-H ) :   0.9368
B( 15-C , 34-H ) :   0.9354 B( 15-C , 35-H ) :   0.9405 B( 16-O , 17-C ) :   0.9122
B( 17-C , 18-C ) :   1.1672 B( 17-C , 36-H ) :   0.9251 B( 17-C , 37-H ) :   0.9335
B( 18-C , 38-H ) :   0.9349 B( 18-C , 39-H ) :   0.9435 B( 18-C , 40-H ) :   0.9309

Dispersion correction           -0.068380481
FINAL SINGLE POINT ENERGY     -2929.514932457198

DIPOLE MOMENT
-------------

Method             : SCF
Type of density    : Electron Density
Multiplicity       :   1
Irrep              :   0
Energy             : -2929.6324027743544320 Eh
Relativity type    :
Basis              : AO
                                X                 Y                 Z
Electronic contribution:     -3.517060264      -3.958154184      -5.178907459
Nuclear contribution   :      2.946391894       3.269460835       6.401001800
                        -----------------------------------------
Total Dipole Moment    :     -0.570668370      -0.688693349       1.222094341
                        -----------------------------------------
Magnitude (a.u.)       :      1.514422496
Magnitude (Debye)      :      3.849356071

Rotational constants in cm-1:             0.013605             0.005162             0.004975
Rotational constants in MHz :           407.874831           154.744274           149.133722

                             ****ORCA TERMINATED NORMALLY****
TOTAL RUN TIME: 0 days 0 hours 0 minutes 21 seconds 622 msec
