                         Program Version 6.0.0  -   RELEASE  -
|  1> ! pbe def2-sv(p) def2/J RI DEFGRID1 loosescf d4 GCP(DFT/SV(P)) printgap
|  2> %output
|  3>     printlevel normal
|  4> end
|  5> * xyz 0 1
|  6> C 4.4528572164 1.0612642829 -1.625864187
|  7> C 3.2069717471 0.3732730011 -2.1407709501
|  8> O 2.710374386 -0.595055619 -1.1911650302
|  9> P 2.0412801884 -0.1695421353 0.1718763747
| 10> S 1.1884082055 1.6042019846 0.2113568536
| 11> O 3.2384244104 -0.2843030407 1.2081505588
| 12> C 3.1069581269 0.1162526867 2.5862452279
| 13> C 4.500441015 0.2929488406 3.1540757185
| 14> S 0.9513083666 -1.9291560188 0.60776533
| 15> C 0.0388155944 -2.1559493619 -0.9592014103
| 16> S -0.5473849891 -0.6258387792 -1.7284421192
| 17> P -2.0687862675 -0.0875104114 -0.3541005676
| 18> S -1.75287608 -0.0160750626 1.5832263019
| 19> O -3.1158595046 -1.1885146033 -0.8001046227
| 20> C -4.247348248 -1.5544925665 0.0156524357
| 21> C -5.2921909742 -0.4593779126 0.0439217968
| 22> O -2.6331388255 1.2340477103 -1.0238365448
| 23> C -2.2698077788 2.5774945009 -0.6459096413
| 24> C -3.2890788801 3.1521172414 0.3184385368
| 25> H 4.206663146 1.6525943957 -0.7445493868
| 26> H 5.2042081739 0.3242386198 -1.355584719
| 27> H 4.8467894948 1.7189350334 -2.3941927829
| 28> H 3.4049125908 -0.2176228929 -3.0355395027
| 29> H 2.4134367241 1.1001319629 -2.3417964935
| 30> H 2.5324429869 1.0484954903 2.6271506918
| 31> H 2.5525541833 -0.662847026 3.1173511706
| 32> H 5.0571586715 -0.6345691808 3.0582712244
| 33> H 5.0265549675 1.0780492154 2.6185679226
| 34> H 4.4245665377 0.5622520572 4.2023573866
| 35> H -0.8045693969 -2.8038067483 -0.72873387
| 36> H 0.7044524809 -2.6187078707 -1.6841353633
| 37> H -4.6248774178 -2.4641628932 -0.4532612063
| 38> H -3.8892894649 -1.772915843 1.0270767227
| 39> H -6.170332298 -0.8119590782 0.5757317942
| 40> H -4.8941106113 0.4149237312 0.5562349794
| 41> H -5.5682190167 -0.1786432037 -0.969052185
| 42> H -1.2702123797 2.5811658608 -0.2033414074
| 43> H -2.2504813176 3.1318512024 -1.5857799307
| 44> H -3.2781283682 2.5911740246 1.250930534
| 45> H -3.0332089689 4.1855097918 0.5286322983
| 46> H -4.284091781 3.1069671766 -0.1158729754
| 47> *
| 48>
| 49>                          ****END OF INPUT****

CARTESIAN COORDINATES (ANGSTROEM)
---------------------------------
  C      4.452857    1.061264   -1.625864
  C      3.206972    0.373273   -2.140771
  O      2.710374   -0.595056   -1.191165
  P      2.041280   -0.169542    0.171876
  S      1.188408    1.604202    0.211357
  O      3.238424   -0.284303    1.208151
  C      3.106958    0.116253    2.586245
  C      4.500441    0.292949    3.154076
  S      0.951308   -1.929156    0.607765
  C      0.038816   -2.155949   -0.959201
  S     -0.547385   -0.625839   -1.728442
  P     -2.068786   -0.087510   -0.354101
  S     -1.752876   -0.016075    1.583226
  O     -3.115860   -1.188515   -0.800105
  C     -4.247348   -1.554493    0.015652
  C     -5.292191   -0.459378    0.043922
  O     -2.633139    1.234048   -1.023837
  C     -2.269808    2.577495   -0.645910
  C     -3.289079    3.152117    0.318439
  H      4.206663    1.652594   -0.744549
  H      5.204208    0.324239   -1.355585
  H      4.846789    1.718935   -2.394193
  H      3.404913   -0.217623   -3.035540
  H      2.413437    1.100132   -2.341796
  H      2.532443    1.048495    2.627151
  H      2.552554   -0.662847    3.117351
  H      5.057159   -0.634569    3.058271
  H      5.026555    1.078049    2.618568
  H      4.424567    0.562252    4.202357
  H     -0.804569   -2.803807   -0.728734
  H      0.704452   -2.618708   -1.684135
  H     -4.624877   -2.464163   -0.453261
  H     -3.889289   -1.772916    1.027077
  H     -6.170332   -0.811959    0.575732
  H     -4.894111    0.414924    0.556235
  H     -5.568219   -0.178643   -0.969052
  H     -1.270212    2.581166   -0.203341
  H     -2.250481    3.131851   -1.585780
  H     -3.278128    2.591174    1.250931
  H     -3.033209    4.185510    0.528632
  H     -4.284092    3.106967   -0.115873

 Total Charge           Charge          ....    0
 Multiplicity           Mult            ....    1
 Number of Electrons    NEL             ....  202
 Basis Dimension        Dim             ....  334

ORBITAL ENERGIES
----------------

  NO   OCC          E(Eh)            E(eV)
   0   2.0000     -88.037658     -2395.6265
   1   2.0000     -88.032191     -2395.4777
   2   2.0000     -87.979016     -2394.0307
   3   2.0000     -87.978440     -2394.0151
   4   2.0000     -76.422513     -2079.5623
   5   2.0000     -76.421440     -2079.5331
   6   2.0000     -18.791461      -511.3416
   7   2.0000     -18.787618      -511.2371
   8   2.0000     -18.787523      -511.2345
   9   2.0000     -18.785788      -511.1873
  10   2.0000      -9.957017      -270.9442
  11   2.0000      -9.950033      -270.7542
  12   2.0000      -9.948299      -270.7070
  13   2.0000      -9.947374      -270.6818
  14   2.0000      -9.945500      -270.6308
  15   2.0000      -9.884910      -268.9821
  16   2.0000      -9.881634      -268.8929
  17   2.0000      -9.881427      -268.8873
  18   2.0000      -9.877080      -268.7690
  19   2.0000      -7.682737      -209.0579
  20   2.0000      -7.677723      -208.9215
  21   2.0000      -7.623858      -207.4557
  22   2.0000      -7.623098      -207.4350
  23   2.0000      -6.419767      -174.6907
  24   2.0000      -6.418664      -174.6607
  25   2.0000      -5.710720      -155.3966
  26   2.0000      -5.707372      -155.3055
  27   2.0000      -5.705849      -155.2641
  28   2.0000      -5.702371      -155.1694
  29   2.0000      -5.699396      -155.0884
  30   2.0000      -5.694203      -154.9471
  31   2.0000      -5.652775      -153.8198
  32   2.0000      -5.651955      -153.7975
  33   2.0000      -5.644400      -153.5919
  34   2.0000      -5.644135      -153.5847
  35   2.0000      -5.643683      -153.5724
  36   2.0000      -5.643386      -153.5643
  37   2.0000      -4.642418      -126.3266
  38   2.0000      -4.641659      -126.3060
  39   2.0000      -4.641193      -126.2933
  40   2.0000      -4.640448      -126.2730
  41   2.0000      -4.640066      -126.2626
  42   2.0000      -4.639186      -126.2387
  43   2.0000      -0.984689       -26.7948
  44   2.0000      -0.981150       -26.6984
  45   2.0000      -0.944604       -25.7040
  46   2.0000      -0.941060       -25.6075
  47   2.0000      -0.759153       -20.6576
  48   2.0000      -0.717834       -19.5332
  49   2.0000      -0.705205       -19.1896
  50   2.0000      -0.686362       -18.6768
  51   2.0000      -0.682434       -18.5700
  52   2.0000      -0.663257       -18.0481
  53   2.0000      -0.648017       -17.6334
  54   2.0000      -0.633601       -17.2412
  55   2.0000      -0.596313       -16.2265
  56   2.0000      -0.589171       -16.0322
  57   2.0000      -0.564982       -15.3739
  58   2.0000      -0.563617       -15.3368
  59   2.0000      -0.561814       -15.2877
  60   2.0000      -0.502574       -13.6757
  61   2.0000      -0.492853       -13.4112
  62   2.0000      -0.476414       -12.9639
  63   2.0000      -0.471712       -12.8359
  64   2.0000      -0.452110       -12.3025
  65   2.0000      -0.439933       -11.9712
  66   2.0000      -0.432860       -11.7787
  67   2.0000      -0.431065       -11.7299
  68   2.0000      -0.423404       -11.5214
  69   2.0000      -0.409580       -11.1452
  70   2.0000      -0.401616       -10.9285
  71   2.0000      -0.395328       -10.7574
  72   2.0000      -0.390368       -10.6225
  73   2.0000      -0.384322       -10.4579
  74   2.0000      -0.377029       -10.2595
  75   2.0000      -0.371833       -10.1181
  76   2.0000      -0.369240       -10.0475
  77   2.0000      -0.354488        -9.6461
  78   2.0000      -0.351703        -9.5703
  79   2.0000      -0.347688        -9.4611
  80   2.0000      -0.345972        -9.4144
  81   2.0000      -0.343128        -9.3370
  82   2.0000      -0.339377        -9.2349
  83   2.0000      -0.334517        -9.1027
  84   2.0000      -0.325902        -8.8683
  85   2.0000      -0.319214        -8.6863
  86   2.0000      -0.307418        -8.3653
  87   2.0000      -0.296472        -8.0674
  88   2.0000      -0.291486        -7.9317
  89   2.0000      -0.282871        -7.6973
  90   2.0000      -0.278542        -7.5795
  91   2.0000      -0.272544        -7.4163
  92   2.0000      -0.267513        -7.2794
  93   2.0000      -0.258243        -7.0272
  94   2.0000      -0.255801        -6.9607
  95   2.0000      -0.244290        -6.6475
  96   2.0000      -0.219760        -5.9800
  97   2.0000      -0.207597        -5.6490
  98   2.0000      -0.186007        -5.0615
  99   2.0000      -0.184179        -5.0118
 100   2.0000      -0.179973        -4.8973
 101   0.0000      -0.047092        -1.2814
 102   0.0000      -0.025858        -0.7036
 103   0.0000      -0.009782        -0.2662
 104   0.0000       0.007496         0.2040
 105   0.0000       0.023742         0.6460

MULLIKEN ATOMIC CHARGES
-----------------------
   0 C :   -0.304697
   1 C :   -0.003775
   2 O :   -0.370340
   3 P :    0.629947
   4 S :   -0.333163
   5 O :   -0.375546
   6 C :   -0.013803
   7 C :   -0.281140
   8 S :   -0.098116
   9 C :   -0.320647
  10 S :   -0.096143
  11 P :    0.622746
  12 S :   -0.310637
  13 O :   -0.372752
  14 C :   -0.004048
  15 C :   -0.315144
  16 O :   -0.379479
  17 C :   -0.020113
  18 C :   -0.300629
  19 H :    0.123322
  20 H :    0.116096
  21 H :    0.110803
  22 H :    0.101986
  23 H :    0.113081
  24 H :    0.109242
  25 H :    0.105575
  26 H :    0.116416
  27 H :    0.117910
  28 H :    0.111647
  29 H :    0.179074
  30 H :    0.187400
  31 H :    0.101252
  32 H :    0.108194
  33 H :    0.110290
  34 H :    0.130163
  35 H :    0.116869
  36 H :    0.134964
  37 H :    0.102273
  38 H :    0.129784
  39 H :    0.108673
  40 H :    0.112465
Sum of atomic charges:   -0.0000000

LOEWDIN ATOMIC CHARGES
----------------------
   0 C :   -0.364874
   1 C :   -0.117699
   2 O :   -0.239997
   3 P :    0.570502
   4 S :   -0.316694
   5 O :   -0.248423
   6 C :   -0.120256
   7 C :   -0.350382
   8 S :    0.071663
   9 C :   -0.467132
  10 S :    0.090190
  11 P :    0.568236
  12 S :   -0.308253
  13 O :   -0.245911
  14 C :   -0.120727
  15 C :   -0.364695
  16 O :   -0.245558
  17 C :   -0.115658
  18 C :   -0.362457
  19 H :    0.122411
  20 H :    0.126260
  21 H :    0.129916
  22 H :    0.117254
  23 H :    0.110960
  24 H :    0.108826
  25 H :    0.111775
  26 H :    0.126729
  27 H :    0.127287
  28 H :    0.130693
  29 H :    0.132528
  30 H :    0.135516
  31 H :    0.116450
  32 H :    0.108185
  33 H :    0.129684
  34 H :    0.124546
  35 H :    0.126457
  36 H :    0.109188
  37 H :    0.117241
  38 H :    0.124375
  39 H :    0.129421
  40 H :    0.122424

  Mayer bond orders larger than 0.100000
B(  0-C ,  1-C ) :   1.1665 B(  0-C , 19-H ) :   0.9335 B(  0-C , 20-H ) :   0.9460
B(  0-C , 21-H ) :   0.9391 B(  1-C ,  2-O ) :   0.8986 B(  1-C , 22-H ) :   0.9343
B(  1-C , 23-H ) :   0.9140 B(  2-O ,  3-P ) :   1.1232 B(  3-P ,  4-S ) :   1.5868
B(  3-P ,  5-O ) :   1.1077 B(  3-P ,  8-S ) :   0.9806 B(  4-S ,  8-S ) :   0.1141
B(  5-O ,  6-C ) :   0.9053 B(  6-C ,  7-C ) :   1.1600 B(  6-C , 24-H ) :   0.9071
B(  6-C , 25-H ) :   0.9301 B(  7-C , 26-H ) :   0.9506 B(  7-C , 27-H ) :   0.9517
B(  7-C , 28-H ) :   0.9420 B(  8-S ,  9-C ) :   0.9849 B(  9-C , 10-S ) :   1.0161
B(  9-C , 29-H ) :   0.9049 B(  9-C , 30-H ) :   0.9096 B( 10-S , 11-P ) :   0.9349
B( 10-S , 12-S ) :   0.1190 B( 11-P , 12-S ) :   1.6350 B( 11-P , 13-O ) :   1.1081
B( 11-P , 16-O ) :   1.1213 B( 13-O , 14-C ) :   0.9098 B( 14-C , 15-C ) :   1.1653
B( 14-C , 31-H ) :   0.9344 B( 14-C , 32-H ) :   0.9113 B( 15-C , 33-H ) :   0.9385
B( 15-C , 34-H ) :   0.9334 B( 15-C , 35-H ) :   0.9464 B( 16-O , 17-C ) :   0.8930
B( 17-C , 18-C ) :   1.1705 B( 17-C , 36-H ) :   0.9043 B( 17-C , 37-H ) :   0.9357
B( 18-C , 38-H ) :   0.9319 B( 18-C , 39-H ) :   0.9390 B( 18-C , 40-H ) :   0.9439

Dispersion correction           -0.066486271
FINAL SINGLE POINT ENERGY     -2929.513175196413

DIPOLE MOMENT
-------------

Method             : SCF
Type of density    : Electron Density
Multiplicity       :   1
Irrep              :   0
Energy             : -2929.6295210784123810 Eh
Relativity type    :
Basis              : AO
                                X                 Y                 Z
Electronic contribution:     -0.219808430     -10.992083783      -4.225871075
Nuclear contribution   :      0.319469184      10.875792074       3.822763990
                        -----------------------------------------
Total Dipole Moment    :      0.099660754      -0.116291710      -0.403107085
                        -----------------------------------------
Magnitude (a.u.)       :      0.431220766
Magnitude (Debye)      :      1.096076081

Rotational constants in cm-1:             0.013034             0.004872             0.004825
Rotational constants in MHz :           390.743922           146.072505           144.661497

                             ****ORCA TERMINATED NORMALLY****
TOTAL RUN TIME: 0 days 0 hours 0 minutes 20 seconds 645 msec
