                         Program Version 6.0.0  -   RELEASE  -
|  1> ! pbe def2-sv(p) def2/J RI DEFGRID1 loosescf d4 GCP(DFT/SV(P)) printgap
|  2> %output
|  3>     printlevel normal
|  4> end
|  5> * xyz 0 1
|  6> C 2.8833705269 -1.4915527069 -2.9186462044
|  7> C 3.2269919965 -0.3938565227 -1.9317409957
|  8> O 2.8676697325 -0.826312762 -0.6046617659
|  9> P 2.1155161064 0.0397833268 0.4851999953
| 10> S 1.489203689 1.7975125846 -0.1598207812
| 11> O 3.2553952521 0.1462183538 1.5882371856
| 12> C 3.039273929 0.2891058214 3.0039670485
| 13> C 2.0643381004 1.3984937109 3.3410365028
| 14> S 0.8212679752 -1.3859808929 1.3594758928
| 15> C -0.0634996396 -2.0263276071 -0.1015562298
| 16> S -0.3356181629 -0.8266534365 -1.4349552118
| 17> P -1.8884368077 0.3155208711 -0.5959368781
| 18> S -2.5369141722 1.8461344687 -1.6306035396
| 19> O -1.2607352659 0.6236977547 0.8247676476
| 20> C -1.9373720323 1.4657506996 1.7827045654
| 21> C -2.6001998398 0.617828805 2.8485620338
| 22> O -3.0294592265 -0.7353338229 -0.2078621908
| 23> C -4.1042606626 -1.0522723541 -1.1066917639
| 24> C -3.6243926533 -1.8421287323 -2.3076239554
| 25> H 3.3686746512 -2.4173675649 -2.6238973835
| 26> H 1.8071226906 -1.6445750848 -2.9540496869
| 27> H 3.2326382101 -1.2001380459 -3.9036899526
| 28> H 2.6948778933 0.5364158811 -2.1605970536
| 29> H 4.3009248846 -0.195792968 -1.9151359353
| 30> H 2.6818073277 -0.6700364575 3.3898481566
| 31> H 4.0354106944 0.4990387315 3.3975107912
| 32> H 1.9794230763 1.4934622794 4.4187078274
| 33> H 2.4024825353 2.3423843413 2.9187648947
| 34> H 1.0841060728 1.1664659831 2.9244635932
| 35> H -1.0198164955 -2.3963365265 0.2625768946
| 36> H 0.5293119872 -2.8235761671 -0.5443878119
| 37> H -1.1546990582 2.1043964985 2.199504885
| 38> H -2.660849038 2.0939485397 1.2522119823
| 39> H -1.86308482 -0.0292178215 3.3171453573
| 40> H -3.0377961592 1.2696934828 3.5978632919
| 41> H -3.3798069529 0.0020914776 2.4074979332
| 42> H -4.8007191337 -1.6275561842 -0.4952605798
| 43> H -4.5715640642 -0.1159512432 -1.4274563857
| 44> H -4.477241177 -2.1141177153 -2.9210894284
| 45> H -2.9443290811 -1.231981211 -2.9019969627
| 46> H -3.1055606083 -2.7436722095 -1.9926445054
| 47> *
| 48>
| 49>                          ****END OF INPUT****

CARTESIAN COORDINATES (ANGSTROEM)
---------------------------------
  C      2.883371   -1.491553   -2.918646
  C      3.226992   -0.393857   -1.931741
  O      2.867670   -0.826313   -0.604662
  P      2.115516    0.039783    0.485200
  S      1.489204    1.797513   -0.159821
  O      3.255395    0.146218    1.588237
  C      3.039274    0.289106    3.003967
  C      2.064338    1.398494    3.341037
  S      0.821268   -1.385981    1.359476
  C     -0.063500   -2.026328   -0.101556
  S     -0.335618   -0.826653   -1.434955
  P     -1.888437    0.315521   -0.595937
  S     -2.536914    1.846134   -1.630604
  O     -1.260735    0.623698    0.824768
  C     -1.937372    1.465751    1.782705
  C     -2.600200    0.617829    2.848562
  O     -3.029459   -0.735334   -0.207862
  C     -4.104261   -1.052272   -1.106692
  C     -3.624393   -1.842129   -2.307624
  H      3.368675   -2.417368   -2.623897
  H      1.807123   -1.644575   -2.954050
  H      3.232638   -1.200138   -3.903690
  H      2.694878    0.536416   -2.160597
  H      4.300925   -0.195793   -1.915136
  H      2.681807   -0.670036    3.389848
  H      4.035411    0.499039    3.397511
  H      1.979423    1.493462    4.418708
  H      2.402483    2.342384    2.918765
  H      1.084106    1.166466    2.924464
  H     -1.019816   -2.396337    0.262577
  H      0.529312   -2.823576   -0.544388
  H     -1.154699    2.104396    2.199505
  H     -2.660849    2.093949    1.252212
  H     -1.863085   -0.029218    3.317145
  H     -3.037796    1.269693    3.597863
  H     -3.379807    0.002091    2.407498
  H     -4.800719   -1.627556   -0.495261
  H     -4.571564   -0.115951   -1.427456
  H     -4.477241   -2.114118   -2.921089
  H     -2.944329   -1.231981   -2.901997
  H     -3.105561   -2.743672   -1.992645

 Total Charge           Charge          ....    0
 Multiplicity           Mult            ....    1
 Number of Electrons    NEL             ....  202
 Basis Dimension        Dim             ....  334

ORBITAL ENERGIES
----------------

  NO   OCC          E(Eh)            E(eV)
   0   2.0000     -88.049142     -2395.9390
   1   2.0000     -88.038147     -2395.6398
   2   2.0000     -87.984865     -2394.1899
   3   2.0000     -87.974106     -2393.8971
   4   2.0000     -76.425534     -2079.6445
   5   2.0000     -76.422812     -2079.5704
   6   2.0000     -18.796520      -511.4793
   7   2.0000     -18.788840      -511.2703
   8   2.0000     -18.786879      -511.2170
   9   2.0000     -18.784729      -511.1585
  10   2.0000      -9.965382      -271.1718
  11   2.0000      -9.955569      -270.9048
  12   2.0000      -9.952838      -270.8305
  13   2.0000      -9.948048      -270.7002
  14   2.0000      -9.946035      -270.6454
  15   2.0000      -9.887518      -269.0530
  16   2.0000      -9.885229      -268.9908
  17   2.0000      -9.884832      -268.9800
  18   2.0000      -9.884175      -268.9621
  19   2.0000      -7.693656      -209.3550
  20   2.0000      -7.683567      -209.0805
  21   2.0000      -7.630074      -207.6249
  22   2.0000      -7.618798      -207.3180
  23   2.0000      -6.423254      -174.7856
  24   2.0000      -6.419413      -174.6811
  25   2.0000      -5.721997      -155.7035
  26   2.0000      -5.717871      -155.5912
  27   2.0000      -5.711722      -155.4239
  28   2.0000      -5.710424      -155.3885
  29   2.0000      -5.708051      -155.3240
  30   2.0000      -5.700166      -155.1094
  31   2.0000      -5.659046      -153.9905
  32   2.0000      -5.650883      -153.7683
  33   2.0000      -5.649994      -153.7442
  34   2.0000      -5.647950      -153.6885
  35   2.0000      -5.639453      -153.4573
  36   2.0000      -5.638786      -153.4392
  37   2.0000      -4.645690      -126.4157
  38   2.0000      -4.645205      -126.4025
  39   2.0000      -4.643643      -126.3599
  40   2.0000      -4.642058      -126.3168
  41   2.0000      -4.641578      -126.3038
  42   2.0000      -4.639543      -126.2484
  43   2.0000      -0.986626       -26.8475
  44   2.0000      -0.980748       -26.6875
  45   2.0000      -0.944069       -25.6894
  46   2.0000      -0.940314       -25.5872
  47   2.0000      -0.766050       -20.8453
  48   2.0000      -0.720363       -19.6021
  49   2.0000      -0.709237       -19.2993
  50   2.0000      -0.688152       -18.7256
  51   2.0000      -0.685485       -18.6530
  52   2.0000      -0.673778       -18.3344
  53   2.0000      -0.650272       -17.6948
  54   2.0000      -0.636295       -17.3145
  55   2.0000      -0.597446       -16.2573
  56   2.0000      -0.588780       -16.0215
  57   2.0000      -0.576712       -15.6931
  58   2.0000      -0.570276       -15.5180
  59   2.0000      -0.562917       -15.3177
  60   2.0000      -0.499821       -13.6008
  61   2.0000      -0.497335       -13.5332
  62   2.0000      -0.473501       -12.8846
  63   2.0000      -0.468147       -12.7389
  64   2.0000      -0.463827       -12.6214
  65   2.0000      -0.443264       -12.0618
  66   2.0000      -0.441290       -12.0081
  67   2.0000      -0.429620       -11.6906
  68   2.0000      -0.426383       -11.6025
  69   2.0000      -0.418184       -11.3794
  70   2.0000      -0.413990       -11.2653
  71   2.0000      -0.401365       -10.9217
  72   2.0000      -0.393570       -10.7096
  73   2.0000      -0.385433       -10.4882
  74   2.0000      -0.381060       -10.3692
  75   2.0000      -0.375741       -10.2244
  76   2.0000      -0.369015       -10.0414
  77   2.0000      -0.356329        -9.6962
  78   2.0000      -0.355710        -9.6794
  79   2.0000      -0.349991        -9.5237
  80   2.0000      -0.347808        -9.4643
  81   2.0000      -0.344348        -9.3702
  82   2.0000      -0.341450        -9.2913
  83   2.0000      -0.336636        -9.1603
  84   2.0000      -0.331745        -9.0272
  85   2.0000      -0.319748        -8.7008
  86   2.0000      -0.313701        -8.5362
  87   2.0000      -0.297170        -8.0864
  88   2.0000      -0.294888        -8.0243
  89   2.0000      -0.287735        -7.8297
  90   2.0000      -0.283716        -7.7203
  91   2.0000      -0.275533        -7.4976
  92   2.0000      -0.271462        -7.3869
  93   2.0000      -0.264224        -7.1899
  94   2.0000      -0.251741        -6.8502
  95   2.0000      -0.234443        -6.3795
  96   2.0000      -0.216228        -5.8839
  97   2.0000      -0.208028        -5.6607
  98   2.0000      -0.199891        -5.4393
  99   2.0000      -0.189192        -5.1482
 100   2.0000      -0.179664        -4.8889
 101   0.0000      -0.051602        -1.4042
 102   0.0000      -0.029158        -0.7934
 103   0.0000      -0.019042        -0.5182
 104   0.0000      -0.005331        -0.1451
 105   0.0000       0.013822         0.3761

MULLIKEN ATOMIC CHARGES
-----------------------
   0 C :   -0.302869
   1 C :   -0.001158
   2 O :   -0.373648
   3 P :    0.601038
   4 S :   -0.311191
   5 O :   -0.366655
   6 C :   -0.006696
   7 C :   -0.338756
   8 S :   -0.125632
   9 C :   -0.314103
  10 S :   -0.089831
  11 P :    0.630651
  12 S :   -0.304224
  13 O :   -0.364183
  14 C :   -0.008415
  15 C :   -0.291099
  16 O :   -0.386702
  17 C :   -0.005554
  18 C :   -0.310352
  19 H :    0.112746
  20 H :    0.124149
  21 H :    0.112131
  22 H :    0.117711
  23 H :    0.103604
  24 H :    0.111348
  25 H :    0.110504
  26 H :    0.109003
  27 H :    0.130329
  28 H :    0.147494
  29 H :    0.182583
  30 H :    0.186424
  31 H :    0.120200
  32 H :    0.102082
  33 H :    0.115006
  34 H :    0.108126
  35 H :    0.112337
  36 H :    0.102163
  37 H :    0.112005
  38 H :    0.113397
  39 H :    0.126449
  40 H :    0.109588
Sum of atomic charges:   -0.0000000

LOEWDIN ATOMIC CHARGES
----------------------
   0 C :   -0.357512
   1 C :   -0.118125
   2 O :   -0.246277
   3 P :    0.562692
   4 S :   -0.308928
   5 O :   -0.248017
   6 C :   -0.114927
   7 C :   -0.372919
   8 S :    0.067740
   9 C :   -0.466173
  10 S :    0.118549
  11 P :    0.569893
  12 S :   -0.307466
  13 O :   -0.237381
  14 C :   -0.115152
  15 C :   -0.358565
  16 O :   -0.253298
  17 C :   -0.123556
  18 C :   -0.367416
  19 H :    0.124132
  20 H :    0.115057
  21 H :    0.131696
  22 H :    0.108938
  23 H :    0.115871
  24 H :    0.106939
  25 H :    0.122346
  26 H :    0.128497
  27 H :    0.131507
  28 H :    0.120395
  29 H :    0.132796
  30 H :    0.137002
  31 H :    0.118670
  32 H :    0.107798
  33 H :    0.123686
  34 H :    0.128257
  35 H :    0.123256
  36 H :    0.116504
  37 H :    0.110221
  38 H :    0.131177
  39 H :    0.121128
  40 H :    0.120966

  Mayer bond orders larger than 0.100000
B(  0-C ,  1-C ) :   1.1598 B(  0-C , 19-H ) :   0.9486 B(  0-C , 20-H ) :   0.9411
B(  0-C , 21-H ) :   0.9407 B(  1-C ,  2-O ) :   0.8993 B(  1-C , 22-H ) :   0.8995
B(  1-C , 23-H ) :   0.9340 B(  2-O ,  3-P ) :   1.1168 B(  3-P ,  4-S ) :   1.6249
B(  3-P ,  5-O ) :   1.1120 B(  3-P ,  8-S ) :   0.9494 B(  4-S ,  8-S ) :   0.1191
B(  5-O ,  6-C ) :   0.9250 B(  6-C ,  7-C ) :   1.1631 B(  6-C , 24-H ) :   0.9235
B(  6-C , 25-H ) :   0.9340 B(  7-C , 26-H ) :   0.9341 B(  7-C , 27-H ) :   0.9399
B(  7-C , 28-H ) :   0.9264 B(  8-S ,  9-C ) :   0.9849 B(  9-C , 10-S ) :   1.0066
B(  9-C , 29-H ) :   0.9007 B(  9-C , 30-H ) :   0.9087 B( 10-S , 11-P ) :   0.9515
B( 11-P , 12-S ) :   1.6666 B( 11-P , 13-O ) :   1.1287 B( 11-P , 16-O ) :   1.0508
B( 13-O , 14-C ) :   0.8943 B( 14-C , 15-C ) :   1.1684 B( 14-C , 31-H ) :   0.9207
B( 14-C , 32-H ) :   0.9074 B( 15-C , 33-H ) :   0.9481 B( 15-C , 34-H ) :   0.9411
B( 15-C , 35-H ) :   0.9434 B( 16-O , 17-C ) :   0.9121 B( 17-C , 18-C ) :   1.1638
B( 17-C , 36-H ) :   0.9336 B( 17-C , 37-H ) :   0.9116 B( 18-C , 38-H ) :   0.9385
B( 18-C , 39-H ) :   0.9346 B( 18-C , 40-H ) :   0.9470

Dispersion correction           -0.068561081
FINAL SINGLE POINT ENERGY     -2929.506260510092

DIPOLE MOMENT
-------------

Method             : SCF
Type of density    : Electron Density
Multiplicity       :   1
Irrep              :   0
Energy             : -2929.6229133581514361 Eh
Relativity type    :
Basis              : AO
                                X                 Y                 Z
Electronic contribution:      4.501247502       6.098158854      -5.226221746
Nuclear contribution   :     -4.755290925      -7.596810670       6.036377935
                        -----------------------------------------
Total Dipole Moment    :     -0.254043423      -1.498651816       0.810156189
                        -----------------------------------------
Magnitude (a.u.)       :      1.722454173
Magnitude (Debye)      :      4.378130571

Rotational constants in cm-1:             0.011055             0.006273             0.005203
Rotational constants in MHz :           331.435092           188.056164           155.974986

                             ****ORCA TERMINATED NORMALLY****
TOTAL RUN TIME: 0 days 0 hours 0 minutes 23 seconds 687 msec
