                         Program Version 6.0.0  -   RELEASE  -
|  1> ! pbe def2-sv(p) def2/J RI DEFGRID1 loosescf d4 GCP(DFT/SV(P)) printgap
|  2> %output
|  3>     printlevel normal
|  4> end
|  5> * xyz 0 1
|  6> C 3.7287151286 1.7121041805 -0.8302171285
|  7> C 2.2858426675 1.8022182038 -0.3788190811
|  8> O 1.655806897 0.512282068 -0.3836860347
|  9> P 2.0109186625 -0.6205654883 0.6858846897
| 10> S 2.6984178087 0.05435437 2.3852049947
| 11> O 3.0271415855 -1.6339105685 0.0169666422
| 12> C 2.7116637678 -2.5936952227 -1.0188705675
| 13> C 2.36103924 -1.9356850102 -2.3368007072
| 14> S 0.1939684971 -1.6905763096 0.7442018446
| 15> C -0.6193589009 -0.6377954378 1.9704516289
| 16> S -0.9530340408 1.0485110433 1.3853411202
| 17> P -2.0057369569 0.5965011624 -0.4040992131
| 18> S -1.0609787879 0.2322360164 -2.0852388314
| 19> O -3.0227737477 1.8166327728 -0.5317706125
| 20> C -2.6931803366 3.0184457141 -1.2443419915
| 21> C -1.6623060741 3.8425301795 -0.4994684541
| 22> O -2.9539978449 -0.5456038421 0.1354074716
| 23> C -3.4721906507 -1.6189040577 -0.6841070733
| 24> C -3.2481431745 -2.9366315074 0.0298350203
| 25> H 3.7842421089 1.296118649 -1.8327364862
| 26> H 4.1719622163 2.7027836989 -0.8247970071
| 27> H 4.284452907 1.0686923526 -0.1476683873
| 28> H 1.6823803669 2.3942936943 -1.0695110209
| 29> H 2.217941612 2.2208797906 0.630988468
| 30> H 3.6245705872 -3.186753124 -1.095669602
| 31> H 1.8900611922 -3.2234542758 -0.6664010535
| 32> H 1.450667421 -1.345472299 -2.2452243054
| 33> H 3.1691570551 -1.2853657048 -2.6611335997
| 34> H 2.2021555301 -2.7059543082 -3.0849723523
| 35> H 0.03101819 -0.525994267 2.8391795165
| 36> H -1.5549881634 -1.1249769513 2.2329268283
| 37> H -2.3244602985 2.7419006941 -2.2382186353
| 38> H -3.6439820946 3.5450926705 -1.33477418
| 39> H -1.4766863639 4.7668214506 -1.0369063006
| 40> H -2.0122914355 4.0693660085 0.5042558743
| 41> H -0.7299695613 3.2822990007 -0.4208697224
| 42> H -4.535039199 -1.4153518403 -0.8274422947
| 43> H -2.9630985776 -1.6014668419 -1.6537236859
| 44> H -3.7396790804 -2.9264214763 0.9985187176
| 45> H -3.6616645273 -3.7389677495 -0.5722242661
| 46> H -2.1832991628 -3.1097190386 0.1734540792
| 47> *
| 48>
| 49>                          ****END OF INPUT****

CARTESIAN COORDINATES (ANGSTROEM)
---------------------------------
  C      3.728715    1.712104   -0.830217
  C      2.285843    1.802218   -0.378819
  O      1.655807    0.512282   -0.383686
  P      2.010919   -0.620565    0.685885
  S      2.698418    0.054354    2.385205
  O      3.027142   -1.633911    0.016967
  C      2.711664   -2.593695   -1.018871
  C      2.361039   -1.935685   -2.336801
  S      0.193968   -1.690576    0.744202
  C     -0.619359   -0.637795    1.970452
  S     -0.953034    1.048511    1.385341
  P     -2.005737    0.596501   -0.404099
  S     -1.060979    0.232236   -2.085239
  O     -3.022774    1.816633   -0.531771
  C     -2.693180    3.018446   -1.244342
  C     -1.662306    3.842530   -0.499468
  O     -2.953998   -0.545604    0.135407
  C     -3.472191   -1.618904   -0.684107
  C     -3.248143   -2.936632    0.029835
  H      3.784242    1.296119   -1.832736
  H      4.171962    2.702784   -0.824797
  H      4.284453    1.068692   -0.147668
  H      1.682380    2.394294   -1.069511
  H      2.217942    2.220880    0.630988
  H      3.624571   -3.186753   -1.095670
  H      1.890061   -3.223454   -0.666401
  H      1.450667   -1.345472   -2.245224
  H      3.169157   -1.285366   -2.661134
  H      2.202156   -2.705954   -3.084972
  H      0.031018   -0.525994    2.839180
  H     -1.554988   -1.124977    2.232927
  H     -2.324460    2.741901   -2.238219
  H     -3.643982    3.545093   -1.334774
  H     -1.476686    4.766821   -1.036906
  H     -2.012291    4.069366    0.504256
  H     -0.729970    3.282299   -0.420870
  H     -4.535039   -1.415352   -0.827442
  H     -2.963099   -1.601467   -1.653724
  H     -3.739679   -2.926421    0.998519
  H     -3.661665   -3.738968   -0.572224
  H     -2.183299   -3.109719    0.173454

 Total Charge           Charge          ....    0
 Multiplicity           Mult            ....    1
 Number of Electrons    NEL             ....  202
 Basis Dimension        Dim             ....  334

ORBITAL ENERGIES
----------------

  NO   OCC          E(Eh)            E(eV)
   0   2.0000     -88.044897     -2395.8234
   1   2.0000     -88.041172     -2395.7221
   2   2.0000     -87.986255     -2394.2277
   3   2.0000     -87.981668     -2394.1029
   4   2.0000     -76.427204     -2079.6900
   5   2.0000     -76.423500     -2079.5892
   6   2.0000     -18.795667      -511.4561
   7   2.0000     -18.792256      -511.3633
   8   2.0000     -18.789059      -511.2763
   9   2.0000     -18.782625      -511.1012
  10   2.0000      -9.958439      -270.9829
  11   2.0000      -9.958420      -270.9824
  12   2.0000      -9.954984      -270.8889
  13   2.0000      -9.952049      -270.8090
  14   2.0000      -9.943164      -270.5672
  15   2.0000      -9.890686      -269.1393
  16   2.0000      -9.888361      -269.0760
  17   2.0000      -9.883163      -268.9345
  18   2.0000      -9.878912      -268.8189
  19   2.0000      -7.689682      -209.2469
  20   2.0000      -7.686144      -209.1506
  21   2.0000      -7.631001      -207.6501
  22   2.0000      -7.626979      -207.5407
  23   2.0000      -6.424619      -174.8228
  24   2.0000      -6.421133      -174.7279
  25   2.0000      -5.717473      -155.5803
  26   2.0000      -5.714351      -155.4954
  27   2.0000      -5.714314      -155.4944
  28   2.0000      -5.710675      -155.3954
  29   2.0000      -5.706580      -155.2839
  30   2.0000      -5.702805      -155.1812
  31   2.0000      -5.659760      -154.0099
  32   2.0000      -5.655997      -153.9075
  33   2.0000      -5.651868      -153.7951
  34   2.0000      -5.651074      -153.7735
  35   2.0000      -5.647888      -153.6869
  36   2.0000      -5.646674      -153.6538
  37   2.0000      -4.647311      -126.4598
  38   2.0000      -4.646387      -126.4346
  39   2.0000      -4.644958      -126.3957
  40   2.0000      -4.643968      -126.3688
  41   2.0000      -4.642659      -126.3332
  42   2.0000      -4.641608      -126.3046
  43   2.0000      -0.987602       -26.8740
  44   2.0000      -0.980349       -26.6766
  45   2.0000      -0.947363       -25.7791
  46   2.0000      -0.941408       -25.6170
  47   2.0000      -0.765967       -20.8430
  48   2.0000      -0.722763       -19.6674
  49   2.0000      -0.709628       -19.3100
  50   2.0000      -0.689350       -18.7582
  51   2.0000      -0.687286       -18.7020
  52   2.0000      -0.672494       -18.2995
  53   2.0000      -0.650985       -17.7142
  54   2.0000      -0.638877       -17.3847
  55   2.0000      -0.600241       -16.3334
  56   2.0000      -0.590975       -16.0812
  57   2.0000      -0.574523       -15.6336
  58   2.0000      -0.573813       -15.6142
  59   2.0000      -0.561844       -15.2886
  60   2.0000      -0.504460       -13.7271
  61   2.0000      -0.493821       -13.4376
  62   2.0000      -0.474711       -12.9175
  63   2.0000      -0.473390       -12.8816
  64   2.0000      -0.458522       -12.4770
  65   2.0000      -0.443170       -12.0593
  66   2.0000      -0.441953       -12.0261
  67   2.0000      -0.433863       -11.8060
  68   2.0000      -0.427011       -11.6196
  69   2.0000      -0.416655       -11.3378
  70   2.0000      -0.408273       -11.1097
  71   2.0000      -0.397756       -10.8235
  72   2.0000      -0.392446       -10.6790
  73   2.0000      -0.388263       -10.5652
  74   2.0000      -0.382958       -10.4208
  75   2.0000      -0.376959       -10.2576
  76   2.0000      -0.368541       -10.0285
  77   2.0000      -0.360454        -9.8085
  78   2.0000      -0.357287        -9.7223
  79   2.0000      -0.349265        -9.5040
  80   2.0000      -0.346063        -9.4169
  81   2.0000      -0.345343        -9.3973
  82   2.0000      -0.343260        -9.3406
  83   2.0000      -0.342732        -9.3262
  84   2.0000      -0.333677        -9.0798
  85   2.0000      -0.318345        -8.6626
  86   2.0000      -0.309364        -8.4182
  87   2.0000      -0.303565        -8.2604
  88   2.0000      -0.298123        -8.1123
  89   2.0000      -0.286954        -7.8084
  90   2.0000      -0.280033        -7.6201
  91   2.0000      -0.271976        -7.4009
  92   2.0000      -0.270374        -7.3573
  93   2.0000      -0.264990        -7.2107
  94   2.0000      -0.261943        -7.1278
  95   2.0000      -0.232559        -6.3283
  96   2.0000      -0.220872        -6.0102
  97   2.0000      -0.207690        -5.6515
  98   2.0000      -0.200127        -5.4457
  99   2.0000      -0.196354        -5.3431
 100   2.0000      -0.193637        -5.2691
 101   0.0000      -0.050657        -1.3784
 102   0.0000      -0.025329        -0.6892
 103   0.0000      -0.018287        -0.4976
 104   0.0000       0.002561         0.0697
 105   0.0000       0.015933         0.4336

MULLIKEN ATOMIC CHARGES
-----------------------
   0 C :   -0.307696
   1 C :   -0.022267
   2 O :   -0.363881
   3 P :    0.635996
   4 S :   -0.322767
   5 O :   -0.369659
   6 C :   -0.025303
   7 C :   -0.331870
   8 S :   -0.125871
   9 C :   -0.332134
  10 S :   -0.092786
  11 P :    0.614211
  12 S :   -0.316950
  13 O :   -0.365703
  14 C :   -0.001524
  15 C :   -0.343412
  16 O :   -0.375939
  17 C :   -0.003974
  18 C :   -0.307394
  19 H :    0.116012
  20 H :    0.109086
  21 H :    0.126741
  22 H :    0.113766
  23 H :    0.111776
  24 H :    0.113567
  25 H :    0.119282
  26 H :    0.157766
  27 H :    0.120813
  28 H :    0.110203
  29 H :    0.193424
  30 H :    0.188283
  31 H :    0.108590
  32 H :    0.106243
  33 H :    0.115676
  34 H :    0.124137
  35 H :    0.143487
  36 H :    0.107352
  37 H :    0.110943
  38 H :    0.117834
  39 H :    0.113863
  40 H :    0.130080
Sum of atomic charges:    0.0000000

LOEWDIN ATOMIC CHARGES
----------------------
   0 C :   -0.365119
   1 C :   -0.124605
   2 O :   -0.239468
   3 P :    0.574536
   4 S :   -0.314901
   5 O :   -0.241823
   6 C :   -0.114625
   7 C :   -0.370682
   8 S :    0.085273
   9 C :   -0.473556
  10 S :    0.088310
  11 P :    0.569437
  12 S :   -0.306137
  13 O :   -0.245625
  14 C :   -0.121871
  15 C :   -0.370727
  16 O :   -0.242553
  17 C :   -0.115854
  18 C :   -0.358341
  19 H :    0.122580
  20 H :    0.129572
  21 H :    0.124086
  22 H :    0.115253
  23 H :    0.107764
  24 H :    0.123421
  25 H :    0.107174
  26 H :    0.126419
  27 H :    0.126047
  28 H :    0.130701
  29 H :    0.132225
  30 H :    0.133485
  31 H :    0.107589
  32 H :    0.119310
  33 H :    0.132325
  34 H :    0.127757
  35 H :    0.120145
  36 H :    0.117397
  37 H :    0.107754
  38 H :    0.125471
  39 H :    0.132399
  40 H :    0.119456

  Mayer bond orders larger than 0.100000
B(  0-C ,  1-C ) :   1.1611 B(  0-C , 19-H ) :   0.9430 B(  0-C , 20-H ) :   0.9398
B(  0-C , 21-H ) :   0.9339 B(  1-C ,  2-O ) :   0.9076 B(  1-C , 22-H ) :   0.9210
B(  1-C , 23-H ) :   0.9130 B(  2-O ,  3-P ) :   1.0961 B(  3-P ,  4-S ) :   1.6235
B(  3-P ,  5-O ) :   1.1277 B(  3-P ,  8-S ) :   0.9430 B(  5-O ,  6-C ) :   0.9058
B(  6-C ,  7-C ) :   1.1634 B(  6-C , 24-H ) :   0.9345 B(  6-C , 25-H ) :   0.9174
B(  7-C , 26-H ) :   0.9243 B(  7-C , 27-H ) :   0.9417 B(  7-C , 28-H ) :   0.9352
B(  8-S ,  9-C ) :   1.0184 B(  9-C , 10-S ) :   1.0013 B(  9-C , 29-H ) :   0.8786
B(  9-C , 30-H ) :   0.9011 B( 10-S , 11-P ) :   0.9542 B( 10-S , 12-S ) :   0.1072
B( 11-P , 12-S ) :   1.6193 B( 11-P , 13-O ) :   1.1090 B( 11-P , 16-O ) :   1.1181
B( 13-O , 14-C ) :   0.9163 B( 14-C , 15-C ) :   1.1599 B( 14-C , 31-H ) :   0.9112
B( 14-C , 32-H ) :   0.9325 B( 15-C , 33-H ) :   0.9388 B( 15-C , 34-H ) :   0.9431
B( 15-C , 35-H ) :   0.9271 B( 16-O , 17-C ) :   0.8953 B( 17-C , 18-C ) :   1.1648
B( 17-C , 36-H ) :   0.9332 B( 17-C , 37-H ) :   0.9002 B( 18-C , 38-H ) :   0.9480
B( 18-C , 39-H ) :   0.9397 B( 18-C , 40-H ) :   0.9382

Dispersion correction           -0.068447540
FINAL SINGLE POINT ENERGY     -2929.517462439298

DIPOLE MOMENT
-------------

Method             : SCF
Type of density    : Electron Density
Multiplicity       :   1
Irrep              :   0
Energy             : -2929.6346386707327838 Eh
Relativity type    :
Basis              : AO
                                X                 Y                 Z
Electronic contribution:     -0.508714752      -1.982950322      12.829760452
Nuclear contribution   :     -0.346195705       1.814982839     -13.780174821
                        -----------------------------------------
Total Dipole Moment    :     -0.854910457      -0.167967483      -0.950414369
                        -----------------------------------------
Magnitude (a.u.)       :      1.289330229
Magnitude (Debye)      :      3.277216997

Rotational constants in cm-1:             0.010550             0.006259             0.005494
Rotational constants in MHz :           316.288094           187.634090           164.708180

                             ****ORCA TERMINATED NORMALLY****
TOTAL RUN TIME: 0 days 0 hours 0 minutes 22 seconds 229 msec
