                         Program Version 6.0.0  -   RELEASE  -
|  1> ! pbe def2-sv(p) def2/J RI DEFGRID1 loosescf d4 GCP(DFT/SV(P)) printgap
|  2> %output
|  3>     printlevel normal
|  4> end
|  5> * xyz 0 1
|  6> C 3.8016589099 1.4756625028 -1.1600299407
|  7> C 2.3487459001 1.6183812045 -0.7570182582
|  8> O 1.7516878271 0.3361368886 -0.5168387534
|  9> P 2.0362203198 -0.516607889 0.805613695
| 10> S 2.6540619045 0.535021519 2.3311033517
| 11> O 3.0708478909 -1.6576838354 0.4395760219
| 12> C 2.7980987524 -2.8306965482 -0.3624610726
| 13> C 2.5209365734 -2.4943225875 -1.8125503028
| 14> S 0.2091931105 -1.5423816314 1.0210930534
| 15> C -0.6608166427 -0.2231179432 1.908016422
| 16> S -0.8668411127 1.3005393332 0.9453871675
| 17> P -1.8511901369 0.525135985 -0.7718540603
| 18> S -0.8965327194 -0.3885012507 -2.2073606199
| 19> O -2.5399771277 1.8202671327 -1.3694961384
| 20> C -3.4137969248 2.695423599 -0.6137115078
| 21> C -2.7105080972 4.0018613742 -0.3046968308
| 22> O -3.0173290561 -0.3143955608 -0.07239508
| 23> C -3.4537794007 -1.6238592002 -0.4936990471
| 24> C -3.2537416616 -2.6277999321 0.6239480511
| 25> H 3.8849620338 0.8681672438 -2.0573841359
| 26> H 4.223390605 2.457891532 -1.347801269
| 27> H 4.3571835722 0.996298532 -0.35369348
| 28> H 1.7426942161 2.0500284399 -1.5560505696
| 29> H 2.2535294013 2.2253917837 0.1500057192
| 30> H 3.7080040338 -3.4234449684 -0.2537579711
| 31> H 1.953798468 -3.3646611857 0.0823769426
| 32> H 1.6095663877 -1.9057007895 -1.9073915796
| 33> H 3.348428749 -1.929314427 -2.233759193
| 34> H 2.3980708311 -3.4164415842 -2.3718914495
| 35> H -0.0845968007 0.0617739353 2.7890407547
| 36> H -1.6359783289 -0.6186135739 2.1812234439
| 37> H -4.2755702173 2.8554170901 -1.2638990977
| 38> H -3.7296319656 2.1856453537 0.2991184488
| 39> H -2.364597229 4.4638811033 -1.2251510516
| 40> H -3.4050317255 4.6704384533 0.1939350075
| 41> H -1.8541216219 3.8291223576 0.3439619188
| 42> H -4.5109153688 -1.5157243267 -0.7441525021
| 43> H -2.8935644868 -1.9119157341 -1.3893223046
| 44> H -3.7686150515 -2.2986542793 1.5223910104
| 45> H -3.6611172823 -3.583785685 0.3116874788
| 46> H -2.1938922772 -2.750867051 0.8401032119
| 47> *
| 48>
| 49>                          ****END OF INPUT****

CARTESIAN COORDINATES (ANGSTROEM)
---------------------------------
  C      3.801659    1.475663   -1.160030
  C      2.348746    1.618381   -0.757018
  O      1.751688    0.336137   -0.516839
  P      2.036220   -0.516608    0.805614
  S      2.654062    0.535022    2.331103
  O      3.070848   -1.657684    0.439576
  C      2.798099   -2.830697   -0.362461
  C      2.520937   -2.494323   -1.812550
  S      0.209193   -1.542382    1.021093
  C     -0.660817   -0.223118    1.908016
  S     -0.866841    1.300539    0.945387
  P     -1.851190    0.525136   -0.771854
  S     -0.896533   -0.388501   -2.207361
  O     -2.539977    1.820267   -1.369496
  C     -3.413797    2.695424   -0.613712
  C     -2.710508    4.001861   -0.304697
  O     -3.017329   -0.314396   -0.072395
  C     -3.453779   -1.623859   -0.493699
  C     -3.253742   -2.627800    0.623948
  H      3.884962    0.868167   -2.057384
  H      4.223391    2.457892   -1.347801
  H      4.357184    0.996299   -0.353693
  H      1.742694    2.050028   -1.556051
  H      2.253529    2.225392    0.150006
  H      3.708004   -3.423445   -0.253758
  H      1.953798   -3.364661    0.082377
  H      1.609566   -1.905701   -1.907392
  H      3.348429   -1.929314   -2.233759
  H      2.398071   -3.416442   -2.371891
  H     -0.084597    0.061774    2.789041
  H     -1.635978   -0.618614    2.181223
  H     -4.275570    2.855417   -1.263899
  H     -3.729632    2.185645    0.299118
  H     -2.364597    4.463881   -1.225151
  H     -3.405032    4.670438    0.193935
  H     -1.854122    3.829122    0.343962
  H     -4.510915   -1.515724   -0.744153
  H     -2.893564   -1.911916   -1.389322
  H     -3.768615   -2.298654    1.522391
  H     -3.661117   -3.583786    0.311687
  H     -2.193892   -2.750867    0.840103

 Total Charge           Charge          ....    0
 Multiplicity           Mult            ....    1
 Number of Electrons    NEL             ....  202
 Basis Dimension        Dim             ....  334

ORBITAL ENERGIES
----------------

  NO   OCC          E(Eh)            E(eV)
   0   2.0000     -88.044978     -2395.8257
   1   2.0000     -88.044591     -2395.8151
   2   2.0000     -87.981754     -2394.1052
   3   2.0000     -87.980976     -2394.0841
   4   2.0000     -76.426012     -2079.6575
   5   2.0000     -76.422646     -2079.5659
   6   2.0000     -18.795396      -511.4487
   7   2.0000     -18.791034      -511.3300
   8   2.0000     -18.790681      -511.3204
   9   2.0000     -18.779758      -511.0232
  10   2.0000      -9.961114      -271.0557
  11   2.0000      -9.957473      -270.9566
  12   2.0000      -9.957387      -270.9543
  13   2.0000      -9.954552      -270.8771
  14   2.0000      -9.939096      -270.4566
  15   2.0000      -9.891916      -269.1727
  16   2.0000      -9.889095      -269.0960
  17   2.0000      -9.881570      -268.8912
  18   2.0000      -9.876157      -268.7439
  19   2.0000      -7.689773      -209.2494
  20   2.0000      -7.689222      -209.2344
  21   2.0000      -7.626888      -207.5382
  22   2.0000      -7.626274      -207.5215
  23   2.0000      -6.423352      -174.7883
  24   2.0000      -6.420223      -174.7031
  25   2.0000      -5.717614      -155.5842
  26   2.0000      -5.717297      -155.5756
  27   2.0000      -5.714435      -155.4977
  28   2.0000      -5.713610      -155.4752
  29   2.0000      -5.706628      -155.2852
  30   2.0000      -5.706153      -155.2723
  31   2.0000      -5.655960      -153.9065
  32   2.0000      -5.655270      -153.8877
  33   2.0000      -5.647325      -153.6715
  34   2.0000      -5.647171      -153.6673
  35   2.0000      -5.646983      -153.6622
  36   2.0000      -5.646014      -153.6358
  37   2.0000      -4.646468      -126.4368
  38   2.0000      -4.644914      -126.3945
  39   2.0000      -4.643552      -126.3575
  40   2.0000      -4.643053      -126.3439
  41   2.0000      -4.641756      -126.3086
  42   2.0000      -4.640708      -126.2801
  43   2.0000      -0.985134       -26.8068
  44   2.0000      -0.978539       -26.6274
  45   2.0000      -0.945473       -25.7276
  46   2.0000      -0.939212       -25.5573
  47   2.0000      -0.766978       -20.8705
  48   2.0000      -0.722690       -19.6654
  49   2.0000      -0.709607       -19.3094
  50   2.0000      -0.695204       -18.9175
  51   2.0000      -0.685490       -18.6531
  52   2.0000      -0.671665       -18.2769
  53   2.0000      -0.648983       -17.6597
  54   2.0000      -0.638540       -17.3756
  55   2.0000      -0.594339       -16.1728
  56   2.0000      -0.588199       -16.0057
  57   2.0000      -0.577174       -15.7057
  58   2.0000      -0.573126       -15.5956
  59   2.0000      -0.562780       -15.3140
  60   2.0000      -0.508624       -13.8404
  61   2.0000      -0.492595       -13.4042
  62   2.0000      -0.481014       -13.0891
  63   2.0000      -0.472033       -12.8447
  64   2.0000      -0.458180       -12.4677
  65   2.0000      -0.446401       -12.1472
  66   2.0000      -0.441495       -12.0137
  67   2.0000      -0.435153       -11.8411
  68   2.0000      -0.425707       -11.5841
  69   2.0000      -0.413649       -11.2560
  70   2.0000      -0.405755       -11.0412
  71   2.0000      -0.396791       -10.7972
  72   2.0000      -0.389999       -10.6124
  73   2.0000      -0.380963       -10.3665
  74   2.0000      -0.380718       -10.3599
  75   2.0000      -0.379167       -10.3177
  76   2.0000      -0.368560       -10.0290
  77   2.0000      -0.361184        -9.8283
  78   2.0000      -0.355636        -9.6773
  79   2.0000      -0.354521        -9.6470
  80   2.0000      -0.347350        -9.4519
  81   2.0000      -0.342995        -9.3334
  82   2.0000      -0.340781        -9.2731
  83   2.0000      -0.340150        -9.2560
  84   2.0000      -0.335291        -9.1237
  85   2.0000      -0.317647        -8.6436
  86   2.0000      -0.310456        -8.4479
  87   2.0000      -0.303105        -8.2479
  88   2.0000      -0.300781        -8.1847
  89   2.0000      -0.287436        -7.8215
  90   2.0000      -0.275791        -7.5046
  91   2.0000      -0.271517        -7.3883
  92   2.0000      -0.269266        -7.3271
  93   2.0000      -0.265190        -7.2162
  94   2.0000      -0.263822        -7.1790
  95   2.0000      -0.232102        -6.3158
  96   2.0000      -0.221397        -6.0245
  97   2.0000      -0.206167        -5.6101
  98   2.0000      -0.198499        -5.4014
  99   2.0000      -0.195105        -5.3091
 100   2.0000      -0.190320        -5.1789
 101   0.0000      -0.051441        -1.3998
 102   0.0000      -0.025132        -0.6839
 103   0.0000      -0.008601        -0.2340
 104   0.0000       0.000816         0.0222
 105   0.0000       0.015427         0.4198

MULLIKEN ATOMIC CHARGES
-----------------------
   0 C :   -0.310759
   1 C :   -0.003247
   2 O :   -0.364613
   3 P :    0.641687
   4 S :   -0.325118
   5 O :   -0.368814
   6 C :   -0.026312
   7 C :   -0.331304
   8 S :   -0.126839
   9 C :   -0.336803
  10 S :   -0.102555
  11 P :    0.615206
  12 S :   -0.290686
  13 O :   -0.362625
  14 C :   -0.020013
  15 C :   -0.293634
  16 O :   -0.395643
  17 C :   -0.007729
  18 C :   -0.313913
  19 H :    0.116747
  20 H :    0.108766
  21 H :    0.123549
  22 H :    0.102259
  23 H :    0.109176
  24 H :    0.113447
  25 H :    0.119002
  26 H :    0.160476
  27 H :    0.120558
  28 H :    0.109980
  29 H :    0.194131
  30 H :    0.186713
  31 H :    0.109614
  32 H :    0.107004
  33 H :    0.121143
  34 H :    0.111190
  35 H :    0.128640
  36 H :    0.102526
  37 H :    0.113891
  38 H :    0.117339
  39 H :    0.115023
  40 H :    0.132540
Sum of atomic charges:    0.0000000

LOEWDIN ATOMIC CHARGES
----------------------
   0 C :   -0.363935
   1 C :   -0.124337
   2 O :   -0.239294
   3 P :    0.574150
   4 S :   -0.316870
   5 O :   -0.241481
   6 C :   -0.114644
   7 C :   -0.370430
   8 S :    0.085814
   9 C :   -0.473649
  10 S :    0.090852
  11 P :    0.562870
  12 S :   -0.290939
  13 O :   -0.243828
  14 C :   -0.119104
  15 C :   -0.359389
  16 O :   -0.260478
  17 C :   -0.119018
  18 C :   -0.361284
  19 H :    0.122912
  20 H :    0.129054
  21 H :    0.123346
  22 H :    0.116411
  23 H :    0.105472
  24 H :    0.123349
  25 H :    0.107165
  26 H :    0.127163
  27 H :    0.126511
  28 H :    0.130608
  29 H :    0.133492
  30 H :    0.131603
  31 H :    0.120823
  32 H :    0.108472
  33 H :    0.129425
  34 H :    0.130684
  35 H :    0.120469
  36 H :    0.115896
  37 H :    0.108174
  38 H :    0.124119
  39 H :    0.133409
  40 H :    0.116437

  Mayer bond orders larger than 0.100000
B(  0-C ,  1-C ) :   1.1642 B(  0-C , 19-H ) :   0.9443 B(  0-C , 20-H ) :   0.9407
B(  0-C , 21-H ) :   0.9375 B(  1-C ,  2-O ) :   0.9042 B(  1-C , 22-H ) :   0.9287
B(  1-C , 23-H ) :   0.9102 B(  2-O ,  3-P ) :   1.0963 B(  3-P ,  4-S ) :   1.6224
B(  3-P ,  5-O ) :   1.1304 B(  3-P ,  8-S ) :   0.9432 B(  5-O ,  6-C ) :   0.9056
B(  6-C ,  7-C ) :   1.1639 B(  6-C , 24-H ) :   0.9345 B(  6-C , 25-H ) :   0.9177
B(  7-C , 26-H ) :   0.9244 B(  7-C , 27-H ) :   0.9423 B(  7-C , 28-H ) :   0.9352
B(  8-S ,  9-C ) :   1.0190 B(  9-C , 10-S ) :   0.9964 B(  9-C , 29-H ) :   0.8820
B(  9-C , 30-H ) :   0.8997 B( 10-S , 11-P ) :   0.9505 B( 10-S , 12-S ) :   0.1054
B( 11-P , 12-S ) :   1.6615 B( 11-P , 13-O ) :   1.1318 B( 11-P , 16-O ) :   1.0607
B( 13-O , 14-C ) :   0.8959 B( 14-C , 15-C ) :   1.1651 B( 14-C , 31-H ) :   0.9325
B( 14-C , 32-H ) :   0.9164 B( 15-C , 33-H ) :   0.9460 B( 15-C , 34-H ) :   0.9396
B( 15-C , 35-H ) :   0.9390 B( 16-O , 17-C ) :   0.9062 B( 17-C , 18-C ) :   1.1669
B( 17-C , 36-H ) :   0.9336 B( 17-C , 37-H ) :   0.8976 B( 18-C , 38-H ) :   0.9445
B( 18-C , 39-H ) :   0.9378 B( 18-C , 40-H ) :   0.9320

Dispersion correction           -0.067838483
FINAL SINGLE POINT ENERGY     -2929.515473847106

DIPOLE MOMENT
-------------

Method             : SCF
Type of density    : Electron Density
Multiplicity       :   1
Irrep              :   0
Energy             : -2929.6331534897772144 Eh
Relativity type    :
Basis              : AO
                                X                 Y                 Z
Electronic contribution:      3.456047021      -0.241623540       7.369466332
Nuclear contribution   :     -4.803215309      -0.053793786      -7.609547547
                        -----------------------------------------
Total Dipole Moment    :     -1.347168288      -0.295417326      -0.240081215
                        -----------------------------------------
Magnitude (a.u.)       :      1.399918848
Magnitude (Debye)      :      3.558310929

Rotational constants in cm-1:             0.010907             0.005978             0.005306
Rotational constants in MHz :           326.981158           179.224197           159.072144

                             ****ORCA TERMINATED NORMALLY****
TOTAL RUN TIME: 0 days 0 hours 0 minutes 21 seconds 724 msec
