                         Program Version 6.0.0  -   RELEASE  -
|  1> ! pbe def2-sv(p) def2/J RI DEFGRID1 loosescf d4 GCP(DFT/SV(P)) printgap
|  2> %output
|  3>     printlevel normal
|  4> end
|  5> * xyz 0 1
|  6> C 3.4706433568 2.5142741578 -0.3294029948
|  7> C 2.4285531962 1.7938327667 -1.1588962634
|  8> O 2.540901787 0.3637037841 -1.0325267615
|  9> P 2.2277092997 -0.4082099461 0.3125928188
| 10> S 0.9223911599 0.4292461845 1.5210318763
| 11> O 3.6826009083 -0.5753344888 0.9231539066
| 12> C 3.9195722015 -0.9774271029 2.2841629629
| 13> C 3.4929388826 -2.4080682252 2.542163178
| 14> S 1.7527328629 -2.3083351571 -0.4642236377
| 15> C -0.0313089284 -2.0648928786 -0.6448260813
| 16> S -0.4429055466 -0.6189154974 -1.684029281
| 17> P -2.0342688208 0.2050930245 -0.563685632
| 18> S -2.5823734612 -0.7401455312 1.0661625746
| 19> O -3.0446161083 0.2162801814 -1.7910563951
| 20> C -4.296362352 0.9320974577 -1.7952991061
| 21> C -5.3895491124 0.1609057459 -1.0815755128
| 22> O -1.7046390594 1.7527408551 -0.3790244931
| 23> C -1.6812734541 2.4432655846 0.882968998
| 24> C -3.007450521 3.1319691269 1.1337433103
| 25> H 3.4104032904 3.581446395 -0.5185466929
| 26> H 3.2912228128 2.3298105997 0.7294867979
| 27> H 4.4638355732 2.1546614684 -0.5847981906
| 28> H 2.5602430454 1.9714058612 -2.2269445762
| 29> H 1.4166580812 2.0893196581 -0.8600574412
| 30> H 4.9954541493 -0.8486136031 2.4093997754
| 31> H 3.3816907383 -0.2907774481 2.9458469299
| 32> H 2.4087474773 -2.4925224129 2.4780435169
| 33> H 3.938161261 -3.0735021293 1.8068665219
| 34> H 3.809559085 -2.703440711 3.5373885
| 35> H -0.493050214 -1.9247943071 0.3371538677
| 36> H -0.4079699084 -2.9636818963 -1.1264160049
| 37> H -4.144638047 1.9154458802 -1.3426309386
| 38> H -4.5238391893 1.0493433233 -2.8565562056
| 39> H -6.3250421323 0.705053339 -1.1648264313
| 40> H -5.5043924488 -0.8232170608 -1.527757758
| 41> H -5.1436857698 0.0337196929 -0.029172507
| 42> H -1.456600718 1.7306045707 1.6820103567
| 43> H -0.8617606264 3.1588776558 0.8014777787
| 44> H -3.7982349845 2.3903576056 1.2328302055
| 45> H -2.9411522926 3.6990114919 2.0565883386
| 46> H -3.2445829557 3.8060131394 0.3147603194
| 47> *
| 48>
| 49>                          ****END OF INPUT****

CARTESIAN COORDINATES (ANGSTROEM)
---------------------------------
  C      3.470643    2.514274   -0.329403
  C      2.428553    1.793833   -1.158896
  O      2.540902    0.363704   -1.032527
  P      2.227709   -0.408210    0.312593
  S      0.922391    0.429246    1.521032
  O      3.682601   -0.575334    0.923154
  C      3.919572   -0.977427    2.284163
  C      3.492939   -2.408068    2.542163
  S      1.752733   -2.308335   -0.464224
  C     -0.031309   -2.064893   -0.644826
  S     -0.442906   -0.618915   -1.684029
  P     -2.034269    0.205093   -0.563686
  S     -2.582373   -0.740146    1.066163
  O     -3.044616    0.216280   -1.791056
  C     -4.296362    0.932097   -1.795299
  C     -5.389549    0.160906   -1.081576
  O     -1.704639    1.752741   -0.379024
  C     -1.681273    2.443266    0.882969
  C     -3.007451    3.131969    1.133743
  H      3.410403    3.581446   -0.518547
  H      3.291223    2.329811    0.729487
  H      4.463836    2.154661   -0.584798
  H      2.560243    1.971406   -2.226945
  H      1.416658    2.089320   -0.860057
  H      4.995454   -0.848614    2.409400
  H      3.381691   -0.290777    2.945847
  H      2.408747   -2.492522    2.478044
  H      3.938161   -3.073502    1.806867
  H      3.809559   -2.703441    3.537388
  H     -0.493050   -1.924794    0.337154
  H     -0.407970   -2.963682   -1.126416
  H     -4.144638    1.915446   -1.342631
  H     -4.523839    1.049343   -2.856556
  H     -6.325042    0.705053   -1.164826
  H     -5.504392   -0.823217   -1.527758
  H     -5.143686    0.033720   -0.029173
  H     -1.456601    1.730605    1.682010
  H     -0.861761    3.158878    0.801478
  H     -3.798235    2.390358    1.232830
  H     -2.941152    3.699011    2.056588
  H     -3.244583    3.806013    0.314760

 Total Charge           Charge          ....    0
 Multiplicity           Mult            ....    1
 Number of Electrons    NEL             ....  202
 Basis Dimension        Dim             ....  334

ORBITAL ENERGIES
----------------

  NO   OCC          E(Eh)            E(eV)
   0   2.0000     -88.041951     -2395.7433
   1   2.0000     -88.035895     -2395.5785
   2   2.0000     -87.986282     -2394.2284
   3   2.0000     -87.985844     -2394.2165
   4   2.0000     -76.425945     -2079.6557
   5   2.0000     -76.423098     -2079.5782
   6   2.0000     -18.793317      -511.3921
   7   2.0000     -18.790267      -511.3092
   8   2.0000     -18.786037      -511.1941
   9   2.0000     -18.785441      -511.1778
  10   2.0000      -9.952836      -270.8304
  11   2.0000      -9.952649      -270.8254
  12   2.0000      -9.950429      -270.7649
  13   2.0000      -9.948314      -270.7074
  14   2.0000      -9.946930      -270.6697
  15   2.0000      -9.885248      -268.9913
  16   2.0000      -9.883733      -268.9500
  17   2.0000      -9.881712      -268.8950
  18   2.0000      -9.880285      -268.8562
  19   2.0000      -7.687460      -209.1864
  20   2.0000      -7.680836      -209.0062
  21   2.0000      -7.630818      -207.6451
  22   2.0000      -7.630766      -207.6437
  23   2.0000      -6.423261      -174.7858
  24   2.0000      -6.420637      -174.7144
  25   2.0000      -5.715402      -155.5240
  26   2.0000      -5.711973      -155.4307
  27   2.0000      -5.708845      -155.3456
  28   2.0000      -5.705564      -155.2563
  29   2.0000      -5.704293      -155.2217
  30   2.0000      -5.697424      -155.0348
  31   2.0000      -5.659562      -154.0045
  32   2.0000      -5.659540      -154.0039
  33   2.0000      -5.651758      -153.7922
  34   2.0000      -5.651490      -153.7849
  35   2.0000      -5.651155      -153.7757
  36   2.0000      -5.650648      -153.7619
  37   2.0000      -4.645597      -126.4131
  38   2.0000      -4.645070      -126.3988
  39   2.0000      -4.643932      -126.3678
  40   2.0000      -4.643250      -126.3492
  41   2.0000      -4.641943      -126.3137
  42   2.0000      -4.641537      -126.3027
  43   2.0000      -0.985823       -26.8256
  44   2.0000      -0.981832       -26.7170
  45   2.0000      -0.944396       -25.6983
  46   2.0000      -0.939335       -25.5606
  47   2.0000      -0.760137       -20.6844
  48   2.0000      -0.721511       -19.6333
  49   2.0000      -0.706305       -19.2195
  50   2.0000      -0.685929       -18.6651
  51   2.0000      -0.685135       -18.6435
  52   2.0000      -0.671151       -18.2630
  53   2.0000      -0.652414       -17.7531
  54   2.0000      -0.635015       -17.2796
  55   2.0000      -0.602135       -16.3849
  56   2.0000      -0.590310       -16.0631
  57   2.0000      -0.574177       -15.6241
  58   2.0000      -0.571204       -15.5433
  59   2.0000      -0.555433       -15.1141
  60   2.0000      -0.499151       -13.5826
  61   2.0000      -0.489067       -13.3082
  62   2.0000      -0.474082       -12.9004
  63   2.0000      -0.470205       -12.7949
  64   2.0000      -0.449489       -12.2312
  65   2.0000      -0.444865       -12.1054
  66   2.0000      -0.438941       -11.9442
  67   2.0000      -0.431658       -11.7460
  68   2.0000      -0.426503       -11.6057
  69   2.0000      -0.411333       -11.1929
  70   2.0000      -0.407076       -11.0771
  71   2.0000      -0.398498       -10.8437
  72   2.0000      -0.392836       -10.6896
  73   2.0000      -0.387617       -10.5476
  74   2.0000      -0.381025       -10.3682
  75   2.0000      -0.373189       -10.1550
  76   2.0000      -0.371922       -10.1205
  77   2.0000      -0.354585        -9.6487
  78   2.0000      -0.350109        -9.5269
  79   2.0000      -0.348911        -9.4944
  80   2.0000      -0.347127        -9.4458
  81   2.0000      -0.341623        -9.2960
  82   2.0000      -0.338990        -9.2244
  83   2.0000      -0.336572        -9.1586
  84   2.0000      -0.333147        -9.0654
  85   2.0000      -0.313629        -8.5343
  86   2.0000      -0.309303        -8.4166
  87   2.0000      -0.295323        -8.0362
  88   2.0000      -0.289409        -7.8752
  89   2.0000      -0.285949        -7.7811
  90   2.0000      -0.281161        -7.6508
  91   2.0000      -0.274973        -7.4824
  92   2.0000      -0.271546        -7.3891
  93   2.0000      -0.263907        -7.1813
  94   2.0000      -0.259839        -7.0706
  95   2.0000      -0.229258        -6.2384
  96   2.0000      -0.222861        -6.0644
  97   2.0000      -0.213900        -5.8205
  98   2.0000      -0.201644        -5.4870
  99   2.0000      -0.195856        -5.3295
 100   2.0000      -0.189964        -5.1692
 101   0.0000      -0.041096        -1.1183
 102   0.0000      -0.030846        -0.8394
 103   0.0000      -0.005899        -0.1605
 104   0.0000       0.013678         0.3722
 105   0.0000       0.019503         0.5307

MULLIKEN ATOMIC CHARGES
-----------------------
   0 C :   -0.307124
   1 C :   -0.003908
   2 O :   -0.359412
   3 P :    0.613469
   4 S :   -0.341962
   5 O :   -0.367829
   6 C :   -0.002493
   7 C :   -0.319377
   8 S :   -0.084827
   9 C :   -0.355582
  10 S :   -0.090473
  11 P :    0.648083
  12 S :   -0.324467
  13 O :   -0.369917
  14 C :   -0.019058
  15 C :   -0.304570
  16 O :   -0.385124
  17 C :   -0.023660
  18 C :   -0.292983
  19 H :    0.109295
  20 H :    0.120132
  21 H :    0.116523
  22 H :    0.105442
  23 H :    0.114330
  24 H :    0.105825
  25 H :    0.110519
  26 H :    0.131502
  27 H :    0.119300
  28 H :    0.113883
  29 H :    0.210142
  30 H :    0.181820
  31 H :    0.104912
  32 H :    0.107076
  33 H :    0.105977
  34 H :    0.117503
  35 H :    0.132488
  36 H :    0.133647
  37 H :    0.103927
  38 H :    0.117153
  39 H :    0.113129
  40 H :    0.116692
Sum of atomic charges:   -0.0000000

LOEWDIN ATOMIC CHARGES
----------------------
   0 C :   -0.366375
   1 C :   -0.116147
   2 O :   -0.237153
   3 P :    0.571701
   4 S :   -0.312420
   5 O :   -0.242393
   6 C :   -0.118159
   7 C :   -0.369892
   8 S :    0.092655
   9 C :   -0.477860
  10 S :    0.087189
  11 P :    0.572499
  12 S :   -0.299647
  13 O :   -0.247944
  14 C :   -0.115072
  15 C :   -0.365480
  16 O :   -0.246387
  17 C :   -0.123661
  18 C :   -0.361510
  19 H :    0.128863
  20 H :    0.120579
  21 H :    0.126376
  22 H :    0.119880
  23 H :    0.109386
  24 H :    0.119105
  25 H :    0.110686
  26 H :    0.122864
  27 H :    0.124678
  28 H :    0.131527
  29 H :    0.122688
  30 H :    0.135713
  31 H :    0.108230
  32 H :    0.119979
  33 H :    0.127507
  34 H :    0.128504
  35 H :    0.121559
  36 H :    0.106797
  37 H :    0.114712
  38 H :    0.122351
  39 H :    0.132069
  40 H :    0.122006

  Mayer bond orders larger than 0.100000
B(  0-C ,  1-C ) :   1.1628 B(  0-C , 19-H ) :   0.9397 B(  0-C , 20-H ) :   0.9346
B(  0-C , 21-H ) :   0.9456 B(  1-C ,  2-O ) :   0.9038 B(  1-C , 22-H ) :   0.9347
B(  1-C , 23-H ) :   0.9157 B(  2-O ,  3-P ) :   1.1290 B(  3-P ,  4-S ) :   1.5801
B(  3-P ,  5-O ) :   1.1166 B(  3-P ,  8-S ) :   0.9641 B(  4-S ,  8-S ) :   0.1088
B(  5-O ,  6-C ) :   0.9072 B(  6-C ,  7-C ) :   1.1666 B(  6-C , 24-H ) :   0.9340
B(  6-C , 25-H ) :   0.9163 B(  7-C , 26-H ) :   0.9354 B(  7-C , 27-H ) :   0.9443
B(  7-C , 28-H ) :   0.9376 B(  8-S ,  9-C ) :   0.9994 B(  9-C , 10-S ) :   0.9986
B(  9-C , 29-H ) :   0.8511 B(  9-C , 30-H ) :   0.9111 B( 10-S , 11-P ) :   0.9581
B( 10-S , 12-S ) :   0.1186 B( 11-P , 12-S ) :   1.6063 B( 11-P , 13-O ) :   1.1155
B( 11-P , 16-O ) :   1.0976 B( 13-O , 14-C ) :   0.9147 B( 14-C , 15-C ) :   1.1652
B( 14-C , 31-H ) :   0.9168 B( 14-C , 32-H ) :   0.9357 B( 15-C , 33-H ) :   0.9390
B( 15-C , 34-H ) :   0.9463 B( 15-C , 35-H ) :   0.9321 B( 16-O , 17-C ) :   0.9023
B( 17-C , 18-C ) :   1.1642 B( 17-C , 36-H ) :   0.9008 B( 17-C , 37-H ) :   0.9318
B( 18-C , 38-H ) :   0.9377 B( 18-C , 39-H ) :   0.9387 B( 18-C , 40-H ) :   0.9404

Dispersion correction           -0.066682299
FINAL SINGLE POINT ENERGY     -2929.520225602751

DIPOLE MOMENT
-------------

Method             : SCF
Type of density    : Electron Density
Multiplicity       :   1
Irrep              :   0
Energy             : -2929.6379313589281992 Eh
Relativity type    :
Basis              : AO
                                X                 Y                 Z
Electronic contribution:      5.141478831     -13.931211906      -7.811750039
Nuclear contribution   :     -4.990255523      14.837771638       7.771587168
                        -----------------------------------------
Total Dipole Moment    :      0.151223307       0.906559732      -0.040162871
                        -----------------------------------------
Magnitude (a.u.)       :      0.919963093
Magnitude (Debye)      :      2.338360349

Rotational constants in cm-1:             0.013268             0.004958             0.004639
Rotational constants in MHz :           397.774288           148.644844           139.075242

                             ****ORCA TERMINATED NORMALLY****
TOTAL RUN TIME: 0 days 0 hours 0 minutes 21 seconds 271 msec
