                         Program Version 6.0.0  -   RELEASE  -
|  1> ! r2scan-3c def2/J RI DEFGRID2 scfconv6 printgap
|  2> %output
|  3>     printlevel normal
|  4> end
|  5> %cpcm
|  6>     smd true
|  7>     smdsolvent "water"
|  8> end
|  9> * xyz 0 1
| 10> C -8.996e-07 -2.1184271019 5.6104e-06
| 11> C 1.2044062174 -1.4349754017 3.85624e-05
| 12> C 1.1892519536 -0.0502040988 0.0001885513
| 13> C 4.3197e-06 0.6601824129 0.0001342795
| 14> C -1.1892477513 -0.0501995361 -9.2607e-06
| 15> C -1.2044083202 -1.4349701242 -0.0001217304
| 16> Cl -2.6877906407 0.8267730588 -1.26023e-05
| 17> Cl 2.6877887795 0.8267740861 -5.59444e-05
| 18> H -1.5893e-06 -3.1961229515 0.0001674516
| 19> H 2.1419597741 -1.9655048916 -0.0004086922
| 20> H 7.5286e-06 1.7374870844 -0.0002211499
| 21> H -2.1419660187 -1.9654940757 6.10739e-05
| 22> *
| 23>
| 24>                          ****END OF INPUT****

CARTESIAN COORDINATES (ANGSTROEM)
---------------------------------
  C     -0.000001   -2.118427    0.000006
  C      1.204406   -1.434975    0.000039
  C      1.189252   -0.050204    0.000189
  C      0.000004    0.660182    0.000134
  C     -1.189248   -0.050200   -0.000009
  C     -1.204408   -1.434970   -0.000122
  Cl    -2.687791    0.826773   -0.000013
  Cl     2.687789    0.826774   -0.000056
  H     -0.000002   -3.196123    0.000167
  H      2.141960   -1.965505   -0.000409
  H      0.000008    1.737487   -0.000221
  H     -2.141966   -1.965494    0.000061

 Total Charge           Charge          ....    0
 Multiplicity           Mult            ....    1
 Number of Electrons    NEL             ....   74
 Basis Dimension        Dim             ....  188

ORBITAL ENERGIES
----------------

  NO   OCC          E(Eh)            E(eV)
   0   2.0000    -101.228353     -2754.5635
   1   2.0000    -101.228351     -2754.5635
   2   2.0000     -10.110568      -275.1226
   3   2.0000     -10.110568      -275.1226
   4   2.0000     -10.057352      -273.6744
   5   2.0000     -10.051753      -273.5221
   6   2.0000     -10.050233      -273.4807
   7   2.0000     -10.050159      -273.4787
   8   2.0000      -9.384350      -255.3611
   9   2.0000      -9.384348      -255.3611
  10   2.0000      -7.130476      -194.0301
  11   2.0000      -7.130476      -194.0301
  12   2.0000      -7.120683      -193.7636
  13   2.0000      -7.120683      -193.7636
  14   2.0000      -7.120160      -193.7494
  15   2.0000      -7.120160      -193.7494
  16   2.0000      -0.881474       -23.9861
  17   2.0000      -0.847025       -23.0487
  18   2.0000      -0.798069       -21.7166
  19   2.0000      -0.726184       -19.7605
  20   2.0000      -0.706154       -19.2154
  21   2.0000      -0.593908       -16.1611
  22   2.0000      -0.575321       -15.6553
  23   2.0000      -0.500029       -13.6065
  24   2.0000      -0.459553       -12.5051
  25   2.0000      -0.444935       -12.1073
  26   2.0000      -0.416051       -11.3213
  27   2.0000      -0.410331       -11.1657
  28   2.0000      -0.394155       -10.7255
  29   2.0000      -0.348112        -9.4726
  30   2.0000      -0.346518        -9.4292
  31   2.0000      -0.345580        -9.4037
  32   2.0000      -0.304401        -8.2832
  33   2.0000      -0.297990        -8.1087
  34   2.0000      -0.291573        -7.9341
  35   2.0000      -0.246882        -6.7180
  36   2.0000      -0.233946        -6.3660
  37   0.0000      -0.051552        -1.4028
  38   0.0000      -0.049942        -1.3590
  39   0.0000      -0.011539        -0.3140
  40   0.0000       0.029840         0.8120
  41   0.0000       0.098343         2.6760

MULLIKEN ATOMIC CHARGES
-----------------------
   0 C :   -0.136606
   1 C :   -0.235273
   2 C :    0.211514
   3 C :   -0.305838
   4 C :    0.211513
   5 C :   -0.235271
   6 Cl:   -0.154907
   7 Cl:   -0.154906
   8 H :    0.195976
   9 H :    0.198525
  10 H :    0.206747
  11 H :    0.198525
Sum of atomic charges:   -0.0000000

LOEWDIN ATOMIC CHARGES
----------------------
   0 C :   -0.138269
   1 C :   -0.175198
   2 C :   -0.167301
   3 C :   -0.185192
   4 C :   -0.167300
   5 C :   -0.175198
   6 Cl:    0.119799
   7 Cl:    0.119801
   8 H :    0.188383
   9 H :    0.191180
  10 H :    0.198116
  11 H :    0.191180

  Mayer bond orders larger than 0.100000
B(  0-C ,  1-C ) :   1.4006 B(  0-C ,  5-C ) :   1.4006 B(  0-C ,  8-H ) :   0.9474
B(  1-C ,  2-C ) :   1.3578 B(  1-C ,  9-H ) :   0.9395 B(  2-C ,  3-C ) :   1.3888
B(  2-C ,  7-Cl) :   0.9042 B(  3-C ,  4-C ) :   1.3888 B(  3-C , 10-H ) :   0.9186
B(  4-C ,  5-C ) :   1.3578 B(  4-C ,  6-Cl) :   0.9042 B(  5-C , 11-H ) :   0.9395

Dispersion correction           -0.004706505
FINAL SINGLE POINT ENERGY     -1151.343193652068

DIPOLE MOMENT
-------------

Method             : SCF
Type of density    : Electron Density
Multiplicity       :   1
Irrep              :   0
Energy             : -1151.3435167264533447 Eh
Relativity type    :
Basis              : AO
                                X                 Y                 Z
Electronic contribution:      0.000003539       6.358841351       0.000111032
Nuclear contribution   :      0.000002212      -7.275821516      -0.000284502
                        -----------------------------------------
Total Dipole Moment    :      0.000005751      -0.916980166      -0.000173470
                        -----------------------------------------
Magnitude (a.u.)       :      0.916980182
Magnitude (Debye)      :      2.330778393

Rotational constants in cm-1:             0.094568             0.028557             0.021934
Rotational constants in MHz :          2835.090785           856.124949           657.558955

                             ****ORCA TERMINATED NORMALLY****
TOTAL RUN TIME: 0 days 0 hours 1 minutes 10 seconds 162 msec
