                         Program Version 6.0.1  -  RELEASE   -
|  1> ! pbe def2-sv(p) def2/J RI DEFGRID1 loosescf d4 GCP(DFT/SV(P)) printgap
|  2> %output
|  3>     printlevel normal
|  4> end
|  5> * xyz 0 1
|  6> C 4.9335561399 -3.3797347178 -1.3608551301
|  7> C 3.9211504245 -2.6703272449 -0.4839672511
|  8> O 3.134747786 -1.8031038811 -1.3261078267
|  9> C 2.2990832505 -0.9721542418 -0.7521771682
| 10> O 2.1360831322 -0.8825818203 0.4494231618
| 11> C 1.5633990082 -0.1097988246 -1.7553094674
| 12> C 0.3177120418 0.4685749145 -1.101087992
| 13> H -0.1408745466 1.2376395544 -1.7296313361
| 14> C 0.6286192218 1.0897497999 0.2492895564
| 15> O -0.0599440804 0.8857877122 1.2308777822
| 16> O 1.6209689794 1.9363752136 0.1795606716
| 17> C 2.011365708 2.6381422771 1.3792222106
| 18> C 3.1301162927 1.8939082422 2.0886179695
| 19> S -0.9248264022 -0.8405226357 -0.8251937495
| 20> P -2.3624258368 0.277852606 0.2625018719
| 21> S -2.4768207626 2.1982025357 -0.1008419272
| 22> O -3.6944990009 -0.493100807 -0.221338815
| 23> C -4.1827016146 -0.375526049 -1.559754828
| 24> O -2.433431827 -0.1278603246 1.7893385347
| 25> C -2.1536567689 -1.4611820483 2.2504651764
| 26> H 5.5842953865 -2.6556077552 -1.8413898292
| 27> H 5.5309453297 -4.0480899049 -0.7498932442
| 28> H 4.4222833544 -3.9544352632 -2.1268192028
| 29> H 4.4019313491 -2.0616983819 0.2879874273
| 30> H 3.2432494249 -3.3755602913 0.0061761221
| 31> H 1.3094157502 -0.7022625759 -2.6332631744
| 32> H 2.2263669418 0.7044368476 -2.0558224697
| 33> H 2.3371875481 3.6178193306 1.028255531
| 34> H 1.1327565271 2.7377610907 2.0227203247
| 35> H 4.0093823034 1.8425917252 1.4528252144
| 36> H 3.3796796581 2.4116909182 3.0086360271
| 37> H 2.8070350829 0.881522358 2.3229348811
| 38> H -4.2088960243 0.6747858177 -1.8556642427
| 39> H -5.1871648636 -0.7904840183 -1.5429766029
| 40> H -3.5425684223 -0.9389422784 -2.2386482232
| 41> H -1.083503836 -1.6545636799 2.1668749477
| 42> H -2.7194086403 -2.1892122117 1.6705153797
| 43> H -2.4615706124 -1.4705683487 3.2927692748
| 44> *
| 45>
| 46>                          ****END OF INPUT****

CARTESIAN COORDINATES (ANGSTROEM)
---------------------------------
  C      4.933556   -3.379735   -1.360855
  C      3.921150   -2.670327   -0.483967
  O      3.134748   -1.803104   -1.326108
  C      2.299083   -0.972154   -0.752177
  O      2.136083   -0.882582    0.449423
  C      1.563399   -0.109799   -1.755309
  C      0.317712    0.468575   -1.101088
  H     -0.140875    1.237640   -1.729631
  C      0.628619    1.089750    0.249290
  O     -0.059944    0.885788    1.230878
  O      1.620969    1.936375    0.179561
  C      2.011366    2.638142    1.379222
  C      3.130116    1.893908    2.088618
  S     -0.924826   -0.840523   -0.825194
  P     -2.362426    0.277853    0.262502
  S     -2.476821    2.198203   -0.100842
  O     -3.694499   -0.493101   -0.221339
  C     -4.182702   -0.375526   -1.559755
  O     -2.433432   -0.127860    1.789339
  C     -2.153657   -1.461182    2.250465
  H      5.584295   -2.655608   -1.841390
  H      5.530945   -4.048090   -0.749893
  H      4.422283   -3.954435   -2.126819
  H      4.401931   -2.061698    0.287987
  H      3.243249   -3.375560    0.006176
  H      1.309416   -0.702263   -2.633263
  H      2.226367    0.704437   -2.055822
  H      2.337188    3.617819    1.028256
  H      1.132757    2.737761    2.022720
  H      4.009382    1.842592    1.452825
  H      3.379680    2.411691    3.008636
  H      2.807035    0.881522    2.322935
  H     -4.208896    0.674786   -1.855664
  H     -5.187165   -0.790484   -1.542977
  H     -3.542568   -0.938942   -2.238648
  H     -1.083504   -1.654564    2.166875
  H     -2.719409   -2.189212    1.670515
  H     -2.461571   -1.470568    3.292769

 Total Charge           Charge          ....    0
 Multiplicity           Mult            ....    1
 Number of Electrons    NEL             ....  174
 Basis Dimension        Dim             ....  316

ORBITAL ENERGIES
----------------

  NO   OCC          E(Eh)            E(eV)
   0   2.0000     -88.031816     -2395.4675
   1   2.0000     -87.963876     -2393.6188
   2   2.0000     -76.412433     -2079.2880
   3   2.0000     -18.818570      -512.0793
   4   2.0000     -18.806369      -511.7473
   5   2.0000     -18.773351      -510.8489
   6   2.0000     -18.770465      -510.7703
   7   2.0000     -18.756186      -510.3818
   8   2.0000     -18.734466      -509.7907
   9   2.0000     -10.025020      -272.7947
  10   2.0000     -10.013829      -272.4901
  11   2.0000      -9.961347      -271.0620
  12   2.0000      -9.945411      -270.6284
  13   2.0000      -9.944697      -270.6090
  14   2.0000      -9.934685      -270.3365
  15   2.0000      -9.928025      -270.1553
  16   2.0000      -9.924157      -270.0500
  17   2.0000      -9.899699      -269.3845
  18   2.0000      -9.882854      -268.9261
  19   2.0000      -7.676602      -208.8910
  20   2.0000      -7.609309      -207.0598
  21   2.0000      -6.408151      -174.3747
  22   2.0000      -5.704407      -155.2248
  23   2.0000      -5.701262      -155.1392
  24   2.0000      -5.693550      -154.9294
  25   2.0000      -5.638553      -153.4328
  26   2.0000      -5.630029      -153.2009
  27   2.0000      -5.628962      -153.1718
  28   2.0000      -4.630791      -126.0102
  29   2.0000      -4.630386      -125.9992
  30   2.0000      -4.628497      -125.9478
  31   2.0000      -1.028289       -27.9812
  32   2.0000      -1.014024       -27.5930
  33   2.0000      -0.967078       -26.3155
  34   2.0000      -0.932195       -25.3663
  35   2.0000      -0.922418       -25.1003
  36   2.0000      -0.915678       -24.9169
  37   2.0000      -0.765846       -20.8397
  38   2.0000      -0.724372       -19.7112
  39   2.0000      -0.703121       -19.1329
  40   2.0000      -0.687231       -18.7005
  41   2.0000      -0.657949       -17.9037
  42   2.0000      -0.621879       -16.9222
  43   2.0000      -0.616645       -16.7798
  44   2.0000      -0.604631       -16.4528
  45   2.0000      -0.595378       -16.2011
  46   2.0000      -0.561890       -15.2898
  47   2.0000      -0.523776       -14.2527
  48   2.0000      -0.503676       -13.7057
  49   2.0000      -0.493848       -13.4383
  50   2.0000      -0.485189       -13.2027
  51   2.0000      -0.470723       -12.8090
  52   2.0000      -0.457011       -12.4359
  53   2.0000      -0.454632       -12.3712
  54   2.0000      -0.433509       -11.7964
  55   2.0000      -0.427486       -11.6325
  56   2.0000      -0.424916       -11.5626
  57   2.0000      -0.418661       -11.3923
  58   2.0000      -0.412464       -11.2237
  59   2.0000      -0.407400       -11.0859
  60   2.0000      -0.398747       -10.8505
  61   2.0000      -0.391933       -10.6650
  62   2.0000      -0.386680       -10.5221
  63   2.0000      -0.383919       -10.4470
  64   2.0000      -0.374689       -10.1958
  65   2.0000      -0.367466        -9.9993
  66   2.0000      -0.365116        -9.9353
  67   2.0000      -0.358897        -9.7661
  68   2.0000      -0.354158        -9.6371
  69   2.0000      -0.336549        -9.1580
  70   2.0000      -0.333045        -9.0626
  71   2.0000      -0.328289        -8.9332
  72   2.0000      -0.324637        -8.8338
  73   2.0000      -0.315222        -8.5776
  74   2.0000      -0.305547        -8.3144
  75   2.0000      -0.294980        -8.0268
  76   2.0000      -0.283131        -7.7044
  77   2.0000      -0.280549        -7.6341
  78   2.0000      -0.277172        -7.5422
  79   2.0000      -0.261380        -7.1125
  80   2.0000      -0.254893        -6.9360
  81   2.0000      -0.243088        -6.6148
  82   2.0000      -0.239680        -6.5220
  83   2.0000      -0.225914        -6.1474
  84   2.0000      -0.213691        -5.8148
  85   2.0000      -0.186559        -5.0765
  86   2.0000      -0.177922        -4.8415
  87   0.0000      -0.042030        -1.1437
  88   0.0000      -0.027706        -0.7539
  89   0.0000      -0.018164        -0.4943
  90   0.0000       0.012010         0.3268
  91   0.0000       0.028828         0.7844

MULLIKEN ATOMIC CHARGES
-----------------------
   0 C :   -0.273718
   1 C :   -0.033405
   2 O :   -0.221875
   3 C :    0.115628
   4 O :   -0.197061
   5 C :   -0.095943
   6 C :   -0.280101
   7 H :    0.146900
   8 C :    0.231615
   9 O :   -0.193201
  10 O :   -0.235847
  11 C :   -0.015158
  12 C :   -0.304482
  13 S :   -0.108231
  14 P :    0.616276
  15 S :   -0.339323
  16 O :   -0.392454
  17 C :   -0.096428
  18 O :   -0.353007
  19 C :   -0.098682
  20 H :    0.117471
  21 H :    0.115881
  22 H :    0.119169
  23 H :    0.111224
  24 H :    0.113222
  25 H :    0.128941
  26 H :    0.140930
  27 H :    0.103391
  28 H :    0.122963
  29 H :    0.103572
  30 H :    0.111300
  31 H :    0.140873
  32 H :    0.111304
  33 H :    0.117750
  34 H :    0.104087
  35 H :    0.129694
  36 H :    0.111043
  37 H :    0.125680
Sum of atomic charges:   -0.0000000

LOEWDIN ATOMIC CHARGES
----------------------
   0 C :   -0.350076
   1 C :   -0.105038
   2 O :   -0.053276
   3 C :    0.035915
   4 O :   -0.145748
   5 C :   -0.251462
   6 C :   -0.262716
   7 H :    0.144013
   8 C :    0.014925
   9 O :   -0.160572
  10 O :   -0.048757
  11 C :   -0.105296
  12 C :   -0.356802
  13 S :    0.087861
  14 P :    0.590656
  15 S :   -0.334397
  16 O :   -0.271517
  17 C :   -0.221886
  18 O :   -0.232126
  19 C :   -0.208029
  20 H :    0.127983
  21 H :    0.133034
  22 H :    0.128842
  23 H :    0.118794
  24 H :    0.120643
  25 H :    0.143089
  26 H :    0.156297
  27 H :    0.117658
  28 H :    0.126651
  29 H :    0.120168
  30 H :    0.129570
  31 H :    0.135235
  32 H :    0.107112
  33 H :    0.118426
  34 H :    0.101940
  35 H :    0.116535
  36 H :    0.108394
  37 H :    0.123955

  Mayer bond orders larger than 0.100000
B(  0-C ,  1-C ) :   1.1545 B(  0-C , 20-H ) :   0.9505 B(  0-C , 21-H ) :   0.9432
B(  0-C , 22-H ) :   0.9487 B(  1-C ,  2-O ) :   0.8980 B(  1-C , 23-H ) :   0.9289
B(  1-C , 24-H ) :   0.9337 B(  2-O ,  3-C ) :   1.2584 B(  3-C ,  4-O ) :   1.9781
B(  3-C ,  5-C ) :   0.9980 B(  5-C ,  6-C ) :   1.0585 B(  5-C , 25-H ) :   0.9016
B(  5-C , 26-H ) :   0.8741 B(  6-C ,  7-H ) :   0.8554 B(  6-C ,  8-C ) :   0.8766
B(  6-C , 13-S ) :   1.0341 B(  8-C ,  9-O ) :   1.9677 B(  8-C , 10-O ) :   1.2490
B(  9-O , 14-P ) :   0.1080 B( 10-O , 11-C ) :   0.9074 B( 11-C , 12-C ) :   1.1760
B( 11-C , 27-H ) :   0.9377 B( 11-C , 28-H ) :   0.9116 B( 12-C , 29-H ) :   0.9502
B( 12-C , 30-H ) :   0.9432 B( 12-C , 31-H ) :   0.9390 B( 13-S , 14-P ) :   0.9362
B( 13-S , 15-S ) :   0.1096 B( 14-P , 15-S ) :   1.6134 B( 14-P , 16-O ) :   1.0495
B( 14-P , 18-O ) :   1.1313 B( 16-O , 17-C ) :   0.9445 B( 17-C , 32-H ) :   0.9319
B( 17-C , 33-H ) :   0.9592 B( 17-C , 34-H ) :   0.9457 B( 18-O , 19-C ) :   0.9241
B( 19-C , 35-H ) :   0.9430 B( 19-C , 36-H ) :   0.9452 B( 19-C , 37-H ) :   0.9596

Dispersion correction           -0.051475366
FINAL SINGLE POINT ENERGY     -1979.013718321055

DIPOLE MOMENT
-------------

Method             : SCF
Type of density    : Electron Density
Multiplicity       :   1
Irrep              :   0
Energy             : -1979.1448186396473830 Eh
Relativity type    :
Basis              : AO
                                X                 Y                 Z
Electronic contribution:    -19.944943102       8.095698935      -0.937089765
Nuclear contribution   :     21.959374263      -9.426129185       0.278951228
                        -----------------------------------------
Total Dipole Moment    :      2.014431161      -1.330430250      -0.658138537
                        -----------------------------------------
Magnitude (a.u.)       :      2.502223789
Magnitude (Debye)      :      6.360147421

Rotational constants in cm-1:             0.014453             0.006288             0.005324
Rotational constants in MHz :           433.285774           188.519085           159.612295

                             ****ORCA TERMINATED NORMALLY****
TOTAL RUN TIME: 0 days 0 hours 0 minutes 32 seconds 733 msec
