                         Program Version 6.0.0  -   RELEASE  -
|  1> ! pbe def2-sv(p) def2/J RI DEFGRID1 loosescf d4 GCP(DFT/SV(P)) printgap
|  2> %output
|  3>     printlevel normal
|  4> end
|  5> * xyz 0 1
|  6> C 4.2972975201 -0.075339887 -2.6988331739
|  7> C 4.6123468236 0.7055517403 -1.4392091361
|  8> O 4.0349619239 0.1009442866 -0.2692911231
|  9> P 2.4657234282 0.0356523453 -0.0148963196
| 10> S 1.503046466 1.6726903186 -0.5236188617
| 11> O 2.4245520294 -0.3647095827 1.5116962002
| 12> C 2.3240732039 0.5837312674 2.5971309917
| 13> C 1.555776719 -0.0779308265 3.7229949505
| 14> S 1.8564031251 -1.7939773946 -0.8659601719
| 15> C 0.0935028836 -1.4233610754 -0.9846616574
| 16> S -0.6415534566 -1.0699874609 0.651146446
| 17> P -2.378263025 -0.1329262869 -0.0889140619
| 18> S -2.2188676347 1.0136553715 -1.6771811845
| 19> O -3.043505495 0.5468400815 1.1829526778
| 20> C -2.8130115477 1.9213960266 1.5373699808
| 21> C -1.4119210352 2.141788976 2.0682227444
| 22> O -3.2587822087 -1.4348783543 -0.2906566795
| 23> C -4.4514704097 -1.4425225667 -1.1026113683
| 24> C -5.5713981614 -0.6448699033 -0.468357438
| 25> H 3.2323465269 -0.0123118636 -2.9198073247
| 26> H 4.8538250957 0.3440158411 -3.530881902
| 27> H 4.5662845254 -1.1209184453 -2.5717742856
| 28> H 4.2383790582 1.7315803691 -1.5178250183
| 29> H 5.6822982342 0.7153313945 -1.227217045
| 30> H 3.3391127555 0.8465662966 2.9034484697
| 31> H 1.8133274645 1.4818404252 2.2332433067
| 32> H 0.5716257888 -0.378956951 3.3725774569
| 33> H 2.086257284 -0.9621799035 4.0631423819
| 34> H 1.4528418957 0.6221081681 4.5456339726
| 35> H -0.3770129375 -2.3050821506 -1.4137228875
| 36> H -0.05566169 -0.5451948882 -1.61877459
| 37> H -2.9897704871 2.5437991313 0.653910629
| 38> H -3.5686079588 2.1269956958 2.2968711489
| 39> H -1.2044683611 1.4534551716 2.8834441691
| 40> H -0.6836801798 1.9815024026 1.2730146331
| 41> H -1.3163191768 3.1629085642 2.4232000479
| 42> H -4.2000624748 -1.0390707804 -2.0888333746
| 43> H -4.7032736749 -2.5006340562 -1.184466185
| 44> H -5.7410912786 -0.9819229111 0.5508233243
| 45> H -5.3099019556 0.4122337452 -0.4510404595
| 46> H -6.4792810904 -0.774122319 -1.0492736838
| 47> *
| 48>
| 49>                          ****END OF INPUT****

CARTESIAN COORDINATES (ANGSTROEM)
---------------------------------
  C      4.297298   -0.075340   -2.698833
  C      4.612347    0.705552   -1.439209
  O      4.034962    0.100944   -0.269291
  P      2.465723    0.035652   -0.014896
  S      1.503046    1.672690   -0.523619
  O      2.424552   -0.364710    1.511696
  C      2.324073    0.583731    2.597131
  C      1.555777   -0.077931    3.722995
  S      1.856403   -1.793977   -0.865960
  C      0.093503   -1.423361   -0.984662
  S     -0.641553   -1.069987    0.651146
  P     -2.378263   -0.132926   -0.088914
  S     -2.218868    1.013655   -1.677181
  O     -3.043505    0.546840    1.182953
  C     -2.813012    1.921396    1.537370
  C     -1.411921    2.141789    2.068223
  O     -3.258782   -1.434878   -0.290657
  C     -4.451470   -1.442523   -1.102611
  C     -5.571398   -0.644870   -0.468357
  H      3.232347   -0.012312   -2.919807
  H      4.853825    0.344016   -3.530882
  H      4.566285   -1.120918   -2.571774
  H      4.238379    1.731580   -1.517825
  H      5.682298    0.715331   -1.227217
  H      3.339113    0.846566    2.903448
  H      1.813327    1.481840    2.233243
  H      0.571626   -0.378957    3.372577
  H      2.086257   -0.962180    4.063142
  H      1.452842    0.622108    4.545634
  H     -0.377013   -2.305082   -1.413723
  H     -0.055662   -0.545195   -1.618775
  H     -2.989770    2.543799    0.653911
  H     -3.568608    2.126996    2.296871
  H     -1.204468    1.453455    2.883444
  H     -0.683680    1.981502    1.273015
  H     -1.316319    3.162909    2.423200
  H     -4.200062   -1.039071   -2.088833
  H     -4.703274   -2.500634   -1.184466
  H     -5.741091   -0.981923    0.550823
  H     -5.309902    0.412234   -0.451040
  H     -6.479281   -0.774122   -1.049274

 Total Charge           Charge          ....    0
 Multiplicity           Mult            ....    1
 Number of Electrons    NEL             ....  202
 Basis Dimension        Dim             ....  334

ORBITAL ENERGIES
----------------

  NO   OCC          E(Eh)            E(eV)
   0   2.0000     -88.046448     -2395.8656
   1   2.0000     -88.038938     -2395.6613
   2   2.0000     -87.985909     -2394.2183
   3   2.0000     -87.985666     -2394.2117
   4   2.0000     -76.425750     -2079.6504
   5   2.0000     -76.423901     -2079.6001
   6   2.0000     -18.794110      -511.4137
   7   2.0000     -18.791255      -511.3360
   8   2.0000     -18.788240      -511.2540
   9   2.0000     -18.787832      -511.2429
  10   2.0000      -9.953052      -270.8363
  11   2.0000      -9.951160      -270.7848
  12   2.0000      -9.950727      -270.7730
  13   2.0000      -9.950387      -270.7638
  14   2.0000      -9.949695      -270.7450
  15   2.0000      -9.883898      -268.9545
  16   2.0000      -9.883394      -268.9408
  17   2.0000      -9.883327      -268.9390
  18   2.0000      -9.878956      -268.8201
  19   2.0000      -7.691890      -209.3070
  20   2.0000      -7.683863      -209.0885
  21   2.0000      -7.630551      -207.6379
  22   2.0000      -7.630471      -207.6357
  23   2.0000      -6.423250      -174.7855
  24   2.0000      -6.421603      -174.7407
  25   2.0000      -5.719827      -155.6444
  26   2.0000      -5.716432      -155.5520
  27   2.0000      -5.711802      -155.4260
  28   2.0000      -5.708704      -155.3417
  29   2.0000      -5.708681      -155.3411
  30   2.0000      -5.700472      -155.1177
  31   2.0000      -5.659267      -153.9965
  32   2.0000      -5.659246      -153.9959
  33   2.0000      -5.651297      -153.7796
  34   2.0000      -5.651200      -153.7770
  35   2.0000      -5.650809      -153.7663
  36   2.0000      -5.650712      -153.7637
  37   2.0000      -4.645631      -126.4140
  38   2.0000      -4.645014      -126.3972
  39   2.0000      -4.644131      -126.3732
  40   2.0000      -4.643856      -126.3657
  41   2.0000      -4.643228      -126.3487
  42   2.0000      -4.642194      -126.3205
  43   2.0000      -0.985672       -26.8215
  44   2.0000      -0.985015       -26.8036
  45   2.0000      -0.945325       -25.7236
  46   2.0000      -0.943642       -25.6778
  47   2.0000      -0.764143       -20.7934
  48   2.0000      -0.722417       -19.6580
  49   2.0000      -0.707857       -19.2618
  50   2.0000      -0.686250       -18.6738
  51   2.0000      -0.685033       -18.6407
  52   2.0000      -0.673674       -18.3316
  53   2.0000      -0.650036       -17.6884
  54   2.0000      -0.635254       -17.2861
  55   2.0000      -0.602556       -16.3964
  56   2.0000      -0.592897       -16.1335
  57   2.0000      -0.571532       -15.5522
  58   2.0000      -0.570576       -15.5262
  59   2.0000      -0.554192       -15.0803
  60   2.0000      -0.501589       -13.6489
  61   2.0000      -0.492316       -13.3966
  62   2.0000      -0.472575       -12.8594
  63   2.0000      -0.471622       -12.8335
  64   2.0000      -0.448984       -12.2175
  65   2.0000      -0.444389       -12.0924
  66   2.0000      -0.438093       -11.9211
  67   2.0000      -0.437350       -11.9009
  68   2.0000      -0.427089       -11.6217
  69   2.0000      -0.418343       -11.3837
  70   2.0000      -0.410609       -11.1732
  71   2.0000      -0.392617       -10.6836
  72   2.0000      -0.392410       -10.6780
  73   2.0000      -0.391141       -10.6435
  74   2.0000      -0.383844       -10.4449
  75   2.0000      -0.378841       -10.3088
  76   2.0000      -0.363093        -9.8803
  77   2.0000      -0.354784        -9.6542
  78   2.0000      -0.354306        -9.6412
  79   2.0000      -0.351240        -9.5577
  80   2.0000      -0.347260        -9.4494
  81   2.0000      -0.341458        -9.2915
  82   2.0000      -0.338947        -9.2232
  83   2.0000      -0.337281        -9.1779
  84   2.0000      -0.329825        -8.9750
  85   2.0000      -0.315789        -8.5931
  86   2.0000      -0.312466        -8.5026
  87   2.0000      -0.295569        -8.0428
  88   2.0000      -0.292756        -7.9663
  89   2.0000      -0.284835        -7.7508
  90   2.0000      -0.281527        -7.6608
  91   2.0000      -0.274751        -7.4764
  92   2.0000      -0.271635        -7.3916
  93   2.0000      -0.263977        -7.1832
  94   2.0000      -0.261462        -7.1147
  95   2.0000      -0.231191        -6.2910
  96   2.0000      -0.222854        -6.0642
  97   2.0000      -0.210383        -5.7248
  98   2.0000      -0.202279        -5.5043
  99   2.0000      -0.198375        -5.3981
 100   2.0000      -0.195751        -5.3266
 101   0.0000      -0.043823        -1.1925
 102   0.0000      -0.031142        -0.8474
 103   0.0000      -0.006988        -0.1902
 104   0.0000       0.010948         0.2979
 105   0.0000       0.016936         0.4608

MULLIKEN ATOMIC CHARGES
-----------------------
   0 C :   -0.319630
   1 C :   -0.001261
   2 O :   -0.371604
   3 P :    0.603163
   4 S :   -0.313397
   5 O :   -0.364795
   6 C :   -0.010786
   7 C :   -0.295784
   8 S :   -0.076399
   9 C :   -0.357512
  10 S :   -0.086395
  11 P :    0.612927
  12 S :   -0.322957
  13 O :   -0.372916
  14 C :    0.003174
  15 C :   -0.362399
  16 O :   -0.369910
  17 C :   -0.004047
  18 C :   -0.306878
  19 H :    0.129566
  20 H :    0.113867
  21 H :    0.117961
  22 H :    0.111112
  23 H :    0.104798
  24 H :    0.103109
  25 H :    0.114490
  26 H :    0.137597
  27 H :    0.116081
  28 H :    0.108009
  29 H :    0.181073
  30 H :    0.207292
  31 H :    0.111494
  32 H :    0.102812
  33 H :    0.115920
  34 H :    0.167407
  35 H :    0.110366
  36 H :    0.108790
  37 H :    0.104215
  38 H :    0.117957
  39 H :    0.122002
  40 H :    0.111490
Sum of atomic charges:    0.0000000

LOEWDIN ATOMIC CHARGES
----------------------
   0 C :   -0.369455
   1 C :   -0.118848
   2 O :   -0.247192
   3 P :    0.565258
   4 S :   -0.300804
   5 O :   -0.242079
   6 C :   -0.113077
   7 C :   -0.354143
   8 S :    0.099778
   9 C :   -0.478293
  10 S :    0.085775
  11 P :    0.572281
  12 S :   -0.309266
  13 O :   -0.242094
  14 C :   -0.117671
  15 C :   -0.377251
  16 O :   -0.246655
  17 C :   -0.118716
  18 C :   -0.363935
  19 H :    0.122101
  20 H :    0.131411
  21 H :    0.124153
  22 H :    0.110665
  23 H :    0.118600
  24 H :    0.113886
  25 H :    0.108696
  26 H :    0.124373
  27 H :    0.127294
  28 H :    0.128485
  29 H :    0.133998
  30 H :    0.122710
  31 H :    0.110901
  32 H :    0.117360
  33 H :    0.121730
  34 H :    0.121564
  35 H :    0.130900
  36 H :    0.109386
  37 H :    0.118332
  38 H :    0.126972
  39 H :    0.122914
  40 H :    0.129954

  Mayer bond orders larger than 0.100000
B(  0-C ,  1-C ) :   1.1644 B(  0-C , 19-H ) :   0.9360 B(  0-C , 20-H ) :   0.9381
B(  0-C , 21-H ) :   0.9448 B(  1-C ,  2-O ) :   0.9097 B(  1-C , 22-H ) :   0.9157
B(  1-C , 23-H ) :   0.9340 B(  2-O ,  3-P ) :   1.1152 B(  3-P ,  4-S ) :   1.6088
B(  3-P ,  5-O ) :   1.1318 B(  3-P ,  8-S ) :   0.9554 B(  4-S ,  8-S ) :   0.1126
B(  5-O ,  6-C ) :   0.8951 B(  6-C ,  7-C ) :   1.1661 B(  6-C , 24-H ) :   0.9327
B(  6-C , 25-H ) :   0.9058 B(  7-C , 26-H ) :   0.9385 B(  7-C , 27-H ) :   0.9477
B(  7-C , 28-H ) :   0.9414 B(  8-S ,  9-C ) :   1.0144 B(  9-C , 10-S ) :   0.9808
B(  9-C , 29-H ) :   0.9071 B(  9-C , 30-H ) :   0.8572 B( 10-S , 11-P ) :   0.9650
B( 10-S , 12-S ) :   0.1164 B( 11-P , 12-S ) :   1.6038 B( 11-P , 13-O ) :   1.1113
B( 11-P , 16-O ) :   1.1187 B( 13-O , 14-C ) :   0.9043 B( 14-C , 15-C ) :   1.1659
B( 14-C , 31-H ) :   0.9141 B( 14-C , 32-H ) :   0.9327 B( 15-C , 33-H ) :   0.9392
B( 15-C , 34-H ) :   0.9146 B( 15-C , 35-H ) :   0.9363 B( 16-O , 17-C ) :   0.9114
B( 17-C , 18-C ) :   1.1645 B( 17-C , 36-H ) :   0.9150 B( 17-C , 37-H ) :   0.9350
B( 18-C , 38-H ) :   0.9463 B( 18-C , 39-H ) :   0.9386 B( 18-C , 40-H ) :   0.9389

Dispersion correction           -0.065346048
FINAL SINGLE POINT ENERGY     -2929.522216723877

DIPOLE MOMENT
-------------

Method             : SCF
Type of density    : Electron Density
Multiplicity       :   1
Irrep              :   0
Energy             : -2929.6407122299156072 Eh
Relativity type    :
Basis              : AO
                                X                 Y                 Z
Electronic contribution:      4.572210386      -6.561653788      -6.804375643
Nuclear contribution   :     -4.586763641       6.456389057       7.348505719
                        -----------------------------------------
Total Dipole Moment    :     -0.014553255      -0.105264731       0.544130077
                        -----------------------------------------
Magnitude (a.u.)       :      0.554409597
Magnitude (Debye)      :      1.409197205

Rotational constants in cm-1:             0.012865             0.004867             0.004402
Rotational constants in MHz :           385.691071           145.911084           131.981188

                             ****ORCA TERMINATED NORMALLY****
TOTAL RUN TIME: 0 days 0 hours 0 minutes 20 seconds 868 msec
