                         Program Version 6.0.0  -   RELEASE  -
|  1> ! pbe def2-sv(p) def2/J RI DEFGRID1 loosescf d4 GCP(DFT/SV(P)) printgap
|  2> %output
|  3>     printlevel normal
|  4> end
|  5> * xyz 0 1
|  6> C 3.4111761853 -0.32487021 3.1096498774
|  7> C 1.9907173188 -0.5804216786 2.6523144803
|  8> O 1.6731675638 0.1609027881 1.4569664607
|  9> P 2.3271072379 -0.1851329644 0.052772504
| 10> S 2.7535327521 -2.0772465336 -0.2575491958
| 11> O 3.5674134948 0.8063687945 0.0253890819
| 12> C 4.6477909542 0.6648993755 -0.9132976783
| 13> C 4.210276893 0.9524224488 -2.3350891374
| 14> S 0.9057283976 0.7078401718 -1.2255361182
| 15> C -0.1880230603 -0.7354043206 -1.3483294941
| 16> S -1.0199765233 -1.1403583796 0.2093536989
| 17> P -2.6471499788 0.2396112246 0.0808606492
| 18> S -3.0370319794 0.9198210125 -1.7212186965
| 19> O -2.4168356275 1.2810955598 1.2517882906
| 20> C -1.2657233333 2.1258000327 1.4142162691
| 21> C -1.2227034395 3.2472431846 0.3946093266
| 22> O -3.8555639004 -0.492899997 0.7882839637
| 23> C -4.8070731571 -1.2750219636 0.0456187776
| 24> C -4.2064788443 -2.5717083902 -0.4602389801
| 25> H 4.1125921782 -0.725899192 2.3790221442
| 26> H 3.5853479151 0.7426755561 3.2151126731
| 27> H 3.5764292859 -0.8161645505 4.0633464877
| 28> H 1.2590146307 -0.2304050154 3.3816320813
| 29> H 1.8306711516 -1.6446193514 2.450953421
| 30> H 5.3914780894 1.3836864133 -0.5667997659
| 31> H 5.0450688789 -0.3521015339 -0.8326438176
| 32> H 3.7156820331 1.9189870781 -2.3906062371
| 33> H 5.0790227601 0.9531565259 -2.9856623926
| 34> H 3.5163851007 0.1844766637 -2.6749401867
| 35> H 0.3999930136 -1.6096581248 -1.6246140742
| 36> H -0.9338465071 -0.4929243761 -2.1067723774
| 37> H -1.3787708431 2.518383098 2.4268065272
| 38> H -0.3578145107 1.516257178 1.3621685911
| 39> H -2.1539832719 3.8074974037 0.4150020834
| 40> H -0.3965639992 3.91071824 0.6294104558
| 41> H -1.0767145295 2.8489775186 -0.6079405473
| 42> H -5.6110273806 -1.4561398859 0.7602966442
| 43> H -5.1808491213 -0.6723753394 -0.7887657988
| 44> H -3.4553982313 -2.3634117165 -1.2210467755
| 45> H -3.7375152574 -3.1142117647 0.3568975956
| 46> H -4.9888999178 -3.1835946954 -0.8976687185
| 47> *
| 48>
| 49>                          ****END OF INPUT****

CARTESIAN COORDINATES (ANGSTROEM)
---------------------------------
  C      3.411176   -0.324870    3.109650
  C      1.990717   -0.580422    2.652314
  O      1.673168    0.160903    1.456966
  P      2.327107   -0.185133    0.052773
  S      2.753533   -2.077247   -0.257549
  O      3.567413    0.806369    0.025389
  C      4.647791    0.664899   -0.913298
  C      4.210277    0.952422   -2.335089
  S      0.905728    0.707840   -1.225536
  C     -0.188023   -0.735404   -1.348329
  S     -1.019977   -1.140358    0.209354
  P     -2.647150    0.239611    0.080861
  S     -3.037032    0.919821   -1.721219
  O     -2.416836    1.281096    1.251788
  C     -1.265723    2.125800    1.414216
  C     -1.222703    3.247243    0.394609
  O     -3.855564   -0.492900    0.788284
  C     -4.807073   -1.275022    0.045619
  C     -4.206479   -2.571708   -0.460239
  H      4.112592   -0.725899    2.379022
  H      3.585348    0.742676    3.215113
  H      3.576429   -0.816165    4.063346
  H      1.259015   -0.230405    3.381632
  H      1.830671   -1.644619    2.450953
  H      5.391478    1.383686   -0.566800
  H      5.045069   -0.352102   -0.832644
  H      3.715682    1.918987   -2.390606
  H      5.079023    0.953157   -2.985662
  H      3.516385    0.184477   -2.674940
  H      0.399993   -1.609658   -1.624614
  H     -0.933847   -0.492924   -2.106772
  H     -1.378771    2.518383    2.426807
  H     -0.357815    1.516257    1.362169
  H     -2.153983    3.807497    0.415002
  H     -0.396564    3.910718    0.629410
  H     -1.076715    2.848978   -0.607941
  H     -5.611027   -1.456140    0.760297
  H     -5.180849   -0.672375   -0.788766
  H     -3.455398   -2.363412   -1.221047
  H     -3.737515   -3.114212    0.356898
  H     -4.988900   -3.183595   -0.897669

 Total Charge           Charge          ....    0
 Multiplicity           Mult            ....    1
 Number of Electrons    NEL             ....  202
 Basis Dimension        Dim             ....  334

ORBITAL ENERGIES
----------------

  NO   OCC          E(Eh)            E(eV)
   0   2.0000     -88.047575     -2395.8963
   1   2.0000     -88.043168     -2395.7764
   2   2.0000     -87.996452     -2394.5052
   3   2.0000     -87.990495     -2394.3431
   4   2.0000     -76.432612     -2079.8371
   5   2.0000     -76.426620     -2079.6741
   6   2.0000     -18.800719      -511.5936
   7   2.0000     -18.796388      -511.4757
   8   2.0000     -18.789546      -511.2895
   9   2.0000     -18.786527      -511.2074
  10   2.0000      -9.958375      -270.9812
  11   2.0000      -9.954852      -270.8853
  12   2.0000      -9.954339      -270.8713
  13   2.0000      -9.950085      -270.7556
  14   2.0000      -9.945759      -270.6378
  15   2.0000      -9.888550      -269.0811
  16   2.0000      -9.887802      -269.0608
  17   2.0000      -9.882014      -268.9033
  18   2.0000      -9.873925      -268.6832
  19   2.0000      -7.692473      -209.3228
  20   2.0000      -7.687858      -209.1972
  21   2.0000      -7.641287      -207.9300
  22   2.0000      -7.635357      -207.7686
  23   2.0000      -6.430287      -174.9770
  24   2.0000      -6.423848      -174.8018
  25   2.0000      -5.720233      -155.6554
  26   2.0000      -5.717118      -155.5707
  27   2.0000      -5.715689      -155.5318
  28   2.0000      -5.712371      -155.4415
  29   2.0000      -5.709419      -155.3612
  30   2.0000      -5.704936      -155.2392
  31   2.0000      -5.670045      -154.2898
  32   2.0000      -5.664113      -154.1283
  33   2.0000      -5.661950      -154.0695
  34   2.0000      -5.661618      -154.0604
  35   2.0000      -5.655968      -153.9067
  36   2.0000      -5.655711      -153.8997
  37   2.0000      -4.652683      -126.6059
  38   2.0000      -4.652029      -126.5881
  39   2.0000      -4.650896      -126.5573
  40   2.0000      -4.646104      -126.4269
  41   2.0000      -4.645899      -126.4213
  42   2.0000      -4.644336      -126.3788
  43   2.0000      -0.993616       -27.0377
  44   2.0000      -0.986973       -26.8569
  45   2.0000      -0.952701       -25.9243
  46   2.0000      -0.941682       -25.6245
  47   2.0000      -0.766015       -20.8443
  48   2.0000      -0.722841       -19.6695
  49   2.0000      -0.710112       -19.3231
  50   2.0000      -0.691859       -18.8264
  51   2.0000      -0.680581       -18.5196
  52   2.0000      -0.676660       -18.4129
  53   2.0000      -0.655174       -17.8282
  54   2.0000      -0.642097       -17.4723
  55   2.0000      -0.607305       -16.5256
  56   2.0000      -0.596397       -16.2288
  57   2.0000      -0.577376       -15.7112
  58   2.0000      -0.566917       -15.4266
  59   2.0000      -0.561462       -15.2782
  60   2.0000      -0.500138       -13.6094
  61   2.0000      -0.491685       -13.3794
  62   2.0000      -0.479040       -13.0353
  63   2.0000      -0.466099       -12.6832
  64   2.0000      -0.460287       -12.5250
  65   2.0000      -0.445318       -12.1177
  66   2.0000      -0.443854       -12.0779
  67   2.0000      -0.433919       -11.8075
  68   2.0000      -0.423992       -11.5374
  69   2.0000      -0.417583       -11.3630
  70   2.0000      -0.410905       -11.1813
  71   2.0000      -0.404731       -11.0133
  72   2.0000      -0.397941       -10.8285
  73   2.0000      -0.392077       -10.6690
  74   2.0000      -0.382273       -10.4022
  75   2.0000      -0.377420       -10.2701
  76   2.0000      -0.370245       -10.0749
  77   2.0000      -0.361597        -9.8396
  78   2.0000      -0.356725        -9.7070
  79   2.0000      -0.352901        -9.6029
  80   2.0000      -0.348431        -9.4813
  81   2.0000      -0.343950        -9.3594
  82   2.0000      -0.340082        -9.2541
  83   2.0000      -0.337298        -9.1784
  84   2.0000      -0.332534        -9.0487
  85   2.0000      -0.321000        -8.7348
  86   2.0000      -0.311535        -8.4773
  87   2.0000      -0.300970        -8.1898
  88   2.0000      -0.296401        -8.0655
  89   2.0000      -0.289797        -7.8858
  90   2.0000      -0.284930        -7.7533
  91   2.0000      -0.278452        -7.5771
  92   2.0000      -0.270209        -7.3528
  93   2.0000      -0.267275        -7.2729
  94   2.0000      -0.258120        -7.0238
  95   2.0000      -0.238421        -6.4878
  96   2.0000      -0.220296        -5.9946
  97   2.0000      -0.218297        -5.9402
  98   2.0000      -0.209983        -5.7139
  99   2.0000      -0.207987        -5.6596
 100   2.0000      -0.203651        -5.5416
 101   0.0000      -0.048593        -1.3223
 102   0.0000      -0.030412        -0.8276
 103   0.0000      -0.006953        -0.1892
 104   0.0000      -0.003297        -0.0897
 105   0.0000       0.011486         0.3125

MULLIKEN ATOMIC CHARGES
-----------------------
   0 C :   -0.307024
   1 C :   -0.001107
   2 O :   -0.356597
   3 P :    0.612800
   4 S :   -0.330976
   5 O :   -0.369727
   6 C :   -0.006339
   7 C :   -0.316784
   8 S :   -0.077975
   9 C :   -0.362717
  10 S :   -0.092645
  11 P :    0.604435
  12 S :   -0.331822
  13 O :   -0.352663
  14 C :   -0.043366
  15 C :   -0.304014
  16 O :   -0.357151
  17 C :   -0.004766
  18 C :   -0.309961
  19 H :    0.122082
  20 H :    0.117001
  21 H :    0.114295
  22 H :    0.106362
  23 H :    0.114626
  24 H :    0.108004
  25 H :    0.112566
  26 H :    0.120607
  27 H :    0.115804
  28 H :    0.128202
  29 H :    0.192988
  30 H :    0.193869
  31 H :    0.101005
  32 H :    0.140307
  33 H :    0.114399
  34 H :    0.104134
  35 H :    0.130551
  36 H :    0.106787
  37 H :    0.114107
  38 H :    0.120709
  39 H :    0.118149
  40 H :    0.111845
Sum of atomic charges:   -0.0000000

LOEWDIN ATOMIC CHARGES
----------------------
   0 C :   -0.364382
   1 C :   -0.117178
   2 O :   -0.236311
   3 P :    0.573139
   4 S :   -0.319127
   5 O :   -0.241979
   6 C :   -0.118679
   7 C :   -0.369269
   8 S :    0.106157
   9 C :   -0.487741
  10 S :    0.082733
  11 P :    0.572182
  12 S :   -0.309465
  13 O :   -0.231959
  14 C :   -0.125135
  15 C :   -0.367350
  16 O :   -0.233774
  17 C :   -0.119170
  18 C :   -0.367775
  19 H :    0.122321
  20 H :    0.126588
  21 H :    0.131442
  22 H :    0.119017
  23 H :    0.111705
  24 H :    0.120056
  25 H :    0.111330
  26 H :    0.125607
  27 H :    0.132526
  28 H :    0.121841
  29 H :    0.129920
  30 H :    0.126619
  31 H :    0.117656
  32 H :    0.105765
  33 H :    0.125549
  34 H :    0.127696
  35 H :    0.114623
  36 H :    0.119631
  37 H :    0.110447
  38 H :    0.119374
  39 H :    0.125178
  40 H :    0.130192

  Mayer bond orders larger than 0.100000
B(  0-C ,  1-C ) :   1.1634 B(  0-C , 19-H ) :   0.9371 B(  0-C , 20-H ) :   0.9459
B(  0-C , 21-H ) :   0.9393 B(  1-C ,  2-O ) :   0.9002 B(  1-C , 22-H ) :   0.9339
B(  1-C , 23-H ) :   0.9173 B(  2-O ,  3-P ) :   1.1162 B(  3-P ,  4-S ) :   1.5926
B(  3-P ,  5-O ) :   1.1140 B(  3-P ,  8-S ) :   0.9649 B(  4-S ,  8-S ) :   0.1080
B(  5-O ,  6-C ) :   0.9052 B(  6-C ,  7-C ) :   1.1663 B(  6-C , 24-H ) :   0.9336
B(  6-C , 25-H ) :   0.9168 B(  7-C , 26-H ) :   0.9444 B(  7-C , 27-H ) :   0.9375
B(  7-C , 28-H ) :   0.9355 B(  8-S ,  9-C ) :   0.9990 B(  9-C , 10-S ) :   1.0126
B(  9-C , 29-H ) :   0.8771 B(  9-C , 30-H ) :   0.8632 B( 10-S , 11-P ) :   0.9330
B( 10-S , 12-S ) :   0.1207 B( 11-P , 12-S ) :   1.5947 B( 11-P , 13-O ) :   1.1392
B( 11-P , 16-O ) :   1.1328 B( 13-O , 14-C ) :   0.9120 B( 14-C , 15-C ) :   1.1634
B( 14-C , 31-H ) :   0.9346 B( 14-C , 32-H ) :   0.8965 B( 15-C , 33-H ) :   0.9451
B( 15-C , 34-H ) :   0.9388 B( 15-C , 35-H ) :   0.9305 B( 16-O , 17-C ) :   0.9121
B( 17-C , 18-C ) :   1.1633 B( 17-C , 36-H ) :   0.9339 B( 17-C , 37-H ) :   0.9145
B( 18-C , 38-H ) :   0.9384 B( 18-C , 39-H ) :   0.9449 B( 18-C , 40-H ) :   0.9386

Dispersion correction           -0.066083029
FINAL SINGLE POINT ENERGY     -2929.528006333454

DIPOLE MOMENT
-------------

Method             : SCF
Type of density    : Electron Density
Multiplicity       :   1
Irrep              :   0
Energy             : -2929.6469243423985063 Eh
Relativity type    :
Basis              : AO
                                X                 Y                 Z
Electronic contribution:     -7.232422371      -2.832074759      -3.835132550
Nuclear contribution   :      8.013010635       2.953548161       4.469386699
                        -----------------------------------------
Total Dipole Moment    :      0.780588265       0.121473402       0.634254148
                        -----------------------------------------
Magnitude (a.u.)       :      1.013090396
Magnitude (Debye)      :      2.575071143

Rotational constants in cm-1:             0.012993             0.004630             0.004544
Rotational constants in MHz :           389.533045           138.807982           136.224783

                             ****ORCA TERMINATED NORMALLY****
TOTAL RUN TIME: 0 days 0 hours 0 minutes 20 seconds 885 msec
