                         Program Version 6.0.0  -   RELEASE  -
|  1> ! pbe def2-sv(p) def2/J RI DEFGRID1 loosescf d4 GCP(DFT/SV(P)) printgap
|  2> %output
|  3>     printlevel normal
|  4> end
|  5> * xyz 0 1
|  6> C 5.6762044097 -0.2118636439 -0.8671664222
|  7> C 4.5456837153 -1.0189585987 -1.4695278293
|  8> O 3.4243571079 -1.1289570289 -0.5687953577
|  9> P 2.5065437726 0.1104657128 -0.2014259572
| 10> S 2.1838288242 1.3616781641 -1.6840122076
| 11> O 3.2399700574 0.7195905065 1.0679226042
| 12> C 2.9409750675 2.0267303262 1.5873927258
| 13> C 1.5557745739 2.0909957638 2.1966659711
| 14> S 0.8769505687 -0.9568834011 0.5855929365
| 15> C 0.0300921299 -1.2323924465 -1.0140320784
| 16> S -1.6590635337 -1.7865802593 -0.7676022523
| 17> P -2.5495290382 0.0558532091 -0.1255018471
| 18> S -1.4410750512 1.6584811063 -0.3237503918
| 19> O -3.1067511064 -0.2478768581 1.3316146642
| 20> C -2.2803179698 -0.433584187 2.4959495411
| 21> C -2.079810511 0.8767720841 3.2323475354
| 22> O -3.8713651948 0.1995454583 -0.9610646869
| 23> C -4.7539148331 -0.8670841921 -1.3941411792
| 24> C -5.1657656369 -1.7942466037 -0.2722012611
| 25> H 5.3670860961 0.8256495674 -0.7477547489
| 26> H 5.9461669618 -0.6126160584 0.1062595058
| 27> H 6.5371778701 -0.2496315981 -1.5272457893
| 28> H 4.8371391656 -2.0545374179 -1.6494873926
| 29> H 4.1965345461 -0.5595502223 -2.4000844045
| 30> H 3.7189542663 2.1944153352 2.3335841015
| 31> H 3.0368525385 2.7547086935 0.7752745663
| 32> H 1.4230682056 3.0468741071 2.6930910028
| 33> H 0.8001837512 1.9976842834 1.4159465923
| 34> H 1.422604332 1.2865688553 2.9159470121
| 35> H 0.5401622503 -2.0219761814 -1.5610077991
| 36> H 0.035976496 -0.2899018612 -1.5677401847
| 37> H -2.8308358661 -1.1507284118 3.1080179808
| 38> H -1.3200279978 -0.8672177726 2.1994842549
| 39> H -1.491181103 0.6993356841 4.1263108783
| 40> H -1.5572032997 1.588722898 2.5978300755
| 41> H -3.0409231989 1.2999470447 3.5105027478
| 42> H -5.6076077168 -0.3262173587 -1.8055429536
| 43> H -4.2458655505 -1.4197043971 -2.1881481925
| 44> H -4.3046027501 -2.3538590671 0.0880441504
| 45> H -5.5906556185 -1.2253534382 0.5503635604
| 46> H -5.9070351091 -2.4928771628 -0.6479529542
| 47> *
| 48>
| 49>                          ****END OF INPUT****

CARTESIAN COORDINATES (ANGSTROEM)
---------------------------------
  C      5.676204   -0.211864   -0.867166
  C      4.545684   -1.018959   -1.469528
  O      3.424357   -1.128957   -0.568795
  P      2.506544    0.110466   -0.201426
  S      2.183829    1.361678   -1.684012
  O      3.239970    0.719591    1.067923
  C      2.940975    2.026730    1.587393
  C      1.555775    2.090996    2.196666
  S      0.876951   -0.956883    0.585593
  C      0.030092   -1.232392   -1.014032
  S     -1.659064   -1.786580   -0.767602
  P     -2.549529    0.055853   -0.125502
  S     -1.441075    1.658481   -0.323750
  O     -3.106751   -0.247877    1.331615
  C     -2.280318   -0.433584    2.495950
  C     -2.079811    0.876772    3.232348
  O     -3.871365    0.199545   -0.961065
  C     -4.753915   -0.867084   -1.394141
  C     -5.165766   -1.794247   -0.272201
  H      5.367086    0.825650   -0.747755
  H      5.946167   -0.612616    0.106260
  H      6.537178   -0.249632   -1.527246
  H      4.837139   -2.054537   -1.649487
  H      4.196535   -0.559550   -2.400084
  H      3.718954    2.194415    2.333584
  H      3.036853    2.754709    0.775275
  H      1.423068    3.046874    2.693091
  H      0.800184    1.997684    1.415947
  H      1.422604    1.286569    2.915947
  H      0.540162   -2.021976   -1.561008
  H      0.035976   -0.289902   -1.567740
  H     -2.830836   -1.150728    3.108018
  H     -1.320028   -0.867218    2.199484
  H     -1.491181    0.699336    4.126311
  H     -1.557203    1.588723    2.597830
  H     -3.040923    1.299947    3.510503
  H     -5.607608   -0.326217   -1.805543
  H     -4.245866   -1.419704   -2.188148
  H     -4.304603   -2.353859    0.088044
  H     -5.590656   -1.225353    0.550364
  H     -5.907035   -2.492877   -0.647953

 Total Charge           Charge          ....    0
 Multiplicity           Mult            ....    1
 Number of Electrons    NEL             ....  202
 Basis Dimension        Dim             ....  334

ORBITAL ENERGIES
----------------

  NO   OCC          E(Eh)            E(eV)
   0   2.0000     -88.049308     -2395.9435
   1   2.0000     -88.039209     -2395.6687
   2   2.0000     -87.984969     -2394.1927
   3   2.0000     -87.981077     -2394.0868
   4   2.0000     -76.425983     -2079.6567
   5   2.0000     -76.423549     -2079.5905
   6   2.0000     -18.792970      -511.3827
   7   2.0000     -18.792619      -511.3732
   8   2.0000     -18.789919      -511.2997
   9   2.0000     -18.786518      -511.2072
  10   2.0000      -9.960562      -271.0407
  11   2.0000      -9.953412      -270.8461
  12   2.0000      -9.952531      -270.8221
  13   2.0000      -9.950315      -270.7618
  14   2.0000      -9.949000      -270.7261
  15   2.0000      -9.892568      -269.1905
  16   2.0000      -9.882593      -268.9190
  17   2.0000      -9.879204      -268.8268
  18   2.0000      -9.878096      -268.7967
  19   2.0000      -7.693985      -209.3640
  20   2.0000      -7.684247      -209.0990
  21   2.0000      -7.629774      -207.6167
  22   2.0000      -7.625862      -207.5102
  23   2.0000      -6.423274      -174.7862
  24   2.0000      -6.421202      -174.7298
  25   2.0000      -5.721842      -155.6992
  26   2.0000      -5.718290      -155.6026
  27   2.0000      -5.712146      -155.4354
  28   2.0000      -5.711293      -155.4122
  29   2.0000      -5.709107      -155.3527
  30   2.0000      -5.700846      -155.1279
  31   2.0000      -5.658525      -153.9763
  32   2.0000      -5.655003      -153.8804
  33   2.0000      -5.650477      -153.7573
  34   2.0000      -5.650067      -153.7461
  35   2.0000      -5.646327      -153.6444
  36   2.0000      -5.645941      -153.6339
  37   2.0000      -4.645946      -126.4226
  38   2.0000      -4.645222      -126.4029
  39   2.0000      -4.643730      -126.3623
  40   2.0000      -4.643504      -126.3562
  41   2.0000      -4.642876      -126.3391
  42   2.0000      -4.641750      -126.3084
  43   2.0000      -0.987029       -26.8584
  44   2.0000      -0.984905       -26.8006
  45   2.0000      -0.944854       -25.7108
  46   2.0000      -0.944428       -25.6992
  47   2.0000      -0.763441       -20.7743
  48   2.0000      -0.721952       -19.6453
  49   2.0000      -0.711073       -19.3493
  50   2.0000      -0.691695       -18.8220
  51   2.0000      -0.684860       -18.6360
  52   2.0000      -0.674005       -18.3406
  53   2.0000      -0.649816       -17.6824
  54   2.0000      -0.634756       -17.2726
  55   2.0000      -0.599136       -16.3033
  56   2.0000      -0.592902       -16.1337
  57   2.0000      -0.573381       -15.6025
  58   2.0000      -0.570402       -15.5214
  59   2.0000      -0.563201       -15.3255
  60   2.0000      -0.498325       -13.5601
  61   2.0000      -0.490827       -13.3561
  62   2.0000      -0.477462       -12.9924
  63   2.0000      -0.471077       -12.8187
  64   2.0000      -0.453496       -12.3403
  65   2.0000      -0.447695       -12.1824
  66   2.0000      -0.439349       -11.9553
  67   2.0000      -0.436667       -11.8823
  68   2.0000      -0.433256       -11.7895
  69   2.0000      -0.416542       -11.3347
  70   2.0000      -0.403314       -10.9747
  71   2.0000      -0.400561       -10.8998
  72   2.0000      -0.391946       -10.6654
  73   2.0000      -0.390205       -10.6180
  74   2.0000      -0.389250       -10.5920
  75   2.0000      -0.379893       -10.3374
  76   2.0000      -0.359535        -9.7835
  77   2.0000      -0.357996        -9.7416
  78   2.0000      -0.355276        -9.6675
  79   2.0000      -0.351152        -9.5553
  80   2.0000      -0.347533        -9.4569
  81   2.0000      -0.345486        -9.4012
  82   2.0000      -0.340559        -9.2671
  83   2.0000      -0.332957        -9.0602
  84   2.0000      -0.330943        -9.0054
  85   2.0000      -0.317742        -8.6462
  86   2.0000      -0.312981        -8.5166
  87   2.0000      -0.293333        -7.9820
  88   2.0000      -0.292326        -7.9546
  89   2.0000      -0.291021        -7.9191
  90   2.0000      -0.280384        -7.6296
  91   2.0000      -0.277868        -7.5612
  92   2.0000      -0.271118        -7.3775
  93   2.0000      -0.263981        -7.1833
  94   2.0000      -0.260376        -7.0852
  95   2.0000      -0.235490        -6.4080
  96   2.0000      -0.222651        -6.0587
  97   2.0000      -0.207418        -5.6441
  98   2.0000      -0.202238        -5.5032
  99   2.0000      -0.194069        -5.2809
 100   2.0000      -0.190557        -5.1853
 101   0.0000      -0.047666        -1.2970
 102   0.0000      -0.032224        -0.8769
 103   0.0000      -0.010283        -0.2798
 104   0.0000       0.010079         0.2743
 105   0.0000       0.017307         0.4709

MULLIKEN ATOMIC CHARGES
-----------------------
   0 C :   -0.306127
   1 C :   -0.004799
   2 O :   -0.370554
   3 P :    0.615758
   4 S :   -0.320992
   5 O :   -0.371569
   6 C :    0.007872
   7 C :   -0.363335
   8 S :   -0.098590
   9 C :   -0.334639
  10 S :   -0.130066
  11 P :    0.587312
  12 S :   -0.282690
  13 O :   -0.371349
  14 C :   -0.017791
  15 C :   -0.302180
  16 O :   -0.357080
  17 C :   -0.004940
  18 C :   -0.318241
  19 H :    0.122088
  20 H :    0.117360
  21 H :    0.111224
  22 H :    0.103527
  23 H :    0.108960
  24 H :    0.102938
  25 H :    0.110853
  26 H :    0.112855
  27 H :    0.170524
  28 H :    0.112682
  29 H :    0.180725
  30 H :    0.209994
  31 H :    0.102182
  32 H :    0.116222
  33 H :    0.105910
  34 H :    0.142817
  35 H :    0.111888
  36 H :    0.115106
  37 H :    0.114954
  38 H :    0.125959
  39 H :    0.128205
  40 H :    0.117026
Sum of atomic charges:    0.0000000

LOEWDIN ATOMIC CHARGES
----------------------
   0 C :   -0.364115
   1 C :   -0.119197
   2 O :   -0.246923
   3 P :    0.571617
   4 S :   -0.309600
   5 O :   -0.241561
   6 C :   -0.117046
   7 C :   -0.377054
   8 S :    0.083693
   9 C :   -0.477886
  10 S :    0.067030
  11 P :    0.562224
  12 S :   -0.280276
  13 O :   -0.244147
  14 C :   -0.117040
  15 C :   -0.362363
  16 O :   -0.233454
  17 C :   -0.111664
  18 C :   -0.367899
  19 H :    0.123020
  20 H :    0.126726
  21 H :    0.129842
  22 H :    0.117931
  23 H :    0.109295
  24 H :    0.117612
  25 H :    0.111804
  26 H :    0.131332
  27 H :    0.122622
  28 H :    0.120958
  29 H :    0.134111
  30 H :    0.124557
  31 H :    0.116755
  32 H :    0.098371
  33 H :    0.127341
  34 H :    0.127697
  35 H :    0.125496
  36 H :    0.125125
  37 H :    0.112571
  38 H :    0.118006
  39 H :    0.131360
  40 H :    0.133128

  Mayer bond orders larger than 0.100000
B(  0-C ,  1-C ) :   1.1647 B(  0-C , 19-H ) :   0.9382 B(  0-C , 20-H ) :   0.9463
B(  0-C , 21-H ) :   0.9389 B(  1-C ,  2-O ) :   0.9116 B(  1-C , 22-H ) :   0.9349
B(  1-C , 23-H ) :   0.9145 B(  2-O ,  3-P ) :   1.1178 B(  3-P ,  4-S ) :   1.6071
B(  3-P ,  5-O ) :   1.1129 B(  3-P ,  8-S ) :   0.9646 B(  4-S ,  8-S ) :   0.1151
B(  5-O ,  6-C ) :   0.9040 B(  6-C ,  7-C ) :   1.1643 B(  6-C , 24-H ) :   0.9328
B(  6-C , 25-H ) :   0.9161 B(  7-C , 26-H ) :   0.9371 B(  7-C , 27-H ) :   0.9149
B(  7-C , 28-H ) :   0.9435 B(  8-S ,  9-C ) :   0.9778 B(  9-C , 10-S ) :   1.0214
B(  9-C , 29-H ) :   0.9044 B(  9-C , 30-H ) :   0.8536 B( 10-S , 11-P ) :   0.9157
B( 10-S , 12-S ) :   0.1146 B( 11-P , 12-S ) :   1.6636 B( 11-P , 13-O ) :   1.0891
B( 11-P , 16-O ) :   1.1501 B( 13-O , 14-C ) :   0.9048 B( 14-C , 15-C ) :   1.1704
B( 14-C , 31-H ) :   0.9352 B( 14-C , 32-H ) :   0.9039 B( 15-C , 33-H ) :   0.9387
B( 15-C , 34-H ) :   0.9276 B( 15-C , 35-H ) :   0.9459 B( 16-O , 17-C ) :   0.9006
B( 17-C , 18-C ) :   1.1690 B( 17-C , 36-H ) :   0.9343 B( 17-C , 37-H ) :   0.9248
B( 18-C , 38-H ) :   0.9379 B( 18-C , 39-H ) :   0.9412 B( 18-C , 40-H ) :   0.9340

Dispersion correction           -0.065328621
FINAL SINGLE POINT ENERGY     -2929.516304070368

DIPOLE MOMENT
-------------

Method             : SCF
Type of density    : Electron Density
Multiplicity       :   1
Irrep              :   0
Energy             : -2929.6358872219370824 Eh
Relativity type    :
Basis              : AO
                                X                 Y                 Z
Electronic contribution:     -1.996209800      -0.991593721     -11.234574488
Nuclear contribution   :      1.879315591      -0.097971122      11.931996327
                        -----------------------------------------
Total Dipole Moment    :     -0.116894209      -1.089564843       0.697421839
                        -----------------------------------------
Magnitude (a.u.)       :      1.298927644
Magnitude (Debye)      :      3.301611688

Rotational constants in cm-1:             0.014353             0.004518             0.004110
Rotational constants in MHz :           430.279244           135.435038           123.205249

                             ****ORCA TERMINATED NORMALLY****
TOTAL RUN TIME: 0 days 0 hours 0 minutes 20 seconds 871 msec
