                         Program Version 6.0.0  -   RELEASE  -
|  1> ! pbe def2-sv(p) def2/J RI DEFGRID1 loosescf d4 GCP(DFT/SV(P)) printgap
|  2> %output
|  3>     printlevel normal
|  4> end
|  5> * xyz 0 1
|  6> C -0.1964348117 1.2659776345 -4.71014e-05
|  7> C 1.2486248298 1.1995631666 0.0001167821
|  8> O 2.0004381032 2.1590055731 2.93539e-05
|  9> N 1.7633566206 -0.0900288716 -8.44388e-05
| 10> C 1.0548675803 -1.2591082955 5.21201e-05
| 11> O 1.5746915213 -2.3553280665 5.10446e-05
| 12> N -0.3153543599 -1.1009914784 -4.20696e-05
| 13> C -0.9093426654 0.1216669639 -0.0001807326
| 14> Cl -2.6266089006 0.1059739263 4.14444e-05
| 15> H -0.6564671368 2.2370506476 3.20977e-05
| 16> H 2.7759572043 -0.1756074835 -0.0003292699
| 17> H -0.8754891294 -1.9475747093 2.34705e-05
| 18> *
| 19>
| 20>                          ****END OF INPUT****

CARTESIAN COORDINATES (ANGSTROEM)
---------------------------------
  C     -0.196435    1.265978   -0.000047
  C      1.248625    1.199563    0.000117
  O      2.000438    2.159006    0.000029
  N      1.763357   -0.090029   -0.000084
  C      1.054868   -1.259108    0.000052
  O      1.574692   -2.355328    0.000051
  N     -0.315354   -1.100991   -0.000042
  C     -0.909343    0.121667   -0.000181
  Cl    -2.626609    0.105974    0.000041
  H     -0.656467    2.237051    0.000032
  H      2.775957   -0.175607   -0.000329
  H     -0.875489   -1.947575    0.000023

 Total Charge           Charge          ....    0
 Multiplicity           Mult            ....    1
 Number of Electrons    NEL             ....   74
 Basis Dimension        Dim             ....  136

ORBITAL ENERGIES
----------------

  NO   OCC          E(Eh)            E(eV)
   0   2.0000    -100.684681     -2739.7695
   1   2.0000     -18.744350      -510.0597
   2   2.0000     -18.737182      -509.8647
   3   2.0000     -14.076296      -383.0355
   4   2.0000     -14.052592      -382.3905
   5   2.0000     -10.044164      -273.3156
   6   2.0000     -10.025744      -272.8144
   7   2.0000     -10.010012      -272.3863
   8   2.0000      -9.919763      -269.9305
   9   2.0000      -9.221012      -250.9165
  10   2.0000      -7.052578      -191.9104
  11   2.0000      -7.040844      -191.5911
  12   2.0000      -7.040240      -191.5747
  13   2.0000      -0.995731       -27.0952
  14   2.0000      -0.951148       -25.8821
  15   2.0000      -0.917081       -24.9550
  16   2.0000      -0.859308       -23.3830
  17   2.0000      -0.818981       -22.2856
  18   2.0000      -0.724005       -19.7012
  19   2.0000      -0.632611       -17.2142
  20   2.0000      -0.612570       -16.6689
  21   2.0000      -0.560365       -15.2483
  22   2.0000      -0.529417       -14.4062
  23   2.0000      -0.481287       -13.0965
  24   2.0000      -0.453821       -12.3491
  25   2.0000      -0.438839       -11.9414
  26   2.0000      -0.406397       -11.0586
  27   2.0000      -0.383097       -10.4246
  28   2.0000      -0.380996       -10.3674
  29   2.0000      -0.370502       -10.0819
  30   2.0000      -0.369770       -10.0620
  31   2.0000      -0.317144        -8.6299
  32   2.0000      -0.300561        -8.1787
  33   2.0000      -0.256185        -6.9711
  34   2.0000      -0.252945        -6.8830
  35   2.0000      -0.229997        -6.2585
  36   2.0000      -0.220284        -5.9942
  37   0.0000      -0.080078        -2.1790
  38   0.0000      -0.030466        -0.8290
  39   0.0000      -0.027762        -0.7554
  40   0.0000       0.032100         0.8735
  41   0.0000       0.053703         1.4613

MULLIKEN ATOMIC CHARGES
-----------------------
   0 C :   -0.194937
   1 C :    0.163999
   2 O :   -0.182633
   3 N :   -0.241309
   4 C :    0.144338
   5 O :   -0.178323
   6 N :   -0.200527
   7 C :    0.124451
   8 Cl:   -0.029340
   9 H :    0.083465
  10 H :    0.253485
  11 H :    0.257331
Sum of atomic charges:   -0.0000000

LOEWDIN ATOMIC CHARGES
----------------------
   0 C :   -0.225195
   1 C :    0.027146
   2 O :   -0.175191
   3 N :   -0.116534
   4 C :    0.031806
   5 O :   -0.186582
   6 N :   -0.112895
   7 C :   -0.089474
   8 Cl:    0.176201
   9 H :    0.153616
  10 H :    0.258837
  11 H :    0.258266

  Mayer bond orders larger than 0.100000
B(  0-C ,  1-C ) :   1.0595 B(  0-C ,  7-C ) :   1.5684 B(  0-C ,  9-H ) :   0.9469
B(  1-C ,  2-O ) :   2.1102 B(  1-C ,  3-N ) :   1.0596 B(  3-N ,  4-C ) :   1.1224
B(  3-N , 10-H ) :   0.8292 B(  4-C ,  5-O ) :   2.1457 B(  4-C ,  6-N ) :   1.0510
B(  6-N ,  7-C ) :   1.1776 B(  6-N , 11-H ) :   0.8329 B(  7-C ,  8-Cl) :   1.0844

Dispersion correction           -0.013986997
FINAL SINGLE POINT ENERGY      -873.285007004980

DIPOLE MOMENT
-------------

Method             : SCF
Type of density    : Electron Density
Multiplicity       :   1
Irrep              :   0
Energy             :  -873.3249658094682673 Eh
Relativity type    :
Basis              : AO
                                X                 Y                 Z
Electronic contribution:     -5.915918788      -0.378019235       0.000242934
Nuclear contribution   :      4.753401848      -0.044873233      -0.000311914
                        -----------------------------------------
Total Dipole Moment    :     -1.162516940      -0.422892467      -0.000068980
                        -----------------------------------------
Magnitude (a.u.)       :      1.237046353
Magnitude (Debye)      :      3.144321946

Rotational constants in cm-1:             0.068674             0.037908             0.024425
Rotational constants in MHz :          2058.788769          1136.458758           732.252670

                             ****ORCA TERMINATED NORMALLY****
TOTAL RUN TIME: 0 days 0 hours 0 minutes 7 seconds 852 msec
