                         Program Version 6.0.1  -  RELEASE   -
|  1> ! r2scan-3c def2/J RI DEFGRID2 scfconv6 printgap
|  2> %output
|  3>     printlevel normal
|  4> end
|  5> * xyz 0 1
|  6> C 3.7966139013 -3.6402961609 -0.2790656937
|  7> C 4.3601720011 -2.3766286537 -0.9090479243
|  8> O 3.3659059606 -1.7246548981 -1.7254306892
|  9> C 2.5169367828 -0.907260049 -1.1447772659
| 10> O 2.5224151516 -0.6262245855 0.0359861015
| 11> C 1.5289569336 -0.3219937311 -2.1322963964
| 12> C 0.3802458995 0.3269347238 -1.3718039088
| 13> H -0.2538804238 0.9065018373 -2.0501795704
| 14> C 0.9341308476 1.2856585178 -0.3280145704
| 15> O 1.7794800009 2.1070040745 -0.6008904862
| 16> O 0.3284489329 1.1728948956 0.8355123286
| 17> C 0.7486571322 2.0232985058 1.9217654933
| 18> C 1.6938549589 1.268022961 2.8400903173
| 19> S -0.6661586025 -0.9634959013 -0.6063703235
| 20> P -2.1441543765 0.29865391 0.1940907388
| 21> S -2.3958392388 2.1180288009 -0.4813022696
| 22> O -3.3656679518 -0.6923913715 -0.1615230108
| 23> C -4.7188336477 -0.2848990572 0.0765623535
| 24> O -2.0715011761 0.2826540434 1.7902953022
| 25> C -1.8083312053 -0.9383562172 2.5031878675
| 26> H 2.9799982907 -3.3893171497 0.3940675383
| 27> H 3.425384293 -4.3088193925 -1.0506007946
| 28> H 4.578250919 -4.1398653045 0.2835787902
| 29> H 5.1723854334 -2.6020379655 -1.5999019756
| 30> H 4.6962645577 -1.674717648 -0.1406822235
| 31> H 1.1732015958 -1.1003854898 -2.805631199
| 32> H 2.051550157 0.4409019778 -2.7140331723
| 33> H 1.2312684499 2.9050456367 1.4912411235
| 34> H -0.1749882241 2.3083745971 2.4288268937
| 35> H 2.532725554 0.884459928 2.2633632956
| 36> H 2.0611980293 1.9415633586 3.6069288001
| 37> H 1.1818417944 0.4326955422 3.3087116354
| 38> H -4.9121133172 0.6711386696 -0.4128026335
| 39> H -4.907214489 -0.1893818802 1.1463473921
| 40> H -5.3379201806 -1.0666892011 -0.3556625355
| 41> H -2.0705740969 -0.7316140262 3.5376735557
| 42> H -0.7517408498 -1.1900218941 2.4147545023
| 43> H -2.4128982078 -1.7532652876 2.104213034
| 44> *
| 45>
| 46>                          ****END OF INPUT****

CARTESIAN COORDINATES (ANGSTROEM)
---------------------------------
  C      3.796614   -3.640296   -0.279066
  C      4.360172   -2.376629   -0.909048
  O      3.365906   -1.724655   -1.725431
  C      2.516937   -0.907260   -1.144777
  O      2.522415   -0.626225    0.035986
  C      1.528957   -0.321994   -2.132296
  C      0.380246    0.326935   -1.371804
  H     -0.253880    0.906502   -2.050180
  C      0.934131    1.285659   -0.328015
  O      1.779480    2.107004   -0.600890
  O      0.328449    1.172895    0.835512
  C      0.748657    2.023299    1.921765
  C      1.693855    1.268023    2.840090
  S     -0.666159   -0.963496   -0.606370
  P     -2.144154    0.298654    0.194091
  S     -2.395839    2.118029   -0.481302
  O     -3.365668   -0.692391   -0.161523
  C     -4.718834   -0.284899    0.076562
  O     -2.071501    0.282654    1.790295
  C     -1.808331   -0.938356    2.503188
  H      2.979998   -3.389317    0.394068
  H      3.425384   -4.308819   -1.050601
  H      4.578251   -4.139865    0.283579
  H      5.172385   -2.602038   -1.599902
  H      4.696265   -1.674718   -0.140682
  H      1.173202   -1.100385   -2.805631
  H      2.051550    0.440902   -2.714033
  H      1.231268    2.905046    1.491241
  H     -0.174988    2.308375    2.428827
  H      2.532726    0.884460    2.263363
  H      2.061198    1.941563    3.606929
  H      1.181842    0.432696    3.308712
  H     -4.912113    0.671139   -0.412803
  H     -4.907214   -0.189382    1.146347
  H     -5.337920   -1.066689   -0.355663
  H     -2.070574   -0.731614    3.537674
  H     -0.751741   -1.190022    2.414755
  H     -2.412898   -1.753265    2.104213

 Total Charge           Charge          ....    0
 Multiplicity           Mult            ....    1
 Number of Electrons    NEL             ....  174
 Basis Dimension        Dim             ....  510

ORBITAL ENERGIES
----------------

  NO   OCC          E(Eh)            E(eV)
   0   2.0000     -88.572040     -2410.1677
   1   2.0000     -88.514322     -2408.5972
   2   2.0000     -76.910460     -2092.8400
   3   2.0000     -19.012034      -517.3438
   4   2.0000     -18.992743      -516.8188
   5   2.0000     -18.990663      -516.7622
   6   2.0000     -18.983396      -516.5645
   7   2.0000     -18.945083      -515.5219
   8   2.0000     -18.924895      -514.9726
   9   2.0000     -10.169398      -276.7234
  10   2.0000     -10.155973      -276.3581
  11   2.0000     -10.102298      -274.8975
  12   2.0000     -10.096714      -274.7456
  13   2.0000     -10.093755      -274.6650
  14   2.0000     -10.087523      -274.4955
  15   2.0000     -10.082496      -274.3587
  16   2.0000     -10.067034      -273.9379
  17   2.0000     -10.037312      -273.1291
  18   2.0000     -10.021285      -272.6930
  19   2.0000      -7.866606      -214.0612
  20   2.0000      -7.809037      -212.4947
  21   2.0000      -6.588635      -179.2859
  22   2.0000      -5.813563      -158.1951
  23   2.0000      -5.810712      -158.1175
  24   2.0000      -5.803311      -157.9161
  25   2.0000      -5.757012      -156.6562
  26   2.0000      -5.749461      -156.4508
  27   2.0000      -5.748578      -156.4268
  28   2.0000      -4.734435      -128.8305
  29   2.0000      -4.733590      -128.8075
  30   2.0000      -4.732141      -128.7681
  31   2.0000      -1.089734       -29.6532
  32   2.0000      -1.071591       -29.1595
  33   2.0000      -1.042676       -28.3727
  34   2.0000      -1.002604       -27.2822
  35   2.0000      -0.994698       -27.0671
  36   2.0000      -0.976212       -26.5641
  37   2.0000      -0.810830       -22.0638
  38   2.0000      -0.761459       -20.7204
  39   2.0000      -0.735519       -20.0145
  40   2.0000      -0.734343       -19.9825
  41   2.0000      -0.697164       -18.9708
  42   2.0000      -0.676035       -18.3959
  43   2.0000      -0.653846       -17.7921
  44   2.0000      -0.646581       -17.5944
  45   2.0000      -0.632328       -17.2065
  46   2.0000      -0.595339       -16.2000
  47   2.0000      -0.538037       -14.6407
  48   2.0000      -0.536181       -14.5902
  49   2.0000      -0.520068       -14.1518
  50   2.0000      -0.503627       -13.7044
  51   2.0000      -0.492055       -13.3895
  52   2.0000      -0.483886       -13.1672
  53   2.0000      -0.466234       -12.6869
  54   2.0000      -0.459562       -12.5053
  55   2.0000      -0.451654       -12.2901
  56   2.0000      -0.448663       -12.2088
  57   2.0000      -0.443047       -12.0559
  58   2.0000      -0.433024       -11.7832
  59   2.0000      -0.424776       -11.5587
  60   2.0000      -0.419888       -11.4257
  61   2.0000      -0.418148       -11.3784
  62   2.0000      -0.411300       -11.1920
  63   2.0000      -0.397647       -10.8205
  64   2.0000      -0.391505       -10.6534
  65   2.0000      -0.383536       -10.4365
  66   2.0000      -0.381073       -10.3695
  67   2.0000      -0.366971        -9.9858
  68   2.0000      -0.361910        -9.8481
  69   2.0000      -0.350850        -9.5471
  70   2.0000      -0.345688        -9.4066
  71   2.0000      -0.342102        -9.3091
  72   2.0000      -0.339461        -9.2372
  73   2.0000      -0.333540        -9.0761
  74   2.0000      -0.327761        -8.9188
  75   2.0000      -0.318672        -8.6715
  76   2.0000      -0.302428        -8.2295
  77   2.0000      -0.295874        -8.0511
  78   2.0000      -0.288134        -7.8405
  79   2.0000      -0.287435        -7.8215
  80   2.0000      -0.278842        -7.5877
  81   2.0000      -0.267202        -7.2709
  82   2.0000      -0.254309        -6.9201
  83   2.0000      -0.248436        -6.7603
  84   2.0000      -0.219113        -5.9624
  85   2.0000      -0.215693        -5.8693
  86   2.0000      -0.208310        -5.6684
  87   0.0000      -0.045422        -1.2360
  88   0.0000      -0.025322        -0.6891
  89   0.0000      -0.009049        -0.2462
  90   0.0000       0.008220         0.2237
  91   0.0000       0.024261         0.6602

MULLIKEN ATOMIC CHARGES
-----------------------
   0 C :   -0.468351
   1 C :   -0.135949
   2 O :   -0.161704
   3 C :    0.389753
   4 O :   -0.389399
   5 C :   -0.446086
   6 C :    0.015034
   7 H :    0.241944
   8 C :    0.223718
   9 O :   -0.382802
  10 O :   -0.106934
  11 C :   -0.162162
  12 C :   -0.467495
  13 S :   -0.179205
  14 P :    0.758602
  15 S :   -0.445170
  16 O :   -0.376868
  17 C :   -0.295933
  18 O :   -0.300690
  19 C :   -0.298102
  20 H :    0.172965
  21 H :    0.154732
  22 H :    0.150188
  23 H :    0.152699
  24 H :    0.168294
  25 H :    0.192064
  26 H :    0.203226
  27 H :    0.179839
  28 H :    0.168676
  29 H :    0.182149
  30 H :    0.147161
  31 H :    0.140782
  32 H :    0.177542
  33 H :    0.149459
  34 H :    0.151348
  35 H :    0.157125
  36 H :    0.178329
  37 H :    0.161221
Sum of atomic charges:    0.0000000

LOEWDIN ATOMIC CHARGES
----------------------
   0 C :   -0.387784
   1 C :    0.032072
   2 O :   -0.572281
   3 C :    0.368634
   4 O :   -0.432449
   5 C :   -0.205316
   6 C :   -0.189686
   7 H :    0.207398
   8 C :    0.351563
   9 O :   -0.419510
  10 O :   -0.632278
  11 C :    0.035828
  12 C :   -0.386102
  13 S :    0.244998
  14 P :    0.403797
  15 S :   -0.081661
  16 O :   -0.707819
  17 C :   -0.058529
  18 O :   -0.668729
  19 C :   -0.061455
  20 H :    0.165926
  21 H :    0.158534
  22 H :    0.160707
  23 H :    0.180212
  24 H :    0.188506
  25 H :    0.190580
  26 H :    0.206511
  27 H :    0.195961
  28 H :    0.185403
  29 H :    0.172816
  30 H :    0.157315
  31 H :    0.152951
  32 H :    0.177883
  33 H :    0.163915
  34 H :    0.176325
  35 H :    0.179153
  36 H :    0.175647
  37 H :    0.170966

  Mayer bond orders larger than 0.100000
B(  0-C ,  1-C ) :   0.9393 B(  0-C , 20-H ) :   0.9704 B(  0-C , 21-H ) :   0.9724
B(  0-C , 22-H ) :   0.9639 B(  1-C ,  2-O ) :   0.8040 B(  1-C , 23-H ) :   0.9611
B(  1-C , 24-H ) :   0.9676 B(  2-O ,  3-C ) :   1.1361 B(  3-C ,  4-O ) :   1.7764
B(  3-C ,  5-C ) :   0.9761 B(  4-O ,  8-C ) :   0.1334 B(  5-C ,  6-C ) :   0.9150
B(  5-C ,  9-O ) :   0.1067 B(  5-C , 25-H ) :   0.9740 B(  5-C , 26-H ) :   0.9134
B(  6-C ,  7-H ) :   0.9161 B(  6-C ,  8-C ) :   0.8189 B(  6-C , 13-S ) :   0.8670
B(  8-C ,  9-O ) :   1.8974 B(  8-C , 10-O ) :   1.1440 B( 10-O , 11-C ) :   0.7588
B( 11-C , 12-C ) :   0.9204 B( 11-C , 27-H ) :   0.9624 B( 11-C , 28-H ) :   0.9581
B( 12-C , 29-H ) :   0.9689 B( 12-C , 30-H ) :   0.9722 B( 12-C , 31-H ) :   0.9750
B( 13-S , 14-P ) :   1.0582 B( 14-P , 15-S ) :   1.7986 B( 14-P , 16-O ) :   1.0650
B( 14-P , 18-O ) :   1.0637 B( 16-O , 17-C ) :   0.8364 B( 17-C , 32-H ) :   0.9549
B( 17-C , 33-H ) :   0.9631 B( 17-C , 34-H ) :   0.9671 B( 18-O , 19-C ) :   0.7970
B( 19-C , 35-H ) :   0.9645 B( 19-C , 36-H ) :   0.9556 B( 19-C , 37-H ) :   0.9613

Dispersion correction           -0.017772673
FINAL SINGLE POINT ENERGY     -1981.450531144762

DIPOLE MOMENT
-------------

Method             : SCF
Type of density    : Electron Density
Multiplicity       :   1
Irrep              :   0
Energy             : -1981.4705520216193690 Eh
Relativity type    :
Basis              : AO
                                X                 Y                 Z
Electronic contribution:    -11.339478409       9.345650475     -10.264359748
Nuclear contribution   :     11.670564609     -11.227374672      10.978171218
                        -----------------------------------------
Total Dipole Moment    :      0.331086199      -1.881724196       0.713811469
                        -----------------------------------------
Magnitude (a.u.)       :      2.039615365
Magnitude (Debye)      :      5.184290255

Rotational constants in cm-1:             0.015423             0.006364             0.005937
Rotational constants in MHz :           462.371168           190.781274           177.993823

                             ****ORCA TERMINATED NORMALLY****
TOTAL RUN TIME: 0 days 0 hours 1 minutes 17 seconds 591 msec
