                         Program Version 6.0.1  -  RELEASE   -
|  1> ! r2scan-3c def2/J RI DEFGRID2 scfconv6 printgap
|  2> %output
|  3>     printlevel normal
|  4> end
|  5> %cpcm
|  6>     smd true
|  7>     smdsolvent "water"
|  8> end
|  9> * xyz 0 1
| 10> C 3.7966139013 -3.6402961609 -0.2790656937
| 11> C 4.3601720011 -2.3766286537 -0.9090479243
| 12> O 3.3659059606 -1.7246548981 -1.7254306892
| 13> C 2.5169367828 -0.907260049 -1.1447772659
| 14> O 2.5224151516 -0.6262245855 0.0359861015
| 15> C 1.5289569336 -0.3219937311 -2.1322963964
| 16> C 0.3802458995 0.3269347238 -1.3718039088
| 17> H -0.2538804238 0.9065018373 -2.0501795704
| 18> C 0.9341308476 1.2856585178 -0.3280145704
| 19> O 1.7794800009 2.1070040745 -0.6008904862
| 20> O 0.3284489329 1.1728948956 0.8355123286
| 21> C 0.7486571322 2.0232985058 1.9217654933
| 22> C 1.6938549589 1.268022961 2.8400903173
| 23> S -0.6661586025 -0.9634959013 -0.6063703235
| 24> P -2.1441543765 0.29865391 0.1940907388
| 25> S -2.3958392388 2.1180288009 -0.4813022696
| 26> O -3.3656679518 -0.6923913715 -0.1615230108
| 27> C -4.7188336477 -0.2848990572 0.0765623535
| 28> O -2.0715011761 0.2826540434 1.7902953022
| 29> C -1.8083312053 -0.9383562172 2.5031878675
| 30> H 2.9799982907 -3.3893171497 0.3940675383
| 31> H 3.425384293 -4.3088193925 -1.0506007946
| 32> H 4.578250919 -4.1398653045 0.2835787902
| 33> H 5.1723854334 -2.6020379655 -1.5999019756
| 34> H 4.6962645577 -1.674717648 -0.1406822235
| 35> H 1.1732015958 -1.1003854898 -2.805631199
| 36> H 2.051550157 0.4409019778 -2.7140331723
| 37> H 1.2312684499 2.9050456367 1.4912411235
| 38> H -0.1749882241 2.3083745971 2.4288268937
| 39> H 2.532725554 0.884459928 2.2633632956
| 40> H 2.0611980293 1.9415633586 3.6069288001
| 41> H 1.1818417944 0.4326955422 3.3087116354
| 42> H -4.9121133172 0.6711386696 -0.4128026335
| 43> H -4.907214489 -0.1893818802 1.1463473921
| 44> H -5.3379201806 -1.0666892011 -0.3556625355
| 45> H -2.0705740969 -0.7316140262 3.5376735557
| 46> H -0.7517408498 -1.1900218941 2.4147545023
| 47> H -2.4128982078 -1.7532652876 2.104213034
| 48> *
| 49>
| 50>                          ****END OF INPUT****

CARTESIAN COORDINATES (ANGSTROEM)
---------------------------------
  C      3.796614   -3.640296   -0.279066
  C      4.360172   -2.376629   -0.909048
  O      3.365906   -1.724655   -1.725431
  C      2.516937   -0.907260   -1.144777
  O      2.522415   -0.626225    0.035986
  C      1.528957   -0.321994   -2.132296
  C      0.380246    0.326935   -1.371804
  H     -0.253880    0.906502   -2.050180
  C      0.934131    1.285659   -0.328015
  O      1.779480    2.107004   -0.600890
  O      0.328449    1.172895    0.835512
  C      0.748657    2.023299    1.921765
  C      1.693855    1.268023    2.840090
  S     -0.666159   -0.963496   -0.606370
  P     -2.144154    0.298654    0.194091
  S     -2.395839    2.118029   -0.481302
  O     -3.365668   -0.692391   -0.161523
  C     -4.718834   -0.284899    0.076562
  O     -2.071501    0.282654    1.790295
  C     -1.808331   -0.938356    2.503188
  H      2.979998   -3.389317    0.394068
  H      3.425384   -4.308819   -1.050601
  H      4.578251   -4.139865    0.283579
  H      5.172385   -2.602038   -1.599902
  H      4.696265   -1.674718   -0.140682
  H      1.173202   -1.100385   -2.805631
  H      2.051550    0.440902   -2.714033
  H      1.231268    2.905046    1.491241
  H     -0.174988    2.308375    2.428827
  H      2.532726    0.884460    2.263363
  H      2.061198    1.941563    3.606929
  H      1.181842    0.432696    3.308712
  H     -4.912113    0.671139   -0.412803
  H     -4.907214   -0.189382    1.146347
  H     -5.337920   -1.066689   -0.355663
  H     -2.070574   -0.731614    3.537674
  H     -0.751741   -1.190022    2.414755
  H     -2.412898   -1.753265    2.104213

 Total Charge           Charge          ....    0
 Multiplicity           Mult            ....    1
 Number of Electrons    NEL             ....  174
 Basis Dimension        Dim             ....  510

ORBITAL ENERGIES
----------------

  NO   OCC          E(Eh)            E(eV)
   0   2.0000     -88.579689     -2410.3759
   1   2.0000     -88.527921     -2408.9672
   2   2.0000     -76.919229     -2093.0786
   3   2.0000     -19.010384      -517.2989
   4   2.0000     -19.007107      -517.2097
   5   2.0000     -18.993766      -516.8467
   6   2.0000     -18.988556      -516.7049
   7   2.0000     -18.952708      -515.7294
   8   2.0000     -18.947918      -515.5991
   9   2.0000     -10.174846      -276.8716
  10   2.0000     -10.173396      -276.8322
  11   2.0000     -10.098133      -274.7842
  12   2.0000     -10.087176      -274.4860
  13   2.0000     -10.085797      -274.4485
  14   2.0000     -10.082936      -274.3706
  15   2.0000     -10.078964      -274.2626
  16   2.0000     -10.061531      -273.7882
  17   2.0000     -10.019776      -272.6520
  18   2.0000     -10.019148      -272.6349
  19   2.0000      -7.874208      -214.2681
  20   2.0000      -7.823011      -212.8749
  21   2.0000      -6.597464      -179.5261
  22   2.0000      -5.821166      -158.4020
  23   2.0000      -5.818284      -158.3236
  24   2.0000      -5.810955      -158.1241
  25   2.0000      -5.770850      -157.0328
  26   2.0000      -5.763402      -156.8301
  27   2.0000      -5.762645      -156.8095
  28   2.0000      -4.743196      -129.0689
  29   2.0000      -4.742401      -129.0473
  30   2.0000      -4.741096      -129.0118
  31   2.0000      -1.091291       -29.6955
  32   2.0000      -1.086364       -29.5615
  33   2.0000      -1.046113       -28.4662
  34   2.0000      -1.005980       -27.3741
  35   2.0000      -1.001351       -27.2481
  36   2.0000      -0.996384       -27.1130
  37   2.0000      -0.814613       -22.1667
  38   2.0000      -0.755154       -20.5488
  39   2.0000      -0.738739       -20.1021
  40   2.0000      -0.732242       -19.9253
  41   2.0000      -0.695204       -18.9175
  42   2.0000      -0.671669       -18.2770
  43   2.0000      -0.656239       -17.8572
  44   2.0000      -0.648750       -17.6534
  45   2.0000      -0.628621       -17.1056
  46   2.0000      -0.594834       -16.1863
  47   2.0000      -0.539292       -14.6749
  48   2.0000      -0.531104       -14.4521
  49   2.0000      -0.523237       -14.2380
  50   2.0000      -0.507023       -13.7968
  51   2.0000      -0.490574       -13.3492
  52   2.0000      -0.485631       -13.2147
  53   2.0000      -0.469637       -12.7795
  54   2.0000      -0.462397       -12.5825
  55   2.0000      -0.455038       -12.3822
  56   2.0000      -0.451710       -12.2916
  57   2.0000      -0.443917       -12.0796
  58   2.0000      -0.439470       -11.9586
  59   2.0000      -0.424322       -11.5464
  60   2.0000      -0.418643       -11.3918
  61   2.0000      -0.411386       -11.1944
  62   2.0000      -0.409987       -11.1563
  63   2.0000      -0.398935       -10.8556
  64   2.0000      -0.389428       -10.5969
  65   2.0000      -0.385945       -10.5021
  66   2.0000      -0.373910       -10.1746
  67   2.0000      -0.368958       -10.0399
  68   2.0000      -0.355217        -9.6660
  69   2.0000      -0.350759        -9.5446
  70   2.0000      -0.346109        -9.4181
  71   2.0000      -0.340694        -9.2708
  72   2.0000      -0.338927        -9.2227
  73   2.0000      -0.336951        -9.1689
  74   2.0000      -0.329339        -8.9618
  75   2.0000      -0.309134        -8.4120
  76   2.0000      -0.306862        -8.3501
  77   2.0000      -0.301952        -8.2165
  78   2.0000      -0.289460        -7.8766
  79   2.0000      -0.288769        -7.8578
  80   2.0000      -0.282954        -7.6996
  81   2.0000      -0.279720        -7.6116
  82   2.0000      -0.266020        -7.2388
  83   2.0000      -0.261478        -7.1152
  84   2.0000      -0.233172        -6.3449
  85   2.0000      -0.229003        -6.2315
  86   2.0000      -0.223467        -6.0808
  87   0.0000      -0.052894        -1.4393
  88   0.0000      -0.029430        -0.8008
  89   0.0000      -0.024715        -0.6725
  90   0.0000       0.004295         0.1169
  91   0.0000       0.018312         0.4983

MULLIKEN ATOMIC CHARGES
-----------------------
   0 C :   -0.497252
   1 C :   -0.138467
   2 O :   -0.171890
   3 C :    0.424903
   4 O :   -0.452115
   5 C :   -0.484188
   6 C :    0.024406
   7 H :    0.270236
   8 C :    0.218748
   9 O :   -0.450384
  10 O :   -0.122899
  11 C :   -0.143269
  12 C :   -0.511206
  13 S :   -0.185360
  14 P :    0.780685
  15 S :   -0.503550
  16 O :   -0.400588
  17 C :   -0.315255
  18 O :   -0.331840
  19 C :   -0.301359
  20 H :    0.170934
  21 H :    0.167789
  22 H :    0.172721
  23 H :    0.177669
  24 H :    0.174669
  25 H :    0.226012
  26 H :    0.237488
  27 H :    0.182219
  28 H :    0.181579
  29 H :    0.172913
  30 H :    0.173543
  31 H :    0.171769
  32 H :    0.176933
  33 H :    0.177172
  34 H :    0.177198
  35 H :    0.183912
  36 H :    0.184018
  37 H :    0.182107
Sum of atomic charges:    0.0000000

LOEWDIN ATOMIC CHARGES
----------------------
   0 C :   -0.390503
   1 C :    0.037464
   2 O :   -0.572069
   3 C :    0.375881
   4 O :   -0.475309
   5 C :   -0.197101
   6 C :   -0.185920
   7 H :    0.216371
   8 C :    0.352113
   9 O :   -0.471744
  10 O :   -0.637111
  11 C :    0.039813
  12 C :   -0.388140
  13 S :    0.247970
  14 P :    0.406401
  15 S :   -0.124773
  16 O :   -0.719993
  17 C :   -0.054531
  18 O :   -0.682743
  19 C :   -0.050982
  20 H :    0.163579
  21 H :    0.162817
  22 H :    0.169027
  23 H :    0.191039
  24 H :    0.190732
  25 H :    0.204986
  26 H :    0.216704
  27 H :    0.196195
  28 H :    0.191770
  29 H :    0.167134
  30 H :    0.168074
  31 H :    0.162623
  32 H :    0.177165
  33 H :    0.175026
  34 H :    0.187469
  35 H :    0.191554
  36 H :    0.179213
  37 H :    0.179799

  Mayer bond orders larger than 0.100000
B(  0-C ,  1-C ) :   0.9358 B(  0-C , 20-H ) :   0.9688 B(  0-C , 21-H ) :   0.9692
B(  0-C , 22-H ) :   0.9587 B(  1-C ,  2-O ) :   0.7868 B(  1-C , 23-H ) :   0.9515
B(  1-C , 24-H ) :   0.9627 B(  2-O ,  3-C ) :   1.1511 B(  3-C ,  4-O ) :   1.7266
B(  3-C ,  5-C ) :   0.9516 B(  4-O ,  8-C ) :   0.1352 B(  5-C ,  6-C ) :   0.8901
B(  5-C , 25-H ) :   0.9624 B(  5-C , 26-H ) :   0.9219 B(  6-C ,  7-H ) :   0.9038
B(  6-C ,  8-C ) :   0.8205 B(  6-C , 13-S ) :   0.8646 B(  8-C ,  9-O ) :   1.8386
B(  8-C , 10-O ) :   1.1545 B( 10-O , 11-C ) :   0.7466 B( 11-C , 12-C ) :   0.9082
B( 11-C , 27-H ) :   0.9562 B( 11-C , 28-H ) :   0.9498 B( 12-C , 29-H ) :   0.9705
B( 12-C , 30-H ) :   0.9639 B( 12-C , 31-H ) :   0.9705 B( 13-S , 14-P ) :   1.0693
B( 14-P , 15-S ) :   1.7675 B( 14-P , 16-O ) :   1.0731 B( 14-P , 18-O ) :   1.0740
B( 16-O , 17-C ) :   0.8244 B( 17-C , 32-H ) :   0.9523 B( 17-C , 33-H ) :   0.9554
B( 17-C , 34-H ) :   0.9570 B( 18-O , 19-C ) :   0.7864 B( 19-C , 35-H ) :   0.9539
B( 19-C , 36-H ) :   0.9483 B( 19-C , 37-H ) :   0.9521

Dispersion correction           -0.017772673
FINAL SINGLE POINT ENERGY     -1981.466373090371

DIPOLE MOMENT
-------------

Method             : SCF
Type of density    : Electron Density
Multiplicity       :   1
Irrep              :   0
Energy             : -1981.4863939672286506 Eh
Relativity type    :
Basis              : AO
                                X                 Y                 Z
Electronic contribution:    -11.431389334       8.605416536     -10.103904138
Nuclear contribution   :     11.670564609     -11.227374672      10.978171218
                        -----------------------------------------
Total Dipole Moment    :      0.239175275      -2.621958136       0.874267080
                        -----------------------------------------
Magnitude (a.u.)       :      2.774204788
Magnitude (Debye)      :      7.051468182

Rotational constants in cm-1:             0.015423             0.006364             0.005937
Rotational constants in MHz :           462.371168           190.781274           177.993823

                             ****ORCA TERMINATED NORMALLY****
TOTAL RUN TIME: 0 days 0 hours 1 minutes 57 seconds 502 msec
