                         Program Version 6.0.0  -   RELEASE  -
|  1> ! wb97x-v def2-tzvp def2/J RIJCOSX DEFGRID2 scfconv7 GCP(DFT/TZ) printgap
|  2> %output
|  3>     printlevel normal
|  4> end
|  5> * xyz 0 1
|  6> C -3.557126195445918 -3.8910324739351185e-05 5.056724233880658e-05
|  7> C -2.8590137138626863 -1.2047973215484808 5.589307579923021e-05
|  8> C -1.4648574077492138 -1.2146053022931245 3.330777544537083e-05
|  9> C -0.7877761387831815 3.25629735658609e-05 -1.379538412407993e-05
| 10> C -1.4649204093521586 1.2146350762925797 8.675255572300576e-07
| 11> C -2.859076088583585 1.2047554952752104 3.4205651654596084e-05
| 12> I 1.334747277834996 8.872945346478562e-05 6.818889285810197e-06
| 13> H -4.642143667032151 -6.756127817149617e-05 6.011179551877081e-05
| 14> H -3.3952132042105707 -2.148669823514494 6.949266919733371e-05
| 15> H -0.9231942471625331 -2.153428093745378 2.4703599532810604e-05
| 16> H -0.9233035467438677 2.1534846843947473 -1.953919292990375e-05
| 17> H -3.3953259245300975 2.1485993065421853 2.9114771579225766e-05
| 18> *
| 19>
| 20>                          ****END OF INPUT****

CARTESIAN COORDINATES (ANGSTROEM)
---------------------------------
  C     -3.557126   -0.000039    0.000051
  C     -2.859014   -1.204797    0.000056
  C     -1.464857   -1.214605    0.000033
  C     -0.787776    0.000033   -0.000014
  C     -1.464920    1.214635    0.000001
  C     -2.859076    1.204755    0.000034
  I      1.334747    0.000089    0.000007
  H     -4.642144   -0.000068    0.000060
  H     -3.395213   -2.148670    0.000069
  H     -0.923194   -2.153428    0.000025
  H     -0.923304    2.153485   -0.000020
  H     -3.395326    2.148599    0.000029

 Total Charge           Charge          ....    0
 Multiplicity           Mult            ....    1
 Number of Electrons    NEL             ....   66
 Basis Dimension        Dim             ....  266

ORBITAL ENERGIES
----------------

  NO   OCC          E(Eh)            E(eV)
   0   2.0000     -12.107912      -329.4730
   1   2.0000     -12.069929      -328.4395
   2   2.0000     -12.069436      -328.4260
   3   2.0000     -12.067402      -328.3707
   4   2.0000     -12.066800      -328.3543
   5   2.0000     -12.064018      -328.2786
   6   2.0000      -8.125535      -221.1070
   7   2.0000      -6.097201      -165.9133
   8   2.0000      -6.086394      -165.6192
   9   2.0000      -6.086175      -165.6132
  10   2.0000      -3.017626       -82.1138
  11   2.0000      -3.014240       -82.0217
  12   2.0000      -3.014095       -82.0177
  13   2.0000      -3.004195       -81.7483
  14   2.0000      -3.004174       -81.7477
  15   2.0000      -1.400987       -38.1228
  16   2.0000      -1.294985       -35.2383
  17   2.0000      -1.290802       -35.1245
  18   2.0000      -1.181526       -32.1510
  19   2.0000      -1.124814       -30.6077
  20   2.0000      -1.101177       -29.9645
  21   2.0000      -0.974380       -26.5142
  22   2.0000      -0.968760       -26.3613
  23   2.0000      -0.920693       -25.0533
  24   2.0000      -0.892297       -24.2806
  25   2.0000      -0.863728       -23.5032
  26   2.0000      -0.827165       -22.5083
  27   2.0000      -0.792606       -21.5679
  28   2.0000      -0.774400       -21.0725
  29   2.0000      -0.678181       -18.4542
  30   2.0000      -0.653949       -17.7949
  31   2.0000      -0.634972       -17.2785
  32   2.0000      -0.616410       -16.7734
  33   0.0000      -0.276856        -7.5336
  34   0.0000      -0.257020        -6.9939
  35   0.0000      -0.251905        -6.8547
  36   0.0000      -0.083952        -2.2845
  37   0.0000      -0.033015        -0.8984

MULLIKEN ATOMIC CHARGES
-----------------------
   0 C :   -0.135654
   1 C :   -0.089598
   2 C :   -0.218556
   3 C :    0.107862
   4 C :   -0.218449
   5 C :   -0.089674
   6 I :   -0.018744
   7 H :    0.124429
   8 H :    0.125465
   9 H :    0.143712
  10 H :    0.143758
  11 H :    0.125448
Sum of atomic charges:   -0.0000000

LOEWDIN ATOMIC CHARGES
----------------------
   0 C :   -0.135860
   1 C :   -0.130796
   2 C :   -0.150623
   3 C :   -0.352815
   4 C :   -0.150623
   5 C :   -0.130797
   6 I :    0.325008
   7 H :    0.143723
   8 H :    0.144833
   9 H :    0.146559
  10 H :    0.146559
  11 H :    0.144833

  Mayer bond orders larger than 0.100000
B(  0-C ,  1-C ) :   1.4265 B(  0-C ,  5-C ) :   1.4265 B(  0-C ,  7-H ) :   0.9691
B(  1-C ,  2-C ) :   1.4142 B(  1-C ,  8-H ) :   0.9688 B(  2-C ,  3-C ) :   1.4010
B(  2-C ,  9-H ) :   0.9607 B(  3-C ,  4-C ) :   1.4010 B(  3-C ,  6-I ) :   1.0598
B(  4-C ,  5-C ) :   1.4142 B(  4-C , 10-H ) :   0.9607 B(  5-C , 11-H ) :   0.9688

FINAL SINGLE POINT ENERGY      -529.347654190059

DIPOLE MOMENT
-------------

Method             : SCF
Type of density    : Electron Density
Multiplicity       :   1
Irrep              :   0
Energy             :  -529.3541857811587761 Eh
Relativity type    :
Basis              : AO
                                X                 Y                 Z
Electronic contribution:    108.619785000       0.002852468      -0.000642031
Nuclear contribution   :   -109.315013028      -0.002869241       0.000645244
                        -----------------------------------------
Total Dipole Moment    :     -0.695228028      -0.000016773       0.000003213
                        -----------------------------------------
Magnitude (a.u.)       :      0.695228028
Magnitude (Debye)      :      1.767129211

Rotational constants in cm-1:             0.189490             0.024787             0.021920
Rotational constants in MHz :          5680.758216           743.098043           657.138040

                             ****ORCA TERMINATED NORMALLY****
TOTAL RUN TIME: 0 days 0 hours 2 minutes 2 seconds 782 msec
