                         Program Version 6.0.0  -   RELEASE  -
|  1> ! wb97x-v def2-tzvp def2/J RIJCOSX DEFGRID2 scfconv7 GCP(DFT/TZ) printgap
|  2> %output
|  3>     printlevel normal
|  4> end
|  5> %cpcm
|  6>     smd true
|  7>     smdsolvent "water"
|  8> end
|  9> * xyz 0 1
| 10> C -3.557126195445918 -3.8910324739351185e-05 5.056724233880658e-05
| 11> C -2.8590137138626863 -1.2047973215484808 5.589307579923021e-05
| 12> C -1.4648574077492138 -1.2146053022931245 3.330777544537083e-05
| 13> C -0.7877761387831815 3.25629735658609e-05 -1.379538412407993e-05
| 14> C -1.4649204093521586 1.2146350762925797 8.675255572300576e-07
| 15> C -2.859076088583585 1.2047554952752104 3.4205651654596084e-05
| 16> I 1.334747277834996 8.872945346478562e-05 6.818889285810197e-06
| 17> H -4.642143667032151 -6.756127817149617e-05 6.011179551877081e-05
| 18> H -3.3952132042105707 -2.148669823514494 6.949266919733371e-05
| 19> H -0.9231942471625331 -2.153428093745378 2.4703599532810604e-05
| 20> H -0.9233035467438677 2.1534846843947473 -1.953919292990375e-05
| 21> H -3.3953259245300975 2.1485993065421853 2.9114771579225766e-05
| 22> *
| 23>
| 24>                          ****END OF INPUT****

CARTESIAN COORDINATES (ANGSTROEM)
---------------------------------
  C     -3.557126   -0.000039    0.000051
  C     -2.859014   -1.204797    0.000056
  C     -1.464857   -1.214605    0.000033
  C     -0.787776    0.000033   -0.000014
  C     -1.464920    1.214635    0.000001
  C     -2.859076    1.204755    0.000034
  I      1.334747    0.000089    0.000007
  H     -4.642144   -0.000068    0.000060
  H     -3.395213   -2.148670    0.000069
  H     -0.923194   -2.153428    0.000025
  H     -0.923304    2.153485   -0.000020
  H     -3.395326    2.148599    0.000029

 Total Charge           Charge          ....    0
 Multiplicity           Mult            ....    1
 Number of Electrons    NEL             ....   66
 Basis Dimension        Dim             ....  266

ORBITAL ENERGIES
----------------

  NO   OCC          E(Eh)            E(eV)
   0   2.0000     -12.099696      -329.2495
   1   2.0000     -12.060194      -328.1746
   2   2.0000     -12.059722      -328.1617
   3   2.0000     -12.056840      -328.0833
   4   2.0000     -12.056261      -328.0675
   5   2.0000     -12.053402      -327.9898
   6   2.0000      -8.121572      -220.9992
   7   2.0000      -6.093222      -165.8050
   8   2.0000      -6.082471      -165.5124
   9   2.0000      -6.082152      -165.5038
  10   2.0000      -3.013596       -82.0041
  11   2.0000      -3.010309       -81.9147
  12   2.0000      -3.010057       -81.9078
  13   2.0000      -3.000263       -81.6413
  14   2.0000      -3.000241       -81.6407
  15   2.0000      -1.392911       -37.9030
  16   2.0000      -1.286567       -35.0093
  17   2.0000      -1.281675       -34.8761
  18   2.0000      -1.176134       -32.0042
  19   2.0000      -1.114919       -30.3385
  20   2.0000      -1.091996       -29.7147
  21   2.0000      -0.963158       -26.2089
  22   2.0000      -0.959440       -26.1077
  23   2.0000      -0.908232       -24.7142
  24   2.0000      -0.880772       -23.9670
  25   2.0000      -0.852703       -23.2032
  26   2.0000      -0.815237       -22.1837
  27   2.0000      -0.785850       -21.3841
  28   2.0000      -0.766480       -20.8570
  29   2.0000      -0.672086       -18.2884
  30   2.0000      -0.646118       -17.5818
  31   2.0000      -0.631438       -17.1823
  32   2.0000      -0.612755       -16.6739
  33   0.0000      -0.268655        -7.3105
  34   0.0000      -0.249610        -6.7922
  35   0.0000      -0.243784        -6.6337
  36   0.0000      -0.075509        -2.0547
  37   0.0000      -0.014909        -0.4057

MULLIKEN ATOMIC CHARGES
-----------------------
   0 C :   -0.175678
   1 C :   -0.128273
   2 C :   -0.253681
   3 C :    0.108215
   4 C :   -0.253581
   5 C :   -0.128340
   6 I :   -0.025920
   7 H :    0.165588
   8 H :    0.166941
   9 H :    0.178877
  10 H :    0.178924
  11 H :    0.166926
Sum of atomic charges:   -0.0000000

LOEWDIN ATOMIC CHARGES
----------------------
   0 C :   -0.141748
   1 C :   -0.136982
   2 C :   -0.156769
   3 C :   -0.362871
   4 C :   -0.156769
   5 C :   -0.136983
   6 I :    0.319786
   7 H :    0.153251
   8 H :    0.154521
   9 H :    0.155021
  10 H :    0.155021
  11 H :    0.154521

  Mayer bond orders larger than 0.100000
B(  0-C ,  1-C ) :   1.4042 B(  0-C ,  5-C ) :   1.4042 B(  0-C ,  7-H ) :   0.9714
B(  1-C ,  2-C ) :   1.4012 B(  1-C ,  8-H ) :   0.9708 B(  2-C ,  3-C ) :   1.3718
B(  2-C ,  9-H ) :   0.9669 B(  3-C ,  4-C ) :   1.3717 B(  3-C ,  6-I ) :   1.0570
B(  4-C ,  5-C ) :   1.4011 B(  4-C , 10-H ) :   0.9669 B(  5-C , 11-H ) :   0.9709

FINAL SINGLE POINT ENERGY      -529.351161097052

DIPOLE MOMENT
-------------

Method             : SCF
Type of density    : Electron Density
Multiplicity       :   1
Irrep              :   0
Energy             :  -529.3576926881523832 Eh
Relativity type    :
Basis              : AO
                                X                 Y                 Z
Electronic contribution:    108.522715201       0.002852437      -0.000641608
Nuclear contribution   :   -109.315013028      -0.002869241       0.000645244
                        -----------------------------------------
Total Dipole Moment    :     -0.792297826      -0.000016804       0.000003636
                        -----------------------------------------
Magnitude (a.u.)       :      0.792297827
Magnitude (Debye)      :      2.013861031

Rotational constants in cm-1:             0.189490             0.024787             0.021920
Rotational constants in MHz :          5680.758216           743.098043           657.138040

                             ****ORCA TERMINATED NORMALLY****
TOTAL RUN TIME: 0 days 0 hours 2 minutes 13 seconds 624 msec
