                         Program Version 6.0.0  -   RELEASE  -
|  1> ! pbe def2-sv(p) def2/J RI DEFGRID1 loosescf d4 GCP(DFT/SV(P)) printgap
|  2> %output
|  3>     printlevel normal
|  4> end
|  5> * xyz 0 1
|  6> C 4.5459767596 -2.2057720538 0.5827506987
|  7> C 4.7337116173 -0.7130457581 0.4052671355
|  8> O 3.5359265371 0.0207468354 0.7168197217
|  9> P 2.2356709423 -0.0422360324 -0.2010328901
| 10> S 2.6439572472 -0.0865643525 -2.1231710503
| 11> O 1.4340446505 1.2146809379 0.3519270452
| 12> C 1.7609199259 2.5616630603 -0.0539818927
| 13> C 0.8079123541 3.0449868901 -1.1295888717
| 14> S 1.0877146362 -1.5880513563 0.6283705022
| 15> C -0.1104340588 -1.7953088939 -0.7295525109
| 16> S -0.803154124 -0.2487671028 -1.37455907
| 17> P -2.1265916531 0.2580207027 0.1916569648
| 18> S -3.1323481449 1.9235492066 -0.0260727785
| 19> O -1.1310845555 0.1959756041 1.4207180933
| 20> C -1.4152866838 0.8462692759 2.6739639865
| 21> C -2.5342305833 0.1557667659 3.4246249732
| 22> O -3.0144823673 -1.0477763658 0.4346137019
| 23> C -4.278189552 -1.2384764141 -0.2208351715
| 24> C -4.1155245268 -1.5175312704 -1.7017826079
| 25> H 3.8449668592 -2.5821503113 -0.1608861279
| 26> H 5.5004990751 -2.7053719183 0.4523253249
| 27> H 4.1552319671 -2.4223801209 1.5736964944
| 28> H 5.0218987898 -0.4812588323 -0.6252296424
| 29> H 5.4742537473 -0.3121938883 1.0985906841
| 30> H 1.6696152406 3.157286264 0.8560761611
| 31> H 2.7953318945 2.5896195222 -0.4084775862
| 32> H 0.9144555583 2.4416190163 -2.029138968
| 33> H -0.2219243697 2.9713569571 -0.7848204724
| 34> H 1.0289380844 4.0805022152 -1.3672188865
| 35> H -0.9040396881 -2.4274966635 -0.3384219681
| 36> H 0.3874999064 -2.2586044652 -1.5795255963
| 37> H -0.4683892745 0.7924979831 3.213593406
| 38> H -1.6702667609 1.8917733159 2.4717464142
| 39> H -2.3150853647 -0.903262371 3.5323946508
| 40> H -2.6387724832 0.6063504519 4.4066742629
| 41> H -3.470790476 0.27104465 2.8808818961
| 42> H -4.7240513867 -2.0847877113 0.303591388
| 43> H -4.8865390082 -0.3414096933 -0.0670250893
| 44> H -3.4696749987 -2.3768565152 -1.8624844188
| 45> H -5.0894182768 -1.7154909798 -2.1379258475
| 46> H -3.6774374111 -0.6512914316 -2.1972231518
| 47> *
| 48>
| 49>                          ****END OF INPUT****

CARTESIAN COORDINATES (ANGSTROEM)
---------------------------------
  C      4.545977   -2.205772    0.582751
  C      4.733712   -0.713046    0.405267
  O      3.535927    0.020747    0.716820
  P      2.235671   -0.042236   -0.201033
  S      2.643957   -0.086564   -2.123171
  O      1.434045    1.214681    0.351927
  C      1.760920    2.561663   -0.053982
  C      0.807912    3.044987   -1.129589
  S      1.087715   -1.588051    0.628371
  C     -0.110434   -1.795309   -0.729553
  S     -0.803154   -0.248767   -1.374559
  P     -2.126592    0.258021    0.191657
  S     -3.132348    1.923549   -0.026073
  O     -1.131085    0.195976    1.420718
  C     -1.415287    0.846269    2.673964
  C     -2.534231    0.155767    3.424625
  O     -3.014482   -1.047776    0.434614
  C     -4.278190   -1.238476   -0.220835
  C     -4.115525   -1.517531   -1.701783
  H      3.844967   -2.582150   -0.160886
  H      5.500499   -2.705372    0.452325
  H      4.155232   -2.422380    1.573696
  H      5.021899   -0.481259   -0.625230
  H      5.474254   -0.312194    1.098591
  H      1.669615    3.157286    0.856076
  H      2.795332    2.589620   -0.408478
  H      0.914456    2.441619   -2.029139
  H     -0.221924    2.971357   -0.784820
  H      1.028938    4.080502   -1.367219
  H     -0.904040   -2.427497   -0.338422
  H      0.387500   -2.258604   -1.579526
  H     -0.468389    0.792498    3.213593
  H     -1.670267    1.891773    2.471746
  H     -2.315085   -0.903262    3.532395
  H     -2.638772    0.606350    4.406674
  H     -3.470790    0.271045    2.880882
  H     -4.724051   -2.084788    0.303591
  H     -4.886539   -0.341410   -0.067025
  H     -3.469675   -2.376857   -1.862484
  H     -5.089418   -1.715491   -2.137926
  H     -3.677437   -0.651291   -2.197223

 Total Charge           Charge          ....    0
 Multiplicity           Mult            ....    1
 Number of Electrons    NEL             ....  202
 Basis Dimension        Dim             ....  334

ORBITAL ENERGIES
----------------

  NO   OCC          E(Eh)            E(eV)
   0   2.0000     -88.044162     -2395.8035
   1   2.0000     -88.041235     -2395.7238
   2   2.0000     -87.992212     -2394.3898
   3   2.0000     -87.985461     -2394.2061
   4   2.0000     -76.426712     -2079.6766
   5   2.0000     -76.424618     -2079.6196
   6   2.0000     -18.796241      -511.4717
   7   2.0000     -18.791199      -511.3345
   8   2.0000     -18.787162      -511.2247
   9   2.0000     -18.781583      -511.0729
  10   2.0000      -9.961523      -271.0668
  11   2.0000      -9.954941      -270.8877
  12   2.0000      -9.950262      -270.7604
  13   2.0000      -9.949954      -270.7520
  14   2.0000      -9.945233      -270.6235
  15   2.0000      -9.886863      -269.0352
  16   2.0000      -9.884168      -268.9619
  17   2.0000      -9.883307      -268.9385
  18   2.0000      -9.868056      -268.5235
  19   2.0000      -7.688724      -209.2208
  20   2.0000      -7.686680      -209.1652
  21   2.0000      -7.637137      -207.8171
  22   2.0000      -7.630413      -207.6341
  23   2.0000      -6.424514      -174.8199
  24   2.0000      -6.421845      -174.7473
  25   2.0000      -5.717060      -155.5691
  26   2.0000      -5.714703      -155.5050
  27   2.0000      -5.713034      -155.4596
  28   2.0000      -5.711317      -155.4128
  29   2.0000      -5.705428      -155.2526
  30   2.0000      -5.703242      -155.1931
  31   2.0000      -5.666018      -154.1802
  32   2.0000      -5.659235      -153.9956
  33   2.0000      -5.657725      -153.9545
  34   2.0000      -5.657398      -153.9456
  35   2.0000      -5.651202      -153.7770
  36   2.0000      -5.650555      -153.7594
  37   2.0000      -4.646801      -126.4459
  38   2.0000      -4.646505      -126.4378
  39   2.0000      -4.645020      -126.3974
  40   2.0000      -4.644382      -126.3800
  41   2.0000      -4.643564      -126.3578
  42   2.0000      -4.642473      -126.3281
  43   2.0000      -0.987562       -26.8729
  44   2.0000      -0.981803       -26.7162
  45   2.0000      -0.946480       -25.7550
  46   2.0000      -0.938716       -25.5438
  47   2.0000      -0.765605       -20.8332
  48   2.0000      -0.720568       -19.6077
  49   2.0000      -0.705332       -19.1931
  50   2.0000      -0.688287       -18.7292
  51   2.0000      -0.681904       -18.5556
  52   2.0000      -0.672079       -18.2882
  53   2.0000      -0.654687       -17.8149
  54   2.0000      -0.639107       -17.3910
  55   2.0000      -0.601399       -16.3649
  56   2.0000      -0.591965       -16.1082
  57   2.0000      -0.574047       -15.6206
  58   2.0000      -0.570178       -15.5153
  59   2.0000      -0.557933       -15.1821
  60   2.0000      -0.497422       -13.5356
  61   2.0000      -0.494562       -13.4577
  62   2.0000      -0.474741       -12.9184
  63   2.0000      -0.465536       -12.6679
  64   2.0000      -0.460502       -12.5309
  65   2.0000      -0.442866       -12.0510
  66   2.0000      -0.437656       -11.9092
  67   2.0000      -0.434823       -11.8321
  68   2.0000      -0.426571       -11.6076
  69   2.0000      -0.416756       -11.3405
  70   2.0000      -0.409676       -11.1479
  71   2.0000      -0.397339       -10.8122
  72   2.0000      -0.392647       -10.6845
  73   2.0000      -0.390981       -10.6391
  74   2.0000      -0.375472       -10.2171
  75   2.0000      -0.372698       -10.1416
  76   2.0000      -0.369621       -10.0579
  77   2.0000      -0.357244        -9.7211
  78   2.0000      -0.352862        -9.6019
  79   2.0000      -0.349450        -9.5090
  80   2.0000      -0.347220        -9.4483
  81   2.0000      -0.344854        -9.3839
  82   2.0000      -0.338958        -9.2235
  83   2.0000      -0.333888        -9.0855
  84   2.0000      -0.329231        -8.9588
  85   2.0000      -0.322401        -8.7730
  86   2.0000      -0.306288        -8.3345
  87   2.0000      -0.294658        -8.0180
  88   2.0000      -0.293606        -7.9894
  89   2.0000      -0.290697        -7.9103
  90   2.0000      -0.281434        -7.6582
  91   2.0000      -0.274263        -7.4631
  92   2.0000      -0.265968        -7.2373
  93   2.0000      -0.264621        -7.2007
  94   2.0000      -0.260543        -7.0897
  95   2.0000      -0.227676        -6.1954
  96   2.0000      -0.218734        -5.9521
  97   2.0000      -0.213005        -5.7962
  98   2.0000      -0.208920        -5.6850
  99   2.0000      -0.199967        -5.4414
 100   2.0000      -0.197573        -5.3762
 101   0.0000      -0.045256        -1.2315
 102   0.0000      -0.024081        -0.6553
 103   0.0000      -0.008457        -0.2301
 104   0.0000       0.000678         0.0184
 105   0.0000       0.009033         0.2458

MULLIKEN ATOMIC CHARGES
-----------------------
   0 C :   -0.314141
   1 C :   -0.004935
   2 O :   -0.373914
   3 P :    0.607463
   4 S :   -0.337867
   5 O :   -0.359849
   6 C :   -0.001016
   7 C :   -0.301418
   8 S :   -0.072661
   9 C :   -0.346017
  10 S :   -0.054468
  11 P :    0.617596
  12 S :   -0.319035
  13 O :   -0.358720
  14 C :   -0.000021
  15 C :   -0.306436
  16 O :   -0.382082
  17 C :   -0.009059
  18 C :   -0.310933
  19 H :    0.124044
  20 H :    0.112363
  21 H :    0.116290
  22 H :    0.111644
  23 H :    0.103708
  24 H :    0.102795
  25 H :    0.097294
  26 H :    0.127399
  27 H :    0.119106
  28 H :    0.102139
  29 H :    0.181684
  30 H :    0.192072
  31 H :    0.106491
  32 H :    0.109603
  33 H :    0.115907
  34 H :    0.111431
  35 H :    0.119874
  36 H :    0.104759
  37 H :    0.112078
  38 H :    0.112807
  39 H :    0.114042
  40 H :    0.129982
Sum of atomic charges:    0.0000000

LOEWDIN ATOMIC CHARGES
----------------------
   0 C :   -0.369293
   1 C :   -0.121448
   2 O :   -0.248218
   3 P :    0.568160
   4 S :   -0.332232
   5 O :   -0.241788
   6 C :   -0.111701
   7 C :   -0.367136
   8 S :    0.098906
   9 C :   -0.473305
  10 S :    0.121629
  11 P :    0.569178
  12 S :   -0.315740
  13 O :   -0.234575
  14 C :   -0.114969
  15 C :   -0.364154
  16 O :   -0.250264
  17 C :   -0.122164
  18 C :   -0.366921
  19 H :    0.120102
  20 H :    0.130647
  21 H :    0.123757
  22 H :    0.109626
  23 H :    0.117856
  24 H :    0.116838
  25 H :    0.106687
  26 H :    0.124042
  27 H :    0.118918
  28 H :    0.125904
  29 H :    0.132006
  30 H :    0.137437
  31 H :    0.119550
  32 H :    0.109994
  33 H :    0.126134
  34 H :    0.129947
  35 H :    0.121748
  36 H :    0.117908
  37 H :    0.110013
  38 H :    0.122584
  39 H :    0.131581
  40 H :    0.122754

  Mayer bond orders larger than 0.100000
B(  0-C ,  1-C ) :   1.1650 B(  0-C , 19-H ) :   0.9354 B(  0-C , 20-H ) :   0.9382
B(  0-C , 21-H ) :   0.9454 B(  1-C ,  2-O ) :   0.9105 B(  1-C , 22-H ) :   0.9132
B(  1-C , 23-H ) :   0.9336 B(  2-O ,  3-P ) :   1.1042 B(  3-P ,  4-S ) :   1.5848
B(  3-P ,  5-O ) :   1.1284 B(  3-P ,  8-S ) :   0.9802 B(  4-S ,  8-S ) :   0.1143
B(  5-O ,  6-C ) :   0.8959 B(  6-C ,  7-C ) :   1.1711 B(  6-C , 24-H ) :   0.9342
B(  6-C , 25-H ) :   0.9152 B(  7-C , 26-H ) :   0.9365 B(  7-C , 27-H ) :   0.9315
B(  7-C , 28-H ) :   0.9394 B(  8-S ,  9-C ) :   0.9870 B(  9-C , 10-S ) :   1.0023
B(  9-C , 29-H ) :   0.8975 B(  9-C , 30-H ) :   0.8994 B( 10-S , 11-P ) :   0.9664
B( 11-P , 12-S ) :   1.6154 B( 11-P , 13-O ) :   1.1300 B( 11-P , 16-O ) :   1.0637
B( 13-O , 14-C ) :   0.9070 B( 14-C , 15-C ) :   1.1620 B( 14-C , 31-H ) :   0.9328
B( 14-C , 32-H ) :   0.9184 B( 15-C , 33-H ) :   0.9466 B( 15-C , 34-H ) :   0.9392
B( 15-C , 35-H ) :   0.9388 B( 16-O , 17-C ) :   0.9109 B( 17-C , 18-C ) :   1.1639
B( 17-C , 36-H ) :   0.9341 B( 17-C , 37-H ) :   0.9141 B( 18-C , 38-H ) :   0.9469
B( 18-C , 39-H ) :   0.9384 B( 18-C , 40-H ) :   0.9351

Dispersion correction           -0.067676743
FINAL SINGLE POINT ENERGY     -2929.522122511437

DIPOLE MOMENT
-------------

Method             : SCF
Type of density    : Electron Density
Multiplicity       :   1
Irrep              :   0
Energy             : -2929.6397242096318223 Eh
Relativity type    :
Basis              : AO
                                X                 Y                 Z
Electronic contribution:      2.637262504       1.651821356      -5.910257237
Nuclear contribution   :     -2.653413429      -2.495503839       6.919599644
                        -----------------------------------------
Total Dipole Moment    :     -0.016150924      -0.843682483       1.009342407
                        -----------------------------------------
Magnitude (a.u.)       :      1.315611295
Magnitude (Debye)      :      3.344018158

Rotational constants in cm-1:             0.012862             0.005130             0.005044
Rotational constants in MHz :           385.597701           153.786650           151.218982

                             ****ORCA TERMINATED NORMALLY****
TOTAL RUN TIME: 0 days 0 hours 0 minutes 21 seconds 753 msec
