                         Program Version 6.0.0  -   RELEASE  -
|  1> ! pbe def2-sv(p) def2/J RI DEFGRID1 loosescf d4 GCP(DFT/SV(P)) printgap
|  2> %output
|  3>     printlevel normal
|  4> end
|  5> * xyz 0 1
|  6> C 3.9421325811 -1.2335256537 -2.6275435379
|  7> C 4.4814991822 -1.3823339614 -1.2185512669
|  8> O 3.4333137595 -1.6069037043 -0.2609857005
|  9> P 2.4275190799 -0.462479417 0.159398996
| 10> S 3.204429433 1.3434566725 0.2044163157
| 11> O 2.0076842335 -1.1443334634 1.5239247887
| 12> C 0.8808925839 -0.7776855955 2.3382371481
| 13> C 1.0947888496 0.5383312706 3.0605045564
| 14> S 0.747136836 -0.7031848275 -1.143806277
| 15> C 0.2695119551 1.0330554961 -1.3014905333
| 16> S -0.7325194409 1.6336533789 0.0848704348
| 17> P -2.4568936857 0.5026699258 -0.3610819916
| 18> S -2.9324979655 0.3115944721 -2.2455270393
| 19> O -3.6303993731 1.1793360656 0.4607607829
| 20> C -3.6198136717 1.3272135278 1.903852922
| 21> C -3.1468026437 2.7095974258 2.3055808623
| 22> O -2.1226084146 -0.8625371048 0.4101396049
| 23> C -2.5587944792 -2.1604110565 -0.0485665619
| 24> C -1.5906682239 -3.2020868058 0.4743438691
| 25> H 4.7705527504 -1.196701269 -3.3277186066
| 26> H 3.2969298073 -2.0726312016 -2.8752448051
| 27> H 3.3687404376 -0.3113976784 -2.7129005834
| 28> H 5.0407288968 -0.4881558028 -0.9238294757
| 29> H 5.117192163 -2.2635940146 -1.1230760391
| 30> H -0.0174298113 -0.7406451233 1.7145683159
| 31> H 0.7985414809 -1.6064214879 3.0443846581
| 32> H 2.0291442199 0.512106775 3.6152423435
| 33> H 1.1339452518 1.3631273533 2.351298019
| 34> H 0.2730618848 0.7071204506 3.7490955667
| 35> H -0.3080036561 1.1207079347 -2.2211901946
| 36> H 1.1646559111 1.6567295974 -1.3228523763
| 37> H -4.6593896491 1.1667865055 2.1948780339
| 38> H -2.9879667902 0.548230912 2.3367031904
| 39> H -3.2485602071 2.8195071695 3.3806691948
| 40> H -2.1046219605 2.8556573344 2.0295799755
| 41> H -3.7482817647 3.4664350475 1.8098329857
| 42> H -3.5692299142 -2.3292837745 0.3324906916
| 43> H -2.5878831393 -2.1517298035 -1.1428203142
| 44> H -1.9216836933 -4.1828189014 0.1488207321
| 45> H -0.5921550309 -3.0180566476 0.0859386884
| 46> H -1.5609956284 -3.1754331942 1.5598334958
| 47> *
| 48>
| 49>                          ****END OF INPUT****

CARTESIAN COORDINATES (ANGSTROEM)
---------------------------------
  C      3.942133   -1.233526   -2.627544
  C      4.481499   -1.382334   -1.218551
  O      3.433314   -1.606904   -0.260986
  P      2.427519   -0.462479    0.159399
  S      3.204429    1.343457    0.204416
  O      2.007684   -1.144333    1.523925
  C      0.880893   -0.777686    2.338237
  C      1.094789    0.538331    3.060505
  S      0.747137   -0.703185   -1.143806
  C      0.269512    1.033055   -1.301491
  S     -0.732519    1.633653    0.084870
  P     -2.456894    0.502670   -0.361082
  S     -2.932498    0.311594   -2.245527
  O     -3.630399    1.179336    0.460761
  C     -3.619814    1.327214    1.903853
  C     -3.146803    2.709597    2.305581
  O     -2.122608   -0.862537    0.410140
  C     -2.558794   -2.160411   -0.048567
  C     -1.590668   -3.202087    0.474344
  H      4.770553   -1.196701   -3.327719
  H      3.296930   -2.072631   -2.875245
  H      3.368740   -0.311398   -2.712901
  H      5.040729   -0.488156   -0.923829
  H      5.117192   -2.263594   -1.123076
  H     -0.017430   -0.740645    1.714568
  H      0.798541   -1.606421    3.044385
  H      2.029144    0.512107    3.615242
  H      1.133945    1.363127    2.351298
  H      0.273062    0.707120    3.749096
  H     -0.308004    1.120708   -2.221190
  H      1.164656    1.656730   -1.322852
  H     -4.659390    1.166787    2.194878
  H     -2.987967    0.548231    2.336703
  H     -3.248560    2.819507    3.380669
  H     -2.104622    2.855657    2.029580
  H     -3.748282    3.466435    1.809833
  H     -3.569230   -2.329284    0.332491
  H     -2.587883   -2.151730   -1.142820
  H     -1.921684   -4.182819    0.148821
  H     -0.592155   -3.018057    0.085939
  H     -1.560996   -3.175433    1.559833

 Total Charge           Charge          ....    0
 Multiplicity           Mult            ....    1
 Number of Electrons    NEL             ....  202
 Basis Dimension        Dim             ....  334

ORBITAL ENERGIES
----------------

  NO   OCC          E(Eh)            E(eV)
   0   2.0000     -88.048039     -2395.9090
   1   2.0000     -88.046571     -2395.8690
   2   2.0000     -87.993592     -2394.4274
   3   2.0000     -87.990064     -2394.3314
   4   2.0000     -76.430268     -2079.7733
   5   2.0000     -76.430164     -2079.7705
   6   2.0000     -18.798879      -511.5435
   7   2.0000     -18.796334      -511.4743
   8   2.0000     -18.792133      -511.3599
   9   2.0000     -18.790848      -511.3250
  10   2.0000      -9.964932      -271.1596
  11   2.0000      -9.955559      -270.9045
  12   2.0000      -9.954101      -270.8649
  13   2.0000      -9.952299      -270.8158
  14   2.0000      -9.951282      -270.7881
  15   2.0000      -9.894764      -269.2502
  16   2.0000      -9.888191      -269.0714
  17   2.0000      -9.883905      -268.9547
  18   2.0000      -9.879783      -268.8426
  19   2.0000      -7.692920      -209.3350
  20   2.0000      -7.691050      -209.2841
  21   2.0000      -7.638408      -207.8517
  22   2.0000      -7.635374      -207.7691
  23   2.0000      -6.428127      -174.9182
  24   2.0000      -6.427352      -174.8971
  25   2.0000      -5.720674      -155.6675
  26   2.0000      -5.718900      -155.6192
  27   2.0000      -5.717547      -155.5824
  28   2.0000      -5.715528      -155.5274
  29   2.0000      -5.709895      -155.3742
  30   2.0000      -5.708165      -155.3271
  31   2.0000      -5.667219      -154.2129
  32   2.0000      -5.664406      -154.1363
  33   2.0000      -5.658989      -153.9889
  34   2.0000      -5.658747      -153.9823
  35   2.0000      -5.655888      -153.9045
  36   2.0000      -5.655461      -153.8929
  37   2.0000      -4.651042      -126.5613
  38   2.0000      -4.649585      -126.5216
  39   2.0000      -4.649500      -126.5193
  40   2.0000      -4.649436      -126.5176
  41   2.0000      -4.648618      -126.4953
  42   2.0000      -4.647827      -126.4738
  43   2.0000      -0.990724       -26.9590
  44   2.0000      -0.989487       -26.9253
  45   2.0000      -0.948014       -25.7968
  46   2.0000      -0.945600       -25.7311
  47   2.0000      -0.767924       -20.8963
  48   2.0000      -0.726196       -19.7608
  49   2.0000      -0.714641       -19.4464
  50   2.0000      -0.697461       -18.9789
  51   2.0000      -0.682972       -18.5846
  52   2.0000      -0.678941       -18.4749
  53   2.0000      -0.654389       -17.8068
  54   2.0000      -0.642705       -17.4889
  55   2.0000      -0.602817       -16.4035
  56   2.0000      -0.593540       -16.1510
  57   2.0000      -0.581666       -15.8279
  58   2.0000      -0.569295       -15.4913
  59   2.0000      -0.560528       -15.2527
  60   2.0000      -0.514132       -13.9902
  61   2.0000      -0.496478       -13.5099
  62   2.0000      -0.485301       -13.2057
  63   2.0000      -0.469979       -12.7888
  64   2.0000      -0.461115       -12.5476
  65   2.0000      -0.451480       -12.2854
  66   2.0000      -0.441653       -12.0180
  67   2.0000      -0.436755       -11.8847
  68   2.0000      -0.425954       -11.5908
  69   2.0000      -0.421675       -11.4743
  70   2.0000      -0.410662       -11.1747
  71   2.0000      -0.408816       -11.1244
  72   2.0000      -0.396547       -10.7906
  73   2.0000      -0.385505       -10.4901
  74   2.0000      -0.380561       -10.3556
  75   2.0000      -0.378824       -10.3083
  76   2.0000      -0.369971       -10.0674
  77   2.0000      -0.366601        -9.9757
  78   2.0000      -0.359452        -9.7812
  79   2.0000      -0.357338        -9.7237
  80   2.0000      -0.350530        -9.5384
  81   2.0000      -0.347666        -9.4605
  82   2.0000      -0.340471        -9.2647
  83   2.0000      -0.338324        -9.2063
  84   2.0000      -0.336251        -9.1499
  85   2.0000      -0.324192        -8.8217
  86   2.0000      -0.317880        -8.6500
  87   2.0000      -0.306609        -8.3432
  88   2.0000      -0.299448        -8.1484
  89   2.0000      -0.290138        -7.8951
  90   2.0000      -0.287605        -7.8261
  91   2.0000      -0.277458        -7.5500
  92   2.0000      -0.272841        -7.4244
  93   2.0000      -0.270155        -7.3513
  94   2.0000      -0.261632        -7.1194
  95   2.0000      -0.237147        -6.4531
  96   2.0000      -0.219846        -5.9823
  97   2.0000      -0.217321        -5.9136
  98   2.0000      -0.208235        -5.6664
  99   2.0000      -0.206256        -5.6125
 100   2.0000      -0.205267        -5.5856
 101   0.0000      -0.050489        -1.3739
 102   0.0000      -0.031330        -0.8525
 103   0.0000      -0.010850        -0.2952
 104   0.0000      -0.002255        -0.0614
 105   0.0000       0.001712         0.0466

MULLIKEN ATOMIC CHARGES
-----------------------
   0 C :   -0.309507
   1 C :   -0.005977
   2 O :   -0.356629
   3 P :    0.604586
   4 S :   -0.329516
   5 O :   -0.351492
   6 C :   -0.054703
   7 C :   -0.303569
   8 S :   -0.100554
   9 C :   -0.345560
  10 S :   -0.111332
  11 P :    0.624987
  12 S :   -0.308001
  13 O :   -0.363844
  14 C :   -0.030625
  15 C :   -0.302806
  16 O :   -0.386755
  17 C :   -0.011817
  18 C :   -0.293662
  19 H :    0.112740
  20 H :    0.117815
  21 H :    0.121211
  22 H :    0.114695
  23 H :    0.107471
  24 H :    0.146150
  25 H :    0.103893
  26 H :    0.116663
  27 H :    0.134105
  28 H :    0.100271
  29 H :    0.195022
  30 H :    0.194209
  31 H :    0.113872
  32 H :    0.109295
  33 H :    0.113764
  34 H :    0.137801
  35 H :    0.127243
  36 H :    0.099928
  37 H :    0.114777
  38 H :    0.113347
  39 H :    0.131701
  40 H :    0.110802
Sum of atomic charges:    0.0000000

LOEWDIN ATOMIC CHARGES
----------------------
   0 C :   -0.367368
   1 C :   -0.119498
   2 O :   -0.233231
   3 P :    0.572203
   4 S :   -0.307811
   5 O :   -0.230422
   6 C :   -0.125696
   7 C :   -0.368125
   8 S :    0.087745
   9 C :   -0.486498
  10 S :    0.095041
  11 P :    0.568538
  12 S :   -0.300721
  13 O :   -0.243379
  14 C :   -0.116623
  15 C :   -0.361364
  16 O :   -0.257597
  17 C :   -0.118307
  18 C :   -0.354842
  19 H :    0.130674
  20 H :    0.125143
  21 H :    0.119649
  22 H :    0.110661
  23 H :    0.119946
  24 H :    0.104168
  25 H :    0.118058
  26 H :    0.127102
  27 H :    0.115355
  28 H :    0.124911
  29 H :    0.131733
  30 H :    0.127366
  31 H :    0.123146
  32 H :    0.109167
  33 H :    0.132067
  34 H :    0.119656
  35 H :    0.132749
  36 H :    0.110916
  37 H :    0.108808
  38 H :    0.131165
  39 H :    0.122962
  40 H :    0.122555

  Mayer bond orders larger than 0.100000
B(  0-C ,  1-C ) :   1.1634 B(  0-C , 19-H ) :   0.9386 B(  0-C , 20-H ) :   0.9451
B(  0-C , 21-H ) :   0.9385 B(  1-C ,  2-O ) :   0.9114 B(  1-C , 22-H ) :   0.9144
B(  1-C , 23-H ) :   0.9337 B(  2-O ,  3-P ) :   1.1338 B(  3-P ,  4-S ) :   1.5979
B(  3-P ,  5-O ) :   1.1393 B(  3-P ,  8-S ) :   0.9277 B(  4-S ,  8-S ) :   0.1199
B(  5-O ,  6-C ) :   0.9108 B(  6-C ,  7-C ) :   1.1631 B(  6-C , 24-H ) :   0.8919
B(  6-C , 25-H ) :   0.9341 B(  7-C , 26-H ) :   0.9439 B(  7-C , 27-H ) :   0.9291
B(  7-C , 28-H ) :   0.9385 B(  8-S ,  9-C ) :   1.0120 B(  9-C , 10-S ) :   1.0020
B(  9-C , 29-H ) :   0.8730 B(  9-C , 30-H ) :   0.8634 B( 10-S , 11-P ) :   0.9641
B( 10-S , 12-S ) :   0.1012 B( 11-P , 12-S ) :   1.6514 B( 11-P , 13-O ) :   1.1326
B( 11-P , 16-O ) :   1.0596 B( 13-O , 14-C ) :   0.9012 B( 14-C , 15-C ) :   1.1674
B( 14-C , 31-H ) :   0.9337 B( 14-C , 32-H ) :   0.9167 B( 15-C , 33-H ) :   0.9379
B( 15-C , 34-H ) :   0.9331 B( 15-C , 35-H ) :   0.9454 B( 16-O , 17-C ) :   0.8999
B( 17-C , 18-C ) :   1.1620 B( 17-C , 36-H ) :   0.9344 B( 17-C , 37-H ) :   0.9071
B( 18-C , 38-H ) :   0.9410 B( 18-C , 39-H ) :   0.9425 B( 18-C , 40-H ) :   0.9477

Dispersion correction           -0.066241970
FINAL SINGLE POINT ENERGY     -2929.522943458949

DIPOLE MOMENT
-------------

Method             : SCF
Type of density    : Electron Density
Multiplicity       :   1
Irrep              :   0
Energy             : -2929.6422256356845537 Eh
Relativity type    :
Basis              : AO
                                X                 Y                 Z
Electronic contribution:     -0.020925669       6.206241988     -11.130620466
Nuclear contribution   :     -0.280043668      -7.014657545      12.219801579
                        -----------------------------------------
Total Dipole Moment    :     -0.300969338      -0.808415557       1.089181113
                        -----------------------------------------
Magnitude (a.u.)       :      1.389400500
Magnitude (Debye)      :      3.531575413

Rotational constants in cm-1:             0.011930             0.005207             0.004811
Rotational constants in MHz :           357.664464           156.100296           144.217734

                             ****ORCA TERMINATED NORMALLY****
TOTAL RUN TIME: 0 days 0 hours 0 minutes 21 seconds 657 msec
