                         Program Version 6.0.0  -   RELEASE  -
|  1> ! pbe def2-sv(p) def2/J RI DEFGRID1 loosescf d4 GCP(DFT/SV(P)) printgap
|  2> %output
|  3>     printlevel normal
|  4> end
|  5> * xyz 0 1
|  6> C 1.6796112889 -1.5153023431 -3.070160668
|  7> C 2.0161505676 -2.0771461713 -1.703082276
|  8> O 2.9300598475 -1.2090581234 -1.0031510404
|  9> P 2.4575582379 -0.0409879286 -0.0308435087
| 10> S 1.3644939418 1.3889558795 -0.797696323
| 11> O 3.8378242431 0.5189899359 0.4675309282
| 12> C 4.8536636791 -0.2984831728 1.1087003131
| 13> C 4.9449917829 0.0467643006 2.5814128116
| 14> S 1.6224515467 -1.1158211616 1.6264747058
| 15> C -0.0231187592 -0.393179885 1.6854234718
| 16> S -1.0525396462 -0.9502080186 0.2883528997
| 17> P -2.4147660934 0.687344507 0.2669616172
| 18> S -1.7609402061 2.3656649012 1.0323046231
| 19> O -3.6806370572 0.1897152356 1.0612685197
| 20> C -4.4131756262 -1.0154649266 0.7209907042
| 21> C -5.6144411747 -0.6899378349 -0.1422630615
| 22> O -2.9417583059 0.7296892697 -1.2280624716
| 23> C -2.0874242748 0.9673090366 -2.3668774166
| 24> C -1.9350081557 -0.3146482298 -3.1623863129
| 25> H 1.1925175641 -0.5485311944 -2.9662889259
| 26> H 2.5866932196 -1.38508726 -3.6536107735
| 27> H 1.0135417033 -2.1992850446 -3.5856607597
| 28> H 2.5498852742 -3.0260378728 -1.7824218611
| 29> H 1.1125210073 -2.2149823043 -1.1003033617
| 30> H 4.6128326051 -1.3524746624 0.9597726505
| 31> H 5.7785242978 -0.053507328 0.5844150547
| 32> H 5.7706832557 -0.5020089522 3.0230110003
| 33> H 5.116884278 1.1127198939 2.7032609542
| 34> H 4.0247333742 -0.2224318524 3.0940233115
| 35> H 0.0380446872 0.6978155853 1.6433416107
| 36> H -0.4687385799 -0.7282332034 2.6191153407
| 37> H -3.7357797161 -1.7102188206 0.2160257361
| 38> H -4.7165974001 -1.4284509642 1.6845718718
| 39> H -5.2949183347 -0.258026849 -1.0866612755
| 40> H -6.1718990645 -1.6016641903 -0.3328202583
| 41> H -6.2557648344 0.0239223103 0.3673261432
| 42> H -2.5893516409 1.7425055588 -2.9488396014
| 43> H -1.1197711539 1.3492022527 -2.0273600163
| 44> H -1.4559273529 -1.0788553553 -2.5547261242
| 45> H -2.9101201795 -0.6733011567 -3.478942533
| 46> H -1.3233545877 -0.1174132999 -4.0366560052
| 47> *
| 48>
| 49>                          ****END OF INPUT****

CARTESIAN COORDINATES (ANGSTROEM)
---------------------------------
  C      1.679611   -1.515302   -3.070161
  C      2.016151   -2.077146   -1.703082
  O      2.930060   -1.209058   -1.003151
  P      2.457558   -0.040988   -0.030844
  S      1.364494    1.388956   -0.797696
  O      3.837824    0.518990    0.467531
  C      4.853664   -0.298483    1.108700
  C      4.944992    0.046764    2.581413
  S      1.622452   -1.115821    1.626475
  C     -0.023119   -0.393180    1.685423
  S     -1.052540   -0.950208    0.288353
  P     -2.414766    0.687345    0.266962
  S     -1.760940    2.365665    1.032305
  O     -3.680637    0.189715    1.061269
  C     -4.413176   -1.015465    0.720991
  C     -5.614441   -0.689938   -0.142263
  O     -2.941758    0.729689   -1.228062
  C     -2.087424    0.967309   -2.366877
  C     -1.935008   -0.314648   -3.162386
  H      1.192518   -0.548531   -2.966289
  H      2.586693   -1.385087   -3.653611
  H      1.013542   -2.199285   -3.585661
  H      2.549885   -3.026038   -1.782422
  H      1.112521   -2.214982   -1.100303
  H      4.612833   -1.352475    0.959773
  H      5.778524   -0.053507    0.584415
  H      5.770683   -0.502009    3.023011
  H      5.116884    1.112720    2.703261
  H      4.024733   -0.222432    3.094023
  H      0.038045    0.697816    1.643342
  H     -0.468739   -0.728233    2.619115
  H     -3.735780   -1.710219    0.216026
  H     -4.716597   -1.428451    1.684572
  H     -5.294918   -0.258027   -1.086661
  H     -6.171899   -1.601664   -0.332820
  H     -6.255765    0.023922    0.367326
  H     -2.589352    1.742506   -2.948840
  H     -1.119771    1.349202   -2.027360
  H     -1.455927   -1.078855   -2.554726
  H     -2.910120   -0.673301   -3.478943
  H     -1.323355   -0.117413   -4.036656

 Total Charge           Charge          ....    0
 Multiplicity           Mult            ....    1
 Number of Electrons    NEL             ....  202
 Basis Dimension        Dim             ....  334

ORBITAL ENERGIES
----------------

  NO   OCC          E(Eh)            E(eV)
   0   2.0000     -88.048018     -2395.9084
   1   2.0000     -88.041195     -2395.7227
   2   2.0000     -87.984531     -2394.1808
   3   2.0000     -87.977660     -2393.9938
   4   2.0000     -76.426824     -2079.6796
   5   2.0000     -76.422000     -2079.5484
   6   2.0000     -18.792974      -511.3828
   7   2.0000     -18.792910      -511.3811
   8   2.0000     -18.791895      -511.3535
   9   2.0000     -18.787594      -511.2364
  10   2.0000      -9.960162      -271.0298
  11   2.0000      -9.955650      -270.9070
  12   2.0000      -9.955118      -270.8925
  13   2.0000      -9.952927      -270.8329
  14   2.0000      -9.951833      -270.8031
  15   2.0000      -9.888513      -269.0801
  16   2.0000      -9.888172      -269.0708
  17   2.0000      -9.885493      -268.9979
  18   2.0000      -9.883316      -268.9387
  19   2.0000      -7.692805      -209.3319
  20   2.0000      -7.685585      -209.1354
  21   2.0000      -7.629332      -207.6047
  22   2.0000      -7.622964      -207.4314
  23   2.0000      -6.424275      -174.8134
  24   2.0000      -6.419578      -174.6856
  25   2.0000      -5.720668      -155.6673
  26   2.0000      -5.717162      -155.5719
  27   2.0000      -5.713331      -155.4676
  28   2.0000      -5.710246      -155.3837
  29   2.0000      -5.710006      -155.3772
  30   2.0000      -5.702687      -155.1780
  31   2.0000      -5.658449      -153.9742
  32   2.0000      -5.652038      -153.7998
  33   2.0000      -5.649676      -153.7355
  34   2.0000      -5.649551      -153.7321
  35   2.0000      -5.643450      -153.5661
  36   2.0000      -5.643061      -153.5555
  37   2.0000      -4.646987      -126.4510
  38   2.0000      -4.646141      -126.4279
  39   2.0000      -4.644532      -126.3841
  40   2.0000      -4.642436      -126.3271
  41   2.0000      -4.641471      -126.3009
  42   2.0000      -4.639628      -126.2507
  43   2.0000      -0.989571       -26.9276
  44   2.0000      -0.986649       -26.8481
  45   2.0000      -0.945205       -25.7203
  46   2.0000      -0.943273       -25.6678
  47   2.0000      -0.762263       -20.7422
  48   2.0000      -0.721714       -19.6388
  49   2.0000      -0.713638       -19.4191
  50   2.0000      -0.691978       -18.8297
  51   2.0000      -0.690611       -18.7925
  52   2.0000      -0.676289       -18.4028
  53   2.0000      -0.649481       -17.6733
  54   2.0000      -0.632971       -17.2240
  55   2.0000      -0.592539       -16.1238
  56   2.0000      -0.584650       -15.9091
  57   2.0000      -0.577307       -15.7093
  58   2.0000      -0.572191       -15.5701
  59   2.0000      -0.565357       -15.3842
  60   2.0000      -0.510756       -13.8984
  61   2.0000      -0.500991       -13.6327
  62   2.0000      -0.480564       -13.0768
  63   2.0000      -0.479036       -13.0352
  64   2.0000      -0.452112       -12.3026
  65   2.0000      -0.448614       -12.2074
  66   2.0000      -0.442054       -12.0289
  67   2.0000      -0.440348       -11.9825
  68   2.0000      -0.432947       -11.7811
  69   2.0000      -0.418284       -11.3821
  70   2.0000      -0.405847       -11.0436
  71   2.0000      -0.398649       -10.8478
  72   2.0000      -0.393119       -10.6973
  73   2.0000      -0.386921       -10.5287
  74   2.0000      -0.384181       -10.4541
  75   2.0000      -0.369930       -10.0663
  76   2.0000      -0.361964        -9.8495
  77   2.0000      -0.356968        -9.7136
  78   2.0000      -0.355748        -9.6804
  79   2.0000      -0.354597        -9.6491
  80   2.0000      -0.352000        -9.5784
  81   2.0000      -0.349031        -9.4976
  82   2.0000      -0.345615        -9.4047
  83   2.0000      -0.336741        -9.1632
  84   2.0000      -0.334027        -9.0893
  85   2.0000      -0.318686        -8.6719
  86   2.0000      -0.312846        -8.5130
  87   2.0000      -0.301411        -8.2018
  88   2.0000      -0.296546        -8.0694
  89   2.0000      -0.293012        -7.9733
  90   2.0000      -0.288551        -7.8519
  91   2.0000      -0.278372        -7.5749
  92   2.0000      -0.275059        -7.4847
  93   2.0000      -0.264349        -7.1933
  94   2.0000      -0.258567        -7.0360
  95   2.0000      -0.240256        -6.5377
  96   2.0000      -0.221290        -6.0216
  97   2.0000      -0.208267        -5.6672
  98   2.0000      -0.195874        -5.3300
  99   2.0000      -0.193886        -5.2759
 100   2.0000      -0.187021        -5.0891
 101   0.0000      -0.047795        -1.3006
 102   0.0000      -0.032309        -0.8792
 103   0.0000      -0.013816        -0.3760
 104   0.0000       0.005277         0.1436
 105   0.0000       0.010069         0.2740

MULLIKEN ATOMIC CHARGES
-----------------------
   0 C :   -0.300951
   1 C :   -0.019371
   2 O :   -0.376862
   3 P :    0.594497
   4 S :   -0.287793
   5 O :   -0.352674
   6 C :   -0.019838
   7 C :   -0.286760
   8 S :   -0.129452
   9 C :   -0.324678
  10 S :   -0.143606
  11 P :    0.599112
  12 S :   -0.291488
  13 O :   -0.355058
  14 C :   -0.011266
  15 C :   -0.289870
  16 O :   -0.380912
  17 C :   -0.024001
  18 C :   -0.307983
  19 H :    0.134762
  20 H :    0.114067
  21 H :    0.107163
  22 H :    0.103509
  23 H :    0.112512
  24 H :    0.106936
  25 H :    0.114939
  26 H :    0.110104
  27 H :    0.124516
  28 H :    0.122598
  29 H :    0.211594
  30 H :    0.180847
  31 H :    0.096443
  32 H :    0.108452
  33 H :    0.123041
  34 H :    0.107432
  35 H :    0.120813
  36 H :    0.110543
  37 H :    0.140207
  38 H :    0.127663
  39 H :    0.113053
  40 H :    0.117759
Sum of atomic charges:    0.0000000

LOEWDIN ATOMIC CHARGES
----------------------
   0 C :   -0.363652
   1 C :   -0.117220
   2 O :   -0.249833
   3 P :    0.561617
   4 S :   -0.280008
   5 O :   -0.233578
   6 C :   -0.112232
   7 C :   -0.359316
   8 S :    0.065554
   9 C :   -0.479036
  10 S :    0.052433
  11 P :    0.563366
  12 S :   -0.291636
  13 O :   -0.238524
  14 C :   -0.115651
  15 C :   -0.360176
  16 O :   -0.243671
  17 C :   -0.117069
  18 C :   -0.359577
  19 H :    0.123494
  20 H :    0.126507
  21 H :    0.126844
  22 H :    0.117269
  23 H :    0.098298
  24 H :    0.108365
  25 H :    0.123787
  26 H :    0.129858
  27 H :    0.131498
  28 H :    0.121680
  29 H :    0.124614
  30 H :    0.135333
  31 H :    0.100519
  32 H :    0.120656
  33 H :    0.125709
  34 H :    0.128220
  35 H :    0.129443
  36 H :    0.121499
  37 H :    0.110807
  38 H :    0.118297
  39 H :    0.123854
  40 H :    0.131659

  Mayer bond orders larger than 0.100000
B(  0-C ,  1-C ) :   1.1699 B(  0-C , 19-H ) :   0.9248 B(  0-C , 20-H ) :   0.9446
B(  0-C , 21-H ) :   0.9373 B(  1-C ,  2-O ) :   0.9069 B(  1-C , 22-H ) :   0.9353
B(  1-C , 23-H ) :   0.9048 B(  2-O ,  3-P ) :   1.0865 B(  3-P ,  4-S ) :   1.6687
B(  3-P ,  5-O ) :   1.1506 B(  3-P ,  8-S ) :   0.9171 B(  4-S ,  8-S ) :   0.1162
B(  5-O ,  6-C ) :   0.8883 B(  6-C ,  7-C ) :   1.1638 B(  6-C , 24-H ) :   0.9192
B(  6-C , 25-H ) :   0.9345 B(  7-C , 26-H ) :   0.9396 B(  7-C , 27-H ) :   0.9459
B(  7-C , 28-H ) :   0.9393 B(  8-S ,  9-C ) :   1.0179 B(  9-C , 10-S ) :   0.9777
B(  9-C , 29-H ) :   0.8476 B(  9-C , 30-H ) :   0.9079 B( 10-S , 11-P ) :   0.9344
B( 10-S , 12-S ) :   0.1174 B( 11-P , 12-S ) :   1.6760 B( 11-P , 13-O ) :   1.1339
B( 11-P , 16-O ) :   1.0915 B( 13-O , 14-C ) :   0.8979 B( 14-C , 15-C ) :   1.1637
B( 14-C , 31-H ) :   0.9116 B( 14-C , 32-H ) :   0.9365 B( 15-C , 33-H ) :   0.9407
B( 15-C , 34-H ) :   0.9399 B( 15-C , 35-H ) :   0.9466 B( 16-O , 17-C ) :   0.8875
B( 17-C , 18-C ) :   1.1676 B( 17-C , 36-H ) :   0.9327 B( 17-C , 37-H ) :   0.9000
B( 18-C , 38-H ) :   0.9359 B( 18-C , 39-H ) :   0.9455 B( 18-C , 40-H ) :   0.9371

Dispersion correction           -0.064698573
FINAL SINGLE POINT ENERGY     -2929.514348274852

DIPOLE MOMENT
-------------

Method             : SCF
Type of density    : Electron Density
Multiplicity       :   1
Irrep              :   0
Energy             : -2929.6341138595507800 Eh
Relativity type    :
Basis              : AO
                                X                 Y                 Z
Electronic contribution:      2.365725212      11.826371343      11.634673117
Nuclear contribution   :     -2.147636503     -13.920977117     -12.160314119
                        -----------------------------------------
Total Dipole Moment    :      0.218088709      -2.094605774      -0.525641002
                        -----------------------------------------
Magnitude (a.u.)       :      2.170537836
Magnitude (Debye)      :      5.517068729

Rotational constants in cm-1:             0.013156             0.004734             0.004311
Rotational constants in MHz :           394.405805           141.933559           129.227920

                             ****ORCA TERMINATED NORMALLY****
TOTAL RUN TIME: 0 days 0 hours 0 minutes 20 seconds 980 msec
