                         Program Version 6.0.0  -   RELEASE  -
|  1> ! pbe def2-sv(p) def2/J RI DEFGRID1 loosescf d4 GCP(DFT/SV(P)) printgap
|  2> %output
|  3>     printlevel normal
|  4> end
|  5> * xyz 0 1
|  6> C 2.5276428702 -2.9838368799 -1.2054214969
|  7> C 3.3567225409 -1.8440704227 -1.7557029355
|  8> O 3.5362840991 -0.778013487 -0.7934656533
|  9> P 2.4048832287 0.0798648432 -0.1108852633
| 10> S 3.0966142207 1.7631901225 0.6001873191
| 11> O 1.7911092775 -0.9054035846 0.9811696852
| 12> C 1.3653354954 -0.5205034571 2.2976866965
| 13> C 2.1969130217 -1.2624747984 3.3251740085
| 14> S 0.9278157947 0.2396019491 -1.646687451
| 15> C 0.1839655808 1.7885100244 -1.0880013457
| 16> S -0.6077716062 1.6535216102 0.5355183251
| 17> P -2.0550380194 0.2072253535 -0.0188321137
| 18> S -2.7866638799 0.3389674238 -1.8370418141
| 19> O -3.0765447045 0.2340074578 1.1962161989
| 20> C -3.7317703346 1.401166765 1.7251991482
| 21> C -4.4094663047 2.2353604268 0.6580239368
| 22> O -1.2919707311 -1.1491990307 0.2899246578
| 23> C -1.5958784131 -2.3750325389 -0.4030385712
| 24> C -2.9399817517 -2.9254148057 0.0238012559
| 25> H 2.4717797226 -3.774788143 -1.9467561325
| 26> H 2.9761689615 -3.3712485057 -0.2946387583
| 27> H 1.5217283171 -2.6332962611 -0.98296081
| 28> H 2.8944379149 -1.4222000384 -2.6522266812
| 29> H 4.3790063196 -2.1545036042 -1.9770177061
| 30> H 1.4808776033 0.5626916417 2.4132755617
| 31> H 0.3066500908 -0.7823981427 2.3690787783
| 32> H 1.8497442287 -1.0009638648 4.3194638502
| 33> H 2.1044939438 -2.3349233108 3.1804562614
| 34> H 3.2426373446 -0.9801429276 3.226466667
| 35> H -0.5594173235 2.0577231868 -1.8379333319
| 36> H 0.9541752039 2.5531148901 -0.9903306941
| 37> H -4.4568815294 0.9901506893 2.4300181861
| 38> H -2.9862544533 1.9934970071 2.2633112881
| 39> H -5.0953919348 1.6248311575 0.0754192558
| 40> H -4.9596779268 3.0438799358 1.1285928312
| 41> H -3.6667005976 2.6590912525 -0.0167775193
| 42> H -1.5774454311 -2.1819863119 -1.4808509237
| 43> H -0.7784980809 -3.0445190938 -0.1307547795
| 44> H -3.120173436 -3.871151864 -0.4773377616
| 45> H -2.9629220104 -3.0723245546 1.1002218241
| 46> H -3.7250525289 -2.2212816802 -0.2505628562
| 47> *
| 48>
| 49>                          ****END OF INPUT****

CARTESIAN COORDINATES (ANGSTROEM)
---------------------------------
  C      2.527643   -2.983837   -1.205421
  C      3.356723   -1.844070   -1.755703
  O      3.536284   -0.778013   -0.793466
  P      2.404883    0.079865   -0.110885
  S      3.096614    1.763190    0.600187
  O      1.791109   -0.905404    0.981170
  C      1.365335   -0.520503    2.297687
  C      2.196913   -1.262475    3.325174
  S      0.927816    0.239602   -1.646687
  C      0.183966    1.788510   -1.088001
  S     -0.607772    1.653522    0.535518
  P     -2.055038    0.207225   -0.018832
  S     -2.786664    0.338967   -1.837042
  O     -3.076545    0.234007    1.196216
  C     -3.731770    1.401167    1.725199
  C     -4.409466    2.235360    0.658024
  O     -1.291971   -1.149199    0.289925
  C     -1.595878   -2.375033   -0.403039
  C     -2.939982   -2.925415    0.023801
  H      2.471780   -3.774788   -1.946756
  H      2.976169   -3.371249   -0.294639
  H      1.521728   -2.633296   -0.982961
  H      2.894438   -1.422200   -2.652227
  H      4.379006   -2.154504   -1.977018
  H      1.480878    0.562692    2.413276
  H      0.306650   -0.782398    2.369079
  H      1.849744   -1.000964    4.319464
  H      2.104494   -2.334923    3.180456
  H      3.242637   -0.980143    3.226467
  H     -0.559417    2.057723   -1.837933
  H      0.954175    2.553115   -0.990331
  H     -4.456882    0.990151    2.430018
  H     -2.986254    1.993497    2.263311
  H     -5.095392    1.624831    0.075419
  H     -4.959678    3.043880    1.128593
  H     -3.666701    2.659091   -0.016778
  H     -1.577445   -2.181986   -1.480851
  H     -0.778498   -3.044519   -0.130755
  H     -3.120173   -3.871152   -0.477338
  H     -2.962922   -3.072325    1.100222
  H     -3.725053   -2.221282   -0.250563

 Total Charge           Charge          ....    0
 Multiplicity           Mult            ....    1
 Number of Electrons    NEL             ....  202
 Basis Dimension        Dim             ....  334

ORBITAL ENERGIES
----------------

  NO   OCC          E(Eh)            E(eV)
   0   2.0000     -88.048101     -2395.9106
   1   2.0000     -88.041704     -2395.7366
   2   2.0000     -87.991041     -2394.3579
   3   2.0000     -87.983174     -2394.1439
   4   2.0000     -76.431104     -2079.7961
   5   2.0000     -76.425056     -2079.6315
   6   2.0000     -18.797731      -511.5123
   7   2.0000     -18.793435      -511.3954
   8   2.0000     -18.790934      -511.3273
   9   2.0000     -18.785586      -511.1818
  10   2.0000      -9.962114      -271.0829
  11   2.0000      -9.961210      -271.0583
  12   2.0000      -9.956711      -270.9359
  13   2.0000      -9.951919      -270.8055
  14   2.0000      -9.941524      -270.5226
  15   2.0000      -9.891842      -269.1707
  16   2.0000      -9.886730      -269.0316
  17   2.0000      -9.884528      -268.9717
  18   2.0000      -9.880123      -268.8518
  19   2.0000      -7.692648      -209.3276
  20   2.0000      -7.686390      -209.1573
  21   2.0000      -7.635942      -207.7845
  22   2.0000      -7.628433      -207.5802
  23   2.0000      -6.428153      -174.9189
  24   2.0000      -6.422416      -174.7628
  25   2.0000      -5.720447      -155.6613
  26   2.0000      -5.717187      -155.5726
  27   2.0000      -5.714264      -155.4930
  28   2.0000      -5.710943      -155.4027
  29   2.0000      -5.709727      -155.3696
  30   2.0000      -5.703378      -155.1968
  31   2.0000      -5.664824      -154.1477
  32   2.0000      -5.657442      -153.9468
  33   2.0000      -5.656656      -153.9254
  34   2.0000      -5.656079      -153.9097
  35   2.0000      -5.649092      -153.7196
  36   2.0000      -5.648401      -153.7008
  37   2.0000      -4.650618      -126.5497
  38   2.0000      -4.650091      -126.5354
  39   2.0000      -4.648621      -126.4954
  40   2.0000      -4.645095      -126.3994
  41   2.0000      -4.644126      -126.3731
  42   2.0000      -4.642877      -126.3391
  43   2.0000      -0.990168       -26.9438
  44   2.0000      -0.983686       -26.7675
  45   2.0000      -0.948311       -25.8049
  46   2.0000      -0.941947       -25.6317
  47   2.0000      -0.767250       -20.8779
  48   2.0000      -0.722674       -19.6650
  49   2.0000      -0.712751       -19.3950
  50   2.0000      -0.691611       -18.8197
  51   2.0000      -0.688683       -18.7400
  52   2.0000      -0.674810       -18.3625
  53   2.0000      -0.652862       -17.7653
  54   2.0000      -0.640536       -17.4299
  55   2.0000      -0.601079       -16.3562
  56   2.0000      -0.595836       -16.2135
  57   2.0000      -0.578056       -15.7297
  58   2.0000      -0.570630       -15.5276
  59   2.0000      -0.564477       -15.3602
  60   2.0000      -0.503155       -13.6916
  61   2.0000      -0.491911       -13.3856
  62   2.0000      -0.478796       -13.0287
  63   2.0000      -0.472544       -12.8586
  64   2.0000      -0.461722       -12.5641
  65   2.0000      -0.450020       -12.2457
  66   2.0000      -0.440539       -11.9877
  67   2.0000      -0.437728       -11.9112
  68   2.0000      -0.427230       -11.6255
  69   2.0000      -0.420621       -11.4457
  70   2.0000      -0.408205       -11.1078
  71   2.0000      -0.397903       -10.8275
  72   2.0000      -0.393857       -10.7174
  73   2.0000      -0.388699       -10.5770
  74   2.0000      -0.382186       -10.3998
  75   2.0000      -0.379993       -10.3401
  76   2.0000      -0.368633       -10.0310
  77   2.0000      -0.357200        -9.7199
  78   2.0000      -0.356327        -9.6962
  79   2.0000      -0.350793        -9.5456
  80   2.0000      -0.350381        -9.5343
  81   2.0000      -0.347066        -9.4441
  82   2.0000      -0.345026        -9.3886
  83   2.0000      -0.344313        -9.3692
  84   2.0000      -0.334307        -9.0970
  85   2.0000      -0.319968        -8.7068
  86   2.0000      -0.312409        -8.5011
  87   2.0000      -0.300701        -8.1825
  88   2.0000      -0.295644        -8.0449
  89   2.0000      -0.289618        -7.8809
  90   2.0000      -0.284746        -7.7483
  91   2.0000      -0.279013        -7.5923
  92   2.0000      -0.275040        -7.4842
  93   2.0000      -0.267439        -7.2774
  94   2.0000      -0.253410        -6.8956
  95   2.0000      -0.235830        -6.4173
  96   2.0000      -0.216995        -5.9047
  97   2.0000      -0.214527        -5.8376
  98   2.0000      -0.207221        -5.6388
  99   2.0000      -0.199014        -5.4154
 100   2.0000      -0.196966        -5.3597
 101   0.0000      -0.048972        -1.3326
 102   0.0000      -0.027767        -0.7556
 103   0.0000      -0.005862        -0.1595
 104   0.0000       0.002171         0.0591
 105   0.0000       0.006756         0.1839

MULLIKEN ATOMIC CHARGES
-----------------------
   0 C :   -0.334465
   1 C :   -0.015404
   2 O :   -0.362222
   3 P :    0.617842
   4 S :   -0.319196
   5 O :   -0.378279
   6 C :   -0.022495
   7 C :   -0.274209
   8 S :   -0.117058
   9 C :   -0.337629
  10 S :   -0.094671
  11 P :    0.617104
  12 S :   -0.328484
  13 O :   -0.375203
  14 C :   -0.009981
  15 C :   -0.311820
  16 O :   -0.359515
  17 C :   -0.030587
  18 C :   -0.289329
  19 H :    0.114234
  20 H :    0.122485
  21 H :    0.150555
  22 H :    0.120940
  23 H :    0.115760
  24 H :    0.113104
  25 H :    0.103839
  26 H :    0.106445
  27 H :    0.107662
  28 H :    0.115547
  29 H :    0.190907
  30 H :    0.194475
  31 H :    0.110160
  32 H :    0.114474
  33 H :    0.126911
  34 H :    0.113327
  35 H :    0.125592
  36 H :    0.114434
  37 H :    0.118599
  38 H :    0.110103
  39 H :    0.113076
  40 H :    0.122971
Sum of atomic charges:   -0.0000000

LOEWDIN ATOMIC CHARGES
----------------------
   0 C :   -0.368534
   1 C :   -0.113129
   2 O :   -0.237627
   3 P :    0.571385
   4 S :   -0.312455
   5 O :   -0.243363
   6 C :   -0.129197
   7 C :   -0.354228
   8 S :    0.072746
   9 C :   -0.477847
  10 S :    0.094642
  11 P :    0.573022
  12 S :   -0.316422
  13 O :   -0.244599
  14 C :   -0.113484
  15 C :   -0.369835
  16 O :   -0.233447
  17 C :   -0.122253
  18 C :   -0.363513
  19 H :    0.131642
  20 H :    0.129696
  21 H :    0.122924
  22 H :    0.110518
  23 H :    0.125042
  24 H :    0.102096
  25 H :    0.107667
  26 H :    0.128264
  27 H :    0.121618
  28 H :    0.126409
  29 H :    0.131175
  30 H :    0.132287
  31 H :    0.121968
  32 H :    0.110469
  33 H :    0.129660
  34 H :    0.130930
  35 H :    0.121148
  36 H :    0.109419
  37 H :    0.117275
  38 H :    0.129929
  39 H :    0.125137
  40 H :    0.122866

  Mayer bond orders larger than 0.100000
B(  0-C ,  1-C ) :   1.1662 B(  0-C , 19-H ) :   0.9350 B(  0-C , 20-H ) :   0.9435
B(  0-C , 21-H ) :   0.9271 B(  1-C ,  2-O ) :   0.9052 B(  1-C , 22-H ) :   0.9182
B(  1-C , 23-H ) :   0.9339 B(  2-O ,  3-P ) :   1.1472 B(  3-P ,  4-S ) :   1.6284
B(  3-P ,  5-O ) :   1.0920 B(  3-P ,  8-S ) :   0.9260 B(  4-S ,  8-S ) :   0.1021
B(  5-O ,  6-C ) :   0.9006 B(  6-C ,  7-C ) :   1.1584 B(  6-C , 24-H ) :   0.8998
B(  6-C , 25-H ) :   0.9233 B(  7-C , 26-H ) :   0.9421 B(  7-C , 27-H ) :   0.9505
B(  7-C , 28-H ) :   0.9479 B(  8-S ,  9-C ) :   1.0222 B(  9-C , 10-S ) :   0.9985
B(  9-C , 29-H ) :   0.8838 B(  9-C , 30-H ) :   0.8805 B( 10-S , 11-P ) :   0.9451
B( 10-S , 12-S ) :   0.1083 B( 11-P , 12-S ) :   1.5941 B( 11-P , 13-O ) :   1.1118
B( 11-P , 16-O ) :   1.1115 B( 13-O , 14-C ) :   0.9130 B( 14-C , 15-C ) :   1.1651
B( 14-C , 31-H ) :   0.9340 B( 14-C , 32-H ) :   0.9282 B( 15-C , 33-H ) :   0.9423
B( 15-C , 34-H ) :   0.9346 B( 15-C , 35-H ) :   0.9336 B( 16-O , 17-C ) :   0.9025
B( 17-C , 18-C ) :   1.1628 B( 17-C , 36-H ) :   0.9134 B( 17-C , 37-H ) :   0.9217
B( 18-C , 38-H ) :   0.9397 B( 18-C , 39-H ) :   0.9461 B( 18-C , 40-H ) :   0.9332

Dispersion correction           -0.067533717
FINAL SINGLE POINT ENERGY     -2929.519877857558

DIPOLE MOMENT
-------------

Method             : SCF
Type of density    : Electron Density
Multiplicity       :   1
Irrep              :   0
Energy             : -2929.6384460684162150 Eh
Relativity type    :
Basis              : AO
                                X                 Y                 Z
Electronic contribution:      8.644141627      15.562145955      -8.584655954
Nuclear contribution   :     -9.423190846     -16.698019534       9.091419373
                        -----------------------------------------
Total Dipole Moment    :     -0.779049219      -1.135873579       0.506763419
                        -----------------------------------------
Magnitude (a.u.)       :      1.467629257
Magnitude (Debye)      :      3.730417111

Rotational constants in cm-1:             0.011596             0.005585             0.005223
Rotational constants in MHz :           347.630615           167.433728           156.596135

                             ****ORCA TERMINATED NORMALLY****
TOTAL RUN TIME: 0 days 0 hours 0 minutes 21 seconds 853 msec
