                         Program Version 6.0.0  -   RELEASE  -
|  1> ! pbe def2-sv(p) def2/J RI DEFGRID1 loosescf d4 GCP(DFT/SV(P)) printgap
|  2> %output
|  3>     printlevel normal
|  4> end
|  5> * xyz 0 1
|  6> C 5.3405594421 -0.8298020276 -1.6094627819
|  7> C 4.0952289287 -1.6366887072 -1.2979940224
|  8> O 3.4825285091 -1.2143516971 -0.0639791597
|  9> P 2.4491177213 -0.014769995 0.0466727576
| 10> S 3.097911718 1.7725266064 -0.4205688548
| 11> O 2.0327714605 -0.0510306422 1.5619934338
| 12> C 1.2461679926 -1.0542502052 2.2493899291
| 13> C 1.8089127649 -2.4523284442 2.1091427201
| 14> S 0.7943789688 -0.7005213174 -1.1201258174
| 15> C 0.0280923828 0.9182569411 -1.3346534335
| 16> S -0.7217956624 1.5475797281 0.1943050964
| 17> P -2.4647228855 0.3648439657 0.0772310203
| 18> S -3.2934731997 0.159270824 -1.6921464408
| 19> O -3.4341480243 0.9312300269 1.2028115329
| 20> C -4.3990811348 1.9651090625 0.9402086897
| 21> C -3.7392898809 3.2952870549 0.6396145905
| 22> O -1.9428967919 -0.9680552262 0.7537313283
| 23> C -2.6369868711 -2.2322945001 0.6118157655
| 24> C -1.611779489 -3.331999933 0.4264846366
| 25> H 5.0862038181 0.2151105373 -1.7726079106
| 26> H 6.0416045415 -0.8897405769 -0.7814473843
| 27> H 5.8080764709 -1.2252307771 -2.5054762832
| 28> H 4.3397737775 -2.6869062332 -1.1269316377
| 29> H 3.3628768618 -1.558662109 -2.1061556999
| 30> H 1.2698426982 -0.7128898526 3.2857334676
| 31> H 0.2212185643 -1.001045987 1.8713887535
| 32> H 2.8626073462 -2.4590816173 2.3758088598
| 33> H 1.2690745488 -3.1182667744 2.7759988114
| 34> H 1.7011010115 -2.8062428302 1.0862472206
| 35> H -0.7415391807 0.8156059862 -2.1004631934
| 36> H 0.7928712869 1.6393067452 -1.6267107292
| 37> H -5.0245016064 1.6474898667 0.0997671856
| 38> H -4.9943833027 2.0062871659 1.8532060286
| 39> H -3.0384937029 3.5574736213 1.4285467381
| 40> H -3.1972776682 3.2379844254 -0.3038456228
| 41> H -4.4996910069 4.0656719398 0.561491777
| 42> H -3.2275391101 -2.3775676169 1.5184141882
| 43> H -3.3069215764 -2.1679641654 -0.2521565832
| 44> H -0.9644204836 -3.3925584552 1.295811207
| 45> H -2.1287950855 -4.2772014749 0.2967197712
| 46> H -1.0059398949 -3.1312872652 -0.4539280545
| 47> *
| 48>
| 49>                          ****END OF INPUT****

CARTESIAN COORDINATES (ANGSTROEM)
---------------------------------
  C      5.340559   -0.829802   -1.609463
  C      4.095229   -1.636689   -1.297994
  O      3.482529   -1.214352   -0.063979
  P      2.449118   -0.014770    0.046673
  S      3.097912    1.772527   -0.420569
  O      2.032771   -0.051031    1.561993
  C      1.246168   -1.054250    2.249390
  C      1.808913   -2.452328    2.109143
  S      0.794379   -0.700521   -1.120126
  C      0.028092    0.918257   -1.334653
  S     -0.721796    1.547580    0.194305
  P     -2.464723    0.364844    0.077231
  S     -3.293473    0.159271   -1.692146
  O     -3.434148    0.931230    1.202812
  C     -4.399081    1.965109    0.940209
  C     -3.739290    3.295287    0.639615
  O     -1.942897   -0.968055    0.753731
  C     -2.636987   -2.232295    0.611816
  C     -1.611779   -3.332000    0.426485
  H      5.086204    0.215111   -1.772608
  H      6.041605   -0.889741   -0.781447
  H      5.808076   -1.225231   -2.505476
  H      4.339774   -2.686906   -1.126932
  H      3.362877   -1.558662   -2.106156
  H      1.269843   -0.712890    3.285733
  H      0.221219   -1.001046    1.871389
  H      2.862607   -2.459082    2.375809
  H      1.269075   -3.118267    2.775999
  H      1.701101   -2.806243    1.086247
  H     -0.741539    0.815606   -2.100463
  H      0.792871    1.639307   -1.626711
  H     -5.024502    1.647490    0.099767
  H     -4.994383    2.006287    1.853206
  H     -3.038494    3.557474    1.428547
  H     -3.197278    3.237984   -0.303846
  H     -4.499691    4.065672    0.561492
  H     -3.227539   -2.377568    1.518414
  H     -3.306922   -2.167964   -0.252157
  H     -0.964420   -3.392558    1.295811
  H     -2.128795   -4.277201    0.296720
  H     -1.005940   -3.131287   -0.453928

 Total Charge           Charge          ....    0
 Multiplicity           Mult            ....    1
 Number of Electrons    NEL             ....  202
 Basis Dimension        Dim             ....  334

ORBITAL ENERGIES
----------------

  NO   OCC          E(Eh)            E(eV)
   0   2.0000     -88.045882     -2395.8503
   1   2.0000     -88.044234     -2395.8054
   2   2.0000     -87.992981     -2394.4107
   3   2.0000     -87.982151     -2394.1161
   4   2.0000     -76.430229     -2079.7723
   5   2.0000     -76.426718     -2079.6767
   6   2.0000     -18.797160      -511.4967
   7   2.0000     -18.796416      -511.4765
   8   2.0000     -18.795768      -511.4589
   9   2.0000     -18.789577      -511.2904
  10   2.0000      -9.957102      -270.9465
  11   2.0000      -9.956274      -270.9240
  12   2.0000      -9.955203      -270.8948
  13   2.0000      -9.952593      -270.8238
  14   2.0000      -9.951029      -270.7813
  15   2.0000      -9.890543      -269.1354
  16   2.0000      -9.887872      -269.0627
  17   2.0000      -9.885774      -269.0056
  18   2.0000      -9.880401      -268.8594
  19   2.0000      -7.690896      -209.2799
  20   2.0000      -7.688957      -209.2272
  21   2.0000      -7.637883      -207.8374
  22   2.0000      -7.627465      -207.5539
  23   2.0000      -6.428118      -174.9180
  24   2.0000      -6.423913      -174.8036
  25   2.0000      -5.718729      -155.6145
  26   2.0000      -5.716585      -155.5562
  27   2.0000      -5.715546      -155.5279
  28   2.0000      -5.713447      -155.4708
  29   2.0000      -5.707768      -155.3163
  30   2.0000      -5.706260      -155.2752
  31   2.0000      -5.666583      -154.1956
  32   2.0000      -5.658597      -153.9782
  33   2.0000      -5.658182      -153.9670
  34   2.0000      -5.656478      -153.9206
  35   2.0000      -5.647979      -153.6893
  36   2.0000      -5.647565      -153.6781
  37   2.0000      -4.650625      -126.5499
  38   2.0000      -4.649825      -126.5282
  39   2.0000      -4.648598      -126.4948
  40   2.0000      -4.646631      -126.4413
  41   2.0000      -4.645985      -126.4237
  42   2.0000      -4.644022      -126.3703
  43   2.0000      -0.991339       -26.9757
  44   2.0000      -0.987409       -26.8688
  45   2.0000      -0.950144       -25.8547
  46   2.0000      -0.945248       -25.7215
  47   2.0000      -0.766918       -20.8689
  48   2.0000      -0.724560       -19.7163
  49   2.0000      -0.712628       -19.3916
  50   2.0000      -0.690894       -18.8002
  51   2.0000      -0.690116       -18.7790
  52   2.0000      -0.678391       -18.4599
  53   2.0000      -0.651683       -17.7332
  54   2.0000      -0.639494       -17.4015
  55   2.0000      -0.602486       -16.3945
  56   2.0000      -0.591614       -16.0986
  57   2.0000      -0.576491       -15.6871
  58   2.0000      -0.574648       -15.6370
  59   2.0000      -0.562377       -15.3031
  60   2.0000      -0.508770       -13.8443
  61   2.0000      -0.497671       -13.5423
  62   2.0000      -0.477160       -12.9842
  63   2.0000      -0.473780       -12.8922
  64   2.0000      -0.459484       -12.5032
  65   2.0000      -0.445893       -12.1334
  66   2.0000      -0.443116       -12.0578
  67   2.0000      -0.439043       -11.9470
  68   2.0000      -0.432997       -11.7825
  69   2.0000      -0.419556       -11.4167
  70   2.0000      -0.403250       -10.9730
  71   2.0000      -0.399690       -10.8761
  72   2.0000      -0.395737       -10.7686
  73   2.0000      -0.395470       -10.7613
  74   2.0000      -0.387952       -10.5567
  75   2.0000      -0.378263       -10.2931
  76   2.0000      -0.363399        -9.8886
  77   2.0000      -0.359277        -9.7764
  78   2.0000      -0.354946        -9.6586
  79   2.0000      -0.353808        -9.6276
  80   2.0000      -0.351567        -9.5666
  81   2.0000      -0.346722        -9.4348
  82   2.0000      -0.344393        -9.3714
  83   2.0000      -0.340986        -9.2787
  84   2.0000      -0.333702        -9.0805
  85   2.0000      -0.324331        -8.8255
  86   2.0000      -0.314207        -8.5500
  87   2.0000      -0.299903        -8.1608
  88   2.0000      -0.296116        -8.0577
  89   2.0000      -0.291598        -7.9348
  90   2.0000      -0.287220        -7.8156
  91   2.0000      -0.282635        -7.6909
  92   2.0000      -0.270890        -7.3713
  93   2.0000      -0.267175        -7.2702
  94   2.0000      -0.261982        -7.1289
  95   2.0000      -0.238446        -6.4884
  96   2.0000      -0.222479        -6.0540
  97   2.0000      -0.214028        -5.8240
  98   2.0000      -0.207337        -5.6419
  99   2.0000      -0.200653        -5.4600
 100   2.0000      -0.197004        -5.3608
 101   0.0000      -0.045268        -1.2318
 102   0.0000      -0.027500        -0.7483
 103   0.0000      -0.006438        -0.1752
 104   0.0000      -0.001121        -0.0305
 105   0.0000       0.014093         0.3835

MULLIKEN ATOMIC CHARGES
-----------------------
   0 C :   -0.295378
   1 C :   -0.013489
   2 O :   -0.373396
   3 P :    0.607974
   4 S :   -0.315665
   5 O :   -0.353252
   6 C :   -0.031297
   7 C :   -0.312530
   8 S :   -0.105707
   9 C :   -0.376771
  10 S :   -0.055027
  11 P :    0.609830
  12 S :   -0.335992
  13 O :   -0.373688
  14 C :   -0.003791
  15 C :   -0.319728
  16 O :   -0.361386
  17 C :   -0.009693
  18 C :   -0.301236
  19 H :    0.132188
  20 H :    0.115240
  21 H :    0.107150
  22 H :    0.105268
  23 H :    0.104552
  24 H :    0.107086
  25 H :    0.140799
  26 H :    0.122656
  27 H :    0.116594
  28 H :    0.116875
  29 H :    0.191900
  30 H :    0.199004
  31 H :    0.112311
  32 H :    0.106301
  33 H :    0.121193
  34 H :    0.129227
  35 H :    0.115171
  36 H :    0.105461
  37 H :    0.109100
  38 H :    0.120355
  39 H :    0.111788
  40 H :    0.130004
Sum of atomic charges:    0.0000000

LOEWDIN ATOMIC CHARGES
----------------------
   0 C :   -0.364801
   1 C :   -0.116145
   2 O :   -0.241048
   3 P :    0.567456
   4 S :   -0.307702
   5 O :   -0.229382
   6 C :   -0.118135
   7 C :   -0.366418
   8 S :    0.070571
   9 C :   -0.490097
  10 S :    0.107723
  11 P :    0.572574
  12 S :   -0.322585
  13 O :   -0.245810
  14 C :   -0.118852
  15 C :   -0.369428
  16 O :   -0.240611
  17 C :   -0.116405
  18 C :   -0.355112
  19 H :    0.124772
  20 H :    0.127204
  21 H :    0.128645
  22 H :    0.118045
  23 H :    0.105473
  24 H :    0.122294
  25 H :    0.110775
  26 H :    0.128510
  27 H :    0.128706
  28 H :    0.118211
  29 H :    0.127753
  30 H :    0.129376
  31 H :    0.111107
  32 H :    0.119266
  33 H :    0.125950
  34 H :    0.122206
  35 H :    0.132251
  36 H :    0.115223
  37 H :    0.107810
  38 H :    0.123788
  39 H :    0.130937
  40 H :    0.125907

  Mayer bond orders larger than 0.100000
B(  0-C ,  1-C ) :   1.1685 B(  0-C , 19-H ) :   0.9295 B(  0-C , 20-H ) :   0.9473
B(  0-C , 21-H ) :   0.9383 B(  1-C ,  2-O ) :   0.9075 B(  1-C , 22-H ) :   0.9354
B(  1-C , 23-H ) :   0.9160 B(  2-O ,  3-P ) :   1.0935 B(  3-P ,  4-S ) :   1.6367
B(  3-P ,  5-O ) :   1.1563 B(  3-P ,  8-S ) :   0.9345 B(  4-S ,  8-S ) :   0.1112
B(  5-O ,  6-C ) :   0.8938 B(  6-C ,  7-C ) :   1.1723 B(  6-C , 24-H ) :   0.9340
B(  6-C , 25-H ) :   0.9013 B(  7-C , 26-H ) :   0.9405 B(  7-C , 27-H ) :   0.9305
B(  7-C , 28-H ) :   0.9385 B(  8-S ,  9-C ) :   1.0090 B(  9-C , 10-S ) :   1.0020
B(  9-C , 29-H ) :   0.8673 B(  9-C , 30-H ) :   0.8648 B( 10-S , 11-P ) :   0.9734
B( 10-S , 12-S ) :   0.1078 B( 11-P , 12-S ) :   1.5922 B( 11-P , 13-O ) :   1.1171
B( 11-P , 16-O ) :   1.1184 B( 13-O , 14-C ) :   0.9067 B( 14-C , 15-C ) :   1.1644
B( 14-C , 31-H ) :   0.9163 B( 14-C , 32-H ) :   0.9335 B( 15-C , 33-H ) :   0.9448
B( 15-C , 34-H ) :   0.9350 B( 15-C , 35-H ) :   0.9378 B( 16-O , 17-C ) :   0.8926
B( 17-C , 18-C ) :   1.1653 B( 17-C , 36-H ) :   0.9329 B( 17-C , 37-H ) :   0.9024
B( 18-C , 38-H ) :   0.9430 B( 18-C , 39-H ) :   0.9391 B( 18-C , 40-H ) :   0.9433

Dispersion correction           -0.065523627
FINAL SINGLE POINT ENERGY     -2929.522962058154

DIPOLE MOMENT
-------------

Method             : SCF
Type of density    : Electron Density
Multiplicity       :   1
Irrep              :   0
Energy             : -2929.6429617947419501 Eh
Relativity type    :
Basis              : AO
                                X                 Y                 Z
Electronic contribution:     -1.190293526      12.758927743      -4.490320769
Nuclear contribution   :      0.606610075     -14.128323853       5.112749705
                        -----------------------------------------
Total Dipole Moment    :     -0.583683452      -1.369396109       0.622428936
                        -----------------------------------------
Magnitude (a.u.)       :      1.613489962
Magnitude (Debye)      :      4.101165557

Rotational constants in cm-1:             0.013077             0.004826             0.004345
Rotational constants in MHz :           392.046203           144.691368           130.247644

                             ****ORCA TERMINATED NORMALLY****
TOTAL RUN TIME: 0 days 0 hours 0 minutes 21 seconds 525 msec
