                         Program Version 6.0.0  -   RELEASE  -
|  1> ! pbe def2-sv(p) def2/J RI DEFGRID1 loosescf d4 GCP(DFT/SV(P)) printgap
|  2> %output
|  3>     printlevel normal
|  4> end
|  5> * xyz 0 1
|  6> C 4.5586939107 -1.5862937875 -0.5856986591
|  7> C 4.5883572582 -0.1358159491 -0.1485940708
|  8> O 3.3967095589 0.2457966745 0.559110612
|  9> P 1.9754392513 0.3586502457 -0.147641756
| 10> S 2.0344281115 1.0615932487 -1.9813596145
| 11> O 1.1652328988 1.1850917658 0.9332964166
| 12> C 1.1337891323 2.6237228297 0.9465551997
| 13> C 2.4839525745 3.2221458635 1.2778968351
| 14> S 1.1611837485 -1.5576499806 0.1370061868
| 15> C 0.0015372545 -1.6503463732 -1.2696910121
| 16> S -1.7090208188 -1.9112519063 -0.7535499784
| 17> P -2.0666423866 0.0156509598 0.0661340336
| 18> S -1.4808789103 1.5118324434 -1.051103185
| 19> O -1.4165398337 0.0241719295 1.4993619813
| 20> C -1.7650594395 -0.949914581 2.5211781392
| 21> C -0.6064541625 -1.0444003354 3.4911321015
| 22> O -3.6156483327 0.0023824122 0.4209847644
| 23> C -4.6498273673 0.2021210887 -0.5615192387
| 24> C -5.1200416789 -1.114702611 -1.1468572675
| 25> H 4.3283925664 -2.2314027036 0.2583042218
| 26> H 3.8002592882 -1.7270835363 -1.3545143368
| 27> H 5.5271198786 -1.8562707163 -0.9944190332
| 28> H 4.699805226 0.5226764873 -1.0161577374
| 29> H 5.388644448 0.0530249915 0.5681804379
| 30> H 0.7786875854 2.9714010166 -0.0299043635
| 31> H 0.3836914437 2.8581236981 1.7038731358
| 32> H 3.1871978605 3.0204002626 0.4708231967
| 33> H 2.3790540047 4.2964517503 1.3933720441
| 34> H 2.868631824 2.7913188794 2.1986170706
| 35> H 0.2680991144 -2.5163905567 -1.8697608729
| 36> H 0.0792281338 -0.727480013 -1.8512576527
| 37> H -2.6755853316 -0.5972859647 3.0085270782
| 38> H -1.9607525133 -1.9111162689 2.0367726724
| 39> H 0.2861812204 -1.3937593403 2.9780666906
| 40> H -0.400218848 -0.0691291103 3.922765133
| 41> H -0.8624246538 -1.7427557958 4.2813048654
| 42> H -5.450862524 0.6985656312 -0.0108006154
| 43> H -4.2716557137 0.8746633181 -1.3382725555
| 44> H -5.9633059078 -0.9271351219 -1.8036498436
| 45> H -4.3244527905 -1.5885380766 -1.7167703065
| 46> H -5.4273990641 -1.7866550176 -0.3507789053
| 47> *
| 48>
| 49>                          ****END OF INPUT****

CARTESIAN COORDINATES (ANGSTROEM)
---------------------------------
  C      4.558694   -1.586294   -0.585699
  C      4.588357   -0.135816   -0.148594
  O      3.396710    0.245797    0.559111
  P      1.975439    0.358650   -0.147642
  S      2.034428    1.061593   -1.981360
  O      1.165233    1.185092    0.933296
  C      1.133789    2.623723    0.946555
  C      2.483953    3.222146    1.277897
  S      1.161184   -1.557650    0.137006
  C      0.001537   -1.650346   -1.269691
  S     -1.709021   -1.911252   -0.753550
  P     -2.066642    0.015651    0.066134
  S     -1.480879    1.511832   -1.051103
  O     -1.416540    0.024172    1.499362
  C     -1.765059   -0.949915    2.521178
  C     -0.606454   -1.044400    3.491132
  O     -3.615648    0.002382    0.420985
  C     -4.649827    0.202121   -0.561519
  C     -5.120042   -1.114703   -1.146857
  H      4.328393   -2.231403    0.258304
  H      3.800259   -1.727084   -1.354514
  H      5.527120   -1.856271   -0.994419
  H      4.699805    0.522676   -1.016158
  H      5.388644    0.053025    0.568180
  H      0.778688    2.971401   -0.029904
  H      0.383691    2.858124    1.703873
  H      3.187198    3.020400    0.470823
  H      2.379054    4.296452    1.393372
  H      2.868632    2.791319    2.198617
  H      0.268099   -2.516391   -1.869761
  H      0.079228   -0.727480   -1.851258
  H     -2.675585   -0.597286    3.008527
  H     -1.960753   -1.911116    2.036773
  H      0.286181   -1.393759    2.978067
  H     -0.400219   -0.069129    3.922765
  H     -0.862425   -1.742756    4.281305
  H     -5.450863    0.698566   -0.010801
  H     -4.271656    0.874663   -1.338273
  H     -5.963306   -0.927135   -1.803650
  H     -4.324453   -1.588538   -1.716770
  H     -5.427399   -1.786655   -0.350779

 Total Charge           Charge          ....    0
 Multiplicity           Mult            ....    1
 Number of Electrons    NEL             ....  202
 Basis Dimension        Dim             ....  334

ORBITAL ENERGIES
----------------

  NO   OCC          E(Eh)            E(eV)
   0   2.0000     -88.044763     -2395.8198
   1   2.0000     -88.041481     -2395.7305
   2   2.0000     -87.982660     -2394.1299
   3   2.0000     -87.980986     -2394.0843
   4   2.0000     -76.423339     -2079.5848
   5   2.0000     -76.421093     -2079.5237
   6   2.0000     -18.794478      -511.4237
   7   2.0000     -18.788834      -511.2702
   8   2.0000     -18.788672      -511.2657
   9   2.0000     -18.779034      -511.0035
  10   2.0000      -9.955025      -270.8900
  11   2.0000      -9.953522      -270.8491
  12   2.0000      -9.951913      -270.8053
  13   2.0000      -9.948935      -270.7243
  14   2.0000      -9.937901      -270.4240
  15   2.0000      -9.886780      -269.0330
  16   2.0000      -9.882255      -268.9098
  17   2.0000      -9.881516      -268.8897
  18   2.0000      -9.875669      -268.7306
  19   2.0000      -7.689811      -209.2504
  20   2.0000      -7.686577      -209.1624
  21   2.0000      -7.627522      -207.5554
  22   2.0000      -7.625955      -207.5128
  23   2.0000      -6.421057      -174.7258
  24   2.0000      -6.418654      -174.6605
  25   2.0000      -5.717555      -155.5826
  26   2.0000      -5.714430      -155.4975
  27   2.0000      -5.714097      -155.4885
  28   2.0000      -5.711134      -155.4079
  29   2.0000      -5.707118      -155.2986
  30   2.0000      -5.703439      -155.1985
  31   2.0000      -5.656418      -153.9189
  32   2.0000      -5.654923      -153.8783
  33   2.0000      -5.648332      -153.6989
  34   2.0000      -5.647553      -153.6777
  35   2.0000      -5.646455      -153.6479
  36   2.0000      -5.646147      -153.6395
  37   2.0000      -4.643912      -126.3673
  38   2.0000      -4.642871      -126.3389
  39   2.0000      -4.641166      -126.2926
  40   2.0000      -4.640916      -126.2857
  41   2.0000      -4.640266      -126.2681
  42   2.0000      -4.639544      -126.2484
  43   2.0000      -0.987545       -26.8725
  44   2.0000      -0.980283       -26.6749
  45   2.0000      -0.943321       -25.6691
  46   2.0000      -0.937653       -25.5148
  47   2.0000      -0.762552       -20.7501
  48   2.0000      -0.719502       -19.5786
  49   2.0000      -0.706918       -19.2362
  50   2.0000      -0.689264       -18.7558
  51   2.0000      -0.682681       -18.5767
  52   2.0000      -0.672362       -18.2959
  53   2.0000      -0.647924       -17.6309
  54   2.0000      -0.632075       -17.1996
  55   2.0000      -0.599650       -16.3173
  56   2.0000      -0.588269       -16.0076
  57   2.0000      -0.568263       -15.4632
  58   2.0000      -0.565956       -15.4005
  59   2.0000      -0.560144       -15.2423
  60   2.0000      -0.505119       -13.7450
  61   2.0000      -0.486436       -13.2366
  62   2.0000      -0.478858       -13.0304
  63   2.0000      -0.465638       -12.6706
  64   2.0000      -0.452002       -12.2996
  65   2.0000      -0.445549       -12.1240
  66   2.0000      -0.434903       -11.8343
  67   2.0000      -0.434337       -11.8189
  68   2.0000      -0.429807       -11.6956
  69   2.0000      -0.413372       -11.2484
  70   2.0000      -0.409709       -11.1488
  71   2.0000      -0.392896       -10.6912
  72   2.0000      -0.386008       -10.5038
  73   2.0000      -0.385026       -10.4771
  74   2.0000      -0.378175       -10.2907
  75   2.0000      -0.376940       -10.2571
  76   2.0000      -0.363362        -9.8876
  77   2.0000      -0.355704        -9.6792
  78   2.0000      -0.353533        -9.6201
  79   2.0000      -0.350582        -9.5398
  80   2.0000      -0.343230        -9.3398
  81   2.0000      -0.340540        -9.2666
  82   2.0000      -0.336296        -9.1511
  83   2.0000      -0.334854        -9.1118
  84   2.0000      -0.331633        -9.0242
  85   2.0000      -0.315774        -8.5927
  86   2.0000      -0.306731        -8.3466
  87   2.0000      -0.300239        -8.1699
  88   2.0000      -0.292519        -7.9598
  89   2.0000      -0.290785        -7.9127
  90   2.0000      -0.274932        -7.4813
  91   2.0000      -0.268456        -7.3050
  92   2.0000      -0.264866        -7.2074
  93   2.0000      -0.262923        -7.1545
  94   2.0000      -0.256694        -6.9850
  95   2.0000      -0.237811        -6.4712
  96   2.0000      -0.219414        -5.9706
  97   2.0000      -0.214064        -5.8250
  98   2.0000      -0.203432        -5.5357
  99   2.0000      -0.192863        -5.2481
 100   2.0000      -0.186081        -5.0635
 101   0.0000      -0.038609        -1.0506
 102   0.0000      -0.029903        -0.8137
 103   0.0000      -0.009608        -0.2615
 104   0.0000       0.013349         0.3633
 105   0.0000       0.023635         0.6431

MULLIKEN ATOMIC CHARGES
-----------------------
   0 C :   -0.308807
   1 C :   -0.003351
   2 O :   -0.375599
   3 P :    0.613758
   4 S :   -0.319661
   5 O :   -0.351503
   6 C :   -0.002937
   7 C :   -0.301374
   8 S :   -0.094345
   9 C :   -0.359031
  10 S :   -0.108072
  11 P :    0.598212
  12 S :   -0.295229
  13 O :   -0.346510
  14 C :   -0.011622
  15 C :   -0.278498
  16 O :   -0.382591
  17 C :   -0.006200
  18 C :   -0.308354
  19 H :    0.115952
  20 H :    0.120927
  21 H :    0.111001
  22 H :    0.109186
  23 H :    0.103331
  24 H :    0.122238
  25 H :    0.101137
  26 H :    0.118957
  27 H :    0.109011
  28 H :    0.111747
  29 H :    0.182603
  30 H :    0.212454
  31 H :    0.106129
  32 H :    0.099810
  33 H :    0.126171
  34 H :    0.116483
  35 H :    0.105068
  36 H :    0.106865
  37 H :    0.106839
  38 H :    0.113575
  39 H :    0.128814
  40 H :    0.113415
Sum of atomic charges:   -0.0000000

LOEWDIN ATOMIC CHARGES
----------------------
   0 C :   -0.369185
   1 C :   -0.120143
   2 O :   -0.245744
   3 P :    0.571475
   4 S :   -0.312474
   5 O :   -0.229906
   6 C :   -0.119483
   7 C :   -0.365526
   8 S :    0.090349
   9 C :   -0.480215
  10 S :    0.073457
  11 P :    0.561634
  12 S :   -0.288842
  13 O :   -0.229067
  14 C :   -0.115430
  15 C :   -0.352392
  16 O :   -0.249166
  17 C :   -0.117906
  18 C :   -0.366480
  19 H :    0.123173
  20 H :    0.119717
  21 H :    0.129805
  22 H :    0.109378
  23 H :    0.117680
  24 H :    0.109332
  25 H :    0.117634
  26 H :    0.120821
  27 H :    0.128933
  28 H :    0.123804
  29 H :    0.137115
  30 H :    0.127500
  31 H :    0.114408
  32 H :    0.102063
  33 H :    0.122992
  34 H :    0.127797
  35 H :    0.127611
  36 H :    0.119542
  37 H :    0.109332
  38 H :    0.131886
  39 H :    0.119465
  40 H :    0.125056

  Mayer bond orders larger than 0.100000
B(  0-C ,  1-C ) :   1.1678 B(  0-C , 19-H ) :   0.9441 B(  0-C , 20-H ) :   0.9369
B(  0-C , 21-H ) :   0.9381 B(  1-C ,  2-O ) :   0.9123 B(  1-C , 22-H ) :   0.9142
B(  1-C , 23-H ) :   0.9340 B(  2-O ,  3-P ) :   1.0958 B(  3-P ,  4-S ) :   1.5950
B(  3-P ,  5-O ) :   1.1491 B(  3-P ,  8-S ) :   0.9603 B(  4-S ,  8-S ) :   0.1142
B(  5-O ,  6-C ) :   0.9047 B(  6-C ,  7-C ) :   1.1571 B(  6-C , 24-H ) :   0.9133
B(  6-C , 25-H ) :   0.9355 B(  7-C , 26-H ) :   0.9383 B(  7-C , 27-H ) :   0.9395
B(  7-C , 28-H ) :   0.9450 B(  8-S ,  9-C ) :   0.9918 B(  9-C , 10-S ) :   1.0014
B(  9-C , 29-H ) :   0.9113 B(  9-C , 30-H ) :   0.8467 B( 10-S , 11-P ) :   0.9434
B( 10-S , 12-S ) :   0.1041 B( 11-P , 12-S ) :   1.6613 B( 11-P , 13-O ) :   1.1453
B( 11-P , 16-O ) :   1.0842 B( 13-O , 14-C ) :   0.8877 B( 14-C , 15-C ) :   1.1654
B( 14-C , 31-H ) :   0.9320 B( 14-C , 32-H ) :   0.9092 B( 15-C , 33-H ) :   0.9425
B( 15-C , 34-H ) :   0.9492 B( 15-C , 35-H ) :   0.9402 B( 16-O , 17-C ) :   0.9077
B( 17-C , 18-C ) :   1.1672 B( 17-C , 36-H ) :   0.9348 B( 17-C , 37-H ) :   0.9066
B( 18-C , 38-H ) :   0.9395 B( 18-C , 39-H ) :   0.9332 B( 18-C , 40-H ) :   0.9481

Dispersion correction           -0.067898462
FINAL SINGLE POINT ENERGY     -2929.522008449901

DIPOLE MOMENT
-------------

Method             : SCF
Type of density    : Electron Density
Multiplicity       :   1
Irrep              :   0
Energy             : -2929.6399072657081888 Eh
Relativity type    :
Basis              : AO
                                X                 Y                 Z
Electronic contribution:     -2.850399223       0.436330326      -9.113187518
Nuclear contribution   :      2.549572358      -1.214200183      10.065093444
                        -----------------------------------------
Total Dipole Moment    :     -0.300826865      -0.777869857       0.951905926
                        -----------------------------------------
Magnitude (a.u.)       :      1.265584137
Magnitude (Debye)      :      3.216859228

Rotational constants in cm-1:             0.012804             0.005289             0.005160
Rotational constants in MHz :           383.843758           158.553768           154.695376

                             ****ORCA TERMINATED NORMALLY****
TOTAL RUN TIME: 0 days 0 hours 0 minutes 24 seconds 437 msec
