                         Program Version 6.0.0  -   RELEASE  -
|  1> ! pbe def2-sv(p) def2/J RI DEFGRID1 loosescf d4 GCP(DFT/SV(P)) printgap
|  2> %output
|  3>     printlevel normal
|  4> end
|  5> * xyz 0 1
|  6> C 4.0474349577 1.4977016086 -1.5351791837
|  7> C 2.7515226439 0.7901234253 -1.872957913
|  8> O 2.4753848429 -0.2807851823 -0.9547592228
|  9> P 2.0667528303 -0.0097219959 0.5704934983
| 10> S 1.0233354391 1.6057094976 0.902199834
| 11> O 3.4024850252 0.044770405 1.421327855
| 12> C 4.4243464204 -0.9806910008 1.3702702876
| 13> C 4.3482145316 -1.8674969108 2.5967241691
| 14> S 1.2720052113 -1.9106094446 1.0085858652
| 15> C -0.2124788189 -1.886955579 -0.0246843313
| 16> S -1.5842340499 -0.9637817744 0.7366465361
| 17> P -2.1905326023 0.1941033378 -0.9475297307
| 18> S -0.7574244259 0.5755358753 -2.2280981648
| 19> O -2.9921472973 1.4309583343 -0.3678030275
| 20> C -2.407599529 2.5455208096 0.3319566507
| 21> C -2.5357738072 2.3668601049 1.8312364208
| 22> O -3.335147344 -0.6117702959 -1.6745868618
| 23> C -4.7207939347 -0.6881931291 -1.257677272
| 24> C -4.8895996975 -1.3331115333 0.101538816
| 25> H 4.8734840512 0.7910707979 -1.5246005069
| 26> H 4.2389040483 2.2648534242 -2.2787474508
| 27> H 3.9657933155 1.9677503188 -0.5552293807
| 28> H 2.7913699157 0.2992475963 -2.8464779369
| 29> H 1.9081768322 1.487901027 -1.8598803544
| 30> H 4.3054579832 -1.5601168096 0.4513226003
| 31> H 5.3655213139 -0.4284188457 1.341385651
| 32> H 3.4095404408 -2.4171864451 2.611497076
| 33> H 5.1738134075 -2.5717704307 2.5763721657
| 34> H 4.41410429 -1.2615304388 3.495993687
| 35> H -0.5116984735 -2.9260368314 -0.132799669
| 36> H 0.0184344105 -1.4316887641 -0.9914575228
| 37> H -1.3596150527 2.6550936747 0.0391389979
| 38> H -2.9739159008 3.4123243277 -0.0138404328
| 39> H -3.5747971659 2.204954486 2.1036697881
| 40> H -1.9404343551 1.5200376064 2.1648195802
| 41> H -2.1666449025 3.2612376403 2.3222444637
| 42> H -5.1336989247 0.321927818 -1.265711553
| 43> H -5.181662087 -1.2849104042 -2.0464805663
| 44> H -4.4293923824 -0.7190921322 0.8733355428
| 45> H -5.9495605608 -1.4323023391 0.3140800203
| 46> H -4.4281489995 -2.3169773451 0.1175746086
| 47> *
| 48>
| 49>                          ****END OF INPUT****

CARTESIAN COORDINATES (ANGSTROEM)
---------------------------------
  C      4.047435    1.497702   -1.535179
  C      2.751523    0.790123   -1.872958
  O      2.475385   -0.280785   -0.954759
  P      2.066753   -0.009722    0.570493
  S      1.023335    1.605709    0.902200
  O      3.402485    0.044770    1.421328
  C      4.424346   -0.980691    1.370270
  C      4.348215   -1.867497    2.596724
  S      1.272005   -1.910609    1.008586
  C     -0.212479   -1.886956   -0.024684
  S     -1.584234   -0.963782    0.736647
  P     -2.190533    0.194103   -0.947530
  S     -0.757424    0.575536   -2.228098
  O     -2.992147    1.430958   -0.367803
  C     -2.407600    2.545521    0.331957
  C     -2.535774    2.366860    1.831236
  O     -3.335147   -0.611770   -1.674587
  C     -4.720794   -0.688193   -1.257677
  C     -4.889600   -1.333112    0.101539
  H      4.873484    0.791071   -1.524601
  H      4.238904    2.264853   -2.278747
  H      3.965793    1.967750   -0.555229
  H      2.791370    0.299248   -2.846478
  H      1.908177    1.487901   -1.859880
  H      4.305458   -1.560117    0.451323
  H      5.365521   -0.428419    1.341386
  H      3.409540   -2.417186    2.611497
  H      5.173813   -2.571770    2.576372
  H      4.414104   -1.261530    3.495994
  H     -0.511698   -2.926037   -0.132800
  H      0.018434   -1.431689   -0.991458
  H     -1.359615    2.655094    0.039139
  H     -2.973916    3.412324   -0.013840
  H     -3.574797    2.204954    2.103670
  H     -1.940434    1.520038    2.164820
  H     -2.166645    3.261238    2.322244
  H     -5.133699    0.321928   -1.265712
  H     -5.181662   -1.284910   -2.046481
  H     -4.429392   -0.719092    0.873336
  H     -5.949561   -1.432302    0.314080
  H     -4.428149   -2.316977    0.117575

 Total Charge           Charge          ....    0
 Multiplicity           Mult            ....    1
 Number of Electrons    NEL             ....  202
 Basis Dimension        Dim             ....  334

ORBITAL ENERGIES
----------------

  NO   OCC          E(Eh)            E(eV)
   0   2.0000     -88.042875     -2395.7684
   1   2.0000     -88.037282     -2395.6162
   2   2.0000     -87.977716     -2393.9954
   3   2.0000     -87.977623     -2393.9928
   4   2.0000     -76.422891     -2079.5726
   5   2.0000     -76.421204     -2079.5267
   6   2.0000     -18.794275      -511.4182
   7   2.0000     -18.791918      -511.3541
   8   2.0000     -18.784649      -511.1563
   9   2.0000     -18.783759      -511.1321
  10   2.0000      -9.957621      -270.9606
  11   2.0000      -9.954286      -270.8699
  12   2.0000      -9.952697      -270.8266
  13   2.0000      -9.948384      -270.7093
  14   2.0000      -9.940743      -270.5014
  15   2.0000      -9.889269      -269.1007
  16   2.0000      -9.887699      -269.0580
  17   2.0000      -9.880122      -268.8518
  18   2.0000      -9.878517      -268.8081
  19   2.0000      -7.688286      -209.2089
  20   2.0000      -7.682052      -209.0393
  21   2.0000      -7.622885      -207.4292
  22   2.0000      -7.622835      -207.4279
  23   2.0000      -6.420278      -174.7046
  24   2.0000      -6.419013      -174.6702
  25   2.0000      -5.716167      -155.5448
  26   2.0000      -5.712727      -155.4512
  27   2.0000      -5.709940      -155.3754
  28   2.0000      -5.706628      -155.2853
  29   2.0000      -5.705245      -155.2476
  30   2.0000      -5.698996      -155.0776
  31   2.0000      -5.651885      -153.7956
  32   2.0000      -5.651829      -153.7941
  33   2.0000      -5.643793      -153.5754
  34   2.0000      -5.643428      -153.5655
  35   2.0000      -5.642791      -153.5482
  36   2.0000      -5.642634      -153.5439
  37   2.0000      -4.643343      -126.3518
  38   2.0000      -4.641988      -126.3149
  39   2.0000      -4.641868      -126.3116
  40   2.0000      -4.640559      -126.2760
  41   2.0000      -4.640472      -126.2737
  42   2.0000      -4.639347      -126.2430
  43   2.0000      -0.985969       -26.8296
  44   2.0000      -0.981510       -26.7083
  45   2.0000      -0.940475       -25.5916
  46   2.0000      -0.940448       -25.5909
  47   2.0000      -0.759907       -20.6781
  48   2.0000      -0.719916       -19.5899
  49   2.0000      -0.709643       -19.3104
  50   2.0000      -0.689493       -18.7620
  51   2.0000      -0.688140       -18.7252
  52   2.0000      -0.672322       -18.2948
  53   2.0000      -0.648558       -17.6481
  54   2.0000      -0.630290       -17.1511
  55   2.0000      -0.594671       -16.1818
  56   2.0000      -0.582317       -15.8456
  57   2.0000      -0.576644       -15.6913
  58   2.0000      -0.574970       -15.6457
  59   2.0000      -0.557945       -15.1824
  60   2.0000      -0.500214       -13.6115
  61   2.0000      -0.494373       -13.4526
  62   2.0000      -0.473796       -12.8927
  63   2.0000      -0.471554       -12.8316
  64   2.0000      -0.452195       -12.3048
  65   2.0000      -0.447941       -12.1891
  66   2.0000      -0.440343       -11.9823
  67   2.0000      -0.435048       -11.8383
  68   2.0000      -0.424781       -11.5589
  69   2.0000      -0.419012       -11.4019
  70   2.0000      -0.406586       -11.0638
  71   2.0000      -0.395938       -10.7740
  72   2.0000      -0.391678       -10.6581
  73   2.0000      -0.385578       -10.4921
  74   2.0000      -0.377660       -10.2766
  75   2.0000      -0.369164       -10.0455
  76   2.0000      -0.361630        -9.8405
  77   2.0000      -0.357065        -9.7162
  78   2.0000      -0.355413        -9.6713
  79   2.0000      -0.352285        -9.5862
  80   2.0000      -0.348163        -9.4740
  81   2.0000      -0.342659        -9.3242
  82   2.0000      -0.339311        -9.2331
  83   2.0000      -0.334761        -9.1093
  84   2.0000      -0.329919        -8.9776
  85   2.0000      -0.315140        -8.5754
  86   2.0000      -0.311352        -8.4723
  87   2.0000      -0.304071        -8.2742
  88   2.0000      -0.292573        -7.9613
  89   2.0000      -0.289378        -7.8744
  90   2.0000      -0.274439        -7.4679
  91   2.0000      -0.272842        -7.4244
  92   2.0000      -0.270028        -7.3478
  93   2.0000      -0.261833        -7.1249
  94   2.0000      -0.255705        -6.9581
  95   2.0000      -0.238325        -6.4851
  96   2.0000      -0.220988        -6.0134
  97   2.0000      -0.200553        -5.4573
  98   2.0000      -0.198803        -5.4097
  99   2.0000      -0.191116        -5.2005
 100   2.0000      -0.180480        -4.9111
 101   0.0000      -0.037905        -1.0314
 102   0.0000      -0.029281        -0.7968
 103   0.0000      -0.012974        -0.3531
 104   0.0000       0.009633         0.2621
 105   0.0000       0.016272         0.4428

MULLIKEN ATOMIC CHARGES
-----------------------
   0 C :   -0.313170
   1 C :   -0.017075
   2 O :   -0.385732
   3 P :    0.623903
   4 S :   -0.314777
   5 O :   -0.366851
   6 C :   -0.033786
   7 C :   -0.292167
   8 S :   -0.110008
   9 C :   -0.336724
  10 S :   -0.104216
  11 P :    0.620908
  12 S :   -0.313911
  13 O :   -0.385180
  14 C :   -0.014724
  15 C :   -0.309237
  16 O :   -0.364975
  17 C :    0.006714
  18 C :   -0.319178
  19 H :    0.107696
  20 H :    0.112919
  21 H :    0.128779
  22 H :    0.103417
  23 H :    0.131719
  24 H :    0.111713
  25 H :    0.111494
  26 H :    0.131734
  27 H :    0.111544
  28 H :    0.123574
  29 H :    0.181380
  30 H :    0.197683
  31 H :    0.131812
  32 H :    0.103826
  33 H :    0.108750
  34 H :    0.141038
  35 H :    0.113213
  36 H :    0.109307
  37 H :    0.108709
  38 H :    0.125996
  39 H :    0.112871
  40 H :    0.121007
Sum of atomic charges:    0.0000000

LOEWDIN ATOMIC CHARGES
----------------------
   0 C :   -0.366739
   1 C :   -0.125093
   2 O :   -0.251904
   3 P :    0.568694
   4 S :   -0.304501
   5 O :   -0.241365
   6 C :   -0.121268
   7 C :   -0.359758
   8 S :    0.084695
   9 C :   -0.479567
  10 S :    0.074342
  11 P :    0.571337
  12 S :   -0.300533
  13 O :   -0.240343
  14 C :   -0.115117
  15 C :   -0.364896
  16 O :   -0.244046
  17 C :   -0.108781
  18 C :   -0.368627
  19 H :    0.119968
  20 H :    0.131332
  21 H :    0.124921
  22 H :    0.117972
  23 H :    0.109961
  24 H :    0.109842
  25 H :    0.120699
  26 H :    0.119957
  27 H :    0.131074
  28 H :    0.130869
  29 H :    0.135755
  30 H :    0.124130
  31 H :    0.111178
  32 H :    0.118214
  33 H :    0.120950
  34 H :    0.123694
  35 H :    0.132875
  36 H :    0.114416
  37 H :    0.121607
  38 H :    0.117322
  39 H :    0.130728
  40 H :    0.126002

  Mayer bond orders larger than 0.100000
B(  0-C ,  1-C ) :   1.1582 B(  0-C , 19-H ) :   0.9456 B(  0-C , 20-H ) :   0.9402
B(  0-C , 21-H ) :   0.9352 B(  1-C ,  2-O ) :   0.9034 B(  1-C , 22-H ) :   0.9359
B(  1-C , 23-H ) :   0.9059 B(  2-O ,  3-P ) :   1.0715 B(  3-P ,  4-S ) :   1.6610
B(  3-P ,  5-O ) :   1.1140 B(  3-P ,  8-S ) :   0.9634 B(  4-S ,  8-S ) :   0.1089
B(  5-O ,  6-C ) :   0.8970 B(  6-C ,  7-C ) :   1.1670 B(  6-C , 24-H ) :   0.9145
B(  6-C , 25-H ) :   0.9321 B(  7-C , 26-H ) :   0.9369 B(  7-C , 27-H ) :   0.9390
B(  7-C , 28-H ) :   0.9455 B(  8-S ,  9-C ) :   1.0018 B(  9-C , 10-S ) :   0.9933
B(  9-C , 29-H ) :   0.9118 B(  9-C , 30-H ) :   0.8453 B( 10-S , 11-P ) :   0.9471
B( 10-S , 12-S ) :   0.1170 B( 11-P , 12-S ) :   1.6387 B( 11-P , 13-O ) :   1.0989
B( 11-P , 16-O ) :   1.1257 B( 12-S , 30-H ) :   0.1126 B( 13-O , 14-C ) :   0.8924
B( 14-C , 15-C ) :   1.1733 B( 14-C , 31-H ) :   0.9027 B( 14-C , 32-H ) :   0.9338
B( 15-C , 33-H ) :   0.9459 B( 15-C , 34-H ) :   0.9313 B( 15-C , 35-H ) :   0.9396
B( 16-O , 17-C ) :   0.9056 B( 17-C , 18-C ) :   1.1690 B( 17-C , 36-H ) :   0.9277
B( 17-C , 37-H ) :   0.9349 B( 18-C , 38-H ) :   0.9381 B( 18-C , 39-H ) :   0.9358
B( 18-C , 40-H ) :   0.9431

Dispersion correction           -0.066389243
FINAL SINGLE POINT ENERGY     -2929.513288606207

DIPOLE MOMENT
-------------

Method             : SCF
Type of density    : Electron Density
Multiplicity       :   1
Irrep              :   0
Energy             : -2929.6326344440903995 Eh
Relativity type    :
Basis              : AO
                                X                 Y                 Z
Electronic contribution:     -2.784642292      -2.197913174      -4.643387087
Nuclear contribution   :      2.746265444       1.586784537       4.894892158
                        -----------------------------------------
Total Dipole Moment    :     -0.038376848      -0.611128637       0.251505070
                        -----------------------------------------
Magnitude (a.u.)       :      0.661971143
Magnitude (Debye)      :      1.682596928

Rotational constants in cm-1:             0.013444             0.004866             0.004578
Rotational constants in MHz :           403.055318           145.881036           137.235642

                             ****ORCA TERMINATED NORMALLY****
TOTAL RUN TIME: 0 days 0 hours 0 minutes 21 seconds 103 msec
