                         Program Version 6.0.0  -   RELEASE  -
|  1> ! pbe def2-sv(p) def2/J RI DEFGRID1 loosescf d4 GCP(DFT/SV(P)) printgap
|  2> %output
|  3>     printlevel normal
|  4> end
|  5> * xyz 0 1
|  6> C 2.0026626463 -1.5574431802 -2.6499787341
|  7> C 2.668361542 -0.2710302355 -2.2043912277
|  8> O 3.2077052266 -0.4154631449 -0.8770883113
|  9> P 2.5225944547 0.1213175571 0.4481106037
| 10> S 2.15249011 2.0446028905 0.5487389182
| 11> O 3.6022251904 -0.262544726 1.5328205426
| 12> C 4.4671821736 -1.4254966465 1.4985636266
| 13> C 3.6987616721 -2.729420988 1.535644803
| 14> S 0.8380276313 -1.1311619262 0.799070849
| 15> C -0.2165551512 0.0576026986 1.6923052761
| 16> S -1.9679072907 -0.2648864346 1.4318542562
| 17> P -2.2295043797 0.624459033 -0.4955018653
| 18> S -0.6452778323 0.9201255392 -1.6064677559
| 19> O -2.9189338183 2.0221225569 -0.2558793371
| 20> C -3.9117691471 2.3488313597 0.7470496877
| 21> C -5.094931501 1.404932133 0.7572730027
| 22> O -3.3954075924 -0.228257291 -1.1506365586
| 23> C -3.4367857558 -1.6658052452 -1.2377726951
| 24> C -2.1411593553 -2.2680958208 -1.738918993
| 25> H 1.6756984451 -1.4435100625 -3.6781028257
| 26> H 2.7021090593 -2.3855158717 -2.5805512239
| 27> H 1.1349322466 -1.7662702809 -2.0295556424
| 28> H 1.9634918537 0.5652114872 -2.2252729911
| 29> H 3.5312109327 -0.0317811647 -2.8290209001
| 30> H 5.0864321723 -1.3606044795 0.60230696
| 31> H 5.0858760811 -1.2967960982 2.3880967383
| 32> H 3.093096079 -2.838545387 0.6379206012
| 33> H 4.4052652741 -3.5519820006 1.587866622
| 34> H 3.0452054837 -2.7632466721 2.4033592579
| 35> H 0.0417234154 1.0628070229 1.3471548044
| 36> H -0.0449669478 -0.0487271497 2.7606739363
| 37> H -3.4148042507 2.3579846654 1.7208025097
| 38> H -4.2088343388 3.3635746462 0.4769917196
| 39> H -5.5223728872 1.3256335816 -0.238742683
| 40> H -4.78864584 0.4165449362 1.0944407717
| 41> H -5.8448015525 1.7925452918 1.4401736893
| 42> H -3.6847245189 -2.0556249548 -0.2467286811
| 43> H -4.259252784 -1.8567366409 -1.9291928506
| 44> H -1.852563691 -1.8132743006 -2.683853776
| 45> H -1.3431868162 -2.1007835897 -1.0154242938
| 46> H -2.2697941049 -3.3367137213 -1.8772311049
| 47> *
| 48>
| 49>                          ****END OF INPUT****

CARTESIAN COORDINATES (ANGSTROEM)
---------------------------------
  C      2.002663   -1.557443   -2.649979
  C      2.668362   -0.271030   -2.204391
  O      3.207705   -0.415463   -0.877088
  P      2.522594    0.121318    0.448111
  S      2.152490    2.044603    0.548739
  O      3.602225   -0.262545    1.532821
  C      4.467182   -1.425497    1.498564
  C      3.698762   -2.729421    1.535645
  S      0.838028   -1.131162    0.799071
  C     -0.216555    0.057603    1.692305
  S     -1.967907   -0.264886    1.431854
  P     -2.229504    0.624459   -0.495502
  S     -0.645278    0.920126   -1.606468
  O     -2.918934    2.022123   -0.255879
  C     -3.911769    2.348831    0.747050
  C     -5.094932    1.404932    0.757273
  O     -3.395408   -0.228257   -1.150637
  C     -3.436786   -1.665805   -1.237773
  C     -2.141159   -2.268096   -1.738919
  H      1.675698   -1.443510   -3.678103
  H      2.702109   -2.385516   -2.580551
  H      1.134932   -1.766270   -2.029556
  H      1.963492    0.565211   -2.225273
  H      3.531211   -0.031781   -2.829021
  H      5.086432   -1.360604    0.602307
  H      5.085876   -1.296796    2.388097
  H      3.093096   -2.838545    0.637921
  H      4.405265   -3.551982    1.587867
  H      3.045205   -2.763247    2.403359
  H      0.041723    1.062807    1.347155
  H     -0.044967   -0.048727    2.760674
  H     -3.414804    2.357985    1.720803
  H     -4.208834    3.363575    0.476992
  H     -5.522373    1.325634   -0.238743
  H     -4.788646    0.416545    1.094441
  H     -5.844802    1.792545    1.440174
  H     -3.684725   -2.055625   -0.246729
  H     -4.259253   -1.856737   -1.929193
  H     -1.852564   -1.813274   -2.683854
  H     -1.343187   -2.100784   -1.015424
  H     -2.269794   -3.336714   -1.877231

 Total Charge           Charge          ....    0
 Multiplicity           Mult            ....    1
 Number of Electrons    NEL             ....  202
 Basis Dimension        Dim             ....  334

ORBITAL ENERGIES
----------------

  NO   OCC          E(Eh)            E(eV)
   0   2.0000     -88.050577     -2395.9780
   1   2.0000     -88.037220     -2395.6145
   2   2.0000     -87.976641     -2393.9661
   3   2.0000     -87.974686     -2393.9129
   4   2.0000     -76.424947     -2079.6285
   5   2.0000     -76.420414     -2079.5052
   6   2.0000     -18.791773      -511.3501
   7   2.0000     -18.791358      -511.3389
   8   2.0000     -18.786715      -511.2125
   9   2.0000     -18.782134      -511.0879
  10   2.0000      -9.958567      -270.9864
  11   2.0000      -9.956016      -270.9170
  12   2.0000      -9.953251      -270.8417
  13   2.0000      -9.952059      -270.8093
  14   2.0000      -9.948550      -270.7138
  15   2.0000      -9.890699      -269.1396
  16   2.0000      -9.887834      -269.0616
  17   2.0000      -9.882944      -268.9286
  18   2.0000      -9.880273      -268.8559
  19   2.0000      -7.694984      -209.3912
  20   2.0000      -7.681586      -209.0266
  21   2.0000      -7.621672      -207.3962
  22   2.0000      -7.619875      -207.3473
  23   2.0000      -6.421745      -174.7446
  24   2.0000      -6.417711      -174.6348
  25   2.0000      -5.722673      -155.7219
  26   2.0000      -5.719268      -155.6292
  27   2.0000      -5.712490      -155.4448
  28   2.0000      -5.709436      -155.3616
  29   2.0000      -5.706263      -155.2753
  30   2.0000      -5.698531      -155.0649
  31   2.0000      -5.650860      -153.7677
  32   2.0000      -5.648912      -153.7147
  33   2.0000      -5.642195      -153.5319
  34   2.0000      -5.641625      -153.5164
  35   2.0000      -5.640535      -153.4868
  36   2.0000      -5.639835      -153.4677
  37   2.0000      -4.644438      -126.3816
  38   2.0000      -4.643995      -126.3695
  39   2.0000      -4.641762      -126.3088
  40   2.0000      -4.640748      -126.2812
  41   2.0000      -4.639330      -126.2426
  42   2.0000      -4.637902      -126.2037
  43   2.0000      -0.984829       -26.7985
  44   2.0000      -0.983807       -26.7708
  45   2.0000      -0.943035       -25.6613
  46   2.0000      -0.938377       -25.5345
  47   2.0000      -0.761034       -20.7088
  48   2.0000      -0.719527       -19.5793
  49   2.0000      -0.711552       -19.3623
  50   2.0000      -0.691813       -18.8252
  51   2.0000      -0.688394       -18.7322
  52   2.0000      -0.677477       -18.4351
  53   2.0000      -0.649165       -17.6647
  54   2.0000      -0.629475       -17.1289
  55   2.0000      -0.593416       -16.1477
  56   2.0000      -0.587886       -15.9972
  57   2.0000      -0.579293       -15.7634
  58   2.0000      -0.574091       -15.6218
  59   2.0000      -0.562010       -15.2931
  60   2.0000      -0.498046       -13.5525
  61   2.0000      -0.492340       -13.3973
  62   2.0000      -0.470657       -12.8072
  63   2.0000      -0.470151       -12.7935
  64   2.0000      -0.453784       -12.3481
  65   2.0000      -0.448975       -12.2172
  66   2.0000      -0.439895       -11.9701
  67   2.0000      -0.437653       -11.9092
  68   2.0000      -0.430585       -11.7168
  69   2.0000      -0.422476       -11.4962
  70   2.0000      -0.413706       -11.2575
  71   2.0000      -0.401355       -10.9214
  72   2.0000      -0.392090       -10.6693
  73   2.0000      -0.391336       -10.6488
  74   2.0000      -0.385631       -10.4936
  75   2.0000      -0.366738        -9.9795
  76   2.0000      -0.359437        -9.7808
  77   2.0000      -0.355283        -9.6677
  78   2.0000      -0.353861        -9.6291
  79   2.0000      -0.349271        -9.5042
  80   2.0000      -0.347900        -9.4668
  81   2.0000      -0.345603        -9.4043
  82   2.0000      -0.341019        -9.2796
  83   2.0000      -0.339251        -9.2315
  84   2.0000      -0.330882        -9.0038
  85   2.0000      -0.317597        -8.6423
  86   2.0000      -0.313386        -8.5277
  87   2.0000      -0.296627        -8.0716
  88   2.0000      -0.291571        -7.9341
  89   2.0000      -0.288157        -7.8412
  90   2.0000      -0.285276        -7.7627
  91   2.0000      -0.274348        -7.4654
  92   2.0000      -0.271918        -7.3993
  93   2.0000      -0.262647        -7.1470
  94   2.0000      -0.254684        -6.9303
  95   2.0000      -0.238848        -6.4994
  96   2.0000      -0.221062        -6.0154
  97   2.0000      -0.201565        -5.4849
  98   2.0000      -0.195142        -5.3101
  99   2.0000      -0.186776        -5.0824
 100   2.0000      -0.178541        -4.8583
 101   0.0000      -0.044471        -1.2101
 102   0.0000      -0.031265        -0.8508
 103   0.0000      -0.016282        -0.4431
 104   0.0000       0.004454         0.1212
 105   0.0000       0.017517         0.4767

MULLIKEN ATOMIC CHARGES
-----------------------
   0 C :   -0.315392
   1 C :   -0.012501
   2 O :   -0.385817
   3 P :    0.619722
   4 S :   -0.298081
   5 O :   -0.365094
   6 C :    0.006989
   7 C :   -0.321223
   8 S :   -0.128842
   9 C :   -0.322967
  10 S :   -0.140119
  11 P :    0.592649
  12 S :   -0.305311
  13 O :   -0.355050
  14 C :    0.001786
  15 C :   -0.314693
  16 O :   -0.372785
  17 C :    0.005919
  18 C :   -0.348467
  19 H :    0.112291
  20 H :    0.107935
  21 H :    0.146117
  22 H :    0.133186
  23 H :    0.105416
  24 H :    0.109282
  25 H :    0.108764
  26 H :    0.124694
  27 H :    0.112651
  28 H :    0.122837
  29 H :    0.205995
  30 H :    0.180265
  31 H :    0.109152
  32 H :    0.113270
  33 H :    0.127091
  34 H :    0.117509
  35 H :    0.115289
  36 H :    0.106110
  37 H :    0.108398
  38 H :    0.129692
  39 H :    0.153395
  40 H :    0.109941
Sum of atomic charges:    0.0000000

LOEWDIN ATOMIC CHARGES
----------------------
   0 C :   -0.364576
   1 C :   -0.113195
   2 O :   -0.242489
   3 P :    0.567364
   4 S :   -0.295711
   5 O :   -0.244175
   6 C :   -0.108786
   7 C :   -0.369357
   8 S :    0.067554
   9 C :   -0.480312
  10 S :    0.066536
  11 P :    0.564973
  12 S :   -0.292618
  13 O :   -0.235304
  14 C :   -0.112585
  15 C :   -0.367150
  16 O :   -0.242168
  17 C :   -0.112745
  18 C :   -0.376371
  19 H :    0.132033
  20 H :    0.120919
  21 H :    0.123785
  22 H :    0.110905
  23 H :    0.118837
  24 H :    0.114300
  25 H :    0.121695
  26 H :    0.116344
  27 H :    0.130628
  28 H :    0.126358
  29 H :    0.123853
  30 H :    0.134432
  31 H :    0.110502
  32 H :    0.124245
  33 H :    0.130382
  34 H :    0.115750
  35 H :    0.132020
  36 H :    0.107322
  37 H :    0.121116
  38 H :    0.129556
  39 H :    0.116653
  40 H :    0.129481

  Mayer bond orders larger than 0.100000
B(  0-C ,  1-C ) :   1.1709 B(  0-C , 19-H ) :   0.9397 B(  0-C , 20-H ) :   0.9446
B(  0-C , 21-H ) :   0.9307 B(  1-C ,  2-O ) :   0.8957 B(  1-C , 22-H ) :   0.9035
B(  1-C , 23-H ) :   0.9342 B(  2-O ,  3-P ) :   1.0906 B(  3-P ,  4-S ) :   1.6625
B(  3-P ,  5-O ) :   1.1258 B(  3-P ,  8-S ) :   0.9372 B(  4-S ,  8-S ) :   0.1198
B(  4-S , 29-H ) :   0.1178 B(  5-O ,  6-C ) :   0.9068 B(  6-C ,  7-C ) :   1.1686
B(  6-C , 24-H ) :   0.9277 B(  6-C , 25-H ) :   0.9350 B(  7-C , 26-H ) :   0.9374
B(  7-C , 27-H ) :   0.9358 B(  7-C , 28-H ) :   0.9425 B(  8-S ,  9-C ) :   0.9887
B(  9-C , 10-S ) :   1.0006 B(  9-C , 29-H ) :   0.8437 B(  9-C , 30-H ) :   0.9091
B( 10-S , 11-P ) :   0.9177 B( 10-S , 12-S ) :   0.1152 B( 11-P , 12-S ) :   1.6708
B( 11-P , 13-O ) :   1.1404 B( 11-P , 16-O ) :   1.0950 B( 13-O , 14-C ) :   0.9068
B( 14-C , 15-C ) :   1.1668 B( 14-C , 31-H ) :   0.9245 B( 14-C , 32-H ) :   0.9346
B( 15-C , 33-H ) :   0.9423 B( 15-C , 34-H ) :   0.9402 B( 15-C , 35-H ) :   0.9354
B( 16-O , 17-C ) :   0.9114 B( 17-C , 18-C ) :   1.1672 B( 17-C , 36-H ) :   0.9265
B( 17-C , 37-H ) :   0.9333 B( 18-C , 38-H ) :   0.9391 B( 18-C , 39-H ) :   0.9199
B( 18-C , 40-H ) :   0.9329

Dispersion correction           -0.066576464
FINAL SINGLE POINT ENERGY     -2929.506091521684

DIPOLE MOMENT
-------------

Method             : SCF
Type of density    : Electron Density
Multiplicity       :   1
Irrep              :   0
Energy             : -2929.6249333559826482 Eh
Relativity type    :
Basis              : AO
                                X                 Y                 Z
Electronic contribution:      4.619058898      15.665424914       4.890498038
Nuclear contribution   :     -5.396234558     -17.362620915      -4.575281284
                        -----------------------------------------
Total Dipole Moment    :     -0.777175660      -1.697196001       0.315216754
                        -----------------------------------------
Magnitude (a.u.)       :      1.893102712
Magnitude (Debye)      :      4.811884686

Rotational constants in cm-1:             0.013380             0.004808             0.004585
Rotational constants in MHz :           401.125194           144.126869           137.464102

                             ****ORCA TERMINATED NORMALLY****
TOTAL RUN TIME: 0 days 0 hours 0 minutes 21 seconds 405 msec
