                         Program Version 6.0.0  -   RELEASE  -
|  1> ! pbe def2-sv(p) def2/J RI DEFGRID1 loosescf d4 GCP(DFT/SV(P)) printgap
|  2> %output
|  3>     printlevel normal
|  4> end
|  5> * xyz 0 1
|  6> C 1.9824995996 1.9774939665 -2.2803064512
|  7> C 2.1032242148 0.5289516003 -1.8562553377
|  8> O 1.353658268 0.3058636281 -0.6402713592
|  9> P 2.0963924078 0.1857800648 0.7521669508
| 10> S 3.4575824003 1.5286388364 1.1680492621
| 11> O 2.6264954986 -1.3225315188 0.6834558285
| 12> C 3.6471180626 -1.8182353882 1.5732463137
| 13> C 4.9950490375 -1.8197302065 0.8794844607
| 14> S 0.4599876665 0.1347038936 2.0544830853
| 15> C -0.4681103296 -1.3051899805 1.3859312157
| 16> S -2.1965054855 -0.9041978437 1.0998991425
| 17> P -1.9784211101 -0.083021659 -0.858814432
| 18> S -0.9573684731 -1.2272407668 -2.0781196392
| 19> O -1.3107905398 1.3448662888 -0.7701816154
| 20> C -1.9538272778 2.5686489226 -0.3397729075
| 21> C -2.407217226 2.5272408471 1.1047472726
| 22> O -3.4681905218 0.2851227577 -1.264492091
| 23> C -4.6053829568 -0.5856621886 -1.1140632972
| 24> C -4.4284462066 -1.9126539533 -1.8210594469
| 25> H 0.9334052794 2.236202704 -2.3994745093
| 26> H 2.4258302545 2.6259629027 -1.5270872231
| 27> H 2.4988856359 2.1187177457 -3.224260541
| 28> H 3.1470153487 0.2489663444 -1.6903668729
| 29> H 1.6531745186 -0.1445722589 -2.5888476978
| 30> H 3.6752163378 -1.1965230691 2.472716014
| 31> H 3.3301913463 -2.8299598693 1.8319659728
| 32> H 4.9393446994 -2.3901008922 -0.0436826649
| 33> H 5.2970106243 -0.7999646255 0.6492915255
| 34> H 5.7343063131 -2.2669878198 1.5359261493
| 35> H -0.447597178 -2.0901723454 2.1367213763
| 36> H -0.0090196955 -1.6242209008 0.4490694347
| 37> H -1.1772672464 3.3214556571 -0.4887775134
| 38> H -2.7935902799 2.7631695363 -1.0093976797
| 39> H -3.2149488067 1.8104292219 1.2350730007
| 40> H -1.5812196185 2.251015959 1.7572974159
| 41> H -2.7634803311 3.5133468344 1.3866208191
| 42> H -4.7790520895 -0.7386707367 -0.0454836523
| 43> H -5.4257448285 -0.0098329961 -1.5462739903
| 44> H -3.6183377182 -2.4780693555 -1.3634004346
| 45> H -5.3469375194 -2.4854929359 -1.7448320344
| 46> H -4.1874256019 -1.7558854321 -2.8698143385
| 47> *
| 48>
| 49>                          ****END OF INPUT****

CARTESIAN COORDINATES (ANGSTROEM)
---------------------------------
  C      1.982500    1.977494   -2.280306
  C      2.103224    0.528952   -1.856255
  O      1.353658    0.305864   -0.640271
  P      2.096392    0.185780    0.752167
  S      3.457582    1.528639    1.168049
  O      2.626495   -1.322532    0.683456
  C      3.647118   -1.818235    1.573246
  C      4.995049   -1.819730    0.879484
  S      0.459988    0.134704    2.054483
  C     -0.468110   -1.305190    1.385931
  S     -2.196505   -0.904198    1.099899
  P     -1.978421   -0.083022   -0.858814
  S     -0.957368   -1.227241   -2.078120
  O     -1.310791    1.344866   -0.770182
  C     -1.953827    2.568649   -0.339773
  C     -2.407217    2.527241    1.104747
  O     -3.468191    0.285123   -1.264492
  C     -4.605383   -0.585662   -1.114063
  C     -4.428446   -1.912654   -1.821059
  H      0.933405    2.236203   -2.399475
  H      2.425830    2.625963   -1.527087
  H      2.498886    2.118718   -3.224261
  H      3.147015    0.248966   -1.690367
  H      1.653175   -0.144572   -2.588848
  H      3.675216   -1.196523    2.472716
  H      3.330191   -2.829960    1.831966
  H      4.939345   -2.390101   -0.043683
  H      5.297011   -0.799965    0.649292
  H      5.734306   -2.266988    1.535926
  H     -0.447597   -2.090172    2.136721
  H     -0.009020   -1.624221    0.449069
  H     -1.177267    3.321456   -0.488778
  H     -2.793590    2.763170   -1.009398
  H     -3.214949    1.810429    1.235073
  H     -1.581220    2.251016    1.757297
  H     -2.763480    3.513347    1.386621
  H     -4.779052   -0.738671   -0.045484
  H     -5.425745   -0.009833   -1.546274
  H     -3.618338   -2.478069   -1.363400
  H     -5.346938   -2.485493   -1.744832
  H     -4.187426   -1.755885   -2.869814

 Total Charge           Charge          ....    0
 Multiplicity           Mult            ....    1
 Number of Electrons    NEL             ....  202
 Basis Dimension        Dim             ....  334

ORBITAL ENERGIES
----------------

  NO   OCC          E(Eh)            E(eV)
   0   2.0000     -88.049458     -2395.9476
   1   2.0000     -88.040565     -2395.7056
   2   2.0000     -87.983315     -2394.1477
   3   2.0000     -87.982598     -2394.1282
   4   2.0000     -76.430063     -2079.7677
   5   2.0000     -76.420571     -2079.5095
   6   2.0000     -18.802848      -511.6515
   7   2.0000     -18.789386      -511.2852
   8   2.0000     -18.787640      -511.2377
   9   2.0000     -18.778676      -510.9937
  10   2.0000      -9.965671      -271.1797
  11   2.0000      -9.959401      -271.0091
  12   2.0000      -9.954454      -270.8745
  13   2.0000      -9.950739      -270.7734
  14   2.0000      -9.939694      -270.4728
  15   2.0000      -9.887272      -269.0464
  16   2.0000      -9.883979      -268.9567
  17   2.0000      -9.879684      -268.8399
  18   2.0000      -9.870409      -268.5875
  19   2.0000      -7.694421      -209.3758
  20   2.0000      -7.686035      -209.1476
  21   2.0000      -7.628516      -207.5825
  22   2.0000      -7.627665      -207.5593
  23   2.0000      -6.427059      -174.8892
  24   2.0000      -6.418602      -174.6591
  25   2.0000      -5.722151      -155.7076
  26   2.0000      -5.718919      -155.6197
  27   2.0000      -5.714387      -155.4964
  28   2.0000      -5.711567      -155.4196
  29   2.0000      -5.710147      -155.3810
  30   2.0000      -5.702841      -155.1822
  31   2.0000      -5.657503      -153.9485
  32   2.0000      -5.656800      -153.9294
  33   2.0000      -5.649143      -153.7210
  34   2.0000      -5.648596      -153.7061
  35   2.0000      -5.648245      -153.6966
  36   2.0000      -5.647605      -153.6791
  37   2.0000      -4.650150      -126.5370
  38   2.0000      -4.648987      -126.5054
  39   2.0000      -4.646954      -126.4501
  40   2.0000      -4.641020      -126.2886
  41   2.0000      -4.640519      -126.2749
  42   2.0000      -4.639072      -126.2356
  43   2.0000      -0.992874       -27.0175
  44   2.0000      -0.979026       -26.6407
  45   2.0000      -0.946875       -25.7658
  46   2.0000      -0.936297       -25.4779
  47   2.0000      -0.765015       -20.8171
  48   2.0000      -0.722360       -19.6564
  49   2.0000      -0.708934       -19.2911
  50   2.0000      -0.693958       -18.8836
  51   2.0000      -0.680578       -18.5195
  52   2.0000      -0.672484       -18.2992
  53   2.0000      -0.652054       -17.7433
  54   2.0000      -0.637347       -17.3431
  55   2.0000      -0.593919       -16.1613
  56   2.0000      -0.584850       -15.9146
  57   2.0000      -0.581877       -15.8337
  58   2.0000      -0.569488       -15.4966
  59   2.0000      -0.558779       -15.2051
  60   2.0000      -0.501885       -13.6570
  61   2.0000      -0.499504       -13.5922
  62   2.0000      -0.473574       -12.8866
  63   2.0000      -0.468754       -12.7554
  64   2.0000      -0.460540       -12.5319
  65   2.0000      -0.445205       -12.1146
  66   2.0000      -0.436363       -11.8740
  67   2.0000      -0.433594       -11.7987
  68   2.0000      -0.432158       -11.7596
  69   2.0000      -0.419855       -11.4248
  70   2.0000      -0.412899       -11.2355
  71   2.0000      -0.407760       -11.0957
  72   2.0000      -0.390830       -10.6350
  73   2.0000      -0.389606       -10.6017
  74   2.0000      -0.375795       -10.2259
  75   2.0000      -0.363945        -9.9034
  76   2.0000      -0.357406        -9.7255
  77   2.0000      -0.355349        -9.6695
  78   2.0000      -0.352189        -9.5836
  79   2.0000      -0.347947        -9.4681
  80   2.0000      -0.346313        -9.4236
  81   2.0000      -0.342860        -9.3297
  82   2.0000      -0.340821        -9.2742
  83   2.0000      -0.331815        -9.0291
  84   2.0000      -0.328138        -8.9291
  85   2.0000      -0.322957        -8.7881
  86   2.0000      -0.309210        -8.4140
  87   2.0000      -0.302898        -8.2423
  88   2.0000      -0.294930        -8.0254
  89   2.0000      -0.291597        -7.9348
  90   2.0000      -0.280119        -7.6224
  91   2.0000      -0.279276        -7.5995
  92   2.0000      -0.265365        -7.2210
  93   2.0000      -0.262972        -7.1558
  94   2.0000      -0.260061        -7.0766
  95   2.0000      -0.238159        -6.4806
  96   2.0000      -0.220203        -5.9920
  97   2.0000      -0.206263        -5.6127
  98   2.0000      -0.201813        -5.4916
  99   2.0000      -0.196723        -5.3531
 100   2.0000      -0.192092        -5.2271
 101   0.0000      -0.045006        -1.2247
 102   0.0000      -0.026587        -0.7235
 103   0.0000      -0.017852        -0.4858
 104   0.0000       0.002907         0.0791
 105   0.0000       0.015647         0.4258

MULLIKEN ATOMIC CHARGES
-----------------------
   0 C :   -0.293828
   1 C :   -0.001076
   2 O :   -0.356390
   3 P :    0.597374
   4 S :   -0.327060
   5 O :   -0.385284
   6 C :   -0.005584
   7 C :   -0.292291
   8 S :   -0.076730
   9 C :   -0.350910
  10 S :   -0.119706
  11 P :    0.623244
  12 S :   -0.307919
  13 O :   -0.349804
  14 C :    0.004548
  15 C :   -0.326917
  16 O :   -0.382864
  17 C :   -0.017632
  18 C :   -0.306863
  19 H :    0.120863
  20 H :    0.116834
  21 H :    0.102921
  22 H :    0.096926
  23 H :    0.113430
  24 H :    0.102476
  25 H :    0.101490
  26 H :    0.113078
  27 H :    0.125817
  28 H :    0.107449
  29 H :    0.185414
  30 H :    0.206370
  31 H :    0.112801
  32 H :    0.106953
  33 H :    0.115203
  34 H :    0.139905
  35 H :    0.111613
  36 H :    0.116633
  37 H :    0.111532
  38 H :    0.127889
  39 H :    0.112245
  40 H :    0.127847
Sum of atomic charges:   -0.0000000

LOEWDIN ATOMIC CHARGES
----------------------
   0 C :   -0.360144
   1 C :   -0.116274
   2 O :   -0.233894
   3 P :    0.560075
   4 S :   -0.324945
   5 O :   -0.256597
   6 C :   -0.117785
   7 C :   -0.361562
   8 S :    0.081189
   9 C :   -0.473591
  10 S :    0.074427
  11 P :    0.580685
  12 S :   -0.298673
  13 O :   -0.227139
  14 C :   -0.108723
  15 C :   -0.373151
  16 O :   -0.244244
  17 C :   -0.114617
  18 C :   -0.369210
  19 H :    0.126453
  20 H :    0.122485
  21 H :    0.126563
  22 H :    0.105224
  23 H :    0.113620
  24 H :    0.108613
  25 H :    0.115629
  26 H :    0.124806
  27 H :    0.124782
  28 H :    0.128637
  29 H :    0.136920
  30 H :    0.129980
  31 H :    0.122933
  32 H :    0.112954
  33 H :    0.114177
  34 H :    0.124381
  35 H :    0.130870
  36 H :    0.108134
  37 H :    0.122293
  38 H :    0.122566
  39 H :    0.130739
  40 H :    0.131415

  Mayer bond orders larger than 0.100000
B(  0-C ,  1-C ) :   1.1735 B(  0-C , 19-H ) :   0.9424 B(  0-C , 20-H ) :   0.9392
B(  0-C , 21-H ) :   0.9407 B(  1-C ,  2-O ) :   0.8830 B(  1-C , 22-H ) :   0.9134
B(  1-C , 23-H ) :   0.9158 B(  2-O ,  3-P ) :   1.1411 B(  3-P ,  4-S ) :   1.6241
B(  3-P ,  5-O ) :   1.0589 B(  3-P ,  8-S ) :   0.9997 B(  5-O ,  6-C ) :   0.9074
B(  6-C ,  7-C ) :   1.1681 B(  6-C , 24-H ) :   0.9124 B(  6-C , 25-H ) :   0.9342
B(  7-C , 26-H ) :   0.9473 B(  7-C , 27-H ) :   0.9367 B(  7-C , 28-H ) :   0.9402
B(  8-S ,  9-C ) :   0.9552 B(  9-C , 10-S ) :   1.0189 B(  9-C , 29-H ) :   0.9117
B(  9-C , 30-H ) :   0.8563 B( 10-S , 11-P ) :   0.9274 B( 10-S , 12-S ) :   0.1076
B( 11-P , 12-S ) :   1.6406 B( 11-P , 13-O ) :   1.1405 B( 11-P , 16-O ) :   1.0810
B( 13-O , 14-C ) :   0.8973 B( 14-C , 15-C ) :   1.1723 B( 14-C , 31-H ) :   0.9308
B( 14-C , 32-H ) :   0.9290 B( 15-C , 33-H ) :   0.9410 B( 15-C , 34-H ) :   0.9323
B( 15-C , 35-H ) :   0.9349 B( 16-O , 17-C ) :   0.9101 B( 17-C , 18-C ) :   1.1678
B( 17-C , 36-H ) :   0.9250 B( 17-C , 37-H ) :   0.9332 B( 18-C , 38-H ) :   0.9314
B( 18-C , 39-H ) :   0.9345 B( 18-C , 40-H ) :   0.9430

Dispersion correction           -0.066474778
FINAL SINGLE POINT ENERGY     -2929.513916474021

DIPOLE MOMENT
-------------

Method             : SCF
Type of density    : Electron Density
Multiplicity       :   1
Irrep              :   0
Energy             : -2929.6343822931007708 Eh
Relativity type    :
Basis              : AO
                                X                 Y                 Z
Electronic contribution:      0.476352697      -0.430925683       6.768262425
Nuclear contribution   :     -1.743845165       0.004759144      -6.648010708
                        -----------------------------------------
Total Dipole Moment    :     -1.267492468      -0.426166539       0.120251717
                        -----------------------------------------
Magnitude (a.u.)       :      1.342615191
Magnitude (Debye)      :      3.412656608

Rotational constants in cm-1:             0.013180             0.004976             0.004894
Rotational constants in MHz :           395.117167           149.174862           146.726330

                             ****ORCA TERMINATED NORMALLY****
TOTAL RUN TIME: 0 days 0 hours 0 minutes 21 seconds 578 msec
