                         Program Version 6.0.0  -   RELEASE  -
|  1> ! pbe def2-sv(p) def2/J RI DEFGRID1 loosescf d4 GCP(DFT/SV(P)) printgap
|  2> %output
|  3>     printlevel normal
|  4> end
|  5> * xyz 0 1
|  6> C 4.0492513806 1.5987788894 1.0139171187
|  7> C 2.5588327649 1.7715110299 1.2047746903
|  8> O 1.8818984398 0.5330902887 1.5388594339
|  9> P 1.9582077446 -0.8307509627 0.7541797351
| 10> S 0.4973351558 -2.0268213126 1.2757971011
| 11> O 3.4115526559 -1.3643109278 1.1046449565
| 12> C 3.7898195478 -2.7443643216 0.9707129985
| 13> C 3.8189468925 -3.1963755 -0.47517687
| 14> S 2.0500392808 -0.3381317093 -1.3235559356
| 15> C 0.2761531826 -0.2110195439 -1.5710572225
| 16> S -0.3932867828 1.2743527212 -0.7374198832
| 17> P -2.3992261925 0.5852914982 -0.6293791083
| 18> S -3.013978503 -0.4367834985 -2.1750901237
| 19> O -3.2274871127 1.8909122783 -0.2584791782
| 20> C -3.7636655979 2.779218083 -1.2584671811
| 21> C -2.6770119393 3.5056111997 -2.0235687653
| 22> O -2.491884963 -0.2550831992 0.7005212194
| 23> C -2.2139533272 0.2894119877 2.014625175
| 24> C -2.5854607381 -0.7696586779 3.0297835052
| 25> H 4.4996383795 2.5750567914 0.8632638332
| 26> H 4.4901429703 1.1294452332 1.889336682
| 27> H 4.2496680248 0.9787498735 0.1424660809
| 28> H 2.088707919 2.1777257328 0.3041130583
| 29> H 2.3321690455 2.4126965378 2.057662351
| 30> H 4.7806929701 -2.7864230989 1.4250279271
| 31> H 3.0893907025 -3.3541239926 1.5504005053
| 32> H 4.4230154024 -2.5185574575 -1.0727162202
| 33> H 4.2376677625 -4.1961986775 -0.5293001159
| 34> H 2.8087194613 -3.2173968584 -0.8813487824
| 35> H -0.215656538 -1.0930355386 -1.1531095651
| 36> H 0.0967594711 -0.1342382332 -2.6410128104
| 37> H -4.3890346358 2.1930071325 -1.9383744367
| 38> H -4.3832291594 3.4686656756 -0.6831621367
| 39> H -3.1316941966 4.255033241 -2.6633741061
| 40> H -1.9862088959 3.987482929 -1.3361192396
| 41> H -2.1240612605 2.8021499532 -2.6440091831
| 42> H -1.147231124 0.5293523247 2.0660173367
| 43> H -2.8010805763 1.2005553341 2.1425734895
| 44> H -1.9820058757 -1.6598209979 2.8678691388
| 45> H -2.4007832757 -0.3873776778 4.0283144804
| 46> H -3.6340563711 -1.0337841713 2.9276768238
| 47> *
| 48>
| 49>                          ****END OF INPUT****

CARTESIAN COORDINATES (ANGSTROEM)
---------------------------------
  C      4.049251    1.598779    1.013917
  C      2.558833    1.771511    1.204775
  O      1.881898    0.533090    1.538859
  P      1.958208   -0.830751    0.754180
  S      0.497335   -2.026821    1.275797
  O      3.411553   -1.364311    1.104645
  C      3.789820   -2.744364    0.970713
  C      3.818947   -3.196375   -0.475177
  S      2.050039   -0.338132   -1.323556
  C      0.276153   -0.211020   -1.571057
  S     -0.393287    1.274353   -0.737420
  P     -2.399226    0.585291   -0.629379
  S     -3.013979   -0.436783   -2.175090
  O     -3.227487    1.890912   -0.258479
  C     -3.763666    2.779218   -1.258467
  C     -2.677012    3.505611   -2.023569
  O     -2.491885   -0.255083    0.700521
  C     -2.213953    0.289412    2.014625
  C     -2.585461   -0.769659    3.029784
  H      4.499638    2.575057    0.863264
  H      4.490143    1.129445    1.889337
  H      4.249668    0.978750    0.142466
  H      2.088708    2.177726    0.304113
  H      2.332169    2.412697    2.057662
  H      4.780693   -2.786423    1.425028
  H      3.089391   -3.354124    1.550401
  H      4.423015   -2.518557   -1.072716
  H      4.237668   -4.196199   -0.529300
  H      2.808719   -3.217397   -0.881349
  H     -0.215657   -1.093036   -1.153110
  H      0.096759   -0.134238   -2.641013
  H     -4.389035    2.193007   -1.938374
  H     -4.383229    3.468666   -0.683162
  H     -3.131694    4.255033   -2.663374
  H     -1.986209    3.987483   -1.336119
  H     -2.124061    2.802150   -2.644009
  H     -1.147231    0.529352    2.066017
  H     -2.801081    1.200555    2.142573
  H     -1.982006   -1.659821    2.867869
  H     -2.400783   -0.387378    4.028314
  H     -3.634056   -1.033784    2.927677

 Total Charge           Charge          ....    0
 Multiplicity           Mult            ....    1
 Number of Electrons    NEL             ....  202
 Basis Dimension        Dim             ....  334

ORBITAL ENERGIES
----------------

  NO   OCC          E(Eh)            E(eV)
   0   2.0000     -88.052172     -2396.0214
   1   2.0000     -88.038630     -2395.6529
   2   2.0000     -87.988114     -2394.2783
   3   2.0000     -87.981184     -2394.0897
   4   2.0000     -76.431205     -2079.7988
   5   2.0000     -76.421506     -2079.5349
   6   2.0000     -18.798192      -511.5248
   7   2.0000     -18.794689      -511.4295
   8   2.0000     -18.792011      -511.3566
   9   2.0000     -18.782520      -511.0984
  10   2.0000      -9.959552      -271.0132
  11   2.0000      -9.956962      -270.9427
  12   2.0000      -9.953891      -270.8591
  13   2.0000      -9.953351      -270.8444
  14   2.0000      -9.941439      -270.5203
  15   2.0000      -9.891697      -269.1668
  16   2.0000      -9.887614      -269.0557
  17   2.0000      -9.884623      -268.9743
  18   2.0000      -9.874264      -268.6924
  19   2.0000      -7.696779      -209.4400
  20   2.0000      -7.683322      -209.0738
  21   2.0000      -7.632912      -207.7021
  22   2.0000      -7.626555      -207.5291
  23   2.0000      -6.428418      -174.9261
  24   2.0000      -6.419008      -174.6701
  25   2.0000      -5.724499      -155.7715
  26   2.0000      -5.721292      -155.6843
  27   2.0000      -5.713991      -155.4856
  28   2.0000      -5.711125      -155.4076
  29   2.0000      -5.708026      -155.3233
  30   2.0000      -5.700239      -155.1114
  31   2.0000      -5.661846      -154.0667
  32   2.0000      -5.655550      -153.8953
  33   2.0000      -5.653505      -153.8397
  34   2.0000      -5.653066      -153.8277
  35   2.0000      -5.647178      -153.6675
  36   2.0000      -5.646612      -153.6521
  37   2.0000      -4.651186      -126.5652
  38   2.0000      -4.650268      -126.5402
  39   2.0000      -4.648660      -126.4965
  40   2.0000      -4.641877      -126.3119
  41   2.0000      -4.640727      -126.2806
  42   2.0000      -4.639274      -126.2411
  43   2.0000      -0.991649       -26.9841
  44   2.0000      -0.983376       -26.7590
  45   2.0000      -0.950253       -25.8577
  46   2.0000      -0.938982       -25.5510
  47   2.0000      -0.765107       -20.8196
  48   2.0000      -0.722077       -19.6487
  49   2.0000      -0.710849       -19.3432
  50   2.0000      -0.694737       -18.9048
  51   2.0000      -0.686606       -18.6835
  52   2.0000      -0.676643       -18.4124
  53   2.0000      -0.651295       -17.7227
  54   2.0000      -0.633645       -17.2424
  55   2.0000      -0.602336       -16.3904
  56   2.0000      -0.591431       -16.0937
  57   2.0000      -0.580730       -15.8025
  58   2.0000      -0.560625       -15.2554
  59   2.0000      -0.560182       -15.2433
  60   2.0000      -0.501146       -13.6369
  61   2.0000      -0.495597       -13.4859
  62   2.0000      -0.476176       -12.9574
  63   2.0000      -0.471278       -12.8241
  64   2.0000      -0.453328       -12.3357
  65   2.0000      -0.449620       -12.2348
  66   2.0000      -0.446634       -12.1535
  67   2.0000      -0.437403       -11.9023
  68   2.0000      -0.432773       -11.7764
  69   2.0000      -0.419892       -11.4258
  70   2.0000      -0.412528       -11.2255
  71   2.0000      -0.402805       -10.9609
  72   2.0000      -0.390960       -10.6385
  73   2.0000      -0.385971       -10.5028
  74   2.0000      -0.381763       -10.3883
  75   2.0000      -0.369751       -10.0614
  76   2.0000      -0.362919        -9.8755
  77   2.0000      -0.358037        -9.7427
  78   2.0000      -0.356795        -9.7089
  79   2.0000      -0.353674        -9.6240
  80   2.0000      -0.350284        -9.5317
  81   2.0000      -0.346288        -9.4230
  82   2.0000      -0.339512        -9.2386
  83   2.0000      -0.336165        -9.1475
  84   2.0000      -0.327583        -8.9140
  85   2.0000      -0.318093        -8.6558
  86   2.0000      -0.311823        -8.4851
  87   2.0000      -0.297463        -8.0944
  88   2.0000      -0.295922        -8.0525
  89   2.0000      -0.295040        -8.0284
  90   2.0000      -0.291671        -7.9368
  91   2.0000      -0.279003        -7.5921
  92   2.0000      -0.266391        -7.2489
  93   2.0000      -0.261072        -7.1041
  94   2.0000      -0.258889        -7.0447
  95   2.0000      -0.235531        -6.4091
  96   2.0000      -0.220739        -6.0066
  97   2.0000      -0.206835        -5.6283
  98   2.0000      -0.205577        -5.5940
  99   2.0000      -0.202159        -5.5010
 100   2.0000      -0.194853        -5.3022
 101   0.0000      -0.045502        -1.2382
 102   0.0000      -0.033550        -0.9129
 103   0.0000      -0.010511        -0.2860
 104   0.0000       0.009288         0.2527
 105   0.0000       0.014651         0.3987

MULLIKEN ATOMIC CHARGES
-----------------------
   0 C :   -0.307420
   1 C :   -0.004404
   2 O :   -0.353470
   3 P :    0.601191
   4 S :   -0.305300
   5 O :   -0.372264
   6 C :   -0.002554
   7 C :   -0.319974
   8 S :   -0.109408
   9 C :   -0.339520
  10 S :   -0.127679
  11 P :    0.613914
  12 S :   -0.320158
  13 O :   -0.385964
  14 C :    0.000780
  15 C :   -0.317853
  16 O :   -0.354495
  17 C :   -0.015736
  18 C :   -0.283055
  19 H :    0.115263
  20 H :    0.123283
  21 H :    0.119453
  22 H :    0.116120
  23 H :    0.109696
  24 H :    0.106048
  25 H :    0.115598
  26 H :    0.116244
  27 H :    0.116556
  28 H :    0.132078
  29 H :    0.208185
  30 H :    0.187564
  31 H :    0.113404
  32 H :    0.104677
  33 H :    0.113523
  34 H :    0.115281
  35 H :    0.129002
  36 H :    0.112536
  37 H :    0.100604
  38 H :    0.131095
  39 H :    0.104294
  40 H :    0.112866
Sum of atomic charges:    0.0000000

LOEWDIN ATOMIC CHARGES
----------------------
   0 C :   -0.366799
   1 C :   -0.115049
   2 O :   -0.234046
   3 P :    0.575583
   4 S :   -0.294852
   5 O :   -0.240609
   6 C :   -0.117362
   7 C :   -0.370709
   8 S :    0.083686
   9 C :   -0.479022
  10 S :    0.059168
  11 P :    0.572190
  12 S :   -0.316255
  13 O :   -0.247978
  14 C :   -0.115125
  15 C :   -0.371118
  16 O :   -0.232044
  17 C :   -0.120506
  18 C :   -0.350969
  19 H :    0.132501
  20 H :    0.129141
  21 H :    0.117225
  22 H :    0.102904
  23 H :    0.122969
  24 H :    0.119329
  25 H :    0.113780
  26 H :    0.123116
  27 H :    0.132971
  28 H :    0.123274
  29 H :    0.125489
  30 H :    0.135282
  31 H :    0.113663
  32 H :    0.118480
  33 H :    0.131238
  34 H :    0.122705
  35 H :    0.122000
  36 H :    0.107572
  37 H :    0.107793
  38 H :    0.126975
  39 H :    0.127997
  40 H :    0.125412

  Mayer bond orders larger than 0.100000
B(  0-C ,  1-C ) :   1.1712 B(  0-C , 19-H ) :   0.9355 B(  0-C , 20-H ) :   0.9424
B(  0-C , 21-H ) :   0.9377 B(  1-C ,  2-O ) :   0.8959 B(  1-C , 22-H ) :   0.9115
B(  1-C , 23-H ) :   0.9341 B(  2-O ,  3-P ) :   1.1410 B(  3-P ,  4-S ) :   1.6242
B(  3-P ,  5-O ) :   1.0990 B(  3-P ,  8-S ) :   0.9286 B(  4-S ,  8-S ) :   0.1069
B(  5-O ,  6-C ) :   0.9032 B(  6-C ,  7-C ) :   1.1656 B(  6-C , 24-H ) :   0.9337
B(  6-C , 25-H ) :   0.9163 B(  7-C , 26-H ) :   0.9449 B(  7-C , 27-H ) :   0.9375
B(  7-C , 28-H ) :   0.9347 B(  8-S ,  9-C ) :   1.0085 B(  9-C , 10-S ) :   0.9723
B(  9-C , 29-H ) :   0.8590 B(  9-C , 30-H ) :   0.9012 B( 10-S , 11-P ) :   0.9493
B( 10-S , 12-S ) :   0.1089 B( 11-P , 12-S ) :   1.6309 B( 11-P , 13-O ) :   1.0876
B( 11-P , 16-O ) :   1.1521 B( 13-O , 14-C ) :   0.9071 B( 14-C , 15-C ) :   1.1661
B( 14-C , 31-H ) :   0.9186 B( 14-C , 32-H ) :   0.9346 B( 15-C , 33-H ) :   0.9371
B( 15-C , 34-H ) :   0.9442 B( 15-C , 35-H ) :   0.9346 B( 16-O , 17-C ) :   0.8862
B( 17-C , 18-C ) :   1.1701 B( 17-C , 36-H ) :   0.9100 B( 17-C , 37-H ) :   0.9236
B( 18-C , 38-H ) :   0.9431 B( 18-C , 39-H ) :   0.9410 B( 18-C , 40-H ) :   0.9501

Dispersion correction           -0.065460410
FINAL SINGLE POINT ENERGY     -2929.519233756555

DIPOLE MOMENT
-------------

Method             : SCF
Type of density    : Electron Density
Multiplicity       :   1
Irrep              :   0
Energy             : -2929.6392749680112502 Eh
Relativity type    :
Basis              : AO
                                X                 Y                 Z
Electronic contribution:     -7.405113566      -5.853891520      -5.867854084
Nuclear contribution   :      8.763800437       7.151276770       6.326453007
                        -----------------------------------------
Total Dipole Moment    :      1.358686871       1.297385251       0.458598923
                        -----------------------------------------
Magnitude (a.u.)       :      1.933791994
Magnitude (Debye)      :      4.915308622

Rotational constants in cm-1:             0.012457             0.004835             0.004605
Rotational constants in MHz :           373.449828           144.964025           138.067011

                             ****ORCA TERMINATED NORMALLY****
TOTAL RUN TIME: 0 days 0 hours 0 minutes 21 seconds 342 msec
