                         Program Version 6.0.1  -  RELEASE   -
|  1> ! pbe def2-sv(p) def2/J RI DEFGRID1 loosescf d4 GCP(DFT/SV(P)) printgap
|  2> %output
|  3>     printlevel normal
|  4> end
|  5> * xyz 0 1
|  6> C 2.8918004671 -4.5257441807 -1.1724116999
|  7> C 3.8969690102 -3.4002970517 -1.3589617404
|  8> O 3.5558043677 -2.2744145133 -0.5277127918
|  9> C 2.7144310804 -1.3777350793 -0.9990927555
| 10> O 2.2301892437 -1.3976971474 -2.1086699244
| 11> C 2.4418653507 -0.2897086247 0.0245020122
| 12> C 1.0015964161 0.1832919356 -0.1056004166
| 13> H 0.7781471706 0.3683286241 -1.1646094139
| 14> C 0.6908658336 1.4492080553 0.6621043558
| 15> O -0.3484508818 1.5741316729 1.2842979017
| 16> O 1.617649596 2.3537371585 0.5592088494
| 17> C 1.3729790628 3.6575415254 1.1379550577
| 18> C 0.6030097778 4.5317448432 0.162496437
| 19> S -0.1607727331 -1.1081238173 0.4832331615
| 20> P -1.959581164 -0.0344340592 0.2368385464
| 21> S -2.1473091088 1.4243298041 -1.0734336664
| 22> O -2.7261826497 -1.3612898848 -0.2454537072
| 23> C -4.1107483211 -1.3288574968 -0.6045068204
| 24> O -2.7199314853 0.176740207 1.625375654
| 25> C -2.8959135798 1.4129422899 2.3179925383
| 26> H 3.1929920319 -5.3811943635 -1.7678884632
| 27> H 2.8424991356 -4.8137320643 -0.1261101356
| 28> H 1.9043699718 -4.2002004646 -1.4928532361
| 29> H 3.9214542907 -3.0711089513 -2.4015924178
| 30> H 4.8925037232 -3.6953917877 -1.0274831166
| 31> H 3.1088996087 0.5506678935 -0.1801939174
| 32> H 2.6438804753 -0.680625183 1.0204670142
| 33> H 0.8178616455 3.5277979627 2.06995839
| 34> H 2.3684136929 4.0549307475 1.33350694
| 35> H 0.4352829142 5.5067232037 0.6073619773
| 36> H 1.1627617057 4.6496459088 -0.7609958816
| 37> H -0.3596711295 4.0802199066 -0.071972328
| 38> H -4.7266073878 -1.235844998 0.2894062594
| 39> H -4.3055590651 -2.2719632767 -1.1087450827
| 40> H -4.3038075224 -0.4905483996 -1.2775210025
| 41> H -2.8829775047 2.2441176014 1.6118297899
| 42> H -2.0983229256 1.5367558962 3.0469275903
| 43> H -3.8643121756 1.3424956065 2.8086145349
| 44> *
| 45>
| 46>                          ****END OF INPUT****

CARTESIAN COORDINATES (ANGSTROEM)
---------------------------------
  C      2.891800   -4.525744   -1.172412
  C      3.896969   -3.400297   -1.358962
  O      3.555804   -2.274415   -0.527713
  C      2.714431   -1.377735   -0.999093
  O      2.230189   -1.397697   -2.108670
  C      2.441865   -0.289709    0.024502
  C      1.001596    0.183292   -0.105600
  H      0.778147    0.368329   -1.164609
  C      0.690866    1.449208    0.662104
  O     -0.348451    1.574132    1.284298
  O      1.617650    2.353737    0.559209
  C      1.372979    3.657542    1.137955
  C      0.603010    4.531745    0.162496
  S     -0.160773   -1.108124    0.483233
  P     -1.959581   -0.034434    0.236839
  S     -2.147309    1.424330   -1.073434
  O     -2.726183   -1.361290   -0.245454
  C     -4.110748   -1.328857   -0.604507
  O     -2.719931    0.176740    1.625376
  C     -2.895914    1.412942    2.317993
  H      3.192992   -5.381194   -1.767888
  H      2.842499   -4.813732   -0.126110
  H      1.904370   -4.200200   -1.492853
  H      3.921454   -3.071109   -2.401592
  H      4.892504   -3.695392   -1.027483
  H      3.108900    0.550668   -0.180194
  H      2.643880   -0.680625    1.020467
  H      0.817862    3.527798    2.069958
  H      2.368414    4.054931    1.333507
  H      0.435283    5.506723    0.607362
  H      1.162762    4.649646   -0.760996
  H     -0.359671    4.080220   -0.071972
  H     -4.726607   -1.235845    0.289406
  H     -4.305559   -2.271963   -1.108745
  H     -4.303808   -0.490548   -1.277521
  H     -2.882978    2.244118    1.611830
  H     -2.098323    1.536756    3.046928
  H     -3.864312    1.342496    2.808615

 Total Charge           Charge          ....    0
 Multiplicity           Mult            ....    1
 Number of Electrons    NEL             ....  174
 Basis Dimension        Dim             ....  316

ORBITAL ENERGIES
----------------

  NO   OCC          E(Eh)            E(eV)
   0   2.0000     -88.030421     -2395.4295
   1   2.0000     -87.969077     -2393.7603
   2   2.0000     -76.415225     -2079.3640
   3   2.0000     -18.828043      -512.3371
   4   2.0000     -18.807456      -511.7769
   5   2.0000     -18.779695      -511.0215
   6   2.0000     -18.767607      -510.6925
   7   2.0000     -18.760381      -510.4959
   8   2.0000     -18.742979      -510.0224
   9   2.0000     -10.030384      -272.9406
  10   2.0000     -10.014827      -272.5173
  11   2.0000      -9.962384      -271.0903
  12   2.0000      -9.950426      -270.7649
  13   2.0000      -9.945835      -270.6399
  14   2.0000      -9.931301      -270.2444
  15   2.0000      -9.927826      -270.1499
  16   2.0000      -9.918446      -269.8946
  17   2.0000      -9.891837      -269.1706
  18   2.0000      -9.887179      -269.0438
  19   2.0000      -7.675713      -208.8668
  20   2.0000      -7.614200      -207.1929
  21   2.0000      -6.411072      -174.4541
  22   2.0000      -5.703804      -155.2084
  23   2.0000      -5.700672      -155.1232
  24   2.0000      -5.691996      -154.8871
  25   2.0000      -5.643286      -153.5616
  26   2.0000      -5.635096      -153.3388
  27   2.0000      -5.633880      -153.3057
  28   2.0000      -4.633671      -126.0886
  29   2.0000      -4.633056      -126.0719
  30   2.0000      -4.631709      -126.0352
  31   2.0000      -1.037259       -28.2253
  32   2.0000      -1.015398       -27.6304
  33   2.0000      -0.967454       -26.3258
  34   2.0000      -0.940422       -25.5902
  35   2.0000      -0.922042       -25.0900
  36   2.0000      -0.920570       -25.0500
  37   2.0000      -0.765995       -20.8438
  38   2.0000      -0.717577       -19.5263
  39   2.0000      -0.712021       -19.3751
  40   2.0000      -0.688371       -18.7315
  41   2.0000      -0.650019       -17.6879
  42   2.0000      -0.628174       -17.0935
  43   2.0000      -0.617639       -16.8068
  44   2.0000      -0.614283       -16.7155
  45   2.0000      -0.598265       -16.2796
  46   2.0000      -0.565024       -15.3751
  47   2.0000      -0.513232       -13.9657
  48   2.0000      -0.502915       -13.6850
  49   2.0000      -0.501731       -13.6528
  50   2.0000      -0.482928       -13.1411
  51   2.0000      -0.466971       -12.7069
  52   2.0000      -0.462087       -12.5740
  53   2.0000      -0.450920       -12.2702
  54   2.0000      -0.444551       -12.0969
  55   2.0000      -0.431603       -11.7445
  56   2.0000      -0.426654       -11.6099
  57   2.0000      -0.418792       -11.3959
  58   2.0000      -0.411268       -11.1912
  59   2.0000      -0.403767       -10.9871
  60   2.0000      -0.400441       -10.8965
  61   2.0000      -0.396371       -10.7858
  62   2.0000      -0.389403       -10.5962
  63   2.0000      -0.383869       -10.4456
  64   2.0000      -0.374671       -10.1953
  65   2.0000      -0.369692       -10.0598
  66   2.0000      -0.362556        -9.8657
  67   2.0000      -0.358049        -9.7430
  68   2.0000      -0.348003        -9.4697
  69   2.0000      -0.340743        -9.2721
  70   2.0000      -0.338860        -9.2209
  71   2.0000      -0.331456        -9.0194
  72   2.0000      -0.325350        -8.8532
  73   2.0000      -0.310339        -8.4447
  74   2.0000      -0.304695        -8.2912
  75   2.0000      -0.296629        -8.0717
  76   2.0000      -0.291261        -7.9256
  77   2.0000      -0.283833        -7.7235
  78   2.0000      -0.274166        -7.4604
  79   2.0000      -0.264346        -7.1932
  80   2.0000      -0.258519        -7.0347
  81   2.0000      -0.253195        -6.8898
  82   2.0000      -0.243853        -6.6356
  83   2.0000      -0.229872        -6.2551
  84   2.0000      -0.207024        -5.6334
  85   2.0000      -0.191436        -5.2092
  86   2.0000      -0.182379        -4.9628
  87   0.0000      -0.048017        -1.3066
  88   0.0000      -0.039290        -1.0691
  89   0.0000      -0.019943        -0.5427
  90   0.0000       0.011880         0.3233
  91   0.0000       0.036750         1.0000

MULLIKEN ATOMIC CHARGES
-----------------------
   0 C :   -0.305281
   1 C :   -0.015609
   2 O :   -0.225573
   3 C :    0.131287
   4 O :   -0.194666
   5 C :   -0.117121
   6 C :   -0.312747
   7 H :    0.172873
   8 C :    0.243886
   9 O :   -0.200246
  10 O :   -0.217391
  11 C :   -0.013748
  12 C :   -0.313709
  13 S :   -0.077976
  14 P :    0.654210
  15 S :   -0.360178
  16 O :   -0.388627
  17 C :   -0.095534
  18 O :   -0.390228
  19 C :   -0.083660
  20 H :    0.114095
  21 H :    0.115895
  22 H :    0.135118
  23 H :    0.110972
  24 H :    0.104178
  25 H :    0.138245
  26 H :    0.112188
  27 H :    0.112690
  28 H :    0.108911
  29 H :    0.115422
  30 H :    0.119200
  31 H :    0.144337
  32 H :    0.105906
  33 H :    0.120403
  34 H :    0.112088
  35 H :    0.112494
  36 H :    0.114470
  37 H :    0.113426
Sum of atomic charges:    0.0000000

LOEWDIN ATOMIC CHARGES
----------------------
   0 C :   -0.355065
   1 C :   -0.111010
   2 O :   -0.056329
   3 C :    0.029427
   4 O :   -0.158498
   5 C :   -0.252018
   6 C :   -0.264885
   7 H :    0.155104
   8 C :    0.028440
   9 O :   -0.157221
  10 O :   -0.032090
  11 C :   -0.104979
  12 C :   -0.357911
  13 S :    0.113401
  14 P :    0.592242
  15 S :   -0.351391
  16 O :   -0.268509
  17 C :   -0.215795
  18 O :   -0.251065
  19 C :   -0.211435
  20 H :    0.131205
  21 H :    0.125929
  22 H :    0.134398
  23 H :    0.121063
  24 H :    0.118262
  25 H :    0.154812
  26 H :    0.136536
  27 H :    0.121880
  28 H :    0.120781
  29 H :    0.132526
  30 H :    0.128165
  31 H :    0.134558
  32 H :    0.108119
  33 H :    0.119825
  34 H :    0.107653
  35 H :    0.107492
  36 H :    0.112096
  37 H :    0.114290

  Mayer bond orders larger than 0.100000
B(  0-C ,  1-C ) :   1.1753 B(  0-C , 20-H ) :   0.9438 B(  0-C , 21-H ) :   0.9487
B(  0-C , 22-H ) :   0.9447 B(  1-C ,  2-O ) :   0.9101 B(  1-C , 23-H ) :   0.9129
B(  1-C , 24-H ) :   0.9370 B(  2-O ,  3-C ) :   1.2484 B(  3-C ,  4-O ) :   2.0434
B(  3-C ,  5-C ) :   0.9954 B(  5-C ,  6-C ) :   1.0974 B(  5-C , 25-H ) :   0.8696
B(  5-C , 26-H ) :   0.9052 B(  6-C ,  7-H ) :   0.8293 B(  6-C ,  8-C ) :   0.9133
B(  6-C , 13-S ) :   1.0253 B(  8-C ,  9-O ) :   1.9156 B(  8-C , 10-O ) :   1.2892
B(  9-O , 14-P ) :   0.1233 B( 10-O , 11-C ) :   0.8931 B( 11-C , 12-C ) :   1.1786
B( 11-C , 27-H ) :   0.9148 B( 11-C , 28-H ) :   0.9360 B( 12-C , 29-H ) :   0.9414
B( 12-C , 30-H ) :   0.9477 B( 12-C , 31-H ) :   0.9331 B( 13-S , 14-P ) :   0.9346
B( 13-S , 15-S ) :   0.1082 B( 14-P , 15-S ) :   1.5656 B( 14-P , 16-O ) :   1.0834
B( 14-P , 18-O ) :   1.0953 B( 16-O , 17-C ) :   0.9413 B( 17-C , 32-H ) :   0.9508
B( 17-C , 33-H ) :   0.9610 B( 17-C , 34-H ) :   0.9335 B( 18-O , 19-C ) :   0.9310
B( 19-C , 35-H ) :   0.9349 B( 19-C , 36-H ) :   0.9533 B( 19-C , 37-H ) :   0.9541

Dispersion correction           -0.049964747
FINAL SINGLE POINT ENERGY     -1979.014212738513

DIPOLE MOMENT
-------------

Method             : SCF
Type of density    : Electron Density
Multiplicity       :   1
Irrep              :   0
Energy             : -1979.1464811759287841 Eh
Relativity type    :
Basis              : AO
                                X                 Y                 Z
Electronic contribution:     -5.917639308      -1.506836024      -0.079188434
Nuclear contribution   :      7.027576667       1.903971304       1.135209239
                        -----------------------------------------
Total Dipole Moment    :      1.109937359       0.397135280       1.056020804
                        -----------------------------------------
Magnitude (a.u.)       :      1.582674101
Magnitude (Debye)      :      4.022837865

Rotational constants in cm-1:             0.011897             0.006781             0.004958
Rotational constants in MHz :           356.664631           203.300221           148.626116

                             ****ORCA TERMINATED NORMALLY****
TOTAL RUN TIME: 0 days 0 hours 0 minutes 40 seconds 615 msec
