                         Program Version 6.0.1  -  RELEASE   -
|  1> ! r2scan-3c def2/J RI DEFGRID2 scfconv6 printgap
|  2> %output
|  3>     printlevel normal
|  4> end
|  5> * xyz 0 1
|  6> C 5.2688619085 0.059070416 -0.7755138094
|  7> C 4.8368070072 -1.2961550281 -1.3114489174
|  8> O 3.5747634491 -1.7015338922 -0.7456860447
|  9> C 2.4671865655 -1.2570866789 -1.3032854844
| 10> O 2.4226875537 -0.5324025998 -2.2720855742
| 11> C 1.2380618475 -1.8033277364 -0.5978145364
| 12> C 0.2123165943 -0.6902432527 -0.4316086732
| 13> H 0.0702425497 -0.1732410698 -1.3900959162
| 14> C 0.6302122517 0.3554696015 0.5833110276
| 15> O -0.1654070483 0.8755188544 1.3397578223
| 16> O 1.9053928687 0.629162672 0.5253506971
| 17> C 2.4358862441 1.6138996913 1.441493961
| 18> C 2.8229266244 0.9623531734 2.7584492458
| 19> S -1.4020374983 -1.3522201742 0.0940194284
| 20> P -2.4974978306 0.4697712294 0.1396312614
| 21> S -1.8693398348 1.9255820008 -1.0107066046
| 22> O -3.9483470434 -0.0694515736 -0.3018573292
| 23> C -4.207404573 -0.5113798507 -1.6362598382
| 24> O -2.8407797259 0.8856722044 1.6226330414
| 25> C -3.3977515757 -0.0431829932 2.5736882942
| 26> H 6.2409406139 0.3135685053 -1.1848742083
| 27> H 4.5497375946 0.8187981499 -1.073409268
| 28> H 5.3320008791 0.0319468685 0.3085789144
| 29> H 5.5311793923 -2.0828359311 -1.0164051594
| 30> H 4.7352232829 -1.2634976246 -2.3998987076
| 31> H 1.5250312393 -2.2318495639 0.3609697557
| 32> H 0.8070850453 -2.587232989 -1.2237126208
| 33> H 3.3036783199 2.0240415001 0.9250981465
| 34> H 1.6811107815 2.3907044119 1.591168188
| 35> H 3.2977311629 1.7016701009 3.3947529996
| 36> H 1.9381867788 0.579653637 3.2619910737
| 37> H 3.5139950288 0.142626779 2.581673466
| 38> H -3.7345265053 -1.4788946808 -1.8049225141
| 39> H -3.8286989707 0.2193635943 -2.3531513176
| 40> H -5.2884412402 -0.5934309813 -1.7138625881
| 41> H -3.4287446303 0.5024127194 3.5131639219
| 42> H -2.7551523795 -0.9197565157 2.658266576
| 43> H -4.3971659426 -0.3390331559 2.259716779
| 44> *
| 45>
| 46>                          ****END OF INPUT****

CARTESIAN COORDINATES (ANGSTROEM)
---------------------------------
  C      5.268862    0.059070   -0.775514
  C      4.836807   -1.296155   -1.311449
  O      3.574763   -1.701534   -0.745686
  C      2.467187   -1.257087   -1.303285
  O      2.422688   -0.532403   -2.272086
  C      1.238062   -1.803328   -0.597815
  C      0.212317   -0.690243   -0.431609
  H      0.070243   -0.173241   -1.390096
  C      0.630212    0.355470    0.583311
  O     -0.165407    0.875519    1.339758
  O      1.905393    0.629163    0.525351
  C      2.435886    1.613900    1.441494
  C      2.822927    0.962353    2.758449
  S     -1.402037   -1.352220    0.094019
  P     -2.497498    0.469771    0.139631
  S     -1.869340    1.925582   -1.010707
  O     -3.948347   -0.069452   -0.301857
  C     -4.207405   -0.511380   -1.636260
  O     -2.840780    0.885672    1.622633
  C     -3.397752   -0.043183    2.573688
  H      6.240941    0.313569   -1.184874
  H      4.549738    0.818798   -1.073409
  H      5.332001    0.031947    0.308579
  H      5.531179   -2.082836   -1.016405
  H      4.735223   -1.263498   -2.399899
  H      1.525031   -2.231850    0.360970
  H      0.807085   -2.587233   -1.223713
  H      3.303678    2.024042    0.925098
  H      1.681111    2.390704    1.591168
  H      3.297731    1.701670    3.394753
  H      1.938187    0.579654    3.261991
  H      3.513995    0.142627    2.581673
  H     -3.734527   -1.478895   -1.804923
  H     -3.828699    0.219364   -2.353151
  H     -5.288441   -0.593431   -1.713863
  H     -3.428745    0.502413    3.513164
  H     -2.755152   -0.919757    2.658267
  H     -4.397166   -0.339033    2.259717

 Total Charge           Charge          ....    0
 Multiplicity           Mult            ....    1
 Number of Electrons    NEL             ....  174
 Basis Dimension        Dim             ....  510

ORBITAL ENERGIES
----------------

  NO   OCC          E(Eh)            E(eV)
   0   2.0000     -88.571790     -2410.1609
   1   2.0000     -88.505228     -2408.3497
   2   2.0000     -76.905303     -2092.6997
   3   2.0000     -19.016487      -517.4649
   4   2.0000     -19.008249      -517.2407
   5   2.0000     -18.981450      -516.5115
   6   2.0000     -18.977934      -516.4159
   7   2.0000     -18.941878      -515.4347
   8   2.0000     -18.937562      -515.3173
   9   2.0000     -10.168061      -276.6870
  10   2.0000     -10.166015      -276.6313
  11   2.0000     -10.102786      -274.9108
  12   2.0000     -10.100804      -274.8568
  13   2.0000     -10.095255      -274.7059
  14   2.0000     -10.089263      -274.5428
  15   2.0000     -10.080704      -274.3099
  16   2.0000     -10.066965      -273.9360
  17   2.0000     -10.038508      -273.1617
  18   2.0000     -10.037308      -273.1290
  19   2.0000      -7.866120      -214.0480
  20   2.0000      -7.800035      -212.2497
  21   2.0000      -6.582992      -179.1323
  22   2.0000      -5.812934      -158.1780
  23   2.0000      -5.810028      -158.0989
  24   2.0000      -5.803257      -157.9147
  25   2.0000      -5.748003      -156.4111
  26   2.0000      -5.740437      -156.2052
  27   2.0000      -5.739586      -156.1821
  28   2.0000      -4.728741      -128.6756
  29   2.0000      -4.728196      -128.6608
  30   2.0000      -4.726388      -128.6116
  31   2.0000      -1.094281       -29.7769
  32   2.0000      -1.083892       -29.4942
  33   2.0000      -1.039098       -28.2753
  34   2.0000      -0.996812       -27.1246
  35   2.0000      -0.993093       -27.0234
  36   2.0000      -0.987939       -26.8832
  37   2.0000      -0.812834       -22.1183
  38   2.0000      -0.758486       -20.6395
  39   2.0000      -0.753709       -20.5095
  40   2.0000      -0.727245       -19.7893
  41   2.0000      -0.697215       -18.9722
  42   2.0000      -0.666061       -18.1244
  43   2.0000      -0.661211       -17.9925
  44   2.0000      -0.645764       -17.5721
  45   2.0000      -0.634710       -17.2713
  46   2.0000      -0.602429       -16.3929
  47   2.0000      -0.541160       -14.7257
  48   2.0000      -0.531250       -14.4561
  49   2.0000      -0.526665       -14.3313
  50   2.0000      -0.497415       -13.5354
  51   2.0000      -0.495314       -13.4782
  52   2.0000      -0.483575       -13.1588
  53   2.0000      -0.471210       -12.8223
  54   2.0000      -0.461052       -12.5459
  55   2.0000      -0.452004       -12.2997
  56   2.0000      -0.449027       -12.2186
  57   2.0000      -0.442431       -12.0392
  58   2.0000      -0.437908       -11.9161
  59   2.0000      -0.424448       -11.5498
  60   2.0000      -0.422332       -11.4922
  61   2.0000      -0.419858       -11.4249
  62   2.0000      -0.409635       -11.1467
  63   2.0000      -0.406566       -11.0632
  64   2.0000      -0.395859       -10.7719
  65   2.0000      -0.385918       -10.5014
  66   2.0000      -0.379267       -10.3204
  67   2.0000      -0.372476       -10.1356
  68   2.0000      -0.369124       -10.0444
  69   2.0000      -0.360858        -9.8194
  70   2.0000      -0.351343        -9.5605
  71   2.0000      -0.345308        -9.3963
  72   2.0000      -0.342409        -9.3174
  73   2.0000      -0.328428        -8.9370
  74   2.0000      -0.320703        -8.7268
  75   2.0000      -0.316490        -8.6121
  76   2.0000      -0.309502        -8.4220
  77   2.0000      -0.304797        -8.2939
  78   2.0000      -0.290055        -7.8928
  79   2.0000      -0.280742        -7.6394
  80   2.0000      -0.278459        -7.5773
  81   2.0000      -0.267146        -7.2694
  82   2.0000      -0.252764        -6.8780
  83   2.0000      -0.247240        -6.7277
  84   2.0000      -0.233602        -6.3566
  85   2.0000      -0.206894        -5.6299
  86   2.0000      -0.199083        -5.4173
  87   0.0000      -0.044190        -1.2025
  88   0.0000      -0.029861        -0.8125
  89   0.0000      -0.016367        -0.4454
  90   0.0000       0.010322         0.2809
  91   0.0000       0.028017         0.7624

MULLIKEN ATOMIC CHARGES
-----------------------
   0 C :   -0.500220
   1 C :   -0.115295
   2 O :   -0.157239
   3 C :    0.300931
   4 O :   -0.398033
   5 C :   -0.379479
   6 C :   -0.025374
   7 H :    0.269136
   8 C :    0.282346
   9 O :   -0.405379
  10 O :   -0.097002
  11 C :   -0.138257
  12 C :   -0.480458
  13 S :   -0.215100
  14 P :    0.807559
  15 S :   -0.457654
  16 O :   -0.363550
  17 C :   -0.300977
  18 O :   -0.301833
  19 C :   -0.292151
  20 H :    0.151546
  21 H :    0.182589
  22 H :    0.151902
  23 H :    0.150949
  24 H :    0.168544
  25 H :    0.191386
  26 H :    0.184981
  27 H :    0.156073
  28 H :    0.182853
  29 H :    0.154622
  30 H :    0.173987
  31 H :    0.154235
  32 H :    0.153587
  33 H :    0.176375
  34 H :    0.148457
  35 H :    0.155368
  36 H :    0.163062
  37 H :    0.167516
Sum of atomic charges:    0.0000000

LOEWDIN ATOMIC CHARGES
----------------------
   0 C :   -0.390668
   1 C :    0.032137
   2 O :   -0.580287
   3 C :    0.355059
   4 O :   -0.424398
   5 C :   -0.202284
   6 C :   -0.203242
   7 H :    0.223085
   8 C :    0.358690
   9 O :   -0.448122
  10 O :   -0.567794
  11 C :    0.036695
  12 C :   -0.387612
  13 S :    0.188142
  14 P :    0.407331
  15 S :   -0.085943
  16 O :   -0.695131
  17 C :   -0.065635
  18 O :   -0.638016
  19 C :   -0.050094
  20 H :    0.160508
  21 H :    0.168405
  22 H :    0.156010
  23 H :    0.179342
  24 H :    0.188732
  25 H :    0.190118
  26 H :    0.191153
  27 H :    0.180939
  28 H :    0.195061
  29 H :    0.161862
  30 H :    0.165803
  31 H :    0.157685
  32 H :    0.166469
  33 H :    0.176858
  34 H :    0.175077
  35 H :    0.180003
  36 H :    0.171456
  37 H :    0.172606

  Mayer bond orders larger than 0.100000
B(  0-C ,  1-C ) :   0.9277 B(  0-C , 20-H ) :   0.9634 B(  0-C , 21-H ) :   0.9694
B(  0-C , 22-H ) :   0.9709 B(  1-C ,  2-O ) :   0.8158 B(  1-C , 23-H ) :   0.9612
B(  1-C , 24-H ) :   0.9703 B(  2-O ,  3-C ) :   1.0823 B(  3-C ,  4-O ) :   1.8747
B(  3-C ,  5-C ) :   0.8973 B(  5-C ,  6-C ) :   0.8512 B(  5-C , 25-H ) :   0.9946
B(  5-C , 26-H ) :   0.9370 B(  6-C ,  7-H ) :   0.8911 B(  6-C ,  8-C ) :   0.9772
B(  6-C , 13-S ) :   0.8812 B(  8-C ,  9-O ) :   1.8028 B(  8-C , 10-O ) :   1.1774
B(  9-O , 14-P ) :   0.1009 B( 10-O , 11-C ) :   0.7496 B( 11-C , 12-C ) :   0.9146
B( 11-C , 27-H ) :   0.9638 B( 11-C , 28-H ) :   0.9585 B( 12-C , 29-H ) :   0.9663
B( 12-C , 30-H ) :   0.9713 B( 12-C , 31-H ) :   0.9768 B( 13-S , 14-P ) :   0.9636
B( 14-P , 15-S ) :   1.7974 B( 14-P , 16-O ) :   1.0018 B( 14-P , 18-O ) :   1.1866
B( 16-O , 17-C ) :   0.8378 B( 17-C , 32-H ) :   0.9570 B( 17-C , 33-H ) :   0.9580
B( 17-C , 34-H ) :   0.9694 B( 18-O , 19-C ) :   0.7960 B( 19-C , 35-H ) :   0.9658
B( 19-C , 36-H ) :   0.9593 B( 19-C , 37-H ) :   0.9629

Dispersion correction           -0.017223077
FINAL SINGLE POINT ENERGY     -1981.448207087151

DIPOLE MOMENT
-------------

Method             : SCF
Type of density    : Electron Density
Multiplicity       :   1
Irrep              :   0
Energy             : -1981.4685982707028415 Eh
Relativity type    :
Basis              : AO
                                X                 Y                 Z
Electronic contribution:    -18.943036295       1.848004967      -5.176880862
Nuclear contribution   :     20.253169774      -3.197955473       6.185367057
                        -----------------------------------------
Total Dipole Moment    :      1.310133479      -1.349950505       1.008486195
                        -----------------------------------------
Magnitude (a.u.)       :      2.134446182
Magnitude (Debye)      :      5.425331037

Rotational constants in cm-1:             0.017607             0.005668             0.005097
Rotational constants in MHz :           527.832774           169.926982           152.805226

                             ****ORCA TERMINATED NORMALLY****
TOTAL RUN TIME: 0 days 0 hours 1 minutes 17 seconds 319 msec
