                         Program Version 6.0.1  -  RELEASE   -
|  1> ! r2scan-3c def2/J RI DEFGRID2 scfconv6 printgap
|  2> %output
|  3>     printlevel normal
|  4> end
|  5> %cpcm
|  6>     smd true
|  7>     smdsolvent "water"
|  8> end
|  9> * xyz 0 1
| 10> C 5.2688619085 0.059070416 -0.7755138094
| 11> C 4.8368070072 -1.2961550281 -1.3114489174
| 12> O 3.5747634491 -1.7015338922 -0.7456860447
| 13> C 2.4671865655 -1.2570866789 -1.3032854844
| 14> O 2.4226875537 -0.5324025998 -2.2720855742
| 15> C 1.2380618475 -1.8033277364 -0.5978145364
| 16> C 0.2123165943 -0.6902432527 -0.4316086732
| 17> H 0.0702425497 -0.1732410698 -1.3900959162
| 18> C 0.6302122517 0.3554696015 0.5833110276
| 19> O -0.1654070483 0.8755188544 1.3397578223
| 20> O 1.9053928687 0.629162672 0.5253506971
| 21> C 2.4358862441 1.6138996913 1.441493961
| 22> C 2.8229266244 0.9623531734 2.7584492458
| 23> S -1.4020374983 -1.3522201742 0.0940194284
| 24> P -2.4974978306 0.4697712294 0.1396312614
| 25> S -1.8693398348 1.9255820008 -1.0107066046
| 26> O -3.9483470434 -0.0694515736 -0.3018573292
| 27> C -4.207404573 -0.5113798507 -1.6362598382
| 28> O -2.8407797259 0.8856722044 1.6226330414
| 29> C -3.3977515757 -0.0431829932 2.5736882942
| 30> H 6.2409406139 0.3135685053 -1.1848742083
| 31> H 4.5497375946 0.8187981499 -1.073409268
| 32> H 5.3320008791 0.0319468685 0.3085789144
| 33> H 5.5311793923 -2.0828359311 -1.0164051594
| 34> H 4.7352232829 -1.2634976246 -2.3998987076
| 35> H 1.5250312393 -2.2318495639 0.3609697557
| 36> H 0.8070850453 -2.587232989 -1.2237126208
| 37> H 3.3036783199 2.0240415001 0.9250981465
| 38> H 1.6811107815 2.3907044119 1.591168188
| 39> H 3.2977311629 1.7016701009 3.3947529996
| 40> H 1.9381867788 0.579653637 3.2619910737
| 41> H 3.5139950288 0.142626779 2.581673466
| 42> H -3.7345265053 -1.4788946808 -1.8049225141
| 43> H -3.8286989707 0.2193635943 -2.3531513176
| 44> H -5.2884412402 -0.5934309813 -1.7138625881
| 45> H -3.4287446303 0.5024127194 3.5131639219
| 46> H -2.7551523795 -0.9197565157 2.658266576
| 47> H -4.3971659426 -0.3390331559 2.259716779
| 48> *
| 49>
| 50>                          ****END OF INPUT****

CARTESIAN COORDINATES (ANGSTROEM)
---------------------------------
  C      5.268862    0.059070   -0.775514
  C      4.836807   -1.296155   -1.311449
  O      3.574763   -1.701534   -0.745686
  C      2.467187   -1.257087   -1.303285
  O      2.422688   -0.532403   -2.272086
  C      1.238062   -1.803328   -0.597815
  C      0.212317   -0.690243   -0.431609
  H      0.070243   -0.173241   -1.390096
  C      0.630212    0.355470    0.583311
  O     -0.165407    0.875519    1.339758
  O      1.905393    0.629163    0.525351
  C      2.435886    1.613900    1.441494
  C      2.822927    0.962353    2.758449
  S     -1.402037   -1.352220    0.094019
  P     -2.497498    0.469771    0.139631
  S     -1.869340    1.925582   -1.010707
  O     -3.948347   -0.069452   -0.301857
  C     -4.207405   -0.511380   -1.636260
  O     -2.840780    0.885672    1.622633
  C     -3.397752   -0.043183    2.573688
  H      6.240941    0.313569   -1.184874
  H      4.549738    0.818798   -1.073409
  H      5.332001    0.031947    0.308579
  H      5.531179   -2.082836   -1.016405
  H      4.735223   -1.263498   -2.399899
  H      1.525031   -2.231850    0.360970
  H      0.807085   -2.587233   -1.223713
  H      3.303678    2.024042    0.925098
  H      1.681111    2.390704    1.591168
  H      3.297731    1.701670    3.394753
  H      1.938187    0.579654    3.261991
  H      3.513995    0.142627    2.581673
  H     -3.734527   -1.478895   -1.804923
  H     -3.828699    0.219364   -2.353151
  H     -5.288441   -0.593431   -1.713863
  H     -3.428745    0.502413    3.513164
  H     -2.755152   -0.919757    2.658267
  H     -4.397166   -0.339033    2.259717

 Total Charge           Charge          ....    0
 Multiplicity           Mult            ....    1
 Number of Electrons    NEL             ....  174
 Basis Dimension        Dim             ....  510

ORBITAL ENERGIES
----------------

  NO   OCC          E(Eh)            E(eV)
   0   2.0000     -88.579492     -2410.3705
   1   2.0000     -88.524634     -2408.8778
   2   2.0000     -76.919766     -2093.0932
   3   2.0000     -19.017980      -517.5055
   4   2.0000     -19.008788      -517.2554
   5   2.0000     -18.994894      -516.8773
   6   2.0000     -18.988576      -516.7054
   7   2.0000     -18.952982      -515.7368
   8   2.0000     -18.948494      -515.6147
   9   2.0000     -10.176355      -276.9127
  10   2.0000     -10.172926      -276.8194
  11   2.0000     -10.098751      -274.8010
  12   2.0000     -10.089896      -274.5600
  13   2.0000     -10.086221      -274.4600
  14   2.0000     -10.084605      -274.4161
  15   2.0000     -10.078597      -274.2526
  16   2.0000     -10.060074      -273.7485
  17   2.0000     -10.020974      -272.6846
  18   2.0000     -10.019417      -272.6422
  19   2.0000      -7.873703      -214.2543
  20   2.0000      -7.819837      -212.7886
  21   2.0000      -6.597576      -179.5292
  22   2.0000      -5.820556      -158.3854
  23   2.0000      -5.817668      -158.3068
  24   2.0000      -5.810757      -158.1187
  25   2.0000      -5.767645      -156.9456
  26   2.0000      -5.760285      -156.7453
  27   2.0000      -5.759424      -156.7219
  28   2.0000      -4.743308      -129.0720
  29   2.0000      -4.742679      -129.0549
  30   2.0000      -4.741116      -129.0123
  31   2.0000      -1.097393       -29.8616
  32   2.0000      -1.086275       -29.5591
  33   2.0000      -1.051187       -28.6042
  34   2.0000      -1.007310       -27.4103
  35   2.0000      -1.002801       -27.2876
  36   2.0000      -0.996638       -27.1199
  37   2.0000      -0.814128       -22.1535
  38   2.0000      -0.751218       -20.4417
  39   2.0000      -0.745727       -20.2923
  40   2.0000      -0.728864       -19.8334
  41   2.0000      -0.697070       -18.9682
  42   2.0000      -0.667124       -18.1534
  43   2.0000      -0.659506       -17.9461
  44   2.0000      -0.654122       -17.7996
  45   2.0000      -0.626293       -17.0423
  46   2.0000      -0.598495       -16.2859
  47   2.0000      -0.539761       -14.6876
  48   2.0000      -0.527936       -14.3659
  49   2.0000      -0.523882       -14.2556
  50   2.0000      -0.498501       -13.5649
  51   2.0000      -0.495984       -13.4964
  52   2.0000      -0.489662       -13.3244
  53   2.0000      -0.473873       -12.8948
  54   2.0000      -0.463710       -12.6182
  55   2.0000      -0.455462       -12.3937
  56   2.0000      -0.450704       -12.2643
  57   2.0000      -0.447244       -12.1701
  58   2.0000      -0.440206       -11.9786
  59   2.0000      -0.425837       -11.5876
  60   2.0000      -0.419457       -11.4140
  61   2.0000      -0.417607       -11.3637
  62   2.0000      -0.407842       -11.0979
  63   2.0000      -0.403263       -10.9733
  64   2.0000      -0.392543       -10.6816
  65   2.0000      -0.379976       -10.3397
  66   2.0000      -0.371680       -10.1139
  67   2.0000      -0.368001       -10.0138
  68   2.0000      -0.362033        -9.8514
  69   2.0000      -0.355143        -9.6639
  70   2.0000      -0.351181        -9.5561
  71   2.0000      -0.341485        -9.2923
  72   2.0000      -0.338573        -9.2130
  73   2.0000      -0.330310        -8.9882
  74   2.0000      -0.318504        -8.6669
  75   2.0000      -0.313074        -8.5192
  76   2.0000      -0.311040        -8.4638
  77   2.0000      -0.307546        -8.3687
  78   2.0000      -0.291867        -7.9421
  79   2.0000      -0.288011        -7.8372
  80   2.0000      -0.282352        -7.6832
  81   2.0000      -0.276409        -7.5215
  82   2.0000      -0.263651        -7.1743
  83   2.0000      -0.258606        -7.0370
  84   2.0000      -0.242764        -6.6059
  85   2.0000      -0.226736        -6.1698
  86   2.0000      -0.219361        -5.9691
  87   0.0000      -0.051663        -1.4058
  88   0.0000      -0.038824        -1.0565
  89   0.0000      -0.021764        -0.5922
  90   0.0000       0.002883         0.0784
  91   0.0000       0.017128         0.4661

MULLIKEN ATOMIC CHARGES
-----------------------
   0 C :   -0.521887
   1 C :   -0.121341
   2 O :   -0.175533
   3 C :    0.330717
   4 O :   -0.473448
   5 C :   -0.386721
   6 C :   -0.032398
   7 H :    0.272178
   8 C :    0.302401
   9 O :   -0.456081
  10 O :   -0.105147
  11 C :   -0.137362
  12 C :   -0.505802
  13 S :   -0.200991
  14 P :    0.813994
  15 S :   -0.518675
  16 O :   -0.393206
  17 C :   -0.309165
  18 O :   -0.351100
  19 C :   -0.296996
  20 H :    0.173487
  21 H :    0.175910
  22 H :    0.171481
  23 H :    0.177011
  24 H :    0.174712
  25 H :    0.218188
  26 H :    0.221955
  27 H :    0.184030
  28 H :    0.180939
  29 H :    0.176776
  30 H :    0.172340
  31 H :    0.169980
  32 H :    0.172811
  33 H :    0.175559
  34 H :    0.177176
  35 H :    0.182120
  36 H :    0.178090
  37 H :    0.184000
Sum of atomic charges:    0.0000000

LOEWDIN ATOMIC CHARGES
----------------------
   0 C :   -0.391942
   1 C :    0.037209
   2 O :   -0.579816
   3 C :    0.364339
   4 O :   -0.479506
   5 C :   -0.194056
   6 C :   -0.199504
   7 H :    0.222302
   8 C :    0.364499
   9 O :   -0.490039
  10 O :   -0.565849
  11 C :    0.042641
  12 C :   -0.388452
  13 S :    0.206496
  14 P :    0.405314
  15 S :   -0.134816
  16 O :   -0.707294
  17 C :   -0.060576
  18 O :   -0.669979
  19 C :   -0.042026
  20 H :    0.168622
  21 H :    0.164870
  22 H :    0.163323
  23 H :    0.190899
  24 H :    0.190415
  25 H :    0.202627
  26 H :    0.205451
  27 H :    0.192884
  28 H :    0.194327
  29 H :    0.170292
  30 H :    0.163863
  31 H :    0.163740
  32 H :    0.174683
  33 H :    0.176502
  34 H :    0.187244
  35 H :    0.191381
  36 H :    0.178903
  37 H :    0.181029

  Mayer bond orders larger than 0.100000
B(  0-C ,  1-C ) :   0.9213 B(  0-C , 20-H ) :   0.9586 B(  0-C , 21-H ) :   0.9671
B(  0-C , 22-H ) :   0.9661 B(  1-C ,  2-O ) :   0.7967 B(  1-C , 23-H ) :   0.9508
B(  1-C , 24-H ) :   0.9671 B(  2-O ,  3-C ) :   1.1029 B(  3-C ,  4-O ) :   1.8144
B(  3-C ,  5-C ) :   0.9091 B(  5-C ,  6-C ) :   0.8463 B(  5-C , 25-H ) :   0.9783
B(  5-C , 26-H ) :   0.9291 B(  6-C ,  7-H ) :   0.8955 B(  6-C ,  8-C ) :   0.9670
B(  6-C , 13-S ) :   0.8715 B(  8-C ,  9-O ) :   1.7683 B(  8-C , 10-O ) :   1.1995
B(  9-O , 14-P ) :   0.1030 B( 10-O , 11-C ) :   0.7353 B( 11-C , 12-C ) :   0.9141
B( 11-C , 27-H ) :   0.9532 B( 11-C , 28-H ) :   0.9535 B( 12-C , 29-H ) :   0.9606
B( 12-C , 30-H ) :   0.9688 B( 12-C , 31-H ) :   0.9720 B( 13-S , 14-P ) :   0.9928
B( 14-P , 15-S ) :   1.7794 B( 14-P , 16-O ) :   1.0059 B( 14-P , 18-O ) :   1.1798
B( 16-O , 17-C ) :   0.8295 B( 17-C , 32-H ) :   0.9502 B( 17-C , 33-H ) :   0.9551
B( 17-C , 34-H ) :   0.9589 B( 18-O , 19-C ) :   0.7886 B( 19-C , 35-H ) :   0.9546
B( 19-C , 36-H ) :   0.9490 B( 19-C , 37-H ) :   0.9535

Dispersion correction           -0.017223077
FINAL SINGLE POINT ENERGY     -1981.465003377074

DIPOLE MOMENT
-------------

Method             : SCF
Type of density    : Electron Density
Multiplicity       :   1
Irrep              :   0
Energy             : -1981.4853945606264460 Eh
Relativity type    :
Basis              : AO
                                X                 Y                 Z
Electronic contribution:    -18.478957074       0.942071773      -4.889413688
Nuclear contribution   :     20.253169774      -3.197955473       6.185367057
                        -----------------------------------------
Total Dipole Moment    :      1.774212700      -2.255883700       1.295953369
                        -----------------------------------------
Magnitude (a.u.)       :      3.149021611
Magnitude (Debye)      :      8.004176833

Rotational constants in cm-1:             0.017607             0.005668             0.005097
Rotational constants in MHz :           527.832774           169.926982           152.805226

                             ****ORCA TERMINATED NORMALLY****
TOTAL RUN TIME: 0 days 0 hours 1 minutes 42 seconds 278 msec
