                         Program Version 6.0.0  -   RELEASE  -
|  1> ! pbe def2-sv(p) def2/J RI DEFGRID1 loosescf d4 GCP(DFT/SV(P)) printgap
|  2> %output
|  3>     printlevel normal
|  4> end
|  5> * xyz 0 1
|  6> C 1.1253704474 -1.7262450929 3.026488731
|  7> C 1.8082340153 -0.3915339578 2.8025652253
|  8> O 1.4075087951 0.1806172642 1.5340933228
|  9> P 2.2928709994 0.0248350392 0.2302472926
| 10> S 3.0859663198 -1.740635477 -0.1085685991
| 11> O 3.3588516974 1.1859202644 0.4463585848
| 12> C 4.579635469 1.2602010772 -0.3097366986
| 13> C 4.325250586 1.5978301842 -1.7645066272
| 14> S 0.9386346614 0.7670357662 -1.2080457502
| 15> C 0.1052424935 -0.8159133696 -1.5082924521
| 16> S -0.9542654322 -1.322862903 -0.1382143384
| 17> P -2.4312111896 0.1921590421 -0.432373026
| 18> S -2.7960535951 0.6652852486 -2.2942872424
| 19> O -1.9649936256 1.4755945061 0.3529695515
| 20> C -1.6903651696 1.4929860247 1.7760442173
| 21> C -0.8142061429 2.6948881222 2.0612266348
| 22> O -3.6315885113 -0.3086549686 0.4821248988
| 23> C -4.2145461207 -1.6257263926 0.4496703058
| 24> C -4.6740075039 -2.0308587843 -0.9348804148
| 25> H 1.4410714525 -2.4422341856 2.2707403192
| 26> H 1.3935979097 -2.1045788356 4.0075862198
| 27> H 0.0462784541 -1.6156768546 2.9650957545
| 28> H 2.8957846699 -0.5008532923 2.8204939723
| 29> H 1.5022871057 0.3462933139 3.5459672528
| 30> H 5.1527524998 2.0407988107 0.1921764116
| 31> H 5.0991510486 0.300323979 -0.2233524734
| 32> H 5.2729395132 1.7536619081 -2.2698646732
| 33> H 3.7968849833 0.7780445514 -2.2501504462
| 34> H 3.7202664458 2.497685412 -1.8442778336
| 35> H 0.8501936284 -1.6006620634 -1.641952946
| 36> H -0.5037895919 -0.6811608266 -2.4028956296
| 37> H -2.6472057266 1.5562320032 2.2975333057
| 38> H -1.1873838306 0.5602917491 2.047211808
| 39> H -0.6538343082 2.774810708 3.1316345881
| 40> H 0.1447823523 2.5868877743 1.5600256178
| 41> H -1.2965828479 3.5984474587 1.699539037
| 42> H -3.4757309796 -2.334224769 0.8342135817
| 43> H -5.0541104966 -1.5499103015 1.1429209992
| 44> H -5.3523683393 -1.2855100016 -1.3432385623
| 45> H -3.8194896616 -2.1188530481 -1.6042516065
| 46> H -5.1813023939 -2.9886604789 -0.8805194624
| 47> *
| 48>
| 49>                          ****END OF INPUT****

CARTESIAN COORDINATES (ANGSTROEM)
---------------------------------
  C      1.125370   -1.726245    3.026489
  C      1.808234   -0.391534    2.802565
  O      1.407509    0.180617    1.534093
  P      2.292871    0.024835    0.230247
  S      3.085966   -1.740635   -0.108569
  O      3.358852    1.185920    0.446359
  C      4.579635    1.260201   -0.309737
  C      4.325251    1.597830   -1.764507
  S      0.938635    0.767036   -1.208046
  C      0.105242   -0.815913   -1.508292
  S     -0.954265   -1.322863   -0.138214
  P     -2.431211    0.192159   -0.432373
  S     -2.796054    0.665285   -2.294287
  O     -1.964994    1.475595    0.352970
  C     -1.690365    1.492986    1.776044
  C     -0.814206    2.694888    2.061227
  O     -3.631589   -0.308655    0.482125
  C     -4.214546   -1.625726    0.449670
  C     -4.674008   -2.030859   -0.934880
  H      1.441071   -2.442234    2.270740
  H      1.393598   -2.104579    4.007586
  H      0.046278   -1.615677    2.965096
  H      2.895785   -0.500853    2.820494
  H      1.502287    0.346293    3.545967
  H      5.152752    2.040799    0.192176
  H      5.099151    0.300324   -0.223352
  H      5.272940    1.753662   -2.269865
  H      3.796885    0.778045   -2.250150
  H      3.720266    2.497685   -1.844278
  H      0.850194   -1.600662   -1.641953
  H     -0.503790   -0.681161   -2.402896
  H     -2.647206    1.556232    2.297533
  H     -1.187384    0.560292    2.047212
  H     -0.653834    2.774811    3.131635
  H      0.144782    2.586888    1.560026
  H     -1.296583    3.598447    1.699539
  H     -3.475731   -2.334225    0.834214
  H     -5.054110   -1.549910    1.142921
  H     -5.352368   -1.285510   -1.343239
  H     -3.819490   -2.118853   -1.604252
  H     -5.181302   -2.988660   -0.880519

 Total Charge           Charge          ....    0
 Multiplicity           Mult            ....    1
 Number of Electrons    NEL             ....  202
 Basis Dimension        Dim             ....  334

ORBITAL ENERGIES
----------------

  NO   OCC          E(Eh)            E(eV)
   0   2.0000     -88.044800     -2395.8208
   1   2.0000     -88.043203     -2395.7773
   2   2.0000     -87.993208     -2394.4169
   3   2.0000     -87.981789     -2394.1062
   4   2.0000     -76.430602     -2079.7824
   5   2.0000     -76.424922     -2079.6279
   6   2.0000     -18.797725      -511.5121
   7   2.0000     -18.795598      -511.4542
   8   2.0000     -18.795437      -511.4498
   9   2.0000     -18.787164      -511.2247
  10   2.0000      -9.959809      -271.0202
  11   2.0000      -9.959495      -271.0116
  12   2.0000      -9.954953      -270.8881
  13   2.0000      -9.953392      -270.8456
  14   2.0000      -9.950264      -270.7605
  15   2.0000      -9.885722      -269.0042
  16   2.0000      -9.885357      -268.9943
  17   2.0000      -9.883432      -268.9419
  18   2.0000      -9.881856      -268.8990
  19   2.0000      -7.689950      -209.2542
  20   2.0000      -7.687979      -209.2005
  21   2.0000      -7.638078      -207.8427
  22   2.0000      -7.627147      -207.5452
  23   2.0000      -6.428313      -174.9233
  24   2.0000      -6.422110      -174.7545
  25   2.0000      -5.717756      -155.5881
  26   2.0000      -5.715607      -155.5296
  27   2.0000      -5.714702      -155.5049
  28   2.0000      -5.712490      -155.4447
  29   2.0000      -5.706709      -155.2874
  30   2.0000      -5.705244      -155.2476
  31   2.0000      -5.666843      -154.2026
  32   2.0000      -5.658837      -153.9848
  33   2.0000      -5.658273      -153.9694
  34   2.0000      -5.656203      -153.9131
  35   2.0000      -5.647684      -153.6813
  36   2.0000      -5.647200      -153.6681
  37   2.0000      -4.650902      -126.5575
  38   2.0000      -4.649969      -126.5321
  39   2.0000      -4.648814      -126.5007
  40   2.0000      -4.644972      -126.3961
  41   2.0000      -4.644118      -126.3729
  42   2.0000      -4.642147      -126.3192
  43   2.0000      -0.991892       -26.9907
  44   2.0000      -0.987360       -26.8674
  45   2.0000      -0.949947       -25.8494
  46   2.0000      -0.942694       -25.6520
  47   2.0000      -0.766925       -20.8691
  48   2.0000      -0.723342       -19.6831
  49   2.0000      -0.711730       -19.3672
  50   2.0000      -0.689657       -18.7665
  51   2.0000      -0.689107       -18.7516
  52   2.0000      -0.677798       -18.4438
  53   2.0000      -0.651694       -17.7335
  54   2.0000      -0.639403       -17.3990
  55   2.0000      -0.601315       -16.3626
  56   2.0000      -0.588761       -16.0210
  57   2.0000      -0.578718       -15.7477
  58   2.0000      -0.568515       -15.4701
  59   2.0000      -0.561979       -15.2922
  60   2.0000      -0.508790       -13.8449
  61   2.0000      -0.502269       -13.6674
  62   2.0000      -0.474676       -12.9166
  63   2.0000      -0.473843       -12.8939
  64   2.0000      -0.463606       -12.6154
  65   2.0000      -0.448795       -12.2123
  66   2.0000      -0.442268       -12.0347
  67   2.0000      -0.435019       -11.8375
  68   2.0000      -0.428804       -11.6683
  69   2.0000      -0.418284       -11.3821
  70   2.0000      -0.414926       -11.2907
  71   2.0000      -0.401091       -10.9142
  72   2.0000      -0.395751       -10.7689
  73   2.0000      -0.383726       -10.4417
  74   2.0000      -0.382015       -10.3952
  75   2.0000      -0.377768       -10.2796
  76   2.0000      -0.365167        -9.9367
  77   2.0000      -0.356497        -9.7008
  78   2.0000      -0.353406        -9.6167
  79   2.0000      -0.349899        -9.5212
  80   2.0000      -0.347649        -9.4600
  81   2.0000      -0.346042        -9.4163
  82   2.0000      -0.343101        -9.3363
  83   2.0000      -0.338138        -9.2012
  84   2.0000      -0.336649        -9.1607
  85   2.0000      -0.319956        -8.7064
  86   2.0000      -0.313633        -8.5344
  87   2.0000      -0.299442        -8.1482
  88   2.0000      -0.297453        -8.0941
  89   2.0000      -0.294107        -8.0031
  90   2.0000      -0.290999        -7.9185
  91   2.0000      -0.282488        -7.6869
  92   2.0000      -0.273784        -7.4501
  93   2.0000      -0.267764        -7.2862
  94   2.0000      -0.258270        -7.0279
  95   2.0000      -0.236197        -6.4272
  96   2.0000      -0.220888        -6.0107
  97   2.0000      -0.214390        -5.8338
  98   2.0000      -0.205950        -5.6042
  99   2.0000      -0.199967        -5.4414
 100   2.0000      -0.197083        -5.3629
 101   0.0000      -0.046086        -1.2541
 102   0.0000      -0.025940        -0.7059
 103   0.0000      -0.007029        -0.1913
 104   0.0000      -0.003109        -0.0846
 105   0.0000       0.010555         0.2872

MULLIKEN ATOMIC CHARGES
-----------------------
   0 C :   -0.298760
   1 C :   -0.001763
   2 O :   -0.364191
   3 P :    0.609828
   4 S :   -0.336013
   5 O :   -0.375169
   6 C :   -0.006448
   7 C :   -0.317542
   8 S :   -0.050039
   9 C :   -0.375292
  10 S :   -0.105479
  11 P :    0.600662
  12 S :   -0.309684
  13 O :   -0.350562
  14 C :   -0.022444
  15 C :   -0.284755
  16 O :   -0.384702
  17 C :   -0.010376
  18 C :   -0.308352
  19 H :    0.128483
  20 H :    0.108054
  21 H :    0.120967
  22 H :    0.105866
  23 H :    0.105734
  24 H :    0.106095
  25 H :    0.112387
  26 H :    0.114788
  27 H :    0.127911
  28 H :    0.120718
  29 H :    0.192450
  30 H :    0.196774
  31 H :    0.103346
  32 H :    0.116019
  33 H :    0.101198
  34 H :    0.126691
  35 H :    0.118811
  36 H :    0.111665
  37 H :    0.108528
  38 H :    0.127657
  39 H :    0.125784
  40 H :    0.111157
Sum of atomic charges:   -0.0000000

LOEWDIN ATOMIC CHARGES
----------------------
   0 C :   -0.362566
   1 C :   -0.111909
   2 O :   -0.238455
   3 P :    0.571571
   4 S :   -0.323691
   5 O :   -0.245624
   6 C :   -0.120321
   7 C :   -0.368942
   8 S :    0.109575
   9 C :   -0.487952
  10 S :    0.070658
  11 P :    0.567445
  12 S :   -0.306585
  13 O :   -0.231749
  14 C :   -0.116218
  15 C :   -0.352554
  16 O :   -0.247951
  17 C :   -0.114359
  18 C :   -0.368638
  19 H :    0.125784
  20 H :    0.128495
  21 H :    0.121063
  22 H :    0.111353
  23 H :    0.117455
  24 H :    0.119104
  25 H :    0.110414
  26 H :    0.132048
  27 H :    0.121782
  28 H :    0.125997
  29 H :    0.128527
  30 H :    0.129554
  31 H :    0.112363
  32 H :    0.103605
  33 H :    0.125346
  34 H :    0.125501
  35 H :    0.128813
  36 H :    0.107516
  37 H :    0.120869
  38 H :    0.130939
  39 H :    0.121706
  40 H :    0.130033

  Mayer bond orders larger than 0.100000
B(  0-C ,  1-C ) :   1.1713 B(  0-C , 19-H ) :   0.9323 B(  0-C , 20-H ) :   0.9390
B(  0-C , 21-H ) :   0.9455 B(  1-C ,  2-O ) :   0.8875 B(  1-C , 22-H ) :   0.9157
B(  1-C , 23-H ) :   0.9325 B(  2-O ,  3-P ) :   1.1149 B(  3-P ,  4-S ) :   1.5852
B(  3-P ,  5-O ) :   1.1081 B(  3-P ,  8-S ) :   0.9703 B(  4-S ,  8-S ) :   0.1105
B(  5-O ,  6-C ) :   0.9072 B(  6-C ,  7-C ) :   1.1648 B(  6-C , 24-H ) :   0.9332
B(  6-C , 25-H ) :   0.9151 B(  7-C , 26-H ) :   0.9380 B(  7-C , 27-H ) :   0.9351
B(  7-C , 28-H ) :   0.9451 B(  8-S ,  9-C ) :   1.0043 B(  9-C , 10-S ) :   1.0091
B(  9-C , 29-H ) :   0.8731 B(  9-C , 30-H ) :   0.8694 B( 10-S , 11-P ) :   0.9385
B( 10-S , 12-S ) :   0.1094 B( 11-P , 12-S ) :   1.6463 B( 11-P , 13-O ) :   1.1421
B( 11-P , 16-O ) :   1.0841 B( 13-O , 14-C ) :   0.8870 B( 14-C , 15-C ) :   1.1688
B( 14-C , 31-H ) :   0.9308 B( 14-C , 32-H ) :   0.9056 B( 15-C , 33-H ) :   0.9404
B( 15-C , 34-H ) :   0.9409 B( 15-C , 35-H ) :   0.9481 B( 16-O , 17-C ) :   0.9142
B( 17-C , 18-C ) :   1.1667 B( 17-C , 36-H ) :   0.9264 B( 17-C , 37-H ) :   0.9335
B( 18-C , 38-H ) :   0.9434 B( 18-C , 39-H ) :   0.9324 B( 18-C , 40-H ) :   0.9349

Dispersion correction           -0.066504694
FINAL SINGLE POINT ENERGY     -2929.523359531344

DIPOLE MOMENT
-------------

Method             : SCF
Type of density    : Electron Density
Multiplicity       :   1
Irrep              :   0
Energy             : -2929.6423489502612938 Eh
Relativity type    :
Basis              : AO
                                X                 Y                 Z
Electronic contribution:     -1.789284169       0.341704356     -11.919649352
Nuclear contribution   :      2.114992619      -0.511478183      13.516488238
                        -----------------------------------------
Total Dipole Moment    :      0.325708450      -0.169773828       1.596838885
                        -----------------------------------------
Magnitude (a.u.)       :      1.638537022
Magnitude (Debye)      :      4.164830126

Rotational constants in cm-1:             0.012599             0.005019             0.004791
Rotational constants in MHz :           377.716898           150.457412           143.644030

                             ****ORCA TERMINATED NORMALLY****
TOTAL RUN TIME: 0 days 0 hours 0 minutes 21 seconds 644 msec
