                         Program Version 6.0.0  -   RELEASE  -
|  1> ! pbe def2-sv(p) def2/J RI DEFGRID1 loosescf d4 GCP(DFT/SV(P)) printgap
|  2> %output
|  3>     printlevel normal
|  4> end
|  5> * xyz 0 1
|  6> C 3.9315489741 0.9328665829 -1.5278030649
|  7> C 2.4223245123 1.0355062921 -1.5911987297
|  8> O 1.7852101544 0.0136454352 -0.8047797467
|  9> P 1.8094671934 0.0366223295 0.7793930891
| 10> S 1.9384419378 1.7808380831 1.6609753377
| 11> O 3.0680523213 -0.9148197363 1.0475062602
| 12> C 3.7155570049 -0.9872968672 2.3249573553
| 13> C 2.8404163177 -1.6482341056 3.3714170948
| 14> S 0.126106366 -1.1655372556 1.228640807
| 15> C 0.0138384871 -2.181378579 -0.2558790058
| 16> S -0.6315710618 -1.344659613 -1.7643447456
| 17> P -1.8522577483 0.1921477395 -1.021036557
| 18> S -2.9885905854 1.0270538588 -2.3795562577
| 19> O -0.7794370809 1.1663930128 -0.3529545162
| 20> C -1.1036289979 2.5515452085 -0.1060102648
| 21> C -2.1350020263 2.7065902661 0.9902244255
| 22> O -2.6330354829 -0.378990695 0.2446231559
| 23> C -3.9266219476 -0.9961431257 0.1289344579
| 24> C -3.8183318232 -2.4468628429 -0.2968096899
| 25> H 4.3685102425 1.6530774439 -2.2123501491
| 26> H 4.2745674623 1.1508788897 -0.5172623896
| 27> H 4.2512025138 -0.0689495326 -1.8017066299
| 28> H 2.0430572525 0.8629825657 -2.6003447924
| 29> H 2.084299377 2.0138346529 -1.2338203146
| 30> H 4.6205750921 -1.5649531118 2.1318813668
| 31> H 3.9820102985 0.0283851242 2.6358097616
| 32> H 2.5195348401 -2.6303081066 3.0345246669
| 33> H 3.4002669346 -1.7488668334 4.2956655206
| 34> H 1.9578471207 -1.0359242404 3.5573912912
| 35> H -0.6586034247 -2.9976137397 -0.0039340577
| 36> H 0.9979503612 -2.5512308239 -0.5332713392
| 37> H -0.1498411628 2.9985944713 0.1813373928
| 38> H -1.4575697143 2.9925500696 -1.0433642144
| 39> H -2.2547578156 3.7612272683 1.2175787291
| 40> H -3.0913272525 2.3011398626 0.6635684199
| 41> H -1.8095674206 2.179933824 1.8843520918
| 42> H -4.3564557908 -0.9022085437 1.1271104918
| 43> H -4.5227793485 -0.4231518822 -0.5896428489
| 44> H -3.3737465052 -2.5143976352 -1.2888810127
| 45> H -3.2074526998 -3.0005259331 0.4112044456
| 46> H -4.8116612917 -2.8831187589 -0.3275237512
| 47> *
| 48>
| 49>                          ****END OF INPUT****

CARTESIAN COORDINATES (ANGSTROEM)
---------------------------------
  C      3.931549    0.932867   -1.527803
  C      2.422325    1.035506   -1.591199
  O      1.785210    0.013645   -0.804780
  P      1.809467    0.036622    0.779393
  S      1.938442    1.780838    1.660975
  O      3.068052   -0.914820    1.047506
  C      3.715557   -0.987297    2.324957
  C      2.840416   -1.648234    3.371417
  S      0.126106   -1.165537    1.228641
  C      0.013838   -2.181379   -0.255879
  S     -0.631571   -1.344660   -1.764345
  P     -1.852258    0.192148   -1.021037
  S     -2.988591    1.027054   -2.379556
  O     -0.779437    1.166393   -0.352955
  C     -1.103629    2.551545   -0.106010
  C     -2.135002    2.706590    0.990224
  O     -2.633035   -0.378991    0.244623
  C     -3.926622   -0.996143    0.128934
  C     -3.818332   -2.446863   -0.296810
  H      4.368510    1.653077   -2.212350
  H      4.274567    1.150879   -0.517262
  H      4.251203   -0.068950   -1.801707
  H      2.043057    0.862983   -2.600345
  H      2.084299    2.013835   -1.233820
  H      4.620575   -1.564953    2.131881
  H      3.982010    0.028385    2.635810
  H      2.519535   -2.630308    3.034525
  H      3.400267   -1.748867    4.295666
  H      1.957847   -1.035924    3.557391
  H     -0.658603   -2.997614   -0.003934
  H      0.997950   -2.551231   -0.533271
  H     -0.149841    2.998594    0.181337
  H     -1.457570    2.992550   -1.043364
  H     -2.254758    3.761227    1.217579
  H     -3.091327    2.301140    0.663568
  H     -1.809567    2.179934    1.884352
  H     -4.356456   -0.902209    1.127110
  H     -4.522779   -0.423152   -0.589643
  H     -3.373747   -2.514398   -1.288881
  H     -3.207453   -3.000526    0.411204
  H     -4.811661   -2.883119   -0.327524

 Total Charge           Charge          ....    0
 Multiplicity           Mult            ....    1
 Number of Electrons    NEL             ....  202
 Basis Dimension        Dim             ....  334

ORBITAL ENERGIES
----------------

  NO   OCC          E(Eh)            E(eV)
   0   2.0000     -88.046204     -2395.8590
   1   2.0000     -88.040175     -2395.6949
   2   2.0000     -87.994436     -2394.4503
   3   2.0000     -87.982628     -2394.1290
   4   2.0000     -76.430187     -2079.7711
   5   2.0000     -76.423443     -2079.5876
   6   2.0000     -18.792002      -511.3564
   7   2.0000     -18.791435      -511.3409
   8   2.0000     -18.791067      -511.3309
   9   2.0000     -18.782464      -511.0968
  10   2.0000      -9.965139      -271.1652
  11   2.0000      -9.953168      -270.8395
  12   2.0000      -9.951854      -270.8037
  13   2.0000      -9.951294      -270.7885
  14   2.0000      -9.937329      -270.4085
  15   2.0000      -9.887934      -269.0644
  16   2.0000      -9.886774      -269.0328
  17   2.0000      -9.884080      -268.9595
  18   2.0000      -9.872869      -268.6544
  19   2.0000      -7.691276      -209.2903
  20   2.0000      -7.685190      -209.1247
  21   2.0000      -7.639337      -207.8769
  22   2.0000      -7.627804      -207.5631
  23   2.0000      -6.427508      -174.9014
  24   2.0000      -6.420930      -174.7224
  25   2.0000      -5.719720      -155.6415
  26   2.0000      -5.715707      -155.5323
  27   2.0000      -5.713740      -155.4788
  28   2.0000      -5.709404      -155.3608
  29   2.0000      -5.707605      -155.3118
  30   2.0000      -5.701770      -155.1531
  31   2.0000      -5.668210      -154.2398
  32   2.0000      -5.660227      -154.0226
  33   2.0000      -5.659278      -153.9968
  34   2.0000      -5.656683      -153.9262
  35   2.0000      -5.648365      -153.6998
  36   2.0000      -5.648045      -153.6911
  37   2.0000      -4.649904      -126.5303
  38   2.0000      -4.649418      -126.5171
  39   2.0000      -4.648081      -126.4807
  40   2.0000      -4.643262      -126.3496
  41   2.0000      -4.642908      -126.3400
  42   2.0000      -4.641439      -126.3000
  43   2.0000      -0.988326       -26.8937
  44   2.0000      -0.980785       -26.6885
  45   2.0000      -0.946347       -25.7514
  46   2.0000      -0.939846       -25.5745
  47   2.0000      -0.764546       -20.8044
  48   2.0000      -0.720278       -19.5997
  49   2.0000      -0.705945       -19.2097
  50   2.0000      -0.687529       -18.7086
  51   2.0000      -0.684485       -18.6258
  52   2.0000      -0.673543       -18.3280
  53   2.0000      -0.657643       -17.8954
  54   2.0000      -0.637772       -17.3547
  55   2.0000      -0.601646       -16.3716
  56   2.0000      -0.595293       -16.1987
  57   2.0000      -0.572529       -15.5793
  58   2.0000      -0.571890       -15.5619
  59   2.0000      -0.561848       -15.2887
  60   2.0000      -0.496533       -13.5114
  61   2.0000      -0.489752       -13.3268
  62   2.0000      -0.474653       -12.9160
  63   2.0000      -0.469139       -12.7659
  64   2.0000      -0.460773       -12.5383
  65   2.0000      -0.442356       -12.0371
  66   2.0000      -0.441427       -12.0118
  67   2.0000      -0.433915       -11.8074
  68   2.0000      -0.424774       -11.5587
  69   2.0000      -0.418783       -11.3957
  70   2.0000      -0.411361       -11.1937
  71   2.0000      -0.396601       -10.7921
  72   2.0000      -0.394564       -10.7366
  73   2.0000      -0.393253       -10.7010
  74   2.0000      -0.384126       -10.4526
  75   2.0000      -0.375010       -10.2045
  76   2.0000      -0.367094        -9.9891
  77   2.0000      -0.358641        -9.7591
  78   2.0000      -0.351925        -9.5764
  79   2.0000      -0.350206        -9.5296
  80   2.0000      -0.349239        -9.5033
  81   2.0000      -0.345365        -9.3978
  82   2.0000      -0.340630        -9.2690
  83   2.0000      -0.334813        -9.1107
  84   2.0000      -0.328350        -8.9349
  85   2.0000      -0.320865        -8.7312
  86   2.0000      -0.312360        -8.4997
  87   2.0000      -0.297884        -8.1058
  88   2.0000      -0.294574        -8.0158
  89   2.0000      -0.290389        -7.9019
  90   2.0000      -0.282681        -7.6922
  91   2.0000      -0.271765        -7.3951
  92   2.0000      -0.265214        -7.2168
  93   2.0000      -0.263823        -7.1790
  94   2.0000      -0.259390        -7.0584
  95   2.0000      -0.225378        -6.1328
  96   2.0000      -0.217026        -5.9056
  97   2.0000      -0.213060        -5.7977
  98   2.0000      -0.207210        -5.6385
  99   2.0000      -0.201871        -5.4932
 100   2.0000      -0.197629        -5.3778
 101   0.0000      -0.045287        -1.2323
 102   0.0000      -0.033045        -0.8992
 103   0.0000      -0.018783        -0.5111
 104   0.0000      -0.001344        -0.0366
 105   0.0000       0.017987         0.4894

MULLIKEN ATOMIC CHARGES
-----------------------
   0 C :   -0.303159
   1 C :   -0.004931
   2 O :   -0.372250
   3 P :    0.639767
   4 S :   -0.324290
   5 O :   -0.374989
   6 C :   -0.007942
   7 C :   -0.308123
   8 S :   -0.081389
   9 C :   -0.324840
  10 S :   -0.086617
  11 P :    0.628788
  12 S :   -0.327773
  13 O :   -0.378085
  14 C :   -0.016448
  15 C :   -0.301242
  16 O :   -0.374713
  17 C :   -0.009750
  18 C :   -0.319036
  19 H :    0.112564
  20 H :    0.120771
  21 H :    0.114796
  22 H :    0.108922
  23 H :    0.114341
  24 H :    0.104090
  25 H :    0.110094
  26 H :    0.113977
  27 H :    0.113222
  28 H :    0.122311
  29 H :    0.188297
  30 H :    0.183840
  31 H :    0.115966
  32 H :    0.107688
  33 H :    0.107603
  34 H :    0.114850
  35 H :    0.117741
  36 H :    0.106124
  37 H :    0.112220
  38 H :    0.129175
  39 H :    0.114025
  40 H :    0.114402
Sum of atomic charges:   -0.0000000

LOEWDIN ATOMIC CHARGES
----------------------
   0 C :   -0.363844
   1 C :   -0.114373
   2 O :   -0.234843
   3 P :    0.583485
   4 S :   -0.305345
   5 O :   -0.252606
   6 C :   -0.122804
   7 C :   -0.367196
   8 S :    0.114214
   9 C :   -0.468079
  10 S :    0.087212
  11 P :    0.564900
  12 S :   -0.324294
  13 O :   -0.246320
  14 C :   -0.127502
  15 C :   -0.363923
  16 O :   -0.243744
  17 C :   -0.122455
  18 C :   -0.366137
  19 H :    0.130650
  20 H :    0.121946
  21 H :    0.125855
  22 H :    0.120217
  23 H :    0.111581
  24 H :    0.117981
  25 H :    0.108432
  26 H :    0.123105
  27 H :    0.130686
  28 H :    0.118563
  29 H :    0.134234
  30 H :    0.136128
  31 H :    0.109547
  32 H :    0.107047
  33 H :    0.129072
  34 H :    0.118432
  35 H :    0.126908
  36 H :    0.118705
  37 H :    0.108956
  38 H :    0.123070
  39 H :    0.120278
  40 H :    0.132260

  Mayer bond orders larger than 0.100000
B(  0-C ,  1-C ) :   1.1640 B(  0-C , 19-H ) :   0.9395 B(  0-C , 20-H ) :   0.9377
B(  0-C , 21-H ) :   0.9460 B(  1-C ,  2-O ) :   0.8997 B(  1-C , 22-H ) :   0.9315
B(  1-C , 23-H ) :   0.9178 B(  2-O ,  3-P ) :   1.1165 B(  3-P ,  4-S ) :   1.6139
B(  3-P ,  5-O ) :   1.0739 B(  3-P ,  8-S ) :   0.9546 B(  5-O ,  6-C ) :   0.9210
B(  6-C ,  7-C ) :   1.1637 B(  6-C , 24-H ) :   0.9336 B(  6-C , 25-H ) :   0.9147
B(  7-C , 26-H ) :   0.9447 B(  7-C , 27-H ) :   0.9386 B(  7-C , 28-H ) :   0.9374
B(  8-S ,  9-C ) :   1.0267 B(  9-C , 10-S ) :   0.9489 B(  9-C , 29-H ) :   0.9018
B(  9-C , 30-H ) :   0.9053 B( 10-S , 11-P ) :   1.0037 B( 11-P , 12-S ) :   1.6300
B( 11-P , 13-O ) :   1.0948 B( 11-P , 16-O ) :   1.0688 B( 13-O , 14-C ) :   0.9012
B( 14-C , 15-C ) :   1.1693 B( 14-C , 31-H ) :   0.9100 B( 14-C , 32-H ) :   0.9157
B( 15-C , 33-H ) :   0.9386 B( 15-C , 34-H ) :   0.9375 B( 15-C , 35-H ) :   0.9443
B( 16-O , 17-C ) :   0.9133 B( 17-C , 18-C ) :   1.1645 B( 17-C , 36-H ) :   0.9332
B( 17-C , 37-H ) :   0.9066 B( 18-C , 38-H ) :   0.9365 B( 18-C , 39-H ) :   0.9421
B( 18-C , 40-H ) :   0.9385

Dispersion correction           -0.069429331
FINAL SINGLE POINT ENERGY     -2929.514263314124

DIPOLE MOMENT
-------------

Method             : SCF
Type of density    : Electron Density
Multiplicity       :   1
Irrep              :   0
Energy             : -2929.6323026929267144 Eh
Relativity type    :
Basis              : AO
                                X                 Y                 Z
Electronic contribution:     -3.930029790       1.375841349      -7.981691166
Nuclear contribution   :      4.613511685      -2.446287205       8.686799067
                        -----------------------------------------
Total Dipole Moment    :      0.683481895      -1.070445857       0.705107901
                        -----------------------------------------
Magnitude (a.u.)       :      1.452645513
Magnitude (Debye)      :      3.692331458

Rotational constants in cm-1:             0.012279             0.005740             0.005322
Rotational constants in MHz :           368.100402           172.093397           159.550375

                             ****ORCA TERMINATED NORMALLY****
TOTAL RUN TIME: 0 days 0 hours 0 minutes 22 seconds 184 msec
