                         Program Version 6.0.0  -   RELEASE  -
|  1> ! pbe def2-sv(p) def2/J RI DEFGRID1 loosescf d4 GCP(DFT/SV(P)) printgap
|  2> %output
|  3>     printlevel normal
|  4> end
|  5> * xyz 0 1
|  6> C 5.251965255 -0.3235910683 -1.3629678008
|  7> C 4.4295390965 -0.7568632438 -0.1654323337
|  8> O 3.466370127 0.2486527251 0.2063808189
|  9> P 2.0037925949 0.3374029746 -0.4152456736
| 10> S 1.8666981681 0.609724678 -2.3460495046
| 11> O 1.3923111998 1.5263230101 0.414130121
| 12> C 1.4987245079 1.6261954777 1.8556421946
| 13> C 2.5990976943 2.5922483023 2.2414265051
| 14> S 1.159219848 -1.4854531593 0.2998780592
| 15> C -0.0216604394 -1.8551308168 -1.0333473216
| 16> S -1.7256011978 -1.9981148805 -0.4536025402
| 17> P -2.0222782343 0.0337195188 0.1053276651
| 18> S -1.4504066399 1.3964166262 -1.1777537551
| 19> O -1.2909186037 0.1845360773 1.4965181517
| 20> C -1.5742417285 -0.6648355029 2.6409201
| 21> C -2.5190546309 0.0281852419 3.5999359907
| 22> O -3.556336094 0.0768877655 0.5164343081
| 23> C -4.6076295739 0.3346660041 -0.4313391664
| 24> C -4.7373257416 -0.7668661938 -1.4628677714
| 25> H 4.6144287387 -0.2028040648 -2.2360117107
| 26> H 5.7425559229 0.624066315 -1.158525851
| 27> H 6.0022682413 -1.0790625492 -1.5725045486
| 28> H 5.0535140452 -0.8702026219 0.723294237
| 29> H 3.9071616307 -1.6961443307 -0.3663141725
| 30> H 0.5180861087 1.9834326665 2.1762229589
| 31> H 1.6810928914 0.6291254603 2.266219039
| 32> H 2.4168322251 3.5617274837 1.7856489068
| 33> H 2.6143909727 2.6990842524 3.3215608936
| 34> H 3.561738247 2.2206092649 1.9006529144
| 35> H 0.235703245 -2.8245944136 -1.4523828864
| 36> H 0.055985765 -1.067002272 -1.7885699987
| 37> H -1.993409777 -1.6098732021 2.2853079622
| 38> H -0.5989254614 -0.8460902809 3.0969274462
| 39> H -3.4795063923 0.2013063545 3.1222404058
| 40> H -2.6606764889 -0.6027733384 4.4717347232
| 41> H -2.1052634401 0.9830766015 3.9120193827
| 42> H -5.5018270828 0.4130053855 0.1886721316
| 43> H -4.4045747133 1.2940823199 -0.9168600195
| 44> H -4.8120296136 -1.7361138367 -0.9762191916
| 45> H -5.6256750766 -0.5933017147 -2.0616525511
| 46> H -3.8674266918 -0.7675757105 -2.1181416567
| 47> *
| 48>
| 49>                          ****END OF INPUT****

CARTESIAN COORDINATES (ANGSTROEM)
---------------------------------
  C      5.251965   -0.323591   -1.362968
  C      4.429539   -0.756863   -0.165432
  O      3.466370    0.248653    0.206381
  P      2.003793    0.337403   -0.415246
  S      1.866698    0.609725   -2.346050
  O      1.392311    1.526323    0.414130
  C      1.498725    1.626195    1.855642
  C      2.599098    2.592248    2.241427
  S      1.159220   -1.485453    0.299878
  C     -0.021660   -1.855131   -1.033347
  S     -1.725601   -1.998115   -0.453603
  P     -2.022278    0.033720    0.105328
  S     -1.450407    1.396417   -1.177754
  O     -1.290919    0.184536    1.496518
  C     -1.574242   -0.664836    2.640920
  C     -2.519055    0.028185    3.599936
  O     -3.556336    0.076888    0.516434
  C     -4.607630    0.334666   -0.431339
  C     -4.737326   -0.766866   -1.462868
  H      4.614429   -0.202804   -2.236012
  H      5.742556    0.624066   -1.158526
  H      6.002268   -1.079063   -1.572505
  H      5.053514   -0.870203    0.723294
  H      3.907162   -1.696144   -0.366314
  H      0.518086    1.983433    2.176223
  H      1.681093    0.629125    2.266219
  H      2.416832    3.561727    1.785649
  H      2.614391    2.699084    3.321561
  H      3.561738    2.220609    1.900653
  H      0.235703   -2.824594   -1.452383
  H      0.055986   -1.067002   -1.788570
  H     -1.993410   -1.609873    2.285308
  H     -0.598925   -0.846090    3.096927
  H     -3.479506    0.201306    3.122240
  H     -2.660676   -0.602773    4.471735
  H     -2.105263    0.983077    3.912019
  H     -5.501827    0.413005    0.188672
  H     -4.404575    1.294082   -0.916860
  H     -4.812030   -1.736114   -0.976219
  H     -5.625675   -0.593302   -2.061653
  H     -3.867427   -0.767576   -2.118142

 Total Charge           Charge          ....    0
 Multiplicity           Mult            ....    1
 Number of Electrons    NEL             ....  202
 Basis Dimension        Dim             ....  334

ORBITAL ENERGIES
----------------

  NO   OCC          E(Eh)            E(eV)
   0   2.0000     -88.042591     -2395.7607
   1   2.0000     -88.039996     -2395.6901
   2   2.0000     -87.979000     -2394.0303
   3   2.0000     -87.978093     -2394.0056
   4   2.0000     -76.423080     -2079.5777
   5   2.0000     -76.421125     -2079.5245
   6   2.0000     -18.794409      -511.4219
   7   2.0000     -18.791831      -511.3517
   8   2.0000     -18.791177      -511.3339
   9   2.0000     -18.783296      -511.1195
  10   2.0000      -9.955671      -270.9076
  11   2.0000      -9.953940      -270.8605
  12   2.0000      -9.952832      -270.8303
  13   2.0000      -9.952381      -270.8180
  14   2.0000      -9.949113      -270.7291
  15   2.0000      -9.888513      -269.0801
  16   2.0000      -9.884601      -268.9737
  17   2.0000      -9.881389      -268.8863
  18   2.0000      -9.877949      -268.7927
  19   2.0000      -7.687624      -209.1909
  20   2.0000      -7.684713      -209.1117
  21   2.0000      -7.623991      -207.4594
  22   2.0000      -7.623312      -207.4409
  23   2.0000      -6.420573      -174.7127
  24   2.0000      -6.418485      -174.6559
  25   2.0000      -5.715428      -155.5247
  26   2.0000      -5.712484      -155.4446
  27   2.0000      -5.711988      -155.4311
  28   2.0000      -5.709101      -155.3525
  29   2.0000      -5.704820      -155.2360
  30   2.0000      -5.701950      -155.1580
  31   2.0000      -5.653103      -153.8288
  32   2.0000      -5.652391      -153.8094
  33   2.0000      -5.644409      -153.5922
  34   2.0000      -5.644187      -153.5861
  35   2.0000      -5.643811      -153.5759
  36   2.0000      -5.643359      -153.5636
  37   2.0000      -4.643498      -126.3560
  38   2.0000      -4.642324      -126.3241
  39   2.0000      -4.641268      -126.2953
  40   2.0000      -4.640682      -126.2794
  41   2.0000      -4.640297      -126.2689
  42   2.0000      -4.638744      -126.2266
  43   2.0000      -0.988403       -26.8958
  44   2.0000      -0.984478       -26.7890
  45   2.0000      -0.945634       -25.7320
  46   2.0000      -0.939205       -25.5571
  47   2.0000      -0.760263       -20.6878
  48   2.0000      -0.718124       -19.5411
  49   2.0000      -0.709196       -19.2982
  50   2.0000      -0.691312       -18.8116
  51   2.0000      -0.686489       -18.6803
  52   2.0000      -0.674752       -18.3609
  53   2.0000      -0.647589       -17.6218
  54   2.0000      -0.631947       -17.1961
  55   2.0000      -0.594167       -16.1681
  56   2.0000      -0.583446       -15.8764
  57   2.0000      -0.576416       -15.6851
  58   2.0000      -0.568350       -15.4656
  59   2.0000      -0.563504       -15.3337
  60   2.0000      -0.506174       -13.7737
  61   2.0000      -0.496409       -13.5080
  62   2.0000      -0.475827       -12.9479
  63   2.0000      -0.474117       -12.9014
  64   2.0000      -0.450205       -12.2507
  65   2.0000      -0.445926       -12.1343
  66   2.0000      -0.442854       -12.0507
  67   2.0000      -0.430594       -11.7171
  68   2.0000      -0.428348       -11.6559
  69   2.0000      -0.421777       -11.4771
  70   2.0000      -0.410319       -11.1654
  71   2.0000      -0.396533       -10.7902
  72   2.0000      -0.392345       -10.6762
  73   2.0000      -0.382402       -10.4057
  74   2.0000      -0.378523       -10.3001
  75   2.0000      -0.365326        -9.9410
  76   2.0000      -0.361969        -9.8497
  77   2.0000      -0.356675        -9.7056
  78   2.0000      -0.354247        -9.6395
  79   2.0000      -0.352876        -9.6022
  80   2.0000      -0.348650        -9.4873
  81   2.0000      -0.345615        -9.4047
  82   2.0000      -0.338923        -9.2226
  83   2.0000      -0.335262        -9.1229
  84   2.0000      -0.331124        -9.0103
  85   2.0000      -0.317121        -8.6293
  86   2.0000      -0.313877        -8.5410
  87   2.0000      -0.297970        -8.1082
  88   2.0000      -0.292910        -7.9705
  89   2.0000      -0.292212        -7.9515
  90   2.0000      -0.286465        -7.7951
  91   2.0000      -0.273851        -7.4519
  92   2.0000      -0.266948        -7.2640
  93   2.0000      -0.262311        -7.1378
  94   2.0000      -0.257221        -6.9993
  95   2.0000      -0.234619        -6.3843
  96   2.0000      -0.220857        -6.0098
  97   2.0000      -0.210598        -5.7307
  98   2.0000      -0.199230        -5.4213
  99   2.0000      -0.188681        -5.1343
 100   2.0000      -0.180876        -4.9219
 101   0.0000      -0.036828        -1.0022
 102   0.0000      -0.028762        -0.7826
 103   0.0000      -0.008580        -0.2335
 104   0.0000       0.010390         0.2827
 105   0.0000       0.019006         0.5172

MULLIKEN ATOMIC CHARGES
-----------------------
   0 C :   -0.293629
   1 C :   -0.008245
   2 O :   -0.383237
   3 P :    0.602438
   4 S :   -0.286355
   5 O :   -0.339677
   6 C :   -0.019835
   7 C :   -0.280193
   8 S :   -0.126604
   9 C :   -0.344562
  10 S :   -0.104120
  11 P :    0.579526
  12 S :   -0.273173
  13 O :   -0.353913
  14 C :   -0.012010
  15 C :   -0.286043
  16 O :   -0.382136
  17 C :    0.001528
  18 C :   -0.323447
  19 H :    0.130539
  20 H :    0.113053
  21 H :    0.105265
  22 H :    0.102414
  23 H :    0.099770
  24 H :    0.118506
  25 H :    0.094654
  26 H :    0.121955
  27 H :    0.103843
  28 H :    0.117645
  29 H :    0.180208
  30 H :    0.206100
  31 H :    0.103032
  32 H :    0.106324
  33 H :    0.122246
  34 H :    0.109123
  35 H :    0.116243
  36 H :    0.103431
  37 H :    0.113224
  38 H :    0.117005
  39 H :    0.115344
  40 H :    0.133760
Sum of atomic charges:    0.0000000

LOEWDIN ATOMIC CHARGES
----------------------
   0 C :   -0.365160
   1 C :   -0.118501
   2 O :   -0.247626
   3 P :    0.567457
   4 S :   -0.288480
   5 O :   -0.222000
   6 C :   -0.114026
   7 C :   -0.358241
   8 S :    0.055630
   9 C :   -0.481767
  10 S :    0.073808
  11 P :    0.558884
  12 S :   -0.283694
  13 O :   -0.233287
  14 C :   -0.118782
  15 C :   -0.358496
  16 O :   -0.249162
  17 C :   -0.116946
  18 C :   -0.372333
  19 H :    0.124282
  20 H :    0.125919
  21 H :    0.127828
  22 H :    0.116328
  23 H :    0.103075
  24 H :    0.120053
  25 H :    0.100717
  26 H :    0.130148
  27 H :    0.126823
  28 H :    0.124883
  29 H :    0.136746
  30 H :    0.125460
  31 H :    0.103788
  32 H :    0.114283
  33 H :    0.127099
  34 H :    0.129369
  35 H :    0.125950
  36 H :    0.117640
  37 H :    0.113661
  38 H :    0.122507
  39 H :    0.132325
  40 H :    0.123836

  Mayer bond orders larger than 0.100000
B(  0-C ,  1-C ) :   1.1671 B(  0-C , 19-H ) :   0.9287 B(  0-C , 20-H ) :   0.9475
B(  0-C , 21-H ) :   0.9387 B(  1-C ,  2-O ) :   0.9081 B(  1-C , 22-H ) :   0.9366
B(  1-C , 23-H ) :   0.9118 B(  2-O ,  3-P ) :   1.0657 B(  3-P ,  4-S ) :   1.6516
B(  3-P ,  5-O ) :   1.1478 B(  3-P ,  8-S ) :   0.9430 B(  4-S ,  8-S ) :   0.1175
B(  5-O ,  6-C ) :   0.8931 B(  6-C ,  7-C ) :   1.1590 B(  6-C , 24-H ) :   0.9267
B(  6-C , 25-H ) :   0.9158 B(  7-C , 26-H ) :   0.9466 B(  7-C , 27-H ) :   0.9406
B(  7-C , 28-H ) :   0.9421 B(  8-S ,  9-C ) :   0.9952 B(  9-C , 10-S ) :   0.9988
B(  9-C , 29-H ) :   0.9116 B(  9-C , 30-H ) :   0.8434 B( 10-S , 11-P ) :   0.9423
B( 10-S , 12-S ) :   0.1082 B( 11-P , 12-S ) :   1.6806 B( 11-P , 13-O ) :   1.1189
B( 11-P , 16-O ) :   1.0756 B( 13-O , 14-C ) :   0.8851 B( 14-C , 15-C ) :   1.1646
B( 14-C , 31-H ) :   0.9092 B( 14-C , 32-H ) :   0.9303 B( 15-C , 33-H ) :   0.9415
B( 15-C , 34-H ) :   0.9400 B( 15-C , 35-H ) :   0.9485 B( 16-O , 17-C ) :   0.9053
B( 17-C , 18-C ) :   1.1665 B( 17-C , 36-H ) :   0.9340 B( 17-C , 37-H ) :   0.9171
B( 18-C , 38-H ) :   0.9433 B( 18-C , 39-H ) :   0.9370 B( 18-C , 40-H ) :   0.9335

Dispersion correction           -0.067236317
FINAL SINGLE POINT ENERGY     -2929.516618100123

DIPOLE MOMENT
-------------

Method             : SCF
Type of density    : Electron Density
Multiplicity       :   1
Irrep              :   0
Energy             : -2929.6358771836439701 Eh
Relativity type    :
Basis              : AO
                                X                 Y                 Z
Electronic contribution:     -1.542874063      -1.425733766     -12.432518272
Nuclear contribution   :      1.291731363       0.411160752      14.122791310
                        -----------------------------------------
Total Dipole Moment    :     -0.251142701      -1.014573015       1.690273038
                        -----------------------------------------
Magnitude (a.u.)       :      1.987323325
Magnitude (Debye)      :      5.051374454

Rotational constants in cm-1:             0.012852             0.005334             0.004834
Rotational constants in MHz :           385.299626           159.909966           144.905308

                             ****ORCA TERMINATED NORMALLY****
TOTAL RUN TIME: 0 days 0 hours 0 minutes 21 seconds 314 msec
