                         Program Version 6.0.0  -   RELEASE  -
|  1> ! r2scan-3c def2/J RI DEFGRID2 scfconv6 printgap
|  2> %output
|  3>     printlevel normal
|  4> end
|  5> * xyz 0 1
|  6> C 3.7508331184 -1.8231341959 -2.2469719409
|  7> C 2.4952785221 -0.9769947877 -2.2245589156
|  8> O 1.785175815 -1.1111760628 -0.9788600744
|  9> P 2.3495863503 -0.5390689624 0.3868649288
| 10> S 3.4445253139 1.0884053695 0.2579668381
| 11> O 3.0884153587 -1.8107366981 0.9877801639
| 12> C 4.0100410455 -1.7210907425 2.0882793487
| 13> C 3.3202666841 -1.3337290958 3.380502776
| 14> S 0.551503447 -0.3994983736 1.4804361614
| 15> C 0.1110008919 1.2629804114 0.9209772233
| 16> S -0.3980488327 1.3446318654 -0.8282307166
| 17> P -2.434037497 0.8298890526 -0.5942562206
| 18> S -3.5404561119 0.8160217502 -2.2091556041
| 19> O -2.8169997868 1.9052651214 0.5101433388
| 20> C -4.1873546737 2.2878272251 0.7512087382
| 21> C -4.9927800081 1.1585956897 1.3586901097
| 22> O -2.4518321318 -0.5218912838 0.2534188018
| 23> C -2.6172790245 -1.8087222932 -0.3614154548
| 24> C -1.4365100238 -2.1859607053 -1.2323580927
| 25> H 3.5112116125 -2.8559744633 -2.0084788479
| 26> H 4.2016498937 -1.7732022737 -3.2331103392
| 27> H 4.4629027552 -1.4474798483 -1.5129634323
| 28> H 1.7727425623 -1.2996936401 -2.9753102179
| 29> H 2.733684536 0.0809437212 -2.3752373716
| 30> H 4.4455449823 -2.7194626415 2.1466845471
| 31> H 4.7841366439 -0.9904842927 1.8324514931
| 32> H 2.9538397592 -0.3100974602 3.3148360692
| 33> H 2.4789858039 -1.9948606084 3.572527165
| 34> H 4.0283027417 -1.4018008826 4.2002344928
| 35> H 0.9869617652 1.907460407 1.0014101252
| 36> H -0.7003674321 1.6155429704 1.549666161
| 37> H -4.1037081597 3.1383446455 1.4290981367
| 38> H -4.6275237542 2.6097452925 -0.1977388495
| 39> H -4.4941231438 0.7723478609 2.2438558911
| 40> H -5.9777773785 1.5261622554 1.6289442491
| 41> H -5.1034094289 0.3521795063 0.6350928389
| 42> H -2.7315711132 -2.490827575 0.4818208738
| 43> H -3.5343263077 -1.7888636293 -0.9593131022
| 44> H -0.5152521838 -2.188869415 -0.6549884728
| 45> H -1.5989285186 -3.1734430884 -1.6522102894
| 46> H -1.3376706115 -1.467578331 -2.0471721131
| 47> *
| 48>
| 49>                          ****END OF INPUT****

CARTESIAN COORDINATES (ANGSTROEM)
---------------------------------
  C      3.750833   -1.823134   -2.246972
  C      2.495279   -0.976995   -2.224559
  O      1.785176   -1.111176   -0.978860
  P      2.349586   -0.539069    0.386865
  S      3.444525    1.088405    0.257967
  O      3.088415   -1.810737    0.987780
  C      4.010041   -1.721091    2.088279
  C      3.320267   -1.333729    3.380503
  S      0.551503   -0.399498    1.480436
  C      0.111001    1.262980    0.920977
  S     -0.398049    1.344632   -0.828231
  P     -2.434037    0.829889   -0.594256
  S     -3.540456    0.816022   -2.209156
  O     -2.817000    1.905265    0.510143
  C     -4.187355    2.287827    0.751209
  C     -4.992780    1.158596    1.358690
  O     -2.451832   -0.521891    0.253419
  C     -2.617279   -1.808722   -0.361415
  C     -1.436510   -2.185961   -1.232358
  H      3.511212   -2.855974   -2.008479
  H      4.201650   -1.773202   -3.233110
  H      4.462903   -1.447480   -1.512963
  H      1.772743   -1.299694   -2.975310
  H      2.733685    0.080944   -2.375237
  H      4.445545   -2.719463    2.146685
  H      4.784137   -0.990484    1.832451
  H      2.953840   -0.310097    3.314836
  H      2.478986   -1.994861    3.572527
  H      4.028303   -1.401801    4.200234
  H      0.986962    1.907460    1.001410
  H     -0.700367    1.615543    1.549666
  H     -4.103708    3.138345    1.429098
  H     -4.627524    2.609745   -0.197739
  H     -4.494123    0.772348    2.243856
  H     -5.977777    1.526162    1.628944
  H     -5.103409    0.352180    0.635093
  H     -2.731571   -2.490828    0.481821
  H     -3.534326   -1.788864   -0.959313
  H     -0.515252   -2.188869   -0.654988
  H     -1.598929   -3.173443   -1.652210
  H     -1.337671   -1.467578   -2.047172

 Total Charge           Charge          ....    0
 Multiplicity           Mult            ....    1
 Number of Electrons    NEL             ....  202
 Basis Dimension        Dim             ....  539

ORBITAL ENERGIES
----------------

  NO   OCC          E(Eh)            E(eV)
   0   2.0000     -88.577817     -2410.3249
   1   2.0000     -88.572329     -2410.1756
   2   2.0000     -88.526530     -2408.9294
   3   2.0000     -88.521097     -2408.7815
   4   2.0000     -76.917793     -2093.0396
   5   2.0000     -76.913453     -2092.9215
   6   2.0000     -18.998273      -516.9693
   7   2.0000     -18.991586      -516.7873
   8   2.0000     -18.989954      -516.7429
   9   2.0000     -18.988972      -516.7162
  10   2.0000     -10.107097      -275.0281
  11   2.0000     -10.103457      -274.9290
  12   2.0000     -10.098960      -274.8067
  13   2.0000     -10.097663      -274.7714
  14   2.0000     -10.094377      -274.6820
  15   2.0000     -10.032878      -273.0085
  16   2.0000     -10.030298      -272.9383
  17   2.0000     -10.029847      -272.9260
  18   2.0000     -10.019512      -272.6448
  19   2.0000      -7.872386      -214.2185
  20   2.0000      -7.866367      -214.0547
  21   2.0000      -7.821167      -212.8248
  22   2.0000      -7.815717      -212.6765
  23   2.0000      -6.596435      -179.4981
  24   2.0000      -6.591769      -179.3711
  25   2.0000      -5.819219      -158.3490
  26   2.0000      -5.816275      -158.2689
  27   2.0000      -5.813713      -158.1992
  28   2.0000      -5.810021      -158.0987
  29   2.0000      -5.809458      -158.0834
  30   2.0000      -5.803263      -157.9148
  31   2.0000      -5.768709      -156.9746
  32   2.0000      -5.763398      -156.8300
  33   2.0000      -5.761493      -156.7782
  34   2.0000      -5.761259      -156.7718
  35   2.0000      -5.756114      -156.6318
  36   2.0000      -5.755598      -156.6178
  37   2.0000      -4.741820      -129.0315
  38   2.0000      -4.741274      -129.0166
  39   2.0000      -4.740337      -128.9911
  40   2.0000      -4.737103      -128.9031
  41   2.0000      -4.736775      -128.8942
  42   2.0000      -4.735611      -128.8625
  43   2.0000      -1.054026       -28.6815
  44   2.0000      -1.048389       -28.5281
  45   2.0000      -1.015169       -27.6242
  46   2.0000      -1.009729       -27.4761
  47   2.0000      -0.802186       -21.8286
  48   2.0000      -0.759959       -20.6795
  49   2.0000      -0.747986       -20.3537
  50   2.0000      -0.733984       -19.9727
  51   2.0000      -0.728233       -19.8162
  52   2.0000      -0.712253       -19.3814
  53   2.0000      -0.691608       -18.8196
  54   2.0000      -0.670444       -18.2437
  55   2.0000      -0.636505       -17.3202
  56   2.0000      -0.626539       -17.0490
  57   2.0000      -0.608580       -16.5603
  58   2.0000      -0.604068       -16.4375
  59   2.0000      -0.591883       -16.1060
  60   2.0000      -0.522097       -14.2070
  61   2.0000      -0.517052       -14.0697
  62   2.0000      -0.496424       -13.5084
  63   2.0000      -0.489550       -13.3213
  64   2.0000      -0.479327       -13.0432
  65   2.0000      -0.464515       -12.6401
  66   2.0000      -0.461857       -12.5678
  67   2.0000      -0.455955       -12.4072
  68   2.0000      -0.446184       -12.1413
  69   2.0000      -0.432091       -11.7578
  70   2.0000      -0.427092       -11.6218
  71   2.0000      -0.413405       -11.2493
  72   2.0000      -0.412339       -11.2203
  73   2.0000      -0.409692       -11.1483
  74   2.0000      -0.406719       -11.0674
  75   2.0000      -0.393872       -10.7178
  76   2.0000      -0.381141       -10.3714
  77   2.0000      -0.375500       -10.2179
  78   2.0000      -0.368901       -10.0383
  79   2.0000      -0.367172        -9.9912
  80   2.0000      -0.363748        -9.8981
  81   2.0000      -0.358980        -9.7683
  82   2.0000      -0.357546        -9.7293
  83   2.0000      -0.352833        -9.6011
  84   2.0000      -0.344094        -9.3633
  85   2.0000      -0.334474        -9.1015
  86   2.0000      -0.325750        -8.8641
  87   2.0000      -0.314183        -8.5493
  88   2.0000      -0.308933        -8.4065
  89   2.0000      -0.303285        -8.2528
  90   2.0000      -0.299882        -8.1602
  91   2.0000      -0.292115        -7.9488
  92   2.0000      -0.288455        -7.8493
  93   2.0000      -0.283878        -7.7247
  94   2.0000      -0.271745        -7.3946
  95   2.0000      -0.244295        -6.6476
  96   2.0000      -0.229270        -6.2388
  97   2.0000      -0.227127        -6.1804
  98   2.0000      -0.222079        -6.0431
  99   2.0000      -0.220237        -5.9929
 100   2.0000      -0.215051        -5.8518
 101   0.0000      -0.043678        -1.1885
 102   0.0000      -0.022248        -0.6054
 103   0.0000      -0.015891        -0.4324
 104   0.0000       0.005977         0.1627
 105   0.0000       0.009377         0.2552

MULLIKEN ATOMIC CHARGES
-----------------------
   0 C :   -0.441070
   1 C :   -0.150012
   2 O :   -0.267843
   3 P :    0.660572
   4 S :   -0.480501
   5 O :   -0.304888
   6 C :   -0.148597
   7 C :   -0.455813
   8 S :   -0.091922
   9 C :   -0.266108
  10 S :   -0.109904
  11 P :    0.655759
  12 S :   -0.462770
  13 O :   -0.305649
  14 C :   -0.155520
  15 C :   -0.431181
  16 O :   -0.267580
  17 C :   -0.142408
  18 C :   -0.456405
  19 H :    0.156200
  20 H :    0.148454
  21 H :    0.165566
  22 H :    0.155749
  23 H :    0.173459
  24 H :    0.149515
  25 H :    0.171573
  26 H :    0.178071
  27 H :    0.156051
  28 H :    0.149020
  29 H :    0.215799
  30 H :    0.211910
  31 H :    0.148846
  32 H :    0.174093
  33 H :    0.153607
  34 H :    0.147729
  35 H :    0.166620
  36 H :    0.147010
  37 H :    0.163139
  38 H :    0.178788
  39 H :    0.143120
  40 H :    0.167519
Sum of atomic charges:    0.0000000

LOEWDIN ATOMIC CHARGES
----------------------
   0 C :   -0.398580
   1 C :    0.020947
   2 O :   -0.682070
   3 P :    0.375921
   4 S :   -0.132053
   5 O :   -0.659737
   6 C :    0.020927
   7 C :   -0.406749
   8 S :    0.177255
   9 C :   -0.410248
  10 S :    0.189373
  11 P :    0.370791
  12 S :   -0.110938
  13 O :   -0.693609
  14 C :    0.023746
  15 C :   -0.399425
  16 O :   -0.677363
  17 C :    0.016129
  18 C :   -0.408736
  19 H :    0.160816
  20 H :    0.160053
  21 H :    0.163973
  22 H :    0.182121
  23 H :    0.181373
  24 H :    0.180151
  25 H :    0.179620
  26 H :    0.165827
  27 H :    0.160416
  28 H :    0.159917
  29 H :    0.195043
  30 H :    0.195916
  31 H :    0.179512
  32 H :    0.180899
  33 H :    0.160582
  34 H :    0.159650
  35 H :    0.164740
  36 H :    0.179753
  37 H :    0.178528
  38 H :    0.172074
  39 H :    0.157325
  40 H :    0.166131

  Mayer bond orders larger than 0.100000
B(  0-C ,  1-C ) :   0.9211 B(  0-C , 19-H ) :   0.9724 B(  0-C , 20-H ) :   0.9620
B(  0-C , 21-H ) :   0.9603 B(  1-C ,  2-O ) :   0.7911 B(  1-C , 22-H ) :   0.9616
B(  1-C , 23-H ) :   0.9634 B(  2-O ,  3-P ) :   1.1386 B(  3-P ,  4-S ) :   1.7527
B(  3-P ,  5-O ) :   1.0662 B(  3-P ,  8-S ) :   1.1025 B(  5-O ,  6-C ) :   0.8141
B(  6-C ,  7-C ) :   0.9215 B(  6-C , 24-H ) :   0.9582 B(  6-C , 25-H ) :   0.9667
B(  7-C , 26-H ) :   0.9621 B(  7-C , 27-H ) :   0.9686 B(  7-C , 28-H ) :   0.9579
B(  8-S ,  9-C ) :   0.9194 B(  9-C , 10-S ) :   0.9099 B(  9-C , 29-H ) :   0.9097
B(  9-C , 30-H ) :   0.9103 B( 10-S , 11-P ) :   1.0898 B( 11-P , 12-S ) :   1.8081
B( 11-P , 13-O ) :   1.1268 B( 11-P , 16-O ) :   1.0325 B( 13-O , 14-C ) :   0.8113
B( 14-C , 15-C ) :   0.9246 B( 14-C , 31-H ) :   0.9623 B( 14-C , 32-H ) :   0.9663
B( 15-C , 33-H ) :   0.9704 B( 15-C , 34-H ) :   0.9612 B( 15-C , 35-H ) :   0.9604
B( 16-O , 17-C ) :   0.7929 B( 17-C , 18-C ) :   0.9315 B( 17-C , 36-H ) :   0.9607
B( 17-C , 37-H ) :   0.9582 B( 18-C , 38-H ) :   0.9579 B( 18-C , 39-H ) :   0.9612
B( 18-C , 40-H ) :   0.9606

Dispersion correction           -0.021576672
FINAL SINGLE POINT ENERGY     -2932.463654753511

DIPOLE MOMENT
-------------

Method             : SCF
Type of density    : Electron Density
Multiplicity       :   1
Irrep              :   0
Energy             : -2932.4887392524215102 Eh
Relativity type    :
Basis              : AO
                                X                 Y                 Z
Electronic contribution:     -1.413191059      12.307417001      -5.097811339
Nuclear contribution   :      1.602135849     -13.405627249       6.257503557
                        -----------------------------------------
Total Dipole Moment    :      0.188944789      -1.098210248       1.159692219
                        -----------------------------------------
Magnitude (a.u.)       :      1.608307161
Magnitude (Debye)      :      4.087991925

Rotational constants in cm-1:             0.013913             0.004489             0.004189
Rotational constants in MHz :           417.099828           134.584585           125.585500

                             ****ORCA TERMINATED NORMALLY****
TOTAL RUN TIME: 0 days 0 hours 1 minutes 19 seconds 577 msec
