                         Program Version 6.0.0  -   RELEASE  -
|  1> ! r2scan-3c def2/J RI DEFGRID2 scfconv6 printgap
|  2> %output
|  3>     printlevel normal
|  4> end
|  5> %cpcm
|  6>     smd true
|  7>     smdsolvent "water"
|  8> end
|  9> * xyz 0 1
| 10> C 3.7508331184 -1.8231341959 -2.2469719409
| 11> C 2.4952785221 -0.9769947877 -2.2245589156
| 12> O 1.785175815 -1.1111760628 -0.9788600744
| 13> P 2.3495863503 -0.5390689624 0.3868649288
| 14> S 3.4445253139 1.0884053695 0.2579668381
| 15> O 3.0884153587 -1.8107366981 0.9877801639
| 16> C 4.0100410455 -1.7210907425 2.0882793487
| 17> C 3.3202666841 -1.3337290958 3.380502776
| 18> S 0.551503447 -0.3994983736 1.4804361614
| 19> C 0.1110008919 1.2629804114 0.9209772233
| 20> S -0.3980488327 1.3446318654 -0.8282307166
| 21> P -2.434037497 0.8298890526 -0.5942562206
| 22> S -3.5404561119 0.8160217502 -2.2091556041
| 23> O -2.8169997868 1.9052651214 0.5101433388
| 24> C -4.1873546737 2.2878272251 0.7512087382
| 25> C -4.9927800081 1.1585956897 1.3586901097
| 26> O -2.4518321318 -0.5218912838 0.2534188018
| 27> C -2.6172790245 -1.8087222932 -0.3614154548
| 28> C -1.4365100238 -2.1859607053 -1.2323580927
| 29> H 3.5112116125 -2.8559744633 -2.0084788479
| 30> H 4.2016498937 -1.7732022737 -3.2331103392
| 31> H 4.4629027552 -1.4474798483 -1.5129634323
| 32> H 1.7727425623 -1.2996936401 -2.9753102179
| 33> H 2.733684536 0.0809437212 -2.3752373716
| 34> H 4.4455449823 -2.7194626415 2.1466845471
| 35> H 4.7841366439 -0.9904842927 1.8324514931
| 36> H 2.9538397592 -0.3100974602 3.3148360692
| 37> H 2.4789858039 -1.9948606084 3.572527165
| 38> H 4.0283027417 -1.4018008826 4.2002344928
| 39> H 0.9869617652 1.907460407 1.0014101252
| 40> H -0.7003674321 1.6155429704 1.549666161
| 41> H -4.1037081597 3.1383446455 1.4290981367
| 42> H -4.6275237542 2.6097452925 -0.1977388495
| 43> H -4.4941231438 0.7723478609 2.2438558911
| 44> H -5.9777773785 1.5261622554 1.6289442491
| 45> H -5.1034094289 0.3521795063 0.6350928389
| 46> H -2.7315711132 -2.490827575 0.4818208738
| 47> H -3.5343263077 -1.7888636293 -0.9593131022
| 48> H -0.5152521838 -2.188869415 -0.6549884728
| 49> H -1.5989285186 -3.1734430884 -1.6522102894
| 50> H -1.3376706115 -1.467578331 -2.0471721131
| 51> *
| 52>
| 53>                          ****END OF INPUT****

CARTESIAN COORDINATES (ANGSTROEM)
---------------------------------
  C      3.750833   -1.823134   -2.246972
  C      2.495279   -0.976995   -2.224559
  O      1.785176   -1.111176   -0.978860
  P      2.349586   -0.539069    0.386865
  S      3.444525    1.088405    0.257967
  O      3.088415   -1.810737    0.987780
  C      4.010041   -1.721091    2.088279
  C      3.320267   -1.333729    3.380503
  S      0.551503   -0.399498    1.480436
  C      0.111001    1.262980    0.920977
  S     -0.398049    1.344632   -0.828231
  P     -2.434037    0.829889   -0.594256
  S     -3.540456    0.816022   -2.209156
  O     -2.817000    1.905265    0.510143
  C     -4.187355    2.287827    0.751209
  C     -4.992780    1.158596    1.358690
  O     -2.451832   -0.521891    0.253419
  C     -2.617279   -1.808722   -0.361415
  C     -1.436510   -2.185961   -1.232358
  H      3.511212   -2.855974   -2.008479
  H      4.201650   -1.773202   -3.233110
  H      4.462903   -1.447480   -1.512963
  H      1.772743   -1.299694   -2.975310
  H      2.733685    0.080944   -2.375237
  H      4.445545   -2.719463    2.146685
  H      4.784137   -0.990484    1.832451
  H      2.953840   -0.310097    3.314836
  H      2.478986   -1.994861    3.572527
  H      4.028303   -1.401801    4.200234
  H      0.986962    1.907460    1.001410
  H     -0.700367    1.615543    1.549666
  H     -4.103708    3.138345    1.429098
  H     -4.627524    2.609745   -0.197739
  H     -4.494123    0.772348    2.243856
  H     -5.977777    1.526162    1.628944
  H     -5.103409    0.352180    0.635093
  H     -2.731571   -2.490828    0.481821
  H     -3.534326   -1.788864   -0.959313
  H     -0.515252   -2.188869   -0.654988
  H     -1.598929   -3.173443   -1.652210
  H     -1.337671   -1.467578   -2.047172

 Total Charge           Charge          ....    0
 Multiplicity           Mult            ....    1
 Number of Electrons    NEL             ....  202
 Basis Dimension        Dim             ....  539

ORBITAL ENERGIES
----------------

  NO   OCC          E(Eh)            E(eV)
   0   2.0000     -88.579140     -2410.3609
   1   2.0000     -88.578058     -2410.3315
   2   2.0000     -88.530703     -2409.0429
   3   2.0000     -88.530536     -2409.0384
   4   2.0000     -76.919783     -2093.0937
   5   2.0000     -76.919738     -2093.0925
   6   2.0000     -18.997162      -516.9391
   7   2.0000     -18.992393      -516.8093
   8   2.0000     -18.992254      -516.8055
   9   2.0000     -18.991832      -516.7940
  10   2.0000     -10.105892      -274.9953
  11   2.0000     -10.090478      -274.5759
  12   2.0000     -10.089452      -274.5479
  13   2.0000     -10.089077      -274.5377
  14   2.0000     -10.088119      -274.5117
  15   2.0000     -10.019027      -272.6316
  16   2.0000     -10.018677      -272.6221
  17   2.0000     -10.018583      -272.6195
  18   2.0000     -10.015423      -272.5335
  19   2.0000      -7.873664      -214.2533
  20   2.0000      -7.872224      -214.2141
  21   2.0000      -7.825678      -212.9475
  22   2.0000      -7.825460      -212.9416
  23   2.0000      -6.598431      -179.5524
  24   2.0000      -6.598139      -179.5445
  25   2.0000      -5.820508      -158.3841
  26   2.0000      -5.819493      -158.3565
  27   2.0000      -5.817561      -158.3039
  28   2.0000      -5.815803      -158.2560
  29   2.0000      -5.810730      -158.1180
  30   2.0000      -5.809266      -158.0782
  31   2.0000      -5.773263      -157.0985
  32   2.0000      -5.772946      -157.0898
  33   2.0000      -5.766046      -156.9021
  34   2.0000      -5.765763      -156.8944
  35   2.0000      -5.765615      -156.8904
  36   2.0000      -5.765576      -156.8893
  37   2.0000      -4.743778      -129.0848
  38   2.0000      -4.743411      -129.0748
  39   2.0000      -4.743273      -129.0710
  40   2.0000      -4.743125      -129.0670
  41   2.0000      -4.742393      -129.0471
  42   2.0000      -4.742100      -129.0391
  43   2.0000      -1.053472       -28.6664
  44   2.0000      -1.050584       -28.5878
  45   2.0000      -1.014171       -27.5970
  46   2.0000      -1.011355       -27.5204
  47   2.0000      -0.803297       -21.8588
  48   2.0000      -0.756900       -20.5963
  49   2.0000      -0.741646       -20.1812
  50   2.0000      -0.723709       -19.6931
  51   2.0000      -0.722174       -19.6514
  52   2.0000      -0.710743       -19.3403
  53   2.0000      -0.694690       -18.9035
  54   2.0000      -0.675605       -18.3841
  55   2.0000      -0.633417       -17.2361
  56   2.0000      -0.623755       -16.9732
  57   2.0000      -0.599934       -16.3250
  58   2.0000      -0.598849       -16.2955
  59   2.0000      -0.590712       -16.0741
  60   2.0000      -0.517242       -14.0749
  61   2.0000      -0.513226       -13.9656
  62   2.0000      -0.491661       -13.3788
  63   2.0000      -0.486908       -13.2494
  64   2.0000      -0.477462       -12.9924
  65   2.0000      -0.459810       -12.5121
  66   2.0000      -0.455187       -12.3863
  67   2.0000      -0.454418       -12.3653
  68   2.0000      -0.440598       -11.9893
  69   2.0000      -0.427674       -11.6376
  70   2.0000      -0.423936       -11.5359
  71   2.0000      -0.410227       -11.1628
  72   2.0000      -0.407530       -11.0894
  73   2.0000      -0.405779       -11.0418
  74   2.0000      -0.403604       -10.9826
  75   2.0000      -0.389649       -10.6029
  76   2.0000      -0.381179       -10.3724
  77   2.0000      -0.367447        -9.9987
  78   2.0000      -0.364297        -9.9130
  79   2.0000      -0.361270        -9.8307
  80   2.0000      -0.353727        -9.6254
  81   2.0000      -0.350989        -9.5509
  82   2.0000      -0.349658        -9.5147
  83   2.0000      -0.347265        -9.4496
  84   2.0000      -0.342802        -9.3281
  85   2.0000      -0.331563        -9.0223
  86   2.0000      -0.322917        -8.7870
  87   2.0000      -0.305771        -8.3205
  88   2.0000      -0.305647        -8.3171
  89   2.0000      -0.301706        -8.2098
  90   2.0000      -0.297741        -8.1019
  91   2.0000      -0.289457        -7.8765
  92   2.0000      -0.287160        -7.8140
  93   2.0000      -0.280878        -7.6431
  94   2.0000      -0.272910        -7.4263
  95   2.0000      -0.247087        -6.7236
  96   2.0000      -0.236355        -6.4315
  97   2.0000      -0.232574        -6.3287
  98   2.0000      -0.231458        -6.2983
  99   2.0000      -0.227027        -6.1777
 100   2.0000      -0.221670        -6.0319
 101   0.0000      -0.046663        -1.2698
 102   0.0000      -0.028855        -0.7852
 103   0.0000      -0.019911        -0.5418
 104   0.0000       0.004684         0.1274
 105   0.0000       0.004886         0.1329

MULLIKEN ATOMIC CHARGES
-----------------------
   0 C :   -0.482878
   1 C :   -0.148709
   2 O :   -0.292856
   3 P :    0.698931
   4 S :   -0.529337
   5 O :   -0.329778
   6 C :   -0.149119
   7 C :   -0.491211
   8 S :   -0.093115
   9 C :   -0.273467
  10 S :   -0.145190
  11 P :    0.682735
  12 S :   -0.517986
  13 O :   -0.326760
  14 C :   -0.146320
  15 C :   -0.473975
  16 O :   -0.282334
  17 C :   -0.142525
  18 C :   -0.487136
  19 H :    0.170131
  20 H :    0.172129
  21 H :    0.167873
  22 H :    0.178787
  23 H :    0.176724
  24 H :    0.176055
  25 H :    0.178212
  26 H :    0.173605
  27 H :    0.170054
  28 H :    0.173354
  29 H :    0.231069
  30 H :    0.243749
  31 H :    0.175381
  32 H :    0.176141
  33 H :    0.168907
  34 H :    0.172068
  35 H :    0.167968
  36 H :    0.175679
  37 H :    0.171420
  38 H :    0.175258
  39 H :    0.170532
  40 H :    0.165936
Sum of atomic charges:    0.0000000

LOEWDIN ATOMIC CHARGES
----------------------
   0 C :   -0.402014
   1 C :    0.023593
   2 O :   -0.694895
   3 P :    0.381564
   4 S :   -0.161436
   5 O :   -0.670252
   6 C :    0.026686
   7 C :   -0.409596
   8 S :    0.179745
   9 C :   -0.402835
  10 S :    0.167974
  11 P :    0.374143
  12 S :   -0.148862
  13 O :   -0.700318
  14 C :    0.028683
  15 C :   -0.402515
  16 O :   -0.682303
  17 C :    0.021554
  18 C :   -0.411651
  19 H :    0.164286
  20 H :    0.168728
  21 H :    0.162611
  22 H :    0.190975
  23 H :    0.181962
  24 H :    0.191426
  25 H :    0.181764
  26 H :    0.161750
  27 H :    0.163831
  28 H :    0.168819
  29 H :    0.199964
  30 H :    0.207031
  31 H :    0.190784
  32 H :    0.181288
  33 H :    0.164392
  34 H :    0.168767
  35 H :    0.162706
  36 H :    0.191099
  37 H :    0.181610
  38 H :    0.169391
  39 H :    0.167023
  40 H :    0.162523

  Mayer bond orders larger than 0.100000
B(  0-C ,  1-C ) :   0.9118 B(  0-C , 19-H ) :   0.9712 B(  0-C , 20-H ) :   0.9562
B(  0-C , 21-H ) :   0.9593 B(  1-C ,  2-O ) :   0.7790 B(  1-C , 22-H ) :   0.9524
B(  1-C , 23-H ) :   0.9597 B(  2-O ,  3-P ) :   1.1452 B(  3-P ,  4-S ) :   1.7063
B(  3-P ,  5-O ) :   1.0754 B(  3-P ,  8-S ) :   1.1129 B(  5-O ,  6-C ) :   0.8020
B(  6-C ,  7-C ) :   0.9076 B(  6-C , 24-H ) :   0.9484 B(  6-C , 25-H ) :   0.9654
B(  7-C , 26-H ) :   0.9632 B(  7-C , 27-H ) :   0.9657 B(  7-C , 28-H ) :   0.9528
B(  8-S ,  9-C ) :   0.9179 B(  9-C , 10-S ) :   0.9030 B(  9-C , 29-H ) :   0.9046
B(  9-C , 30-H ) :   0.8990 B( 10-S , 11-P ) :   1.1021 B( 11-P , 12-S ) :   1.7725
B( 11-P , 13-O ) :   1.1361 B( 11-P , 16-O ) :   1.0402 B( 13-O , 14-C ) :   0.7999
B( 14-C , 15-C ) :   0.9134 B( 14-C , 31-H ) :   0.9517 B( 14-C , 32-H ) :   0.9626
B( 15-C , 33-H ) :   0.9694 B( 15-C , 34-H ) :   0.9552 B( 15-C , 35-H ) :   0.9595
B( 16-O , 17-C ) :   0.7813 B( 17-C , 18-C ) :   0.9176 B( 17-C , 36-H ) :   0.9514
B( 17-C , 37-H ) :   0.9567 B( 18-C , 38-H ) :   0.9583 B( 18-C , 39-H ) :   0.9563
B( 18-C , 40-H ) :   0.9630

Dispersion correction           -0.021576672
FINAL SINGLE POINT ENERGY     -2932.471751209885

DIPOLE MOMENT
-------------

Method             : SCF
Type of density    : Electron Density
Multiplicity       :   1
Irrep              :   0
Energy             : -2932.4968357087955155 Eh
Relativity type    :
Basis              : AO
                                X                 Y                 Z
Electronic contribution:     -1.431822508      11.934937705      -4.588652950
Nuclear contribution   :      1.602135849     -13.405627249       6.257503557
                        -----------------------------------------
Total Dipole Moment    :      0.170313341      -1.470689544       1.668850607
                        -----------------------------------------
Magnitude (a.u.)       :      2.230918357
Magnitude (Debye)      :      5.670543819

Rotational constants in cm-1:             0.013913             0.004489             0.004189
Rotational constants in MHz :           417.099828           134.584585           125.585500

                             ****ORCA TERMINATED NORMALLY****
TOTAL RUN TIME: 0 days 0 hours 1 minutes 49 seconds 9 msec
