                         Program Version 6.0.0  -   RELEASE  -
|  1> ! pbe def2-sv(p) def2/J RI DEFGRID1 loosescf d4 GCP(DFT/SV(P)) printgap
|  2> %output
|  3>     printlevel normal
|  4> end
|  5> * xyz 0 1
|  6> C 3.2456213459 -0.955609921 -3.1649093185
|  7> C 4.1042675276 -0.7363131282 -1.9376727243
|  8> O 3.5425652074 0.2281696911 -1.0259449708
|  9> P 2.0618313119 0.1970397452 -0.4515208351
| 10> S 0.6584815925 0.8965698385 -1.6233717263
| 11> O 2.1871036086 1.1322143887 0.8084914028
| 12> C 3.2105149925 1.049311985 1.8311493807
| 13> C 2.7145456225 0.2763315213 3.0378194314
| 14> S 1.9127955123 -1.8251136608 0.2108687194
| 15> C 0.2798308183 -1.8046683599 0.9885629354
| 16> S -1.0969684767 -1.6877484952 -0.2001005267
| 17> P -1.9594747144 0.1079671906 0.4970137274
| 18> S -0.961921418 1.2259885323 1.7493148965
| 19> O -3.2633431634 -0.5650776049 1.1517310129
| 20> C -4.0544438325 0.1036540448 2.1491478426
| 21> C -4.8676461219 1.2375788249 1.5569717907
| 22> O -2.4546077672 0.9101793498 -0.7724182571
| 23> C -3.1435242575 0.2868416436 -1.8842565487
| 24> C -2.7794336776 1.0412920511 -3.1451312929
| 25> H 3.7548875775 -1.6305938709 -3.8450663008
| 26> H 2.2887194983 -1.3919961559 -2.8808820398
| 27> H 3.0541079805 -0.0105820311 -3.667969879
| 28> H 5.0723534331 -0.3052311587 -2.1991286357
| 29> H 4.2472860959 -1.673473084 -1.3929043156
| 30> H 4.1074971495 0.5993586933 1.4018167315
| 31> H 3.4053677749 2.0920263555 2.0869921061
| 32> H 3.4178590795 0.407855991 3.8538540569
| 33> H 1.7418358537 0.6582278383 3.3417341602
| 34> H 2.6291525857 -0.7841427904 2.8135438582
| 35> H 0.2118449643 -0.9627012449 1.6826978361
| 36> H 0.1933513585 -2.7568396491 1.5054063622
| 37> H -4.6908725536 -0.6843389288 2.5540084899
| 38> H -3.3831885628 0.4788216522 2.9284833233
| 39> H -5.4693286101 1.6947742583 2.336213998
| 40> H -4.1997687861 1.9906462758 1.1380887231
| 41> H -5.5199889941 0.8667195026 0.7704062645
| 42> H -2.8373912174 -0.761736461 -1.9490774187
| 43> H -4.2145824503 0.3394223293 -1.6752480773
| 44> H -3.2718757568 0.57931782 -3.9943083417
| 45> H -3.0896080859 2.0788127058 -3.0621172743
| 46> H -1.701629802 1.0138018492 -3.289979048
| 47> *
| 48>
| 49>                          ****END OF INPUT****

CARTESIAN COORDINATES (ANGSTROEM)
---------------------------------
  C      3.245621   -0.955610   -3.164909
  C      4.104268   -0.736313   -1.937673
  O      3.542565    0.228170   -1.025945
  P      2.061831    0.197040   -0.451521
  S      0.658482    0.896570   -1.623372
  O      2.187104    1.132214    0.808491
  C      3.210515    1.049312    1.831149
  C      2.714546    0.276332    3.037819
  S      1.912796   -1.825114    0.210869
  C      0.279831   -1.804668    0.988563
  S     -1.096968   -1.687748   -0.200101
  P     -1.959475    0.107967    0.497014
  S     -0.961921    1.225989    1.749315
  O     -3.263343   -0.565078    1.151731
  C     -4.054444    0.103654    2.149148
  C     -4.867646    1.237579    1.556972
  O     -2.454608    0.910179   -0.772418
  C     -3.143524    0.286842   -1.884257
  C     -2.779434    1.041292   -3.145131
  H      3.754888   -1.630594   -3.845066
  H      2.288719   -1.391996   -2.880882
  H      3.054108   -0.010582   -3.667970
  H      5.072353   -0.305231   -2.199129
  H      4.247286   -1.673473   -1.392904
  H      4.107497    0.599359    1.401817
  H      3.405368    2.092026    2.086992
  H      3.417859    0.407856    3.853854
  H      1.741836    0.658228    3.341734
  H      2.629153   -0.784143    2.813544
  H      0.211845   -0.962701    1.682698
  H      0.193351   -2.756840    1.505406
  H     -4.690873   -0.684339    2.554008
  H     -3.383189    0.478822    2.928483
  H     -5.469329    1.694774    2.336214
  H     -4.199769    1.990646    1.138089
  H     -5.519989    0.866720    0.770406
  H     -2.837391   -0.761736   -1.949077
  H     -4.214582    0.339422   -1.675248
  H     -3.271876    0.579318   -3.994308
  H     -3.089608    2.078813   -3.062117
  H     -1.701630    1.013802   -3.289979

 Total Charge           Charge          ....    0
 Multiplicity           Mult            ....    1
 Number of Electrons    NEL             ....  202
 Basis Dimension        Dim             ....  334

ORBITAL ENERGIES
----------------

  NO   OCC          E(Eh)            E(eV)
   0   2.0000     -88.042799     -2395.7664
   1   2.0000     -88.035173     -2395.5588
   2   2.0000     -87.980646     -2394.0751
   3   2.0000     -87.971829     -2393.8352
   4   2.0000     -76.419681     -2079.4852
   5   2.0000     -76.417999     -2079.4395
   6   2.0000     -18.788118      -511.2507
   7   2.0000     -18.786704      -511.2122
   8   2.0000     -18.780914      -511.0547
   9   2.0000     -18.777108      -510.9511
  10   2.0000      -9.957238      -270.9502
  11   2.0000      -9.956199      -270.9219
  12   2.0000      -9.954729      -270.8819
  13   2.0000      -9.950038      -270.7543
  14   2.0000      -9.943454      -270.5751
  15   2.0000      -9.881109      -268.8787
  16   2.0000      -9.881009      -268.8759
  17   2.0000      -9.880999      -268.8757
  18   2.0000      -9.880628      -268.8655
  19   2.0000      -7.687657      -209.1918
  20   2.0000      -7.680547      -208.9983
  21   2.0000      -7.625856      -207.5101
  22   2.0000      -7.616782      -207.2632
  23   2.0000      -6.416707      -174.6075
  24   2.0000      -6.415864      -174.5845
  25   2.0000      -5.715250      -155.5199
  26   2.0000      -5.712151      -155.4355
  27   2.0000      -5.708486      -155.3358
  28   2.0000      -5.705355      -155.2506
  29   2.0000      -5.704967      -155.2400
  30   2.0000      -5.697057      -155.0248
  31   2.0000      -5.654781      -153.8744
  32   2.0000      -5.646847      -153.6585
  33   2.0000      -5.645940      -153.6338
  34   2.0000      -5.645505      -153.6220
  35   2.0000      -5.637276      -153.3981
  36   2.0000      -5.636823      -153.3857
  37   2.0000      -4.639693      -126.2525
  38   2.0000      -4.638836      -126.2291
  39   2.0000      -4.638683      -126.2250
  40   2.0000      -4.637286      -126.1870
  41   2.0000      -4.636525      -126.1663
  42   2.0000      -4.636432      -126.1637
  43   2.0000      -0.981970       -26.7208
  44   2.0000      -0.976426       -26.5699
  45   2.0000      -0.937990       -25.5240
  46   2.0000      -0.934761       -25.4361
  47   2.0000      -0.759400       -20.6643
  48   2.0000      -0.716784       -19.5047
  49   2.0000      -0.708258       -19.2727
  50   2.0000      -0.686886       -18.6911
  51   2.0000      -0.686515       -18.6810
  52   2.0000      -0.670682       -18.2502
  53   2.0000      -0.646747       -17.5989
  54   2.0000      -0.631930       -17.1957
  55   2.0000      -0.588296       -16.0084
  56   2.0000      -0.581940       -15.8354
  57   2.0000      -0.572699       -15.5839
  58   2.0000      -0.567834       -15.4515
  59   2.0000      -0.561195       -15.2709
  60   2.0000      -0.502336       -13.6693
  61   2.0000      -0.496636       -13.5141
  62   2.0000      -0.472158       -12.8481
  63   2.0000      -0.466796       -12.7022
  64   2.0000      -0.451844       -12.2953
  65   2.0000      -0.448226       -12.1968
  66   2.0000      -0.435895       -11.8613
  67   2.0000      -0.433099       -11.7852
  68   2.0000      -0.427982       -11.6460
  69   2.0000      -0.413278       -11.2459
  70   2.0000      -0.401087       -10.9141
  71   2.0000      -0.398037       -10.8311
  72   2.0000      -0.390399       -10.6233
  73   2.0000      -0.383579       -10.4377
  74   2.0000      -0.381326       -10.3764
  75   2.0000      -0.362980        -9.8772
  76   2.0000      -0.354376        -9.6431
  77   2.0000      -0.352058        -9.5800
  78   2.0000      -0.350268        -9.5313
  79   2.0000      -0.345626        -9.4050
  80   2.0000      -0.342209        -9.3120
  81   2.0000      -0.340849        -9.2750
  82   2.0000      -0.337986        -9.1971
  83   2.0000      -0.333988        -9.0883
  84   2.0000      -0.329363        -8.9624
  85   2.0000      -0.315221        -8.5776
  86   2.0000      -0.311334        -8.4718
  87   2.0000      -0.306768        -8.3476
  88   2.0000      -0.293175        -7.9777
  89   2.0000      -0.287292        -7.8176
  90   2.0000      -0.271602        -7.3907
  91   2.0000      -0.270119        -7.3503
  92   2.0000      -0.266214        -7.2440
  93   2.0000      -0.260534        -7.0895
  94   2.0000      -0.254637        -6.9290
  95   2.0000      -0.236897        -6.4463
  96   2.0000      -0.213469        -5.8088
  97   2.0000      -0.203694        -5.5428
  98   2.0000      -0.198550        -5.4028
  99   2.0000      -0.179658        -4.8887
 100   2.0000      -0.179468        -4.8836
 101   0.0000      -0.039487        -1.0745
 102   0.0000      -0.028710        -0.7812
 103   0.0000      -0.010574        -0.2877
 104   0.0000       0.002070         0.0563
 105   0.0000       0.022382         0.6090

MULLIKEN ATOMIC CHARGES
-----------------------
   0 C :   -0.309615
   1 C :   -0.013287
   2 O :   -0.381644
   3 P :    0.606886
   4 S :   -0.303415
   5 O :   -0.343001
   6 C :   -0.003603
   7 C :   -0.311064
   8 S :   -0.137789
   9 C :   -0.341080
  10 S :   -0.087904
  11 P :    0.621915
  12 S :   -0.298385
  13 O :   -0.390096
  14 C :   -0.004468
  15 C :   -0.318016
  16 O :   -0.363102
  17 C :   -0.028302
  18 C :   -0.285495
  19 H :    0.109181
  20 H :    0.127845
  21 H :    0.127852
  22 H :    0.109481
  23 H :    0.113315
  24 H :    0.099813
  25 H :    0.110777
  26 H :    0.108111
  27 H :    0.137407
  28 H :    0.117545
  29 H :    0.198786
  30 H :    0.182554
  31 H :    0.100285
  32 H :    0.105830
  33 H :    0.110430
  34 H :    0.131474
  35 H :    0.112476
  36 H :    0.115057
  37 H :    0.105654
  38 H :    0.106985
  39 H :    0.118988
  40 H :    0.141618
Sum of atomic charges:    0.0000000

LOEWDIN ATOMIC CHARGES
----------------------
   0 C :   -0.371196
   1 C :   -0.115014
   2 O :   -0.247221
   3 P :    0.562097
   4 S :   -0.299642
   5 O :   -0.225703
   6 C :   -0.109976
   7 C :   -0.367497
   8 S :    0.056674
   9 C :   -0.476777
  10 S :    0.081233
  11 P :    0.574749
  12 S :   -0.287555
  13 O :   -0.267278
  14 C :   -0.122951
  15 C :   -0.365789
  16 O :   -0.235069
  17 C :   -0.112827
  18 C :   -0.352333
  19 H :    0.128984
  20 H :    0.121953
  21 H :    0.130659
  22 H :    0.121441
  23 H :    0.107022
  24 H :    0.107930
  25 H :    0.123064
  26 H :    0.128765
  27 H :    0.130571
  28 H :    0.116484
  29 H :    0.121535
  30 H :    0.137769
  31 H :    0.115915
  32 H :    0.106168
  33 H :    0.129780
  34 H :    0.126612
  35 H :    0.120970
  36 H :    0.106103
  37 H :    0.112327
  38 H :    0.128535
  39 H :    0.129254
  40 H :    0.130236

  Mayer bond orders larger than 0.100000
B(  0-C ,  1-C ) :   1.1682 B(  0-C , 19-H ) :   0.9340 B(  0-C , 20-H ) :   0.9312
B(  0-C , 21-H ) :   0.9415 B(  1-C ,  2-O ) :   0.9146 B(  1-C , 22-H ) :   0.9334
B(  1-C , 23-H ) :   0.9259 B(  2-O ,  3-P ) :   1.0803 B(  3-P ,  4-S ) :   1.6660
B(  3-P ,  5-O ) :   1.1406 B(  3-P ,  8-S ) :   0.9298 B(  4-S ,  8-S ) :   0.1172
B(  5-O ,  6-C ) :   0.9004 B(  6-C ,  7-C ) :   1.1692 B(  6-C , 24-H ) :   0.9194
B(  6-C , 25-H ) :   0.9349 B(  7-C , 26-H ) :   0.9383 B(  7-C , 27-H ) :   0.9360
B(  7-C , 28-H ) :   0.9331 B(  8-S ,  9-C ) :   0.9904 B(  9-C , 10-S ) :   1.0134
B(  9-C , 29-H ) :   0.8456 B(  9-C , 30-H ) :   0.9121 B( 10-S , 11-P ) :   0.9571
B( 10-S , 12-S ) :   0.1086 B( 11-P , 12-S ) :   1.6185 B( 11-P , 13-O ) :   1.0645
B( 11-P , 16-O ) :   1.1157 B( 12-S , 29-H ) :   0.1080 B( 13-O , 14-C ) :   0.9261
B( 14-C , 15-C ) :   1.1591 B( 14-C , 31-H ) :   0.9348 B( 14-C , 32-H ) :   0.9109
B( 15-C , 33-H ) :   0.9395 B( 15-C , 34-H ) :   0.9375 B( 15-C , 35-H ) :   0.9447
B( 16-O , 17-C ) :   0.8957 B( 17-C , 18-C ) :   1.1631 B( 17-C , 36-H ) :   0.9130
B( 17-C , 37-H ) :   0.9283 B( 18-C , 38-H ) :   0.9398 B( 18-C , 39-H ) :   0.9486
B( 18-C , 40-H ) :   0.9400

Dispersion correction           -0.067502144
FINAL SINGLE POINT ENERGY     -2929.506563057671

DIPOLE MOMENT
-------------

Method             : SCF
Type of density    : Electron Density
Multiplicity       :   1
Irrep              :   0
Energy             : -2929.6239999317162983 Eh
Relativity type    :
Basis              : AO
                                X                 Y                 Z
Electronic contribution:      4.251241827      -2.422259250       1.638841055
Nuclear contribution   :     -4.097070805       1.517479055      -1.490216064
                        -----------------------------------------
Total Dipole Moment    :      0.154171022      -0.904780195       0.148624991
                        -----------------------------------------
Magnitude (a.u.)       :      0.929777013
Magnitude (Debye)      :      2.363305352

Rotational constants in cm-1:             0.012277             0.005597             0.004781
Rotational constants in MHz :           368.041799           167.804921           143.336421

                             ****ORCA TERMINATED NORMALLY****
TOTAL RUN TIME: 0 days 0 hours 0 minutes 21 seconds 579 msec
