                         Program Version 6.0.0  -   RELEASE  -
|  1> ! pbe def2-sv(p) def2/J RI DEFGRID1 loosescf d4 GCP(DFT/SV(P)) printgap
|  2> %output
|  3>     printlevel normal
|  4> end
|  5> * xyz 0 1
|  6> C 4.5816895652 -0.4673107431 -2.3278768788
|  7> C 4.4534038285 -0.4034236846 -0.8192866976
|  8> O 3.4544816115 0.5746692324 -0.4387527304
|  9> P 2.0231074591 0.1914312706 0.1243805194
| 10> S 1.1033907941 1.8413532252 0.625612644
| 11> O 2.2318448193 -0.874351004 1.2981597809
| 12> C 2.2563582581 -0.4864070971 2.6854008991
| 13> C 3.5616089233 0.194904331 3.0415647695
| 14> S 1.277224405 -1.1206209547 -1.3534927141
| 15> C -0.0273326181 -1.9961157409 -0.4156115102
| 16> S -0.924098936 -0.9843530333 0.7814126353
| 17> P -2.1641428112 0.0951448205 -0.5846644905
| 18> S -1.3268853453 1.0294058617 -2.08457237
| 19> O -3.0639324908 0.9848613729 0.3720517413
| 20> C -2.6068493688 2.1972261676 1.0014615451
| 21> C -2.1893226745 1.9323373788 2.4338366314
| 22> O -3.1677444546 -0.9986469021 -1.110390476
| 23> C -4.0369065835 -1.7865908991 -0.2559227422
| 24> C -5.4082046222 -1.1522306717 -0.1508373821
| 25> H 3.6504763838 -0.8105130038 -2.7745255423
| 26> H 4.8131345367 0.5180399931 -2.7230861157
| 27> H 5.3781563846 -1.1566945656 -2.5893220464
| 28> H 5.3778148337 -0.0486608208 -0.3600681195
| 29> H 4.1799282903 -1.3753607461 -0.4013984559
| 30> H 1.4091088812 0.1795773359 2.8751940435
| 31> H 2.1212652492 -1.4236822116 3.2262162715
| 32> H 3.6627665989 1.1143848496 2.4652008804
| 33> H 3.5637794989 0.4399148737 4.0987995257
| 34> H 4.403108198 -0.4563594632 2.8200864979
| 35> H 0.4344535115 -2.7998864017 0.1526118232
| 36> H -0.7161504733 -2.383921031 -1.1646569124
| 37> H -1.7787390512 2.6175537036 0.4219124886
| 38> H -3.4621858885 2.8735926875 0.9543926337
| 39> H -1.9370341247 2.8757634689 2.9064740316
| 40> H -2.9981936531 1.4550432669 2.9791787456
| 41> H -1.3127154038 1.2887198113 2.4569517806
| 42> H -4.0881672432 -2.7594901102 -0.7480940636
| 43> H -3.570311673 -1.8887187158 0.7274274442
| 44> H -6.0564307949 -1.8032978444 0.4274670731
| 45> H -5.3406251495 -0.1845332439 0.3384455709
| 46> H -5.8305283473 -1.0131578856 -1.1423106789
| 47> *
| 48>
| 49>                          ****END OF INPUT****

CARTESIAN COORDINATES (ANGSTROEM)
---------------------------------
  C      4.581690   -0.467311   -2.327877
  C      4.453404   -0.403424   -0.819287
  O      3.454482    0.574669   -0.438753
  P      2.023107    0.191431    0.124381
  S      1.103391    1.841353    0.625613
  O      2.231845   -0.874351    1.298160
  C      2.256358   -0.486407    2.685401
  C      3.561609    0.194904    3.041565
  S      1.277224   -1.120621   -1.353493
  C     -0.027333   -1.996116   -0.415612
  S     -0.924099   -0.984353    0.781413
  P     -2.164143    0.095145   -0.584664
  S     -1.326885    1.029406   -2.084572
  O     -3.063932    0.984861    0.372052
  C     -2.606849    2.197226    1.001462
  C     -2.189323    1.932337    2.433837
  O     -3.167744   -0.998647   -1.110390
  C     -4.036907   -1.786591   -0.255923
  C     -5.408205   -1.152231   -0.150837
  H      3.650476   -0.810513   -2.774526
  H      4.813135    0.518040   -2.723086
  H      5.378156   -1.156695   -2.589322
  H      5.377815   -0.048661   -0.360068
  H      4.179928   -1.375361   -0.401398
  H      1.409109    0.179577    2.875194
  H      2.121265   -1.423682    3.226216
  H      3.662767    1.114385    2.465201
  H      3.563779    0.439915    4.098800
  H      4.403108   -0.456359    2.820086
  H      0.434454   -2.799886    0.152612
  H     -0.716150   -2.383921   -1.164657
  H     -1.778739    2.617554    0.421912
  H     -3.462186    2.873593    0.954393
  H     -1.937034    2.875763    2.906474
  H     -2.998194    1.455043    2.979179
  H     -1.312715    1.288720    2.456952
  H     -4.088167   -2.759490   -0.748094
  H     -3.570312   -1.888719    0.727427
  H     -6.056431   -1.803298    0.427467
  H     -5.340625   -0.184533    0.338446
  H     -5.830528   -1.013158   -1.142311

 Total Charge           Charge          ....    0
 Multiplicity           Mult            ....    1
 Number of Electrons    NEL             ....  202
 Basis Dimension        Dim             ....  334

ORBITAL ENERGIES
----------------

  NO   OCC          E(Eh)            E(eV)
   0   2.0000     -88.043477     -2395.7848
   1   2.0000     -88.036362     -2395.5912
   2   2.0000     -87.975537     -2393.9361
   3   2.0000     -87.971505     -2393.8263
   4   2.0000     -76.421377     -2079.5314
   5   2.0000     -76.419993     -2079.4937
   6   2.0000     -18.791197      -511.3345
   7   2.0000     -18.790497      -511.3154
   8   2.0000     -18.789389      -511.2853
   9   2.0000     -18.789097      -511.2773
  10   2.0000      -9.960428      -271.0370
  11   2.0000      -9.954618      -270.8789
  12   2.0000      -9.954438      -270.8740
  13   2.0000      -9.950680      -270.7718
  14   2.0000      -9.946877      -270.6683
  15   2.0000      -9.885210      -268.9902
  16   2.0000      -9.885029      -268.9853
  17   2.0000      -9.884848      -268.9804
  18   2.0000      -9.880118      -268.8517
  19   2.0000      -7.687624      -209.1909
  20   2.0000      -7.681442      -209.0227
  21   2.0000      -7.620795      -207.3724
  22   2.0000      -7.616736      -207.2619
  23   2.0000      -6.418712      -174.6620
  24   2.0000      -6.417392      -174.6261
  25   2.0000      -5.715437      -155.5249
  26   2.0000      -5.712072      -155.4334
  27   2.0000      -5.709601      -155.3661
  28   2.0000      -5.705886      -155.2650
  29   2.0000      -5.704787      -155.2351
  30   2.0000      -5.698142      -155.0543
  31   2.0000      -5.649877      -153.7410
  32   2.0000      -5.645970      -153.6346
  33   2.0000      -5.641290      -153.5073
  34   2.0000      -5.640811      -153.4943
  35   2.0000      -5.637283      -153.3983
  36   2.0000      -5.636655      -153.3812
  37   2.0000      -4.641856      -126.3113
  38   2.0000      -4.640424      -126.2724
  39   2.0000      -4.640310      -126.2693
  40   2.0000      -4.639272      -126.2410
  41   2.0000      -4.638878      -126.2303
  42   2.0000      -4.637296      -126.1872
  43   2.0000      -0.985273       -26.8106
  44   2.0000      -0.982386       -26.7321
  45   2.0000      -0.943079       -25.6625
  46   2.0000      -0.942866       -25.6567
  47   2.0000      -0.761545       -20.7227
  48   2.0000      -0.717713       -19.5300
  49   2.0000      -0.708869       -19.2893
  50   2.0000      -0.690735       -18.7959
  51   2.0000      -0.687814       -18.7164
  52   2.0000      -0.669206       -18.2100
  53   2.0000      -0.647051       -17.6071
  54   2.0000      -0.632083       -17.1999
  55   2.0000      -0.590150       -16.0588
  56   2.0000      -0.583693       -15.8831
  57   2.0000      -0.573916       -15.6171
  58   2.0000      -0.573125       -15.5955
  59   2.0000      -0.561760       -15.2863
  60   2.0000      -0.503082       -13.6895
  61   2.0000      -0.496808       -13.5188
  62   2.0000      -0.478530       -13.0215
  63   2.0000      -0.476663       -12.9707
  64   2.0000      -0.456993       -12.4354
  65   2.0000      -0.445783       -12.1304
  66   2.0000      -0.439341       -11.9551
  67   2.0000      -0.433038       -11.7836
  68   2.0000      -0.427222       -11.6253
  69   2.0000      -0.410807       -11.1786
  70   2.0000      -0.404019       -10.9939
  71   2.0000      -0.399090       -10.8598
  72   2.0000      -0.390653       -10.6302
  73   2.0000      -0.380911       -10.3651
  74   2.0000      -0.375783       -10.2256
  75   2.0000      -0.374402       -10.1880
  76   2.0000      -0.364903        -9.9295
  77   2.0000      -0.358065        -9.7435
  78   2.0000      -0.354052        -9.6342
  79   2.0000      -0.350889        -9.5482
  80   2.0000      -0.348914        -9.4944
  81   2.0000      -0.346726        -9.4349
  82   2.0000      -0.344567        -9.3762
  83   2.0000      -0.337308        -9.1786
  84   2.0000      -0.328972        -8.9518
  85   2.0000      -0.317825        -8.6484
  86   2.0000      -0.313746        -8.5375
  87   2.0000      -0.301090        -8.1931
  88   2.0000      -0.292124        -7.9491
  89   2.0000      -0.286613        -7.7991
  90   2.0000      -0.279172        -7.5966
  91   2.0000      -0.272675        -7.4199
  92   2.0000      -0.267167        -7.2700
  93   2.0000      -0.263822        -7.1790
  94   2.0000      -0.256477        -6.9791
  95   2.0000      -0.245110        -6.6698
  96   2.0000      -0.221549        -6.0287
  97   2.0000      -0.201908        -5.4942
  98   2.0000      -0.186738        -5.0814
  99   2.0000      -0.180420        -4.9095
 100   2.0000      -0.177980        -4.8431
 101   0.0000      -0.047373        -1.2891
 102   0.0000      -0.023318        -0.6345
 103   0.0000      -0.008082        -0.2199
 104   0.0000       0.004467         0.1216
 105   0.0000       0.019361         0.5268

MULLIKEN ATOMIC CHARGES
-----------------------
   0 C :   -0.290206
   1 C :   -0.025257
   2 O :   -0.363445
   3 P :    0.621329
   4 S :   -0.305217
   5 O :   -0.393134
   6 C :   -0.016207
   7 C :   -0.308760
   8 S :   -0.095818
   9 C :   -0.308233
  10 S :   -0.125443
  11 P :    0.598645
  12 S :   -0.279910
  13 O :   -0.382161
  14 C :   -0.010135
  15 C :   -0.318095
  16 O :   -0.361004
  17 C :   -0.012984
  18 C :   -0.289198
  19 H :    0.130324
  20 H :    0.123110
  21 H :    0.108759
  22 H :    0.108190
  23 H :    0.104638
  24 H :    0.122029
  25 H :    0.098543
  26 H :    0.130356
  27 H :    0.111857
  28 H :    0.109973
  29 H :    0.183496
  30 H :    0.182180
  31 H :    0.126752
  32 H :    0.104844
  33 H :    0.112106
  34 H :    0.106327
  35 H :    0.146646
  36 H :    0.104436
  37 H :    0.098985
  38 H :    0.107375
  39 H :    0.123857
  40 H :    0.120451
Sum of atomic charges:    0.0000000

LOEWDIN ATOMIC CHARGES
----------------------
   0 C :   -0.358756
   1 C :   -0.121226
   2 O :   -0.241765
   3 P :    0.564707
   4 S :   -0.300226
   5 O :   -0.258749
   6 C :   -0.123765
   7 C :   -0.364643
   8 S :    0.085599
   9 C :   -0.469549
  10 S :    0.078376
  11 P :    0.559982
  12 S :   -0.294081
  13 O :   -0.244330
  14 C :   -0.115910
  15 C :   -0.365758
  16 O :   -0.239609
  17 C :   -0.118067
  18 C :   -0.359380
  19 H :    0.121829
  20 H :    0.130530
  21 H :    0.129546
  22 H :    0.119202
  23 H :    0.106738
  24 H :    0.109285
  25 H :    0.114899
  26 H :    0.126820
  27 H :    0.130681
  28 H :    0.121924
  29 H :    0.134108
  30 H :    0.134161
  31 H :    0.113823
  32 H :    0.118068
  33 H :    0.132204
  34 H :    0.121068
  35 H :    0.118295
  36 H :    0.118159
  37 H :    0.101589
  38 H :    0.128378
  39 H :    0.126723
  40 H :    0.129119

  Mayer bond orders larger than 0.100000
B(  0-C ,  1-C ) :   1.1669 B(  0-C , 19-H ) :   0.9382 B(  0-C , 20-H ) :   0.9457
B(  0-C , 21-H ) :   0.9396 B(  1-C ,  2-O ) :   0.8983 B(  1-C , 22-H ) :   0.9317
B(  1-C , 23-H ) :   0.9140 B(  2-O ,  3-P ) :   1.1220 B(  3-P ,  4-S ) :   1.6323
B(  3-P ,  5-O ) :   1.0528 B(  3-P ,  8-S ) :   0.9796 B(  4-S ,  8-S ) :   0.1085
B(  5-O ,  6-C ) :   0.9047 B(  6-C ,  7-C ) :   1.1633 B(  6-C , 24-H ) :   0.9085
B(  6-C , 25-H ) :   0.9340 B(  7-C , 26-H ) :   0.9349 B(  7-C , 27-H ) :   0.9401
B(  7-C , 28-H ) :   0.9473 B(  8-S ,  9-C ) :   0.9783 B(  9-C , 10-S ) :   1.0111
B(  9-C , 29-H ) :   0.9098 B(  9-C , 30-H ) :   0.9034 B( 10-S , 11-P ) :   0.9177
B( 10-S , 12-S ) :   0.1147 B( 11-P , 12-S ) :   1.7219 B( 11-P , 13-O ) :   1.0886
B( 11-P , 16-O ) :   1.1152 B( 13-O , 14-C ) :   0.8949 B( 14-C , 15-C ) :   1.1717
B( 14-C , 31-H ) :   0.9030 B( 14-C , 32-H ) :   0.9346 B( 15-C , 33-H ) :   0.9399
B( 15-C , 34-H ) :   0.9464 B( 15-C , 35-H ) :   0.9265 B( 16-O , 17-C ) :   0.8957
B( 17-C , 18-C ) :   1.1669 B( 17-C , 36-H ) :   0.9362 B( 17-C , 37-H ) :   0.9090
B( 18-C , 38-H ) :   0.9397 B( 18-C , 39-H ) :   0.9414 B( 18-C , 40-H ) :   0.9471

Dispersion correction           -0.067348564
FINAL SINGLE POINT ENERGY     -2929.510746361604

DIPOLE MOMENT
-------------

Method             : SCF
Type of density    : Electron Density
Multiplicity       :   1
Irrep              :   0
Energy             : -2929.6278136329456174 Eh
Relativity type    :
Basis              : AO
                                X                 Y                 Z
Electronic contribution:     -1.723078825       3.151894578     -13.063827636
Nuclear contribution   :      1.899443650      -4.731383193      14.494609362
                        -----------------------------------------
Total Dipole Moment    :      0.176364825      -1.579488614       1.430781726
                        -----------------------------------------
Magnitude (a.u.)       :      2.138463276
Magnitude (Debye)      :      5.435541678

Rotational constants in cm-1:             0.013073             0.005223             0.004740
Rotational constants in MHz :           391.915989           156.569131           142.095946

                             ****ORCA TERMINATED NORMALLY****
TOTAL RUN TIME: 0 days 0 hours 0 minutes 21 seconds 391 msec
