                         Program Version 6.0.0  -   RELEASE  -
|  1> ! pbe def2-sv(p) def2/J RI DEFGRID1 loosescf d4 GCP(DFT/SV(P)) printgap
|  2> %output
|  3>     printlevel normal
|  4> end
|  5> * xyz 0 1
|  6> C 4.1718061465 -0.8101664573 -1.8166872638
|  7> C 2.8631255839 -0.0731208921 -1.9980640688
|  8> O 2.4514983468 0.6520534306 -0.8140453208
|  9> P 2.2864533978 0.0762939268 0.6450863611
| 10> S 1.257762638 1.2970820818 1.7761090376
| 11> O 3.7884896648 -0.1456906341 1.11200062
| 12> C 4.1611028769 -0.2582859193 2.49654474
| 13> C 3.610101893 -1.5131591316 3.1423198424
| 14> S 1.5019850153 -1.8959746389 0.4414658835
| 15> C -0.2326862763 -1.4367926918 0.3330538053
| 16> S -0.5930698089 -0.6699272703 -1.2998562732
| 17> P -2.2871651184 0.4604541687 -0.7852028565
| 18> S -3.1198707522 1.3824459984 -2.3000787214
| 19> O -1.6536507728 1.3245207687 0.3802745533
| 20> C -2.3946347929 1.9375094373 1.4558311414
| 21> C -3.3502707426 3.0002981355 0.9580005763
| 22> O -3.261465579 -0.5085416516 0.0303606147
| 23> C -4.3167621412 -1.2337228589 -0.6234149118
| 24> C -3.7808622082 -2.3900100214 -1.4430075636
| 25> H 4.9450164556 -0.1267253422 -1.475563176
| 26> H 4.0587965429 -1.6089662919 -1.086650689
| 27> H 4.4660487542 -1.2404983569 -2.7690116025
| 28> H 2.0560823502 -0.7601516566 -2.2711185189
| 29> H 2.9408158259 0.7115854897 -2.7521854394
| 30> H 5.2516343041 -0.2634801377 2.4707114386
| 31> H 3.8061676628 0.6329999167 3.0237081371
| 32> H 4.0311594098 -1.6164107133 4.1372441684
| 33> H 2.5267023975 -1.4449925423 3.2240185201
| 34> H 3.8640019679 -2.3880122663 2.5495099996
| 35> H -0.462037399 -0.7113497444 1.1145132272
| 36> H -0.8103680604 -2.3507235687 0.4371629923
| 37> H -2.9277545191 1.1528831341 1.9974812587
| 38> H -1.6098638874 2.3578454262 2.0891018236
| 39> H -3.8295562363 3.4785000947 1.8063073122
| 40> H -2.8136986113 3.7480219366 0.3786327147
| 41> H -4.1120400494 2.5519395755 0.3211115797
| 42> H -4.9516469843 -1.5754121616 0.1950847591
| 43> H -4.8697782327 -0.5375348615 -1.2620556084
| 44> H -3.1967906299 -3.0634178482 -0.8213637287
| 45> H -4.6122395473 -2.9357717356 -1.8772914175
| 46> H -3.1502214507 -2.0117989284 -2.2471764758
| 47> *
| 48>
| 49>                          ****END OF INPUT****

CARTESIAN COORDINATES (ANGSTROEM)
---------------------------------
  C      4.171806   -0.810166   -1.816687
  C      2.863126   -0.073121   -1.998064
  O      2.451498    0.652053   -0.814045
  P      2.286453    0.076294    0.645086
  S      1.257763    1.297082    1.776109
  O      3.788490   -0.145691    1.112001
  C      4.161103   -0.258286    2.496545
  C      3.610102   -1.513159    3.142320
  S      1.501985   -1.895975    0.441466
  C     -0.232686   -1.436793    0.333054
  S     -0.593070   -0.669927   -1.299856
  P     -2.287165    0.460454   -0.785203
  S     -3.119871    1.382446   -2.300079
  O     -1.653651    1.324521    0.380275
  C     -2.394635    1.937509    1.455831
  C     -3.350271    3.000298    0.958001
  O     -3.261466   -0.508542    0.030361
  C     -4.316762   -1.233723   -0.623415
  C     -3.780862   -2.390010   -1.443008
  H      4.945016   -0.126725   -1.475563
  H      4.058797   -1.608966   -1.086651
  H      4.466049   -1.240498   -2.769012
  H      2.056082   -0.760152   -2.271119
  H      2.940816    0.711585   -2.752185
  H      5.251634   -0.263480    2.470711
  H      3.806168    0.633000    3.023708
  H      4.031159   -1.616411    4.137244
  H      2.526702   -1.444993    3.224019
  H      3.864002   -2.388012    2.549510
  H     -0.462037   -0.711350    1.114513
  H     -0.810368   -2.350724    0.437163
  H     -2.927755    1.152883    1.997481
  H     -1.609864    2.357845    2.089102
  H     -3.829556    3.478500    1.806307
  H     -2.813699    3.748022    0.378633
  H     -4.112040    2.551940    0.321112
  H     -4.951647   -1.575412    0.195085
  H     -4.869778   -0.537535   -1.262056
  H     -3.196791   -3.063418   -0.821364
  H     -4.612240   -2.935772   -1.877291
  H     -3.150221   -2.011799   -2.247176

 Total Charge           Charge          ....    0
 Multiplicity           Mult            ....    1
 Number of Electrons    NEL             ....  202
 Basis Dimension        Dim             ....  334

ORBITAL ENERGIES
----------------

  NO   OCC          E(Eh)            E(eV)
   0   2.0000     -88.052710     -2396.0361
   1   2.0000     -88.040163     -2395.6946
   2   2.0000     -87.984276     -2394.1739
   3   2.0000     -87.982292     -2394.1199
   4   2.0000     -76.428283     -2079.7193
   5   2.0000     -76.422830     -2079.5709
   6   2.0000     -18.796294      -511.4732
   7   2.0000     -18.793745      -511.4038
   8   2.0000     -18.788921      -511.2725
   9   2.0000     -18.783041      -511.1125
  10   2.0000      -9.958026      -270.9717
  11   2.0000      -9.955553      -270.9044
  12   2.0000      -9.953721      -270.8545
  13   2.0000      -9.952541      -270.8224
  14   2.0000      -9.947245      -270.6783
  15   2.0000      -9.887714      -269.0584
  16   2.0000      -9.887367      -269.0489
  17   2.0000      -9.886247      -269.0184
  18   2.0000      -9.877258      -268.7739
  19   2.0000      -7.697409      -209.4572
  20   2.0000      -7.685083      -209.1217
  21   2.0000      -7.629415      -207.6069
  22   2.0000      -7.627488      -207.5545
  23   2.0000      -6.425544      -174.8479
  24   2.0000      -6.420268      -174.7044
  25   2.0000      -5.725167      -155.7897
  26   2.0000      -5.721865      -155.6999
  27   2.0000      -5.714618      -155.5027
  28   2.0000      -5.713445      -155.4707
  29   2.0000      -5.709415      -155.3611
  30   2.0000      -5.701793      -155.1537
  31   2.0000      -5.658392      -153.9727
  32   2.0000      -5.656509      -153.9214
  33   2.0000      -5.649985      -153.7439
  34   2.0000      -5.649520      -153.7313
  35   2.0000      -5.648031      -153.6907
  36   2.0000      -5.647643      -153.6802
  37   2.0000      -4.648283      -126.4862
  38   2.0000      -4.647413      -126.4625
  39   2.0000      -4.645803      -126.4187
  40   2.0000      -4.643158      -126.3468
  41   2.0000      -4.642022      -126.3158
  42   2.0000      -4.640510      -126.2747
  43   2.0000      -0.987829       -26.8802
  44   2.0000      -0.984584       -26.7919
  45   2.0000      -0.945955       -25.7408
  46   2.0000      -0.940652       -25.5964
  47   2.0000      -0.765610       -20.8333
  48   2.0000      -0.721464       -19.6320
  49   2.0000      -0.709906       -19.3175
  50   2.0000      -0.692146       -18.8342
  51   2.0000      -0.687508       -18.7080
  52   2.0000      -0.674491       -18.3538
  53   2.0000      -0.652758       -17.7625
  54   2.0000      -0.636909       -17.3312
  55   2.0000      -0.599626       -16.3166
  56   2.0000      -0.589470       -16.0403
  57   2.0000      -0.577745       -15.7212
  58   2.0000      -0.574249       -15.6261
  59   2.0000      -0.563476       -15.3330
  60   2.0000      -0.496303       -13.5051
  61   2.0000      -0.493537       -13.4298
  62   2.0000      -0.472770       -12.8647
  63   2.0000      -0.468276       -12.7424
  64   2.0000      -0.453119       -12.3300
  65   2.0000      -0.451086       -12.2747
  66   2.0000      -0.444912       -12.1067
  67   2.0000      -0.434948       -11.8355
  68   2.0000      -0.429225       -11.6798
  69   2.0000      -0.420524       -11.4430
  70   2.0000      -0.411550       -11.1988
  71   2.0000      -0.403929       -10.9915
  72   2.0000      -0.397667       -10.8211
  73   2.0000      -0.393363       -10.7039
  74   2.0000      -0.382705       -10.4139
  75   2.0000      -0.369973       -10.0675
  76   2.0000      -0.367721       -10.0062
  77   2.0000      -0.359869        -9.7925
  78   2.0000      -0.353344        -9.6150
  79   2.0000      -0.350805        -9.5459
  80   2.0000      -0.348020        -9.4701
  81   2.0000      -0.342747        -9.3266
  82   2.0000      -0.339170        -9.2293
  83   2.0000      -0.334170        -9.0932
  84   2.0000      -0.331887        -9.0311
  85   2.0000      -0.321523        -8.7491
  86   2.0000      -0.314094        -8.5469
  87   2.0000      -0.295877        -8.0512
  88   2.0000      -0.293237        -7.9794
  89   2.0000      -0.292027        -7.9465
  90   2.0000      -0.284563        -7.7434
  91   2.0000      -0.276507        -7.5241
  92   2.0000      -0.268841        -7.3155
  93   2.0000      -0.264362        -7.1937
  94   2.0000      -0.258972        -7.0470
  95   2.0000      -0.238408        -6.4874
  96   2.0000      -0.220634        -6.0038
  97   2.0000      -0.204380        -5.5615
  98   2.0000      -0.203036        -5.5249
  99   2.0000      -0.198866        -5.4114
 100   2.0000      -0.195884        -5.3303
 101   0.0000      -0.044562        -1.2126
 102   0.0000      -0.024587        -0.6691
 103   0.0000      -0.017307        -0.4710
 104   0.0000       0.005318         0.1447
 105   0.0000       0.013199         0.3592

MULLIKEN ATOMIC CHARGES
-----------------------
   0 C :   -0.305859
   1 C :   -0.005578
   2 O :   -0.349885
   3 P :    0.607926
   4 S :   -0.308903
   5 O :   -0.373895
   6 C :   -0.001156
   7 C :   -0.318924
   8 S :   -0.111392
   9 C :   -0.354121
  10 S :   -0.084359
  11 P :    0.621082
  12 S :   -0.317279
  13 O :   -0.360113
  14 C :   -0.004109
  15 C :   -0.308590
  16 O :   -0.393881
  17 C :   -0.007892
  18 C :   -0.315722
  19 H :    0.122598
  20 H :    0.115418
  21 H :    0.114298
  22 H :    0.116668
  23 H :    0.113893
  24 H :    0.105849
  25 H :    0.114334
  26 H :    0.115203
  27 H :    0.126944
  28 H :    0.116190
  29 H :    0.203855
  30 H :    0.183497
  31 H :    0.101194
  32 H :    0.113825
  33 H :    0.107464
  34 H :    0.126951
  35 H :    0.122598
  36 H :    0.102389
  37 H :    0.112815
  38 H :    0.112596
  39 H :    0.113664
  40 H :    0.130407
Sum of atomic charges:    0.0000000

LOEWDIN ATOMIC CHARGES
----------------------
   0 C :   -0.366636
   1 C :   -0.114727
   2 O :   -0.229813
   3 P :    0.575917
   4 S :   -0.301539
   5 O :   -0.241210
   6 C :   -0.117669
   7 C :   -0.371399
   8 S :    0.083371
   9 C :   -0.475407
  10 S :    0.087375
  11 P :    0.563645
  12 S :   -0.318396
  13 O :   -0.231880
  14 C :   -0.112135
  15 C :   -0.365848
  16 O :   -0.253081
  17 C :   -0.123024
  18 C :   -0.366759
  19 H :    0.128773
  20 H :    0.115986
  21 H :    0.131852
  22 H :    0.102476
  23 H :    0.125326
  24 H :    0.119237
  25 H :    0.113180
  26 H :    0.132207
  27 H :    0.120974
  28 H :    0.122709
  29 H :    0.126034
  30 H :    0.130644
  31 H :    0.108790
  32 H :    0.118363
  33 H :    0.128105
  34 H :    0.131680
  35 H :    0.119955
  36 H :    0.116607
  37 H :    0.109961
  38 H :    0.120994
  39 H :    0.131736
  40 H :    0.123626

  Mayer bond orders larger than 0.100000
B(  0-C ,  1-C ) :   1.1688 B(  0-C , 19-H ) :   0.9428 B(  0-C , 20-H ) :   0.9385
B(  0-C , 21-H ) :   0.9360 B(  1-C ,  2-O ) :   0.8989 B(  1-C , 22-H ) :   0.9120
B(  1-C , 23-H ) :   0.9339 B(  2-O ,  3-P ) :   1.1555 B(  3-P ,  4-S ) :   1.6380
B(  3-P ,  5-O ) :   1.0938 B(  3-P ,  8-S ) :   0.9225 B(  4-S ,  8-S ) :   0.1086
B(  5-O ,  6-C ) :   0.9047 B(  6-C ,  7-C ) :   1.1654 B(  6-C , 24-H ) :   0.9337
B(  6-C , 25-H ) :   0.9157 B(  7-C , 26-H ) :   0.9375 B(  7-C , 27-H ) :   0.9345
B(  7-C , 28-H ) :   0.9446 B(  8-S ,  9-C ) :   1.0206 B(  9-C , 10-S ) :   0.9610
B(  9-C , 29-H ) :   0.8604 B(  9-C , 30-H ) :   0.9043 B( 10-S , 11-P ) :   0.9795
B( 11-P , 12-S ) :   1.6514 B( 11-P , 13-O ) :   1.1280 B( 11-P , 16-O ) :   1.0434
B( 13-O , 14-C ) :   0.9044 B( 14-C , 15-C ) :   1.1696 B( 14-C , 31-H ) :   0.9291
B( 14-C , 32-H ) :   0.9260 B( 15-C , 33-H ) :   0.9373 B( 15-C , 34-H ) :   0.9454
B( 15-C , 35-H ) :   0.9367 B( 16-O , 17-C ) :   0.9139 B( 17-C , 18-C ) :   1.1638
B( 17-C , 36-H ) :   0.9329 B( 17-C , 37-H ) :   0.9100 B( 18-C , 38-H ) :   0.9447
B( 18-C , 39-H ) :   0.9387 B( 18-C , 40-H ) :   0.9345

Dispersion correction           -0.065134724
FINAL SINGLE POINT ENERGY     -2929.515040944892

DIPOLE MOMENT
-------------

Method             : SCF
Type of density    : Electron Density
Multiplicity       :   1
Irrep              :   0
Energy             : -2929.6360996120511118 Eh
Relativity type    :
Basis              : AO
                                X                 Y                 Z
Electronic contribution:     -0.175558765       6.543756752      -6.050111206
Nuclear contribution   :      0.611156380      -7.970046326       6.913815186
                        -----------------------------------------
Total Dipole Moment    :      0.435597614      -1.426289574       0.863703980
                        -----------------------------------------
Magnitude (a.u.)       :      1.723378019
Magnitude (Debye)      :      4.380478802

Rotational constants in cm-1:             0.012879             0.004665             0.004347
Rotational constants in MHz :           386.088779           139.849243           130.311839

                             ****ORCA TERMINATED NORMALLY****
TOTAL RUN TIME: 0 days 0 hours 0 minutes 21 seconds 90 msec
