                         Program Version 6.0.1  -  RELEASE   -
|  1> ! r2scan-3c def2/J RI DEFGRID2 scfconv6 printgap
|  2> %output
|  3>     printlevel normal
|  4> end
|  5> * xyz 0 1
|  6> C 3.1300221814 -4.6577056112 -0.7069403586
|  7> C 3.3191882428 -3.6274307374 -1.8089644756
|  8> O 3.3341153433 -2.2927429308 -1.2646093807
|  9> C 2.1870253493 -1.6609971394 -1.1174307311
| 10> O 1.1073284523 -2.1065858526 -1.4405783083
| 11> C 2.3914013831 -0.2947523871 -0.4939688777
| 12> C 1.0584496209 0.4072326456 -0.3074864833
| 13> H 0.466217891 0.3167362093 -1.2315059172
| 14> C 1.1803592931 1.8931663428 -0.0320542596
| 15> O 2.1258602135 2.5593938438 -0.3857500961
| 16> O 0.1173974296 2.3575945663 0.5895816627
| 17> C 0.0423695194 3.775496074 0.8501499377
| 18> C -0.8513007395 4.0006946707 2.0533927474
| 19> S 0.0762753543 -0.4030834003 0.9953602566
| 20> P -1.8458558894 0.1673803031 0.2892707648
| 21> S -1.9756414686 0.9558028774 -1.4983429427
| 22> O -2.6872406686 -1.1864169945 0.4690776486
| 23> C -2.4578414516 -2.2986677437 -0.4018077328
| 24> O -2.5020163293 1.0709947336 1.4027675637
| 25> C -2.5750815545 0.6449013083 2.7788275537
| 26> H 3.1824471414 -5.6534993572 -1.1344175558
| 27> H 3.9069046564 -4.5480041577 0.0444896358
| 28> H 2.1592683826 -4.5262408204 -0.234716979
| 29> H 2.5151590774 -3.694801726 -2.5473471771
| 30> H 4.2899446867 -3.7353553781 -2.2927923598
| 31> H 3.0291566775 0.3077406503 -1.1446617089
| 32> H 2.9089290076 -0.4187223088 0.4584860582
| 33> H 1.0599456683 4.1427572375 1.0136488892
| 34> H -0.3674683287 4.2488500826 -0.0469874101
| 35> H -0.9222035655 5.0657794278 2.246943065
| 36> H -1.8426421884 3.6053457958 1.8510180074
| 37> H -0.44000471 3.5029131721 2.9268166828
| 38> H -3.0655619776 -3.1093127787 -0.009184144
| 39> H -1.4018205379 -2.5739534885 -0.4035850257
| 40> H -2.7632922546 -2.0445602761 -1.4174124886
| 41> H -2.9260066663 1.5133816034 3.3300698887
| 42> H -1.587935955 0.3383599578 3.1253304337
| 43> H -3.2761550592 -0.1819923435 2.8713640137
| 44> *
| 45>
| 46>                          ****END OF INPUT****

CARTESIAN COORDINATES (ANGSTROEM)
---------------------------------
  C      3.130022   -4.657706   -0.706940
  C      3.319188   -3.627431   -1.808964
  O      3.334115   -2.292743   -1.264609
  C      2.187025   -1.660997   -1.117431
  O      1.107328   -2.106586   -1.440578
  C      2.391401   -0.294752   -0.493969
  C      1.058450    0.407233   -0.307486
  H      0.466218    0.316736   -1.231506
  C      1.180359    1.893166   -0.032054
  O      2.125860    2.559394   -0.385750
  O      0.117397    2.357595    0.589582
  C      0.042370    3.775496    0.850150
  C     -0.851301    4.000695    2.053393
  S      0.076275   -0.403083    0.995360
  P     -1.845856    0.167380    0.289271
  S     -1.975641    0.955803   -1.498343
  O     -2.687241   -1.186417    0.469078
  C     -2.457841   -2.298668   -0.401808
  O     -2.502016    1.070995    1.402768
  C     -2.575082    0.644901    2.778828
  H      3.182447   -5.653499   -1.134418
  H      3.906905   -4.548004    0.044490
  H      2.159268   -4.526241   -0.234717
  H      2.515159   -3.694802   -2.547347
  H      4.289945   -3.735355   -2.292792
  H      3.029157    0.307741   -1.144662
  H      2.908929   -0.418722    0.458486
  H      1.059946    4.142757    1.013649
  H     -0.367468    4.248850   -0.046987
  H     -0.922204    5.065779    2.246943
  H     -1.842642    3.605346    1.851018
  H     -0.440005    3.502913    2.926817
  H     -3.065562   -3.109313   -0.009184
  H     -1.401821   -2.573953   -0.403585
  H     -2.763292   -2.044560   -1.417412
  H     -2.926007    1.513382    3.330070
  H     -1.587936    0.338360    3.125330
  H     -3.276155   -0.181992    2.871364

 Total Charge           Charge          ....    0
 Multiplicity           Mult            ....    1
 Number of Electrons    NEL             ....  174
 Basis Dimension        Dim             ....  510

ORBITAL ENERGIES
----------------

  NO   OCC          E(Eh)            E(eV)
   0   2.0000     -88.570678     -2410.1307
   1   2.0000     -88.516519     -2408.6569
   2   2.0000     -76.910784     -2092.8488
   3   2.0000     -19.006897      -517.2040
   4   2.0000     -19.000943      -517.0419
   5   2.0000     -18.994580      -516.8688
   6   2.0000     -18.986515      -516.6493
   7   2.0000     -18.939777      -515.3775
   8   2.0000     -18.936596      -515.2910
   9   2.0000     -10.165118      -276.6069
  10   2.0000     -10.161080      -276.4970
  11   2.0000     -10.099110      -274.8108
  12   2.0000     -10.099107      -274.8107
  13   2.0000     -10.091870      -274.6138
  14   2.0000     -10.088831      -274.5310
  15   2.0000     -10.082327      -274.3541
  16   2.0000     -10.061910      -273.7985
  17   2.0000     -10.035602      -273.0826
  18   2.0000     -10.030163      -272.9346
  19   2.0000      -7.865235      -214.0239
  20   2.0000      -7.811180      -212.5530
  21   2.0000      -6.589246      -179.3025
  22   2.0000      -5.812077      -158.1547
  23   2.0000      -5.809320      -158.0796
  24   2.0000      -5.802106      -157.8833
  25   2.0000      -5.759095      -156.7129
  26   2.0000      -5.751498      -156.5062
  27   2.0000      -5.750900      -156.4899
  28   2.0000      -4.734928      -128.8439
  29   2.0000      -4.734257      -128.8257
  30   2.0000      -4.732760      -128.7850
  31   2.0000      -1.083911       -29.4947
  32   2.0000      -1.079981       -29.3878
  33   2.0000      -1.049185       -28.5498
  34   2.0000      -1.006393       -27.3853
  35   2.0000      -0.988868       -26.9085
  36   2.0000      -0.985815       -26.8254
  37   2.0000      -0.809190       -22.0192
  38   2.0000      -0.759803       -20.6753
  39   2.0000      -0.744195       -20.2506
  40   2.0000      -0.731949       -19.9174
  41   2.0000      -0.698448       -19.0057
  42   2.0000      -0.671909       -18.2836
  43   2.0000      -0.657216       -17.8838
  44   2.0000      -0.648504       -17.6467
  45   2.0000      -0.632192       -17.2028
  46   2.0000      -0.592353       -16.1187
  47   2.0000      -0.540387       -14.7047
  48   2.0000      -0.535596       -14.5743
  49   2.0000      -0.526097       -14.3158
  50   2.0000      -0.498853       -13.5745
  51   2.0000      -0.491632       -13.3780
  52   2.0000      -0.484012       -13.1706
  53   2.0000      -0.463148       -12.6029
  54   2.0000      -0.461518       -12.5585
  55   2.0000      -0.453912       -12.3516
  56   2.0000      -0.450778       -12.2663
  57   2.0000      -0.442305       -12.0357
  58   2.0000      -0.440136       -11.9767
  59   2.0000      -0.431647       -11.7457
  60   2.0000      -0.421810       -11.4780
  61   2.0000      -0.417305       -11.3554
  62   2.0000      -0.411408       -11.1950
  63   2.0000      -0.398885       -10.8542
  64   2.0000      -0.393713       -10.7135
  65   2.0000      -0.381303       -10.3758
  66   2.0000      -0.374913       -10.2019
  67   2.0000      -0.368450       -10.0260
  68   2.0000      -0.361285        -9.8311
  69   2.0000      -0.359365        -9.7788
  70   2.0000      -0.350633        -9.5412
  71   2.0000      -0.344867        -9.3843
  72   2.0000      -0.339112        -9.2277
  73   2.0000      -0.328929        -8.9506
  74   2.0000      -0.324458        -8.8290
  75   2.0000      -0.315643        -8.5891
  76   2.0000      -0.310544        -8.4503
  77   2.0000      -0.309364        -8.4182
  78   2.0000      -0.286882        -7.8065
  79   2.0000      -0.283379        -7.7111
  80   2.0000      -0.277560        -7.5528
  81   2.0000      -0.271673        -7.3926
  82   2.0000      -0.263434        -7.1684
  83   2.0000      -0.245948        -6.6926
  84   2.0000      -0.220691        -6.0053
  85   2.0000      -0.217614        -5.9216
  86   2.0000      -0.209253        -5.6941
  87   0.0000      -0.043853        -1.1933
  88   0.0000      -0.027174        -0.7395
  89   0.0000      -0.018566        -0.5052
  90   0.0000       0.009906         0.2696
  91   0.0000       0.020699         0.5633

MULLIKEN ATOMIC CHARGES
-----------------------
   0 C :   -0.465914
   1 C :   -0.139624
   2 O :   -0.168752
   3 C :    0.404534
   4 O :   -0.421664
   5 C :   -0.452557
   6 C :    0.036164
   7 H :    0.240212
   8 C :    0.310175
   9 O :   -0.418656
  10 O :   -0.114373
  11 C :   -0.133912
  12 C :   -0.469793
  13 S :   -0.253303
  14 P :    0.771418
  15 S :   -0.456992
  16 O :   -0.337317
  17 C :   -0.291516
  18 O :   -0.322786
  19 C :   -0.290817
  20 H :    0.149257
  21 H :    0.154328
  22 H :    0.169146
  23 H :    0.170357
  24 H :    0.151789
  25 H :    0.211508
  26 H :    0.186680
  27 H :    0.171169
  28 H :    0.157503
  29 H :    0.146459
  30 H :    0.170760
  31 H :    0.150564
  32 H :    0.145474
  33 H :    0.177220
  34 H :    0.169917
  35 H :    0.157702
  36 H :    0.165293
  37 H :    0.170347
Sum of atomic charges:   -0.0000000

LOEWDIN ATOMIC CHARGES
----------------------
   0 C :   -0.388424
   1 C :    0.030563
   2 O :   -0.581514
   3 C :    0.359197
   4 O :   -0.451537
   5 C :   -0.203328
   6 C :   -0.197960
   7 H :    0.225754
   8 C :    0.352440
   9 O :   -0.425035
  10 O :   -0.620552
  11 C :    0.042385
  12 C :   -0.386889
  13 S :    0.219143
  14 P :    0.399968
  15 S :   -0.084876
  16 O :   -0.685074
  17 C :   -0.059437
  18 O :   -0.657725
  19 C :   -0.055140
  20 H :    0.160317
  21 H :    0.158182
  22 H :    0.164052
  23 H :    0.189098
  24 H :    0.179513
  25 H :    0.208861
  26 H :    0.192084
  27 H :    0.189870
  28 H :    0.181858
  29 H :    0.159177
  30 H :    0.168755
  31 H :    0.158255
  32 H :    0.173728
  33 H :    0.181149
  34 H :    0.175784
  35 H :    0.179331
  36 H :    0.173089
  37 H :    0.174940

  Mayer bond orders larger than 0.100000
B(  0-C ,  1-C ) :   0.9392 B(  0-C , 20-H ) :   0.9641 B(  0-C , 21-H ) :   0.9732
B(  0-C , 22-H ) :   0.9720 B(  1-C ,  2-O ) :   0.8004 B(  1-C , 23-H ) :   0.9677
B(  1-C , 24-H ) :   0.9615 B(  2-O ,  3-C ) :   1.1176 B(  3-C ,  4-O ) :   1.8275
B(  3-C ,  5-C ) :   0.9647 B(  5-C ,  6-C ) :   0.9616 B(  5-C , 25-H ) :   0.9218
B(  5-C , 26-H ) :   0.9600 B(  6-C ,  7-H ) :   0.9073 B(  6-C ,  8-C ) :   0.8937
B(  6-C , 13-S ) :   0.7621 B(  8-C ,  9-O ) :   1.8683 B(  8-C , 10-O ) :   1.1964
B( 10-O , 11-C ) :   0.7804 B( 11-C , 12-C ) :   0.9460 B( 11-C , 27-H ) :   0.9646
B( 11-C , 28-H ) :   0.9424 B( 12-C , 29-H ) :   0.9647 B( 12-C , 30-H ) :   0.9619
B( 12-C , 31-H ) :   0.9738 B( 13-S , 14-P ) :   1.0145 B( 14-P , 15-S ) :   1.7845
B( 14-P , 16-O ) :   1.0458 B( 14-P , 18-O ) :   1.1542 B( 16-O , 17-C ) :   0.8286
B( 17-C , 32-H ) :   0.9677 B( 17-C , 33-H ) :   0.9483 B( 17-C , 34-H ) :   0.9587
B( 18-O , 19-C ) :   0.7923 B( 19-C , 35-H ) :   0.9660 B( 19-C , 36-H ) :   0.9569
B( 19-C , 37-H ) :   0.9590

Dispersion correction           -0.017305329
FINAL SINGLE POINT ENERGY     -1981.454495189086

DIPOLE MOMENT
-------------

Method             : SCF
Type of density    : Electron Density
Multiplicity       :   1
Irrep              :   0
Energy             : -1981.4747134561494022 Eh
Relativity type    :
Basis              : AO
                                X                 Y                 Z
Electronic contribution:     -5.956394925       6.117285284      -5.396426845
Nuclear contribution   :      6.346798991      -7.143888838       6.694452685
                        -----------------------------------------
Total Dipole Moment    :      0.390404066      -1.026603554       1.298025841
                        -----------------------------------------
Magnitude (a.u.)       :      1.700353280
Magnitude (Debye)      :      4.321954566

Rotational constants in cm-1:             0.013550             0.006709             0.005320
Rotational constants in MHz :           406.204808           201.117286           159.475638

                             ****ORCA TERMINATED NORMALLY****
TOTAL RUN TIME: 0 days 0 hours 1 minutes 21 seconds 914 msec
