                         Program Version 6.0.1  -  RELEASE   -
|  1> ! r2scan-3c def2/J RI DEFGRID2 scfconv6 printgap
|  2> %output
|  3>     printlevel normal
|  4> end
|  5> %cpcm
|  6>     smd true
|  7>     smdsolvent "water"
|  8> end
|  9> * xyz 0 1
| 10> C 3.1300221814 -4.6577056112 -0.7069403586
| 11> C 3.3191882428 -3.6274307374 -1.8089644756
| 12> O 3.3341153433 -2.2927429308 -1.2646093807
| 13> C 2.1870253493 -1.6609971394 -1.1174307311
| 14> O 1.1073284523 -2.1065858526 -1.4405783083
| 15> C 2.3914013831 -0.2947523871 -0.4939688777
| 16> C 1.0584496209 0.4072326456 -0.3074864833
| 17> H 0.466217891 0.3167362093 -1.2315059172
| 18> C 1.1803592931 1.8931663428 -0.0320542596
| 19> O 2.1258602135 2.5593938438 -0.3857500961
| 20> O 0.1173974296 2.3575945663 0.5895816627
| 21> C 0.0423695194 3.775496074 0.8501499377
| 22> C -0.8513007395 4.0006946707 2.0533927474
| 23> S 0.0762753543 -0.4030834003 0.9953602566
| 24> P -1.8458558894 0.1673803031 0.2892707648
| 25> S -1.9756414686 0.9558028774 -1.4983429427
| 26> O -2.6872406686 -1.1864169945 0.4690776486
| 27> C -2.4578414516 -2.2986677437 -0.4018077328
| 28> O -2.5020163293 1.0709947336 1.4027675637
| 29> C -2.5750815545 0.6449013083 2.7788275537
| 30> H 3.1824471414 -5.6534993572 -1.1344175558
| 31> H 3.9069046564 -4.5480041577 0.0444896358
| 32> H 2.1592683826 -4.5262408204 -0.234716979
| 33> H 2.5151590774 -3.694801726 -2.5473471771
| 34> H 4.2899446867 -3.7353553781 -2.2927923598
| 35> H 3.0291566775 0.3077406503 -1.1446617089
| 36> H 2.9089290076 -0.4187223088 0.4584860582
| 37> H 1.0599456683 4.1427572375 1.0136488892
| 38> H -0.3674683287 4.2488500826 -0.0469874101
| 39> H -0.9222035655 5.0657794278 2.246943065
| 40> H -1.8426421884 3.6053457958 1.8510180074
| 41> H -0.44000471 3.5029131721 2.9268166828
| 42> H -3.0655619776 -3.1093127787 -0.009184144
| 43> H -1.4018205379 -2.5739534885 -0.4035850257
| 44> H -2.7632922546 -2.0445602761 -1.4174124886
| 45> H -2.9260066663 1.5133816034 3.3300698887
| 46> H -1.587935955 0.3383599578 3.1253304337
| 47> H -3.2761550592 -0.1819923435 2.8713640137
| 48> *
| 49>
| 50>                          ****END OF INPUT****

CARTESIAN COORDINATES (ANGSTROEM)
---------------------------------
  C      3.130022   -4.657706   -0.706940
  C      3.319188   -3.627431   -1.808964
  O      3.334115   -2.292743   -1.264609
  C      2.187025   -1.660997   -1.117431
  O      1.107328   -2.106586   -1.440578
  C      2.391401   -0.294752   -0.493969
  C      1.058450    0.407233   -0.307486
  H      0.466218    0.316736   -1.231506
  C      1.180359    1.893166   -0.032054
  O      2.125860    2.559394   -0.385750
  O      0.117397    2.357595    0.589582
  C      0.042370    3.775496    0.850150
  C     -0.851301    4.000695    2.053393
  S      0.076275   -0.403083    0.995360
  P     -1.845856    0.167380    0.289271
  S     -1.975641    0.955803   -1.498343
  O     -2.687241   -1.186417    0.469078
  C     -2.457841   -2.298668   -0.401808
  O     -2.502016    1.070995    1.402768
  C     -2.575082    0.644901    2.778828
  H      3.182447   -5.653499   -1.134418
  H      3.906905   -4.548004    0.044490
  H      2.159268   -4.526241   -0.234717
  H      2.515159   -3.694802   -2.547347
  H      4.289945   -3.735355   -2.292792
  H      3.029157    0.307741   -1.144662
  H      2.908929   -0.418722    0.458486
  H      1.059946    4.142757    1.013649
  H     -0.367468    4.248850   -0.046987
  H     -0.922204    5.065779    2.246943
  H     -1.842642    3.605346    1.851018
  H     -0.440005    3.502913    2.926817
  H     -3.065562   -3.109313   -0.009184
  H     -1.401821   -2.573953   -0.403585
  H     -2.763292   -2.044560   -1.417412
  H     -2.926007    1.513382    3.330070
  H     -1.587936    0.338360    3.125330
  H     -3.276155   -0.181992    2.871364

 Total Charge           Charge          ....    0
 Multiplicity           Mult            ....    1
 Number of Electrons    NEL             ....  174
 Basis Dimension        Dim             ....  510

ORBITAL ENERGIES
----------------

  NO   OCC          E(Eh)            E(eV)
   0   2.0000     -88.577269     -2410.3100
   1   2.0000     -88.530898     -2409.0482
   2   2.0000     -76.920351     -2093.1092
   3   2.0000     -19.009083      -517.2635
   4   2.0000     -19.006955      -517.2056
   5   2.0000     -18.999023      -516.9897
   6   2.0000     -18.994055      -516.8545
   7   2.0000     -18.952555      -515.7252
   8   2.0000     -18.948265      -515.6085
   9   2.0000     -10.174202      -276.8541
  10   2.0000     -10.170673      -276.7581
  11   2.0000     -10.093736      -274.6645
  12   2.0000     -10.087124      -274.4846
  13   2.0000     -10.085873      -274.4506
  14   2.0000     -10.085843      -274.4498
  15   2.0000     -10.080721      -274.3104
  16   2.0000     -10.058129      -273.6956
  17   2.0000     -10.019409      -272.6420
  18   2.0000     -10.019281      -272.6385
  19   2.0000      -7.871725      -214.2005
  20   2.0000      -7.825918      -212.9540
  21   2.0000      -6.598899      -179.5652
  22   2.0000      -5.818598      -158.3321
  23   2.0000      -5.815826      -158.2567
  24   2.0000      -5.808561      -158.0590
  25   2.0000      -5.773688      -157.1100
  26   2.0000      -5.766290      -156.9087
  27   2.0000      -5.765654      -156.8914
  28   2.0000      -4.744537      -129.1054
  29   2.0000      -4.743864      -129.0871
  30   2.0000      -4.742538      -129.0510
  31   2.0000      -1.089561       -29.6485
  32   2.0000      -1.085297       -29.5324
  33   2.0000      -1.054603       -28.6972
  34   2.0000      -1.011916       -27.5356
  35   2.0000      -0.999997       -27.2113
  36   2.0000      -0.995379       -27.0856
  37   2.0000      -0.812672       -22.1139
  38   2.0000      -0.753788       -20.5116
  39   2.0000      -0.740927       -20.1616
  40   2.0000      -0.731565       -19.9069
  41   2.0000      -0.695783       -18.9332
  42   2.0000      -0.670219       -18.2376
  43   2.0000      -0.660977       -17.9861
  44   2.0000      -0.651952       -17.7405
  45   2.0000      -0.625243       -17.0137
  46   2.0000      -0.588967       -16.0266
  47   2.0000      -0.541878       -14.7452
  48   2.0000      -0.534186       -14.5359
  49   2.0000      -0.522980       -14.2310
  50   2.0000      -0.501440       -13.6449
  51   2.0000      -0.492615       -13.4047
  52   2.0000      -0.486537       -13.2393
  53   2.0000      -0.462522       -12.5859
  54   2.0000      -0.461857       -12.5678
  55   2.0000      -0.459362       -12.4999
  56   2.0000      -0.454381       -12.3643
  57   2.0000      -0.450565       -12.2605
  58   2.0000      -0.444686       -12.1005
  59   2.0000      -0.427634       -11.6365
  60   2.0000      -0.422602       -11.4996
  61   2.0000      -0.412741       -11.2313
  62   2.0000      -0.407005       -11.0752
  63   2.0000      -0.398433       -10.8419
  64   2.0000      -0.393324       -10.7029
  65   2.0000      -0.374692       -10.1959
  66   2.0000      -0.370406       -10.0793
  67   2.0000      -0.367000        -9.9866
  68   2.0000      -0.358377        -9.7519
  69   2.0000      -0.356249        -9.6940
  70   2.0000      -0.349983        -9.5235
  71   2.0000      -0.339757        -9.2452
  72   2.0000      -0.337496        -9.1837
  73   2.0000      -0.328430        -8.9370
  74   2.0000      -0.325769        -8.8646
  75   2.0000      -0.315537        -8.5862
  76   2.0000      -0.311412        -8.4740
  77   2.0000      -0.307290        -8.3618
  78   2.0000      -0.288736        -7.8569
  79   2.0000      -0.285585        -7.7712
  80   2.0000      -0.282872        -7.6973
  81   2.0000      -0.278563        -7.5801
  82   2.0000      -0.275127        -7.4866
  83   2.0000      -0.257022        -6.9939
  84   2.0000      -0.234732        -6.3874
  85   2.0000      -0.231801        -6.3076
  86   2.0000      -0.221679        -6.0322
  87   0.0000      -0.051714        -1.4072
  88   0.0000      -0.035241        -0.9590
  89   0.0000      -0.024295        -0.6611
  90   0.0000       0.003643         0.0991
  91   0.0000       0.013944         0.3794

MULLIKEN ATOMIC CHARGES
-----------------------
   0 C :   -0.494054
   1 C :   -0.142948
   2 O :   -0.183924
   3 C :    0.430046
   4 O :   -0.484459
   5 C :   -0.454507
   6 C :    0.038892
   7 H :    0.243638
   8 C :    0.333300
   9 O :   -0.481361
  10 O :   -0.126209
  11 C :   -0.140835
  12 C :   -0.505037
  13 S :   -0.239420
  14 P :    0.785218
  15 S :   -0.512615
  16 O :   -0.358374
  17 C :   -0.307651
  18 O :   -0.359015
  19 C :   -0.296769
  20 H :    0.171438
  21 H :    0.167082
  22 H :    0.169307
  23 H :    0.174821
  24 H :    0.176211
  25 H :    0.222360
  26 H :    0.224669
  27 H :    0.177296
  28 H :    0.179144
  29 H :    0.170162
  30 H :    0.169908
  31 H :    0.170903
  32 H :    0.179034
  33 H :    0.173481
  34 H :    0.179536
  35 H :    0.186804
  36 H :    0.177787
  37 H :    0.186141
Sum of atomic charges:   -0.0000000

LOEWDIN ATOMIC CHARGES
----------------------
   0 C :   -0.391344
   1 C :    0.035837
   2 O :   -0.582939
   3 C :    0.370779
   4 O :   -0.496389
   5 C :   -0.199840
   6 C :   -0.194671
   7 H :    0.225842
   8 C :    0.361148
   9 O :   -0.469942
  10 O :   -0.621727
  11 C :    0.045004
  12 C :   -0.386892
  13 S :    0.232261
  14 P :    0.398914
  15 S :   -0.128415
  16 O :   -0.694356
  17 C :   -0.057194
  18 O :   -0.676372
  19 C :   -0.045353
  20 H :    0.168528
  21 H :    0.162462
  22 H :    0.162661
  23 H :    0.190674
  24 H :    0.190135
  25 H :    0.215193
  26 H :    0.206145
  27 H :    0.193469
  28 H :    0.187666
  29 H :    0.168531
  30 H :    0.167428
  31 H :    0.164336
  32 H :    0.188126
  33 H :    0.179085
  34 H :    0.177376
  35 H :    0.191949
  36 H :    0.179426
  37 H :    0.182461

  Mayer bond orders larger than 0.100000
B(  0-C ,  1-C ) :   0.9370 B(  0-C , 20-H ) :   0.9590 B(  0-C , 21-H ) :   0.9697
B(  0-C , 22-H ) :   0.9693 B(  1-C ,  2-O ) :   0.7837 B(  1-C , 23-H ) :   0.9635
B(  1-C , 24-H ) :   0.9522 B(  2-O ,  3-C ) :   1.1346 B(  3-C ,  4-O ) :   1.7873
B(  3-C ,  5-C ) :   0.9716 B(  5-C ,  6-C ) :   0.9660 B(  5-C , 25-H ) :   0.9119
B(  5-C , 26-H ) :   0.9473 B(  6-C ,  7-H ) :   0.9025 B(  6-C ,  8-C ) :   0.9025
B(  6-C , 13-S ) :   0.7681 B(  8-C ,  9-O ) :   1.8198 B(  8-C , 10-O ) :   1.2181
B( 10-O , 11-C ) :   0.7671 B( 11-C , 12-C ) :   0.9409 B( 11-C , 27-H ) :   0.9566
B( 11-C , 28-H ) :   0.9353 B( 12-C , 29-H ) :   0.9590 B( 12-C , 30-H ) :   0.9596
B( 12-C , 31-H ) :   0.9713 B( 13-S , 14-P ) :   1.0295 B( 14-P , 15-S ) :   1.7620
B( 14-P , 16-O ) :   1.0443 B( 14-P , 18-O ) :   1.1570 B( 16-O , 17-C ) :   0.8193
B( 17-C , 32-H ) :   0.9568 B( 17-C , 33-H ) :   0.9470 B( 17-C , 34-H ) :   0.9553
B( 18-O , 19-C ) :   0.7829 B( 19-C , 35-H ) :   0.9548 B( 19-C , 36-H ) :   0.9473
B( 19-C , 37-H ) :   0.9506

Dispersion correction           -0.017305329
FINAL SINGLE POINT ENERGY     -1981.467683904595

DIPOLE MOMENT
-------------

Method             : SCF
Type of density    : Electron Density
Multiplicity       :   1
Irrep              :   0
Energy             : -1981.4879021716578791 Eh
Relativity type    :
Basis              : AO
                                X                 Y                 Z
Electronic contribution:     -5.686783368       5.823121154      -4.760794066
Nuclear contribution   :      6.346798991      -7.143888838       6.694452685
                        -----------------------------------------
Total Dipole Moment    :      0.660015623      -1.320767684       1.933658619
                        -----------------------------------------
Magnitude (a.u.)       :      2.432916676
Magnitude (Debye)      :      6.183982741

Rotational constants in cm-1:             0.013550             0.006709             0.005320
Rotational constants in MHz :           406.204808           201.117286           159.475638

                             ****ORCA TERMINATED NORMALLY****
TOTAL RUN TIME: 0 days 0 hours 1 minutes 50 seconds 867 msec
