                         Program Version 6.0.0  -   RELEASE  -
|  1> ! pbe def2-sv(p) def2/J RI DEFGRID1 loosescf d4 GCP(DFT/SV(P)) printgap
|  2> %output
|  3>     printlevel normal
|  4> end
|  5> * xyz 0 1
|  6> C 0.9555695839 -1.1890366645 -2.515626094
|  7> C 2.3794414166 -1.1749593034 -1.9962033175
|  8> O 2.5621052416 -0.1241285128 -1.0141428814
|  9> P 2.5951649319 -0.3370772249 0.5504062294
| 10> S 3.211741121 1.2722239889 1.4738238482
| 11> O 3.5237992489 -1.6222124332 0.6826717233
| 12> C 4.1956885707 -1.9711683363 1.9079197719
| 13> C 3.2290489656 -2.3583509697 3.0079145206
| 14> S 0.6724377733 -1.0464610757 1.133465659
| 15> C -0.0671932796 0.5803808727 1.3866111103
| 16> S -0.2457047145 1.5350895913 -0.1572982147
| 17> P -2.139340068 0.8086000844 -0.7344715888
| 18> S -2.7868030045 1.4032514056 -2.484176685
| 19> O -3.1064733952 1.1361224807 0.4987792953
| 20> C -3.8602693975 2.3613522751 0.5737213631
| 21> C -5.2956481225 2.11925454 0.1492020455
| 22> O -1.9172528913 -0.7440481697 -0.542402454
| 23> C -2.9879705742 -1.6825300209 -0.8124083246
| 24> C -2.382092501 -3.0696123268 -0.8524258209
| 25> H 0.260631817 -1.4665053282 -1.7265981895
| 26> H 0.680196878 -0.2048777846 -2.8904149246
| 27> H 0.8803463227 -1.9088515312 -3.3247969708
| 28> H 3.0847057395 -0.9241104628 -2.7904286181
| 29> H 2.6508890153 -2.1328431841 -1.5495391246
| 30> H 4.8360319502 -2.8063315189 1.6203357019
| 31> H 4.8097477466 -1.1198544521 2.2166284969
| 32> H 3.789087901 -2.7446514504 3.8534312729
| 33> H 2.6623089885 -1.486504919 3.3299598554
| 34> H 2.5366805674 -3.1182238126 2.6547565223
| 35> H 0.5873123868 1.1715087591 2.0275364466
| 36> H -1.0438561726 0.4284846825 1.8380553125
| 37> H -3.7984499218 2.6740379863 1.6175960563
| 38> H -3.3900797109 3.1154318612 -0.0639664429
| 39> H -5.8636287471 3.0359301718 0.2699778214
| 40> H -5.3275393701 1.817706886 -0.8956573527
| 41> H -5.7399754802 1.3372078265 0.7581976511
| 42> H -3.7259101142 -1.5906326453 -0.0124471018
| 43> H -3.4534381466 -1.4112247141 -1.765415468
| 44> H -1.6969846099 -3.1591359542 -1.6903637148
| 45> H -1.838679178 -3.2596138651 0.0692683144
| 46> H -3.1765384878 -3.8005561017 -0.9618659612
| 47> *
| 48>
| 49>                          ****END OF INPUT****

CARTESIAN COORDINATES (ANGSTROEM)
---------------------------------
  C      0.955570   -1.189037   -2.515626
  C      2.379441   -1.174959   -1.996203
  O      2.562105   -0.124129   -1.014143
  P      2.595165   -0.337077    0.550406
  S      3.211741    1.272224    1.473824
  O      3.523799   -1.622212    0.682672
  C      4.195689   -1.971168    1.907920
  C      3.229049   -2.358351    3.007915
  S      0.672438   -1.046461    1.133466
  C     -0.067193    0.580381    1.386611
  S     -0.245705    1.535090   -0.157298
  P     -2.139340    0.808600   -0.734472
  S     -2.786803    1.403251   -2.484177
  O     -3.106473    1.136122    0.498779
  C     -3.860269    2.361352    0.573721
  C     -5.295648    2.119255    0.149202
  O     -1.917253   -0.744048   -0.542402
  C     -2.987971   -1.682530   -0.812408
  C     -2.382093   -3.069612   -0.852426
  H      0.260632   -1.466505   -1.726598
  H      0.680197   -0.204878   -2.890415
  H      0.880346   -1.908852   -3.324797
  H      3.084706   -0.924110   -2.790429
  H      2.650889   -2.132843   -1.549539
  H      4.836032   -2.806332    1.620336
  H      4.809748   -1.119854    2.216628
  H      3.789088   -2.744651    3.853431
  H      2.662309   -1.486505    3.329960
  H      2.536681   -3.118224    2.654757
  H      0.587312    1.171509    2.027536
  H     -1.043856    0.428485    1.838055
  H     -3.798450    2.674038    1.617596
  H     -3.390080    3.115432   -0.063966
  H     -5.863629    3.035930    0.269978
  H     -5.327539    1.817707   -0.895657
  H     -5.739975    1.337208    0.758198
  H     -3.725910   -1.590633   -0.012447
  H     -3.453438   -1.411225   -1.765415
  H     -1.696985   -3.159136   -1.690364
  H     -1.838679   -3.259614    0.069268
  H     -3.176538   -3.800556   -0.961866

 Total Charge           Charge          ....    0
 Multiplicity           Mult            ....    1
 Number of Electrons    NEL             ....  202
 Basis Dimension        Dim             ....  334

ORBITAL ENERGIES
----------------

  NO   OCC          E(Eh)            E(eV)
   0   2.0000     -88.042344     -2395.7540
   1   2.0000     -88.041855     -2395.7407
   2   2.0000     -87.988479     -2394.2882
   3   2.0000     -87.986348     -2394.2303
   4   2.0000     -76.427298     -2079.6925
   5   2.0000     -76.426923     -2079.6823
   6   2.0000     -18.796548      -511.4801
   7   2.0000     -18.796490      -511.4785
   8   2.0000     -18.794633      -511.4280
   9   2.0000     -18.787276      -511.2278
  10   2.0000      -9.958689      -270.9897
  11   2.0000      -9.956120      -270.9198
  12   2.0000      -9.955702      -270.9084
  13   2.0000      -9.955549      -270.9043
  14   2.0000      -9.951031      -270.7813
  15   2.0000      -9.892597      -269.1913
  16   2.0000      -9.886607      -269.0283
  17   2.0000      -9.884424      -268.9689
  18   2.0000      -9.875687      -268.7311
  19   2.0000      -7.687148      -209.1779
  20   2.0000      -7.686977      -209.1733
  21   2.0000      -7.633631      -207.7217
  22   2.0000      -7.631663      -207.6681
  23   2.0000      -6.425205      -174.8387
  24   2.0000      -6.424264      -174.8131
  25   2.0000      -5.715141      -155.5169
  26   2.0000      -5.714832      -155.5085
  27   2.0000      -5.711856      -155.4275
  28   2.0000      -5.711382      -155.4146
  29   2.0000      -5.704114      -155.2168
  30   2.0000      -5.703766      -155.2074
  31   2.0000      -5.662608      -154.0874
  32   2.0000      -5.660605      -154.0329
  33   2.0000      -5.654296      -153.8612
  34   2.0000      -5.653706      -153.8452
  35   2.0000      -5.652278      -153.8063
  36   2.0000      -5.651764      -153.7923
  37   2.0000      -4.647790      -126.4728
  38   2.0000      -4.647231      -126.4576
  39   2.0000      -4.647122      -126.4546
  40   2.0000      -4.645838      -126.4197
  41   2.0000      -4.645471      -126.4097
  42   2.0000      -4.644595      -126.3859
  43   2.0000      -0.991007       -26.9667
  44   2.0000      -0.987509       -26.8715
  45   2.0000      -0.947899       -25.7936
  46   2.0000      -0.942914       -25.6580
  47   2.0000      -0.764546       -20.8043
  48   2.0000      -0.724894       -19.7254
  49   2.0000      -0.710378       -19.3304
  50   2.0000      -0.691129       -18.8066
  51   2.0000      -0.688816       -18.7436
  52   2.0000      -0.675427       -18.3793
  53   2.0000      -0.653272       -17.7764
  54   2.0000      -0.637256       -17.3406
  55   2.0000      -0.597473       -16.2581
  56   2.0000      -0.589503       -16.0412
  57   2.0000      -0.577127       -15.7044
  58   2.0000      -0.572157       -15.5692
  59   2.0000      -0.559239       -15.2177
  60   2.0000      -0.511571       -13.9205
  61   2.0000      -0.500238       -13.6122
  62   2.0000      -0.484916       -13.1952
  63   2.0000      -0.471987       -12.8434
  64   2.0000      -0.459627       -12.5071
  65   2.0000      -0.447080       -12.1657
  66   2.0000      -0.443341       -12.0639
  67   2.0000      -0.436197       -11.8695
  68   2.0000      -0.430695       -11.7198
  69   2.0000      -0.422835       -11.5059
  70   2.0000      -0.409279       -11.1370
  71   2.0000      -0.402717       -10.9585
  72   2.0000      -0.390867       -10.6360
  73   2.0000      -0.386377       -10.5138
  74   2.0000      -0.376449       -10.2437
  75   2.0000      -0.370241       -10.0748
  76   2.0000      -0.364249        -9.9117
  77   2.0000      -0.362082        -9.8528
  78   2.0000      -0.356655        -9.7051
  79   2.0000      -0.354051        -9.6342
  80   2.0000      -0.350861        -9.5474
  81   2.0000      -0.343217        -9.3394
  82   2.0000      -0.341776        -9.3002
  83   2.0000      -0.336458        -9.1555
  84   2.0000      -0.331713        -9.0264
  85   2.0000      -0.324533        -8.8310
  86   2.0000      -0.313671        -8.5354
  87   2.0000      -0.303623        -8.2620
  88   2.0000      -0.299237        -8.1427
  89   2.0000      -0.296935        -8.0800
  90   2.0000      -0.293060        -7.9746
  91   2.0000      -0.278121        -7.5681
  92   2.0000      -0.268637        -7.3100
  93   2.0000      -0.264928        -7.2090
  94   2.0000      -0.259074        -7.0497
  95   2.0000      -0.232247        -6.3198
  96   2.0000      -0.219627        -5.9763
  97   2.0000      -0.208324        -5.6688
  98   2.0000      -0.207607        -5.6493
  99   2.0000      -0.202305        -5.5050
 100   2.0000      -0.199846        -5.4381
 101   0.0000      -0.041816        -1.1379
 102   0.0000      -0.024181        -0.6580
 103   0.0000      -0.012599        -0.3428
 104   0.0000       0.003909         0.1064
 105   0.0000       0.009540         0.2596

MULLIKEN ATOMIC CHARGES
-----------------------
   0 C :   -0.332072
   1 C :   -0.012796
   2 O :   -0.351001
   3 P :    0.613737
   4 S :   -0.316450
   5 O :   -0.385206
   6 C :   -0.000232
   7 C :   -0.315766
   8 S :   -0.091780
   9 C :   -0.369721
  10 S :   -0.043064
  11 P :    0.605615
  12 S :   -0.320100
  13 O :   -0.393475
  14 C :   -0.005490
  15 C :   -0.290392
  16 O :   -0.374562
  17 C :   -0.013467
  18 C :   -0.285759
  19 H :    0.156008
  20 H :    0.127533
  21 H :    0.103534
  22 H :    0.109577
  23 H :    0.103655
  24 H :    0.105499
  25 H :    0.114503
  26 H :    0.114105
  27 H :    0.127780
  28 H :    0.115532
  29 H :    0.196289
  30 H :    0.183758
  31 H :    0.104439
  32 H :    0.106492
  33 H :    0.110228
  34 H :    0.123218
  35 H :    0.108952
  36 H :    0.103640
  37 H :    0.107730
  38 H :    0.127400
  39 H :    0.119184
  40 H :    0.112925
Sum of atomic charges:    0.0000000

LOEWDIN ATOMIC CHARGES
----------------------
   0 C :   -0.371379
   1 C :   -0.110146
   2 O :   -0.235105
   3 P :    0.570582
   4 S :   -0.310244
   5 O :   -0.248810
   6 C :   -0.115064
   7 C :   -0.371123
   8 S :    0.082795
   9 C :   -0.483398
  10 S :    0.104184
  11 P :    0.563293
  12 S :   -0.322317
  13 O :   -0.258524
  14 C :   -0.117235
  15 C :   -0.360785
  16 O :   -0.241692
  17 C :   -0.114856
  18 C :   -0.350877
  19 H :    0.119090
  20 H :    0.129212
  21 H :    0.125943
  22 H :    0.121542
  23 H :    0.108745
  24 H :    0.118871
  25 H :    0.113991
  26 H :    0.131582
  27 H :    0.121458
  28 H :    0.122533
  29 H :    0.130064
  30 H :    0.132177
  31 H :    0.116859
  32 H :    0.110598
  33 H :    0.129986
  34 H :    0.124709
  35 H :    0.122776
  36 H :    0.112014
  37 H :    0.111382
  38 H :    0.129146
  39 H :    0.127004
  40 H :    0.131018

  Mayer bond orders larger than 0.100000
B(  0-C ,  1-C ) :   1.1627 B(  0-C , 19-H ) :   0.9204 B(  0-C , 20-H ) :   0.9389
B(  0-C , 21-H ) :   0.9372 B(  1-C ,  2-O ) :   0.8944 B(  1-C , 22-H ) :   0.9343
B(  1-C , 23-H ) :   0.9203 B(  2-O ,  3-P ) :   1.1467 B(  3-P ,  4-S ) :   1.6266
B(  3-P ,  5-O ) :   1.0869 B(  3-P ,  8-S ) :   0.9440 B(  4-S ,  8-S ) :   0.1106
B(  5-O ,  6-C ) :   0.9056 B(  6-C ,  7-C ) :   1.1670 B(  6-C , 24-H ) :   0.9346
B(  6-C , 25-H ) :   0.9188 B(  7-C , 26-H ) :   0.9367 B(  7-C , 27-H ) :   0.9345
B(  7-C , 28-H ) :   0.9438 B(  8-S ,  9-C ) :   1.0073 B(  9-C , 10-S ) :   0.9787
B(  9-C , 29-H ) :   0.8732 B(  9-C , 30-H ) :   0.8919 B( 10-S , 11-P ) :   1.0015
B( 11-P , 12-S ) :   1.6498 B( 11-P , 13-O ) :   1.0534 B( 11-P , 16-O ) :   1.0990
B( 13-O , 14-C ) :   0.9021 B( 14-C , 15-C ) :   1.1663 B( 14-C , 31-H ) :   0.9345
B( 14-C , 32-H ) :   0.9127 B( 15-C , 33-H ) :   0.9404 B( 15-C , 34-H ) :   0.9374
B( 15-C , 35-H ) :   0.9478 B( 16-O , 17-C ) :   0.8975 B( 17-C , 18-C ) :   1.1611
B( 17-C , 36-H ) :   0.9301 B( 17-C , 37-H ) :   0.9137 B( 18-C , 38-H ) :   0.9466
B( 18-C , 39-H ) :   0.9485 B( 18-C , 40-H ) :   0.9408

Dispersion correction           -0.064436562
FINAL SINGLE POINT ENERGY     -2929.521434685599

DIPOLE MOMENT
-------------

Method             : SCF
Type of density    : Electron Density
Multiplicity       :   1
Irrep              :   0
Energy             : -2929.6423919951594144 Eh
Relativity type    :
Basis              : AO
                                X                 Y                 Z
Electronic contribution:     11.187668355      15.310849428      -1.785052470
Nuclear contribution   :    -11.934271448     -17.001258609       2.584367730
                        -----------------------------------------
Total Dipole Moment    :     -0.746603094      -1.690409181       0.799315260
                        -----------------------------------------
Magnitude (a.u.)       :      2.013406135
Magnitude (Debye)      :      5.117671688

Rotational constants in cm-1:             0.013387             0.004500             0.004297
Rotational constants in MHz :           401.334482           134.908582           128.834355

                             ****ORCA TERMINATED NORMALLY****
TOTAL RUN TIME: 0 days 0 hours 0 minutes 21 seconds 181 msec
