                         Program Version 6.0.0  -   RELEASE  -
|  1> ! wb97x-v def2-tzvp def2/J RIJCOSX DEFGRID2 scfconv7 GCP(DFT/TZ) printgap
|  2> %output
|  3>     printlevel normal
|  4> end
|  5> * xyz 0 1
|  6> C -1.702634658582643 -0.0536927774388672 -0.5277609299856275
|  7> C -1.08946474221585 1.3109281560700021 -0.15624203189750474
|  8> C 0.2909737641345272 1.1789606749679657 0.5356454880173794
|  9> C 1.0574256655595375 -0.01070607358058748 0.046542477275045104
| 10> O 2.2084207988284135 0.06207259680942995 -0.37950537414178565
| 11> C 0.32925692629723097 -1.33027150977696 0.13114263078462188
| 12> C -1.172432409684074 -1.1638422891904614 0.38015809544186885
| 13> H -1.4401849260263007 -0.3078052201240844 -1.5628961831268549
| 14> H -2.7944606048632403 0.002952252807616964 -0.4820245656747512
| 15> H -0.9793748594040286 1.9264459657425694 -1.0537361369331282
| 16> H -1.7549748013211348 1.851960206557895 0.5228986122038993
| 17> H 0.8891221574174961 2.086755527906296 0.43329954853188224
| 18> H 0.1281222661167803 0.9970261600335252 1.6077569523043154
| 19> H 0.5171851329905746 -1.8720165267551498 -0.8036202415196753
| 20> H 0.8139986609966396 -1.9101735107407052 0.9284237443855741
| 21> H -1.6855577136275102 -2.109990292176448 0.18333320390375873
| 22> H -1.3596654247064277 -0.91062096872299 1.4307548319316536
| 23> *
| 24>
| 25>                          ****END OF INPUT****

CARTESIAN COORDINATES (ANGSTROEM)
---------------------------------
  C     -1.702635   -0.053693   -0.527761
  C     -1.089465    1.310928   -0.156242
  C      0.290974    1.178961    0.535645
  C      1.057426   -0.010706    0.046542
  O      2.208421    0.062073   -0.379505
  C      0.329257   -1.330272    0.131143
  C     -1.172432   -1.163842    0.380158
  H     -1.440185   -0.307805   -1.562896
  H     -2.794461    0.002952   -0.482025
  H     -0.979375    1.926446   -1.053736
  H     -1.754975    1.851960    0.522899
  H      0.889122    2.086756    0.433300
  H      0.128122    0.997026    1.607757
  H      0.517185   -1.872017   -0.803620
  H      0.813999   -1.910174    0.928424
  H     -1.685558   -2.109990    0.183333
  H     -1.359665   -0.910621    1.430755

 Total Charge           Charge          ....    0
 Multiplicity           Mult            ....    1
 Number of Electrons    NEL             ....   54
 Basis Dimension        Dim             ....  277

ORBITAL ENERGIES
----------------

  NO   OCC          E(Eh)            E(eV)
   0   2.0000     -21.653623      -589.2250
   1   2.0000     -12.132813      -330.1506
   2   2.0000     -12.058321      -328.1236
   3   2.0000     -12.055835      -328.0560
   4   2.0000     -12.054710      -328.0253
   5   2.0000     -12.054117      -328.0092
   6   2.0000     -12.053154      -327.9830
   7   2.0000      -1.695025       -46.1240
   8   2.0000      -1.350567       -36.7508
   9   2.0000      -1.268109       -34.5070
  10   2.0000      -1.248738       -33.9799
  11   2.0000      -1.130425       -30.7604
  12   2.0000      -1.100947       -29.9583
  13   2.0000      -1.038379       -28.2557
  14   2.0000      -0.965280       -26.2666
  15   2.0000      -0.952737       -25.9253
  16   2.0000      -0.925567       -25.1859
  17   2.0000      -0.889286       -24.1987
  18   2.0000      -0.883296       -24.0357
  19   2.0000      -0.862811       -23.4783
  20   2.0000      -0.842272       -22.9194
  21   2.0000      -0.833114       -22.6702
  22   2.0000      -0.821275       -22.3480
  23   2.0000      -0.797589       -21.7035
  24   2.0000      -0.783374       -21.3167
  25   2.0000      -0.767156       -20.8754
  26   2.0000      -0.754703       -20.5365
  27   0.0000      -0.305650        -8.3172
  28   0.0000      -0.067058        -1.8247
  29   0.0000      -0.049859        -1.3567
  30   0.0000      -0.038690        -1.0528
  31   0.0000      -0.027888        -0.7589

MULLIKEN ATOMIC CHARGES
-----------------------
   0 C :   -0.188600
   1 C :   -0.209050
   2 C :   -0.149121
   3 C :    0.128084
   4 O :   -0.312606
   5 C :   -0.194839
   6 C :   -0.182989
   7 H :    0.102535
   8 H :    0.106829
   9 H :    0.107028
  10 H :    0.102214
  11 H :    0.126148
  12 H :    0.107915
  13 H :    0.121802
  14 H :    0.125190
  15 H :    0.109885
  16 H :    0.099574
Sum of atomic charges:    0.0000000

LOEWDIN ATOMIC CHARGES
----------------------
   0 C :   -0.255821
   1 C :   -0.242697
   2 C :   -0.215301
   3 C :   -0.313195
   4 O :    0.097707
   5 C :   -0.221698
   6 C :   -0.255502
   7 H :    0.137246
   8 H :    0.132116
   9 H :    0.135047
  10 H :    0.133451
  11 H :    0.143267
  12 H :    0.152830
  13 H :    0.151794
  14 H :    0.152880
  15 H :    0.133860
  16 H :    0.134016

  Mayer bond orders larger than 0.100000
B(  0-C ,  1-C ) :   0.9890 B(  0-C ,  6-C ) :   0.9781 B(  0-C ,  7-H ) :   0.9708
B(  0-C ,  8-H ) :   0.9743 B(  1-C ,  2-C ) :   0.9562 B(  1-C ,  9-H ) :   0.9736
B(  1-C , 10-H ) :   0.9705 B(  2-C ,  3-C ) :   0.9706 B(  2-C , 11-H ) :   0.9630
B(  2-C , 12-H ) :   0.9486 B(  3-C ,  4-O ) :   2.1653 B(  3-C ,  5-C ) :   0.9477
B(  5-C ,  6-C ) :   0.9671 B(  5-C , 13-H ) :   0.9607 B(  5-C , 14-H ) :   0.9480
B(  6-C , 15-H ) :   0.9731 B(  6-C , 16-H ) :   0.9781

FINAL SINGLE POINT ENERGY      -309.904203356853

DIPOLE MOMENT
-------------

Method             : SCF
Type of density    : Electron Density
Multiplicity       :   1
Irrep              :   0
Energy             :  -309.9154128273531228 Eh
Relativity type    :
Basis              : AO
                                X                 Y                 Z
Electronic contribution:      5.879933406       0.134219998      -0.704746919
Nuclear contribution   :     -7.172390598      -0.221850240       1.118342255
                        -----------------------------------------
Total Dipole Moment    :     -1.292457192      -0.087630243       0.413595335
                        -----------------------------------------
Magnitude (a.u.)       :      1.359847695
Magnitude (Debye)      :      3.456458151

Rotational constants in cm-1:             0.138146             0.083589             0.060179
Rotational constants in MHz :          4141.526665          2505.925726          1804.119065

                             ****ORCA TERMINATED NORMALLY****
TOTAL RUN TIME: 0 days 0 hours 2 minutes 21 seconds 9 msec
