                         Program Version 6.0.0  -   RELEASE  -
|  1> ! wb97x-v def2-tzvp def2/J RIJCOSX DEFGRID2 scfconv7 GCP(DFT/TZ) printgap
|  2> %output
|  3>     printlevel normal
|  4> end
|  5> %cpcm
|  6>     smd true
|  7>     smdsolvent "water"
|  8> end
|  9> * xyz 0 1
| 10> C -1.702634658582643 -0.0536927774388672 -0.5277609299856275
| 11> C -1.08946474221585 1.3109281560700021 -0.15624203189750474
| 12> C 0.2909737641345272 1.1789606749679657 0.5356454880173794
| 13> C 1.0574256655595375 -0.01070607358058748 0.046542477275045104
| 14> O 2.2084207988284135 0.06207259680942995 -0.37950537414178565
| 15> C 0.32925692629723097 -1.33027150977696 0.13114263078462188
| 16> C -1.172432409684074 -1.1638422891904614 0.38015809544186885
| 17> H -1.4401849260263007 -0.3078052201240844 -1.5628961831268549
| 18> H -2.7944606048632403 0.002952252807616964 -0.4820245656747512
| 19> H -0.9793748594040286 1.9264459657425694 -1.0537361369331282
| 20> H -1.7549748013211348 1.851960206557895 0.5228986122038993
| 21> H 0.8891221574174961 2.086755527906296 0.43329954853188224
| 22> H 0.1281222661167803 0.9970261600335252 1.6077569523043154
| 23> H 0.5171851329905746 -1.8720165267551498 -0.8036202415196753
| 24> H 0.8139986609966396 -1.9101735107407052 0.9284237443855741
| 25> H -1.6855577136275102 -2.109990292176448 0.18333320390375873
| 26> H -1.3596654247064277 -0.91062096872299 1.4307548319316536
| 27> *
| 28>
| 29>                          ****END OF INPUT****

CARTESIAN COORDINATES (ANGSTROEM)
---------------------------------
  C     -1.702635   -0.053693   -0.527761
  C     -1.089465    1.310928   -0.156242
  C      0.290974    1.178961    0.535645
  C      1.057426   -0.010706    0.046542
  O      2.208421    0.062073   -0.379505
  C      0.329257   -1.330272    0.131143
  C     -1.172432   -1.163842    0.380158
  H     -1.440185   -0.307805   -1.562896
  H     -2.794461    0.002952   -0.482025
  H     -0.979375    1.926446   -1.053736
  H     -1.754975    1.851960    0.522899
  H      0.889122    2.086756    0.433300
  H      0.128122    0.997026    1.607757
  H      0.517185   -1.872017   -0.803620
  H      0.813999   -1.910174    0.928424
  H     -1.685558   -2.109990    0.183333
  H     -1.359665   -0.910621    1.430755

 Total Charge           Charge          ....    0
 Multiplicity           Mult            ....    1
 Number of Electrons    NEL             ....   54
 Basis Dimension        Dim             ....  277

ORBITAL ENERGIES
----------------

  NO   OCC          E(Eh)            E(eV)
   0   2.0000     -21.665895      -589.5590
   1   2.0000     -12.141099      -330.3761
   2   2.0000     -12.044180      -327.7388
   3   2.0000     -12.043549      -327.7216
   4   2.0000     -12.041779      -327.6735
   5   2.0000     -12.037630      -327.5606
   6   2.0000     -12.034718      -327.4813
   7   2.0000      -1.711061       -46.5603
   8   2.0000      -1.338066       -36.4106
   9   2.0000      -1.255224       -34.1564
  10   2.0000      -1.238545       -33.7025
  11   2.0000      -1.118888       -30.4465
  12   2.0000      -1.101536       -29.9743
  13   2.0000      -1.037883       -28.2422
  14   2.0000      -0.958399       -26.0794
  15   2.0000      -0.954508       -25.9735
  16   2.0000      -0.926942       -25.2234
  17   2.0000      -0.882850       -24.0236
  18   2.0000      -0.875276       -23.8175
  19   2.0000      -0.850808       -23.1517
  20   2.0000      -0.830678       -22.6039
  21   2.0000      -0.819425       -22.2977
  22   2.0000      -0.811326       -22.0773
  23   2.0000      -0.786208       -21.3938
  24   2.0000      -0.770006       -20.9529
  25   2.0000      -0.754009       -20.5176
  26   2.0000      -0.739850       -20.1324
  27   0.0000      -0.303947        -8.2708
  28   0.0000      -0.058676        -1.5967
  29   0.0000      -0.034202        -0.9307
  30   0.0000      -0.027751        -0.7551
  31   0.0000      -0.011219        -0.3053

MULLIKEN ATOMIC CHARGES
-----------------------
   0 C :   -0.205545
   1 C :   -0.223351
   2 C :   -0.169020
   3 C :    0.220174
   4 O :   -0.460967
   5 C :   -0.214720
   6 C :   -0.207229
   7 H :    0.110152
   8 H :    0.119161
   9 H :    0.115206
  10 H :    0.117071
  11 H :    0.130414
  12 H :    0.140977
  13 H :    0.136261
  14 H :    0.150602
  15 H :    0.123003
  16 H :    0.117811
Sum of atomic charges:    0.0000000

LOEWDIN ATOMIC CHARGES
----------------------
   0 C :   -0.256004
   1 C :   -0.239392
   2 C :   -0.210779
   3 C :   -0.291743
   4 O :    0.012301
   5 C :   -0.217118
   6 C :   -0.251719
   7 H :    0.139265
   8 H :    0.134883
   9 H :    0.136969
  10 H :    0.138215
  11 H :    0.143523
  12 H :    0.166837
  13 H :    0.155950
  14 H :    0.161483
  15 H :    0.137455
  16 H :    0.139876

  Mayer bond orders larger than 0.100000
B(  0-C ,  1-C ) :   0.9900 B(  0-C ,  6-C ) :   0.9839 B(  0-C ,  7-H ) :   0.9684
B(  0-C ,  8-H ) :   0.9699 B(  1-C ,  2-C ) :   0.9580 B(  1-C ,  9-H ) :   0.9726
B(  1-C , 10-H ) :   0.9662 B(  2-C ,  3-C ) :   0.9965 B(  2-C , 11-H ) :   0.9615
B(  2-C , 12-H ) :   0.9298 B(  3-C ,  4-O ) :   1.9958 B(  3-C ,  5-C ) :   0.9665
B(  5-C ,  6-C ) :   0.9761 B(  5-C , 13-H ) :   0.9543 B(  5-C , 14-H ) :   0.9317
B(  6-C , 15-H ) :   0.9681 B(  6-C , 16-H ) :   0.9743

FINAL SINGLE POINT ENERGY      -309.913552182636

DIPOLE MOMENT
-------------

Method             : SCF
Type of density    : Electron Density
Multiplicity       :   1
Irrep              :   0
Energy             :  -309.9247616531363860 Eh
Relativity type    :
Basis              : AO
                                X                 Y                 Z
Electronic contribution:      5.365047659       0.083750119      -0.476766779
Nuclear contribution   :     -7.172390598      -0.221850240       1.118342255
                        -----------------------------------------
Total Dipole Moment    :     -1.807342939      -0.138100121       0.641575475
                        -----------------------------------------
Magnitude (a.u.)       :      1.922805042
Magnitude (Debye)      :      4.887382011

Rotational constants in cm-1:             0.138146             0.083589             0.060179
Rotational constants in MHz :          4141.526665          2505.925726          1804.119065

                             ****ORCA TERMINATED NORMALLY****
TOTAL RUN TIME: 0 days 0 hours 2 minutes 9 seconds 140 msec
