                         Program Version 6.0.0  -   RELEASE  -
|  1> ! r2scan-3c def2/J RI DEFGRID2 scfconv6 printgap
|  2> %output
|  3>     printlevel normal
|  4> end
|  5> * xyz 0 1
|  6> C 0.6245880623 1.6916267066 -0.0769874948
|  7> C 1.4146086477 0.384302589 -0.2503700774
|  8> H 1.66785482 0.2265384826 -1.3079586728
|  9> C 0.5479464084 -0.8007088555 0.1922440314
| 10> H 0.3911686391 -0.7414155676 1.2785390305
| 11> C -0.8182430865 -0.7407431717 -0.5066909917
| 12> H -0.6501747501 -0.84100596 -1.5909575432
| 13> C -1.4773913724 0.6305924536 -0.2641846623
| 14> H -2.3793183585 0.7229000401 -0.8891213524
| 15> O -0.6351701914 1.6590173855 -0.7291684315
| 16> O -1.7794705842 0.7552615024 1.0851069285
| 17> O -1.5836179852 -1.8095462772 -0.0174662942
| 18> O 1.2202799219 -1.9878637835 -0.1465903712
| 19> O 2.5711853154 0.3995057509 0.5495913959
| 20> H 1.152689819 2.5330545965 -0.5251904787
| 21> H 0.4919649721 1.8658838336 0.9978130545
| 22> H -2.3130778829 1.5501885248 1.2394152869
| 23> H -2.4547996922 -1.8212093894 -0.4382599235
| 24> H 0.6610945958 -2.7349277707 0.1142344628
| 25> H 3.2413703253 0.9700895935 0.1478870337
| 26> *
| 27>
| 28>                          ****END OF INPUT****

CARTESIAN COORDINATES (ANGSTROEM)
---------------------------------
  C      0.624588    1.691627   -0.076987
  C      1.414609    0.384303   -0.250370
  H      1.667855    0.226538   -1.307959
  C      0.547946   -0.800709    0.192244
  H      0.391169   -0.741416    1.278539
  C     -0.818243   -0.740743   -0.506691
  H     -0.650175   -0.841006   -1.590958
  C     -1.477391    0.630592   -0.264185
  H     -2.379318    0.722900   -0.889121
  O     -0.635170    1.659017   -0.729168
  O     -1.779471    0.755262    1.085107
  O     -1.583618   -1.809546   -0.017466
  O      1.220280   -1.987864   -0.146590
  O      2.571185    0.399506    0.549591
  H      1.152690    2.533055   -0.525190
  H      0.491965    1.865884    0.997813
  H     -2.313078    1.550189    1.239415
  H     -2.454800   -1.821209   -0.438260
  H      0.661095   -2.734928    0.114234
  H      3.241370    0.970090    0.147887

 Total Charge           Charge          ....    0
 Multiplicity           Mult            ....    1
 Number of Electrons    NEL             ....   80
 Basis Dimension        Dim             ....  265

ORBITAL ENERGIES
----------------

  NO   OCC          E(Eh)            E(eV)
   0   2.0000     -18.969598      -516.1890
   1   2.0000     -18.967231      -516.1246
   2   2.0000     -18.965212      -516.0697
   3   2.0000     -18.954831      -515.7872
   4   2.0000     -18.943131      -515.4688
   5   2.0000     -10.139456      -275.9086
   6   2.0000     -10.090507      -274.5767
   7   2.0000     -10.086862      -274.4775
   8   2.0000     -10.081798      -274.3397
   9   2.0000     -10.079382      -274.2739
  10   2.0000      -1.049055       -28.5462
  11   2.0000      -1.007962       -27.4280
  12   2.0000      -0.998294       -27.1650
  13   2.0000      -0.979392       -26.6506
  14   2.0000      -0.975630       -26.5482
  15   2.0000      -0.744895       -20.2696
  16   2.0000      -0.722227       -19.6528
  17   2.0000      -0.619604       -16.8603
  18   2.0000      -0.610561       -16.6142
  19   2.0000      -0.551286       -15.0013
  20   2.0000      -0.511829       -13.9276
  21   2.0000      -0.506545       -13.7838
  22   2.0000      -0.496565       -13.5122
  23   2.0000      -0.484574       -13.1859
  24   2.0000      -0.459215       -12.4959
  25   2.0000      -0.424459       -11.5501
  26   2.0000      -0.412115       -11.2142
  27   2.0000      -0.386303       -10.5118
  28   2.0000      -0.383723       -10.4416
  29   2.0000      -0.371628       -10.1125
  30   2.0000      -0.355295        -9.6681
  31   2.0000      -0.346079        -9.4173
  32   2.0000      -0.324562        -8.8318
  33   2.0000      -0.291420        -7.9299
  34   2.0000      -0.282752        -7.6941
  35   2.0000      -0.279468        -7.6047
  36   2.0000      -0.263657        -7.1745
  37   2.0000      -0.249953        -6.8016
  38   2.0000      -0.237258        -6.4561
  39   2.0000      -0.222187        -6.0460
  40   0.0000       0.033533         0.9125
  41   0.0000       0.044575         1.2129
  42   0.0000       0.057914         1.5759
  43   0.0000       0.078986         2.1493
  44   0.0000       0.102298         2.7837

MULLIKEN ATOMIC CHARGES
-----------------------
   0 C :   -0.248970
   1 C :   -0.043170
   2 H :    0.147341
   3 C :   -0.035768
   4 H :    0.174541
   5 C :   -0.037665
   6 H :    0.158355
   7 C :    0.045097
   8 H :    0.125311
   9 O :   -0.198853
  10 O :   -0.382846
  11 O :   -0.415981
  12 O :   -0.415124
  13 O :   -0.394795
  14 H :    0.141692
  15 H :    0.175625
  16 H :    0.305116
  17 H :    0.294396
  18 H :    0.309909
  19 H :    0.295789
Sum of atomic charges:    0.0000000

LOEWDIN ATOMIC CHARGES
----------------------
   0 C :    0.040170
   1 C :    0.108739
   2 H :    0.179085
   3 C :    0.120501
   4 H :    0.194564
   5 C :    0.117868
   6 H :    0.185189
   7 C :    0.275181
   8 H :    0.189413
   9 O :   -0.683637
  10 O :   -0.510387
  11 O :   -0.565231
  12 O :   -0.558308
  13 O :   -0.569057
  14 H :    0.183661
  15 H :    0.184585
  16 H :    0.279259
  17 H :    0.274990
  18 H :    0.280776
  19 H :    0.272639

  Mayer bond orders larger than 0.100000
B(  0-C ,  1-C ) :   0.8355 B(  0-C ,  9-O ) :   0.9302 B(  0-C , 14-H ) :   0.9416
B(  0-C , 15-H ) :   0.9925 B(  1-C ,  2-H ) :   0.9821 B(  1-C ,  3-C ) :   0.9670
B(  1-C , 13-O ) :   0.9449 B(  3-C ,  4-H ) :   0.9756 B(  3-C ,  5-C ) :   0.8546
B(  3-C , 12-O ) :   0.9472 B(  5-C ,  6-H ) :   0.9711 B(  5-C ,  7-C ) :   0.9189
B(  5-C , 11-O ) :   0.9342 B(  7-C ,  8-H ) :   0.9401 B(  7-C ,  9-O ) :   0.9523
B(  7-C , 10-O ) :   1.0104 B( 10-O , 16-H ) :   0.8903 B( 11-O , 17-H ) :   0.8965
B( 12-O , 18-H ) :   0.8789 B( 13-O , 19-H ) :   0.8984

Dispersion correction           -0.006237369
FINAL SINGLE POINT ENERGY      -572.556167965195

DIPOLE MOMENT
-------------

Method             : SCF
Type of density    : Electron Density
Multiplicity       :   1
Irrep              :   0
Energy             :  -572.5660193933016444 Eh
Relativity type    :
Basis              : AO
                                X                 Y                 Z
Electronic contribution:     -0.642386364      -0.912965573       0.403667812
Nuclear contribution   :     -0.182467479       1.608552818      -0.902417036
                        -----------------------------------------
Total Dipole Moment    :     -0.824853843       0.695587244      -0.498749224
                        -----------------------------------------
Magnitude (a.u.)       :      1.188686782
Magnitude (Debye)      :      3.021401684

Rotational constants in cm-1:             0.056178             0.045069             0.029101
Rotational constants in MHz :          1684.170139          1351.125474           872.435301

                             ****ORCA TERMINATED NORMALLY****
TOTAL RUN TIME: 0 days 0 hours 0 minutes 35 seconds 686 msec
