                         Program Version 6.0.0  -   RELEASE  -
|  1> ! r2scan-3c def2/J RI DEFGRID2 scfconv6 printgap
|  2> %output
|  3>     printlevel normal
|  4> end
|  5> %cpcm
|  6>     smd true
|  7>     smdsolvent "water"
|  8> end
|  9> * xyz 0 1
| 10> C 0.6245880623 1.6916267066 -0.0769874948
| 11> C 1.4146086477 0.384302589 -0.2503700774
| 12> H 1.66785482 0.2265384826 -1.3079586728
| 13> C 0.5479464084 -0.8007088555 0.1922440314
| 14> H 0.3911686391 -0.7414155676 1.2785390305
| 15> C -0.8182430865 -0.7407431717 -0.5066909917
| 16> H -0.6501747501 -0.84100596 -1.5909575432
| 17> C -1.4773913724 0.6305924536 -0.2641846623
| 18> H -2.3793183585 0.7229000401 -0.8891213524
| 19> O -0.6351701914 1.6590173855 -0.7291684315
| 20> O -1.7794705842 0.7552615024 1.0851069285
| 21> O -1.5836179852 -1.8095462772 -0.0174662942
| 22> O 1.2202799219 -1.9878637835 -0.1465903712
| 23> O 2.5711853154 0.3995057509 0.5495913959
| 24> H 1.152689819 2.5330545965 -0.5251904787
| 25> H 0.4919649721 1.8658838336 0.9978130545
| 26> H -2.3130778829 1.5501885248 1.2394152869
| 27> H -2.4547996922 -1.8212093894 -0.4382599235
| 28> H 0.6610945958 -2.7349277707 0.1142344628
| 29> H 3.2413703253 0.9700895935 0.1478870337
| 30> *
| 31>
| 32>                          ****END OF INPUT****

CARTESIAN COORDINATES (ANGSTROEM)
---------------------------------
  C      0.624588    1.691627   -0.076987
  C      1.414609    0.384303   -0.250370
  H      1.667855    0.226538   -1.307959
  C      0.547946   -0.800709    0.192244
  H      0.391169   -0.741416    1.278539
  C     -0.818243   -0.740743   -0.506691
  H     -0.650175   -0.841006   -1.590958
  C     -1.477391    0.630592   -0.264185
  H     -2.379318    0.722900   -0.889121
  O     -0.635170    1.659017   -0.729168
  O     -1.779471    0.755262    1.085107
  O     -1.583618   -1.809546   -0.017466
  O      1.220280   -1.987864   -0.146590
  O      2.571185    0.399506    0.549591
  H      1.152690    2.533055   -0.525190
  H      0.491965    1.865884    0.997813
  H     -2.313078    1.550189    1.239415
  H     -2.454800   -1.821209   -0.438260
  H      0.661095   -2.734928    0.114234
  H      3.241370    0.970090    0.147887

 Total Charge           Charge          ....    0
 Multiplicity           Mult            ....    1
 Number of Electrons    NEL             ....   80
 Basis Dimension        Dim             ....  265

ORBITAL ENERGIES
----------------

  NO   OCC          E(Eh)            E(eV)
   0   2.0000     -18.969729      -516.1926
   1   2.0000     -18.965200      -516.0693
   2   2.0000     -18.962424      -515.9938
   3   2.0000     -18.960133      -515.9315
   4   2.0000     -18.957779      -515.8674
   5   2.0000     -10.132179      -275.7106
   6   2.0000     -10.086997      -274.4811
   7   2.0000     -10.086647      -274.4716
   8   2.0000     -10.085821      -274.4491
   9   2.0000     -10.074830      -274.1500
  10   2.0000      -1.047180       -28.4952
  11   2.0000      -1.011265       -27.5179
  12   2.0000      -1.000431       -27.2231
  13   2.0000      -0.984485       -26.7892
  14   2.0000      -0.977437       -26.5974
  15   2.0000      -0.746161       -20.3041
  16   2.0000      -0.718005       -19.5379
  17   2.0000      -0.619125       -16.8473
  18   2.0000      -0.608174       -16.5492
  19   2.0000      -0.548751       -14.9323
  20   2.0000      -0.511937       -13.9305
  21   2.0000      -0.502150       -13.6642
  22   2.0000      -0.497217       -13.5300
  23   2.0000      -0.482916       -13.1408
  24   2.0000      -0.459331       -12.4990
  25   2.0000      -0.425816       -11.5870
  26   2.0000      -0.411425       -11.1954
  27   2.0000      -0.387601       -10.5471
  28   2.0000      -0.385427       -10.4880
  29   2.0000      -0.376765       -10.2523
  30   2.0000      -0.356758        -9.7079
  31   2.0000      -0.348594        -9.4857
  32   2.0000      -0.334695        -9.1075
  33   2.0000      -0.295114        -8.0305
  34   2.0000      -0.288260        -7.8440
  35   2.0000      -0.278925        -7.5899
  36   2.0000      -0.267509        -7.2793
  37   2.0000      -0.252278        -6.8648
  38   2.0000      -0.247916        -6.7461
  39   2.0000      -0.227548        -6.1919
  40   0.0000       0.043810         1.1921
  41   0.0000       0.064778         1.7627
  42   0.0000       0.076541         2.0828
  43   0.0000       0.094969         2.5842
  44   0.0000       0.106986         2.9112

MULLIKEN ATOMIC CHARGES
-----------------------
   0 C :   -0.275532
   1 C :   -0.014912
   2 H :    0.172886
   3 C :   -0.013562
   4 H :    0.176487
   5 C :   -0.039372
   6 H :    0.181903
   7 C :    0.051942
   8 H :    0.161288
   9 O :   -0.257548
  10 O :   -0.452185
  11 O :   -0.487203
  12 O :   -0.490538
  13 O :   -0.479538
  14 H :    0.173793
  15 H :    0.179522
  16 H :    0.355869
  17 H :    0.351762
  18 H :    0.351619
  19 H :    0.353319
Sum of atomic charges:    0.0000000

LOEWDIN ATOMIC CHARGES
----------------------
   0 C :    0.043294
   1 C :    0.110139
   2 H :    0.188549
   3 C :    0.112129
   4 H :    0.194748
   5 C :    0.121408
   6 H :    0.194499
   7 C :    0.282586
   8 H :    0.206688
   9 O :   -0.706178
  10 O :   -0.531976
  11 O :   -0.585100
  12 O :   -0.594793
  13 O :   -0.600611
  14 H :    0.196177
  15 H :    0.185986
  16 H :    0.298693
  17 H :    0.295433
  18 H :    0.294482
  19 H :    0.293845

  Mayer bond orders larger than 0.100000
B(  0-C ,  1-C ) :   0.8460 B(  0-C ,  9-O ) :   0.9203 B(  0-C , 14-H ) :   0.9370
B(  0-C , 15-H ) :   0.9882 B(  1-C ,  2-H ) :   0.9720 B(  1-C ,  3-C ) :   0.9534
B(  1-C , 13-O ) :   0.9247 B(  3-C ,  4-H ) :   0.9528 B(  3-C ,  5-C ) :   0.8895
B(  3-C , 12-O ) :   0.9243 B(  5-C ,  6-H ) :   0.9698 B(  5-C ,  7-C ) :   0.9145
B(  5-C , 11-O ) :   0.9332 B(  7-C ,  8-H ) :   0.9424 B(  7-C ,  9-O ) :   0.9390
B(  7-C , 10-O ) :   1.0008 B( 10-O , 16-H ) :   0.8645 B( 11-O , 17-H ) :   0.8681
B( 12-O , 18-H ) :   0.8588 B( 13-O , 19-H ) :   0.8695

Dispersion correction           -0.006237369
FINAL SINGLE POINT ENERGY      -572.589930404938

DIPOLE MOMENT
-------------

Method             : SCF
Type of density    : Electron Density
Multiplicity       :   1
Irrep              :   0
Energy             :  -572.5997818330447444 Eh
Relativity type    :
Basis              : AO
                                X                 Y                 Z
Electronic contribution:     -1.000484915      -0.566432059       0.060079158
Nuclear contribution   :     -0.182467479       1.608552818      -0.902417036
                        -----------------------------------------
Total Dipole Moment    :     -1.182952394       1.042120759      -0.842337878
                        -----------------------------------------
Magnitude (a.u.)       :      1.787435354
Magnitude (Debye)      :      4.543299607

Rotational constants in cm-1:             0.056178             0.045069             0.029101
Rotational constants in MHz :          1684.170139          1351.125474           872.435301

                             ****ORCA TERMINATED NORMALLY****
TOTAL RUN TIME: 0 days 0 hours 0 minutes 46 seconds 872 msec
