                         Program Version 6.0.0  -   RELEASE  -
|  1> ! wb97x-v def2-tzvp def2/J RIJCOSX DEFGRID2 scfconv7 GCP(DFT/TZ) printgap
|  2> %output
|  3>     printlevel normal
|  4> end
|  5> * xyz 0 1
|  6> C -1.2478529657391004 0.17298425022286387 -6.398367577243844e-05
|  7> C 0.11404550679095721 -0.41613009869048295 -0.0007011687129842612
|  8> O 1.1511080541196361 0.22979343733592827 0.0001572457472259418
|  9> H -1.2229443174686554 1.2639656922213376 0.0005770813725379364
| 10> H -1.7925867712884656 -0.2015019276451643 -0.8762507939636691
| 11> H -1.79269458566978 -0.20254626620953267 0.8756148157739465
| 12> H 0.1565556231461024 -1.5241750602738267 0.00046135652062744166
| 13> *
| 14>
| 15>                          ****END OF INPUT****

CARTESIAN COORDINATES (ANGSTROEM)
---------------------------------
  C     -1.247853    0.172984   -0.000064
  C      0.114046   -0.416130   -0.000701
  O      1.151108    0.229793    0.000157
  H     -1.222944    1.263966    0.000577
  H     -1.792587   -0.201502   -0.876251
  H     -1.792695   -0.202546    0.875615
  H      0.156556   -1.524175    0.000461

 Total Charge           Charge          ....    0
 Multiplicity           Mult            ....    1
 Number of Electrons    NEL             ....   24
 Basis Dimension        Dim             ....  117

ORBITAL ENERGIES
----------------

  NO   OCC          E(Eh)            E(eV)
   0   2.0000     -21.673845      -589.7753
   1   2.0000     -12.144578      -330.4708
   2   2.0000     -12.061966      -328.2228
   3   2.0000      -1.715149       -46.6716
   4   2.0000      -1.275997       -34.7216
   5   2.0000      -1.110174       -30.2094
   6   2.0000      -1.005309       -27.3559
   7   2.0000      -0.966756       -26.3068
   8   2.0000      -0.911360       -24.7994
   9   2.0000      -0.847926       -23.0732
  10   2.0000      -0.838818       -22.8254
  11   2.0000      -0.791177       -21.5290
  12   0.0000      -0.315635        -8.5889
  13   0.0000      -0.031561        -0.8588
  14   0.0000      -0.014354        -0.3906
  15   0.0000       0.008863         0.2412
  16   0.0000       0.031877         0.8674

MULLIKEN ATOMIC CHARGES
-----------------------
   0 C :   -0.273286
   1 C :    0.125994
   2 O :   -0.295454
   3 H :    0.125755
   4 H :    0.125042
   5 H :    0.125096
   6 H :    0.066853
Sum of atomic charges:    0.0000000

LOEWDIN ATOMIC CHARGES
----------------------
   0 C :   -0.291213
   1 C :   -0.306371
   2 O :    0.088868
   3 H :    0.128950
   4 H :    0.136283
   5 H :    0.136285
   6 H :    0.107198

  Mayer bond orders larger than 0.100000
B(  0-C ,  1-C ) :   0.9603 B(  0-C ,  3-H ) :   0.9592 B(  0-C ,  4-H ) :   0.9494
B(  0-C ,  5-H ) :   0.9494 B(  1-C ,  2-O ) :   2.1252 B(  1-C ,  6-H ) :   0.9659

FINAL SINGLE POINT ENERGY      -153.837031359978

DIPOLE MOMENT
-------------

Method             : SCF
Type of density    : Electron Density
Multiplicity       :   1
Irrep              :   0
Energy             :  -153.8410062957775608 Eh
Relativity type    :
Basis              : AO
                                X                 Y                 Z
Electronic contribution:      3.271280809       0.182167192      -0.001173995
Nuclear contribution   :     -4.356430522      -0.627187269       0.000916023
                        -----------------------------------------
Total Dipole Moment    :     -1.085149713      -0.445020076      -0.000257972
                        -----------------------------------------
Magnitude (a.u.)       :      1.172856698
Magnitude (Debye)      :      2.981164810

Rotational constants in cm-1:             1.901572             0.339764             0.304359
Rotational constants in MHz :         57007.695005         10185.859850          9124.464045

                             ****ORCA TERMINATED NORMALLY****
TOTAL RUN TIME: 0 days 0 hours 0 minutes 36 seconds 421 msec
