                         Program Version 6.0.0  -   RELEASE  -
|  1> ! wb97x-v def2-tzvp def2/J RIJCOSX DEFGRID2 scfconv7 GCP(DFT/TZ) printgap
|  2> %output
|  3>     printlevel normal
|  4> end
|  5> %cpcm
|  6>     smd true
|  7>     smdsolvent "water"
|  8> end
|  9> * xyz 0 1
| 10> C -1.2478529657391004 0.17298425022286387 -6.398367577243844e-05
| 11> C 0.11404550679095721 -0.41613009869048295 -0.0007011687129842612
| 12> O 1.1511080541196361 0.22979343733592827 0.0001572457472259418
| 13> H -1.2229443174686554 1.2639656922213376 0.0005770813725379364
| 14> H -1.7925867712884656 -0.2015019276451643 -0.8762507939636691
| 15> H -1.79269458566978 -0.20254626620953267 0.8756148157739465
| 16> H 0.1565556231461024 -1.5241750602738267 0.00046135652062744166
| 17> *
| 18>
| 19>                          ****END OF INPUT****

CARTESIAN COORDINATES (ANGSTROEM)
---------------------------------
  C     -1.247853    0.172984   -0.000064
  C      0.114046   -0.416130   -0.000701
  O      1.151108    0.229793    0.000157
  H     -1.222944    1.263966    0.000577
  H     -1.792587   -0.201502   -0.876251
  H     -1.792695   -0.202546    0.875615
  H      0.156556   -1.524175    0.000461

 Total Charge           Charge          ....    0
 Multiplicity           Mult            ....    1
 Number of Electrons    NEL             ....   24
 Basis Dimension        Dim             ....  117

ORBITAL ENERGIES
----------------

  NO   OCC          E(Eh)            E(eV)
   0   2.0000     -21.678088      -589.8908
   1   2.0000     -12.144534      -330.4696
   2   2.0000     -12.042654      -327.6973
   3   2.0000      -1.723244       -46.8919
   4   2.0000      -1.262487       -34.3540
   5   2.0000      -1.113508       -30.3001
   6   2.0000      -1.004801       -27.3420
   7   2.0000      -0.962294       -26.1853
   8   2.0000      -0.919918       -25.0322
   9   2.0000      -0.831312       -22.6212
  10   2.0000      -0.822613       -22.3844
  11   2.0000      -0.787819       -21.4376
  12   0.0000      -0.306794        -8.3483
  13   0.0000      -0.018333        -0.4989
  14   0.0000       0.008414         0.2290
  15   0.0000       0.025717         0.6998
  16   0.0000       0.058309         1.5867

MULLIKEN ATOMIC CHARGES
-----------------------
   0 C :   -0.325115
   1 C :    0.194302
   2 O :   -0.430928
   3 H :    0.131209
   4 H :    0.158061
   5 H :    0.158124
   6 H :    0.114347
Sum of atomic charges:    0.0000000

LOEWDIN ATOMIC CHARGES
----------------------
   0 C :   -0.283786
   1 C :   -0.274615
   2 O :    0.006540
   3 H :    0.129543
   4 H :    0.148835
   5 H :    0.148840
   6 H :    0.124644

  Mayer bond orders larger than 0.100000
B(  0-C ,  1-C ) :   0.9936 B(  0-C ,  3-H ) :   0.9587 B(  0-C ,  4-H ) :   0.9374
B(  0-C ,  5-H ) :   0.9374 B(  1-C ,  2-O ) :   1.9886 B(  1-C ,  6-H ) :   0.9592

FINAL SINGLE POINT ENERGY      -153.843725649223

DIPOLE MOMENT
-------------

Method             : SCF
Type of density    : Electron Density
Multiplicity       :   1
Irrep              :   0
Energy             :  -153.8477005850228636 Eh
Relativity type    :
Basis              : AO
                                X                 Y                 Z
Electronic contribution:      2.868782008      -0.057348898      -0.001331823
Nuclear contribution   :     -4.356430522      -0.627187269       0.000916023
                        -----------------------------------------
Total Dipole Moment    :     -1.487648514      -0.684536167      -0.000415801
                        -----------------------------------------
Magnitude (a.u.)       :      1.637586040
Magnitude (Debye)      :      4.162412922

Rotational constants in cm-1:             1.901572             0.339764             0.304359
Rotational constants in MHz :         57007.695005         10185.859850          9124.464045

                             ****ORCA TERMINATED NORMALLY****
TOTAL RUN TIME: 0 days 0 hours 0 minutes 29 seconds 51 msec
