                         Program Version 6.0.0  -   RELEASE  -
|  1> ! pbe def2-sv(p) def2/J RI DEFGRID1 loosescf d4 GCP(DFT/SV(P)) printgap
|  2> %output
|  3>     printlevel normal
|  4> end
|  5> * xyz 0 1
|  6> C 3.8093600447 -2.1925001664 -2.5262859797
|  7> C 4.1035370518 -1.2979241538 -1.3389877767
|  8> O 3.1861024966 -0.1749636795 -1.311923798
|  9> P 1.9842153636 -0.0459713266 -0.287804603
| 10> S 1.1597614795 1.7121280475 -0.5639361866
| 11> O 2.5691300662 -0.3308848305 1.1741807429
| 12> C 2.9285562608 0.7260098741 2.0811834139
| 13> C 4.2231528983 1.3921389042 1.6621638632
| 14> S 0.9461126623 -1.8539890206 -0.5804083571
| 15> C -0.1297163509 -1.9371330587 0.8975020608
| 16> S -0.5184267915 -0.3395790611 1.6567167679
| 17> P -1.9819725131 0.3523225731 0.2933891096
| 18> S -2.4917934396 2.2278477535 0.5082039466
| 19> O -3.1488998394 -0.7253229084 0.4634312303
| 20> C -4.0241237819 -0.7134225812 1.6072775719
| 21> C -5.3104221954 0.024897834 1.2921974654
| 22> O -1.4018188623 -0.1164706061 -1.1012465351
| 23> C -1.7108289591 0.5787277021 -2.3246442413
| 24> C -3.1535851064 0.3633473595 -2.7250597084
| 25> H 2.8217314124 -2.6384836962 -2.4306102857
| 26> H 3.8450018002 -1.6129243633 -3.4445436759
| 27> H 4.5543939414 -2.980537438 -2.5697079841
| 28> H 5.0923114575 -0.8435598696 -1.42323093
| 29> H 4.026524142 -1.8458494587 -0.3969927439
| 30> H 2.1102140499 1.4529049212 2.1140127978
| 31> H 3.0163313856 0.228768341 3.0480176396
| 32> H 4.4834460724 2.1601501693 2.3835710386
| 33> H 5.0251889574 0.6607364664 1.6072491308
| 34> H 4.0959915333 1.8552582806 0.6836245312
| 35> H 0.3862117564 -2.5101146846 1.66430121
| 36> H -1.0479481554 -2.4279986441 0.580763987
| 37> H -4.2143200453 -1.7660312755 1.8256416065
| 38> H -3.5056264991 -0.250610158 2.453377141
| 39> H -5.7957432112 -0.4226175158 0.4294770564
| 40> H -5.974371381 -0.0308662081 2.1486686458
| 41> H -5.0981279001 1.0696924871 1.0755494281
| 42> H -1.4908246372 1.6426064124 -2.1852332216
| 43> H -1.0123674272 0.1555554141 -3.0488146377
| 44> H -3.366925113 -0.6997440289 -2.7973263248
| 45> H -3.8086637969 0.8079130289 -1.9764344468
| 46> H -3.3356881204 0.8389864847 -3.6834332039
| 47> *
| 48>
| 49>                          ****END OF INPUT****

CARTESIAN COORDINATES (ANGSTROEM)
---------------------------------
  C      3.809360   -2.192500   -2.526286
  C      4.103537   -1.297924   -1.338988
  O      3.186102   -0.174964   -1.311924
  P      1.984215   -0.045971   -0.287805
  S      1.159761    1.712128   -0.563936
  O      2.569130   -0.330885    1.174181
  C      2.928556    0.726010    2.081183
  C      4.223153    1.392139    1.662164
  S      0.946113   -1.853989   -0.580408
  C     -0.129716   -1.937133    0.897502
  S     -0.518427   -0.339579    1.656717
  P     -1.981973    0.352323    0.293389
  S     -2.491793    2.227848    0.508204
  O     -3.148900   -0.725323    0.463431
  C     -4.024124   -0.713423    1.607278
  C     -5.310422    0.024898    1.292197
  O     -1.401819   -0.116471   -1.101247
  C     -1.710829    0.578728   -2.324644
  C     -3.153585    0.363347   -2.725060
  H      2.821731   -2.638484   -2.430610
  H      3.845002   -1.612924   -3.444544
  H      4.554394   -2.980537   -2.569708
  H      5.092311   -0.843560   -1.423231
  H      4.026524   -1.845849   -0.396993
  H      2.110214    1.452905    2.114013
  H      3.016331    0.228768    3.048018
  H      4.483446    2.160150    2.383571
  H      5.025189    0.660736    1.607249
  H      4.095992    1.855258    0.683625
  H      0.386212   -2.510115    1.664301
  H     -1.047948   -2.427999    0.580764
  H     -4.214320   -1.766031    1.825642
  H     -3.505626   -0.250610    2.453377
  H     -5.795743   -0.422618    0.429477
  H     -5.974371   -0.030866    2.148669
  H     -5.098128    1.069692    1.075549
  H     -1.490825    1.642606   -2.185233
  H     -1.012367    0.155555   -3.048815
  H     -3.366925   -0.699744   -2.797326
  H     -3.808664    0.807913   -1.976434
  H     -3.335688    0.838986   -3.683433

 Total Charge           Charge          ....    0
 Multiplicity           Mult            ....    1
 Number of Electrons    NEL             ....  202
 Basis Dimension        Dim             ....  334

ORBITAL ENERGIES
----------------

  NO   OCC          E(Eh)            E(eV)
   0   2.0000     -88.044617     -2395.8158
   1   2.0000     -88.039138     -2395.6667
   2   2.0000     -87.983655     -2394.1570
   3   2.0000     -87.974523     -2393.9085
   4   2.0000     -76.422944     -2079.5740
   5   2.0000     -76.421511     -2079.5350
   6   2.0000     -18.790459      -511.3144
   7   2.0000     -18.789331      -511.2837
   8   2.0000     -18.787250      -511.2271
   9   2.0000     -18.783426      -511.1230
  10   2.0000      -9.961315      -271.0612
  11   2.0000      -9.955491      -270.9027
  12   2.0000      -9.952043      -270.8089
  13   2.0000      -9.947007      -270.6718
  14   2.0000      -9.941713      -270.5278
  15   2.0000      -9.887908      -269.0636
  16   2.0000      -9.881780      -268.8969
  17   2.0000      -9.878952      -268.8200
  18   2.0000      -9.876481      -268.7527
  19   2.0000      -7.689169      -209.2329
  20   2.0000      -7.684294      -209.1003
  21   2.0000      -7.628799      -207.5902
  22   2.0000      -7.619463      -207.3361
  23   2.0000      -6.420290      -174.7050
  24   2.0000      -6.418718      -174.6622
  25   2.0000      -5.717508      -155.5813
  26   2.0000      -5.713395      -155.4694
  27   2.0000      -5.712453      -155.4437
  28   2.0000      -5.708721      -155.3422
  29   2.0000      -5.705964      -155.2672
  30   2.0000      -5.701007      -155.1323
  31   2.0000      -5.657779      -153.9560
  32   2.0000      -5.649575      -153.7328
  33   2.0000      -5.648769      -153.7108
  34   2.0000      -5.648752      -153.7103
  35   2.0000      -5.639892      -153.4693
  36   2.0000      -5.639413      -153.4562
  37   2.0000      -4.642595      -126.3314
  38   2.0000      -4.642304      -126.3235
  39   2.0000      -4.641815      -126.3102
  40   2.0000      -4.640826      -126.2833
  41   2.0000      -4.640316      -126.2694
  42   2.0000      -4.638938      -126.2319
  43   2.0000      -0.982421       -26.7330
  44   2.0000      -0.981624       -26.7113
  45   2.0000      -0.942190       -25.6383
  46   2.0000      -0.939698       -25.5705
  47   2.0000      -0.762978       -20.7617
  48   2.0000      -0.717873       -19.5343
  49   2.0000      -0.706085       -19.2135
  50   2.0000      -0.689245       -18.7553
  51   2.0000      -0.680483       -18.5169
  52   2.0000      -0.670509       -18.2455
  53   2.0000      -0.651245       -17.7213
  54   2.0000      -0.635261       -17.2863
  55   2.0000      -0.592022       -16.1097
  56   2.0000      -0.585139       -15.9225
  57   2.0000      -0.574735       -15.6393
  58   2.0000      -0.568811       -15.4781
  59   2.0000      -0.560377       -15.2486
  60   2.0000      -0.501466       -13.6456
  61   2.0000      -0.495395       -13.4804
  62   2.0000      -0.476019       -12.9531
  63   2.0000      -0.468738       -12.7550
  64   2.0000      -0.454080       -12.3562
  65   2.0000      -0.442731       -12.0473
  66   2.0000      -0.436634       -11.8814
  67   2.0000      -0.432562       -11.7706
  68   2.0000      -0.422233       -11.4896
  69   2.0000      -0.414775       -11.2866
  70   2.0000      -0.405718       -11.0402
  71   2.0000      -0.397950       -10.8288
  72   2.0000      -0.396067       -10.7775
  73   2.0000      -0.381078       -10.3697
  74   2.0000      -0.376414       -10.2427
  75   2.0000      -0.371562       -10.1107
  76   2.0000      -0.363018        -9.8782
  77   2.0000      -0.356144        -9.6912
  78   2.0000      -0.355080        -9.6622
  79   2.0000      -0.351705        -9.5704
  80   2.0000      -0.344487        -9.3740
  81   2.0000      -0.343405        -9.3445
  82   2.0000      -0.341521        -9.2933
  83   2.0000      -0.333212        -9.0672
  84   2.0000      -0.324346        -8.8259
  85   2.0000      -0.320305        -8.7160
  86   2.0000      -0.313065        -8.5189
  87   2.0000      -0.301908        -8.2153
  88   2.0000      -0.292392        -7.9564
  89   2.0000      -0.284796        -7.7497
  90   2.0000      -0.276893        -7.5346
  91   2.0000      -0.269483        -7.3330
  92   2.0000      -0.269305        -7.3281
  93   2.0000      -0.264345        -7.1932
  94   2.0000      -0.256762        -6.9868
  95   2.0000      -0.232597        -6.3293
  96   2.0000      -0.218577        -5.9478
  97   2.0000      -0.206201        -5.6110
  98   2.0000      -0.196696        -5.3524
  99   2.0000      -0.190226        -5.1763
 100   2.0000      -0.182276        -4.9600
 101   0.0000      -0.048339        -1.3154
 102   0.0000      -0.023004        -0.6260
 103   0.0000      -0.009852        -0.2681
 104   0.0000       0.000691         0.0188
 105   0.0000       0.020807         0.5662

MULLIKEN ATOMIC CHARGES
-----------------------
   0 C :   -0.292024
   1 C :   -0.024786
   2 O :   -0.363133
   3 P :    0.610224
   4 S :   -0.295978
   5 O :   -0.393402
   6 C :   -0.006468
   7 C :   -0.308946
   8 S :   -0.117674
   9 C :   -0.304938
  10 S :   -0.088231
  11 P :    0.614177
  12 S :   -0.304893
  13 O :   -0.376053
  14 C :   -0.010602
  15 C :   -0.288748
  16 O :   -0.366731
  17 C :   -0.001894
  18 C :   -0.302316
  19 H :    0.127921
  20 H :    0.121270
  21 H :    0.109573
  22 H :    0.109114
  23 H :    0.106321
  24 H :    0.120017
  25 H :    0.098353
  26 H :    0.112676
  27 H :    0.107430
  28 H :    0.130622
  29 H :    0.183444
  30 H :    0.182413
  31 H :    0.100651
  32 H :    0.098266
  33 H :    0.112049
  34 H :    0.106018
  35 H :    0.128956
  36 H :    0.121824
  37 H :    0.101706
  38 H :    0.110610
  39 H :    0.122924
  40 H :    0.110256
Sum of atomic charges:    0.0000000

LOEWDIN ATOMIC CHARGES
----------------------
   0 C :   -0.359872
   1 C :   -0.121042
   2 O :   -0.243361
   3 P :    0.557486
   4 S :   -0.296598
   5 O :   -0.258962
   6 C :   -0.122980
   7 C :   -0.364863
   8 S :    0.076904
   9 C :   -0.466899
  10 S :    0.101369
  11 P :    0.572429
  12 S :   -0.304102
  13 O :   -0.253593
  14 C :   -0.119537
  15 C :   -0.363206
  16 O :   -0.234889
  17 C :   -0.116455
  18 C :   -0.365737
  19 H :    0.119435
  20 H :    0.129532
  21 H :    0.129913
  22 H :    0.119882
  23 H :    0.107891
  24 H :    0.111751
  25 H :    0.115072
  26 H :    0.131111
  27 H :    0.120688
  28 H :    0.126421
  29 H :    0.136177
  30 H :    0.133769
  31 H :    0.115000
  32 H :    0.105490
  33 H :    0.124442
  34 H :    0.127830
  35 H :    0.124559
  36 H :    0.112613
  37 H :    0.117639
  38 H :    0.123698
  39 H :    0.121260
  40 H :    0.129733

  Mayer bond orders larger than 0.100000
B(  0-C ,  1-C ) :   1.1659 B(  0-C , 19-H ) :   0.9378 B(  0-C , 20-H ) :   0.9460
B(  0-C , 21-H ) :   0.9396 B(  1-C ,  2-O ) :   0.8984 B(  1-C , 22-H ) :   0.9322
B(  1-C , 23-H ) :   0.9146 B(  2-O ,  3-P ) :   1.1175 B(  3-P ,  4-S ) :   1.6248
B(  3-P ,  5-O ) :   1.0586 B(  3-P ,  8-S ) :   0.9800 B(  4-S ,  8-S ) :   0.1107
B(  5-O ,  6-C ) :   0.9028 B(  6-C ,  7-C ) :   1.1642 B(  6-C , 24-H ) :   0.9107
B(  6-C , 25-H ) :   0.9347 B(  7-C , 26-H ) :   0.9404 B(  7-C , 27-H ) :   0.9473
B(  7-C , 28-H ) :   0.9348 B(  8-S ,  9-C ) :   0.9641 B(  9-C , 10-S ) :   1.0083
B(  9-C , 29-H ) :   0.9113 B(  9-C , 30-H ) :   0.9029 B( 10-S , 11-P ) :   0.9465
B( 11-P , 12-S ) :   1.6453 B( 11-P , 13-O ) :   1.0710 B( 11-P , 16-O ) :   1.1300
B( 13-O , 14-C ) :   0.9096 B( 14-C , 15-C ) :   1.1686 B( 14-C , 31-H ) :   0.9357
B( 14-C , 32-H ) :   0.9125 B( 15-C , 33-H ) :   0.9464 B( 15-C , 34-H ) :   0.9400
B( 15-C , 35-H ) :   0.9309 B( 16-O , 17-C ) :   0.8916 B( 17-C , 18-C ) :   1.1600
B( 17-C , 36-H ) :   0.9161 B( 17-C , 37-H ) :   0.9333 B( 18-C , 38-H ) :   0.9456
B( 18-C , 39-H ) :   0.9335 B( 18-C , 40-H ) :   0.9395

Dispersion correction           -0.068062585
FINAL SINGLE POINT ENERGY     -2929.512561089420

DIPOLE MOMENT
-------------

Method             : SCF
Type of density    : Electron Density
Multiplicity       :   1
Irrep              :   0
Energy             : -2929.6295428660478137 Eh
Relativity type    :
Basis              : AO
                                X                 Y                 Z
Electronic contribution:     -0.296572031       5.278377205       4.092098404
Nuclear contribution   :      0.798874330      -7.058514268      -3.744360721
                        -----------------------------------------
Total Dipole Moment    :      0.502302299      -1.780137063       0.347737683
                        -----------------------------------------
Magnitude (a.u.)       :      1.882051290
Magnitude (Debye)      :      4.783794206

Rotational constants in cm-1:             0.013467             0.005154             0.004859
Rotational constants in MHz :           403.728010           154.522564           145.677315

                             ****ORCA TERMINATED NORMALLY****
TOTAL RUN TIME: 0 days 0 hours 0 minutes 21 seconds 444 msec
