                         Program Version 6.0.0  -   RELEASE  -
|  1> ! wb97x-v def2-tzvp def2/J RIJCOSX DEFGRID2 scfconv7 GCP(DFT/TZ) printgap
|  2> %output
|  3>     printlevel normal
|  4> end
|  5> * xyz 0 1
|  6> C 1.4875348478180428 0.35650749696784284 -0.4994436322693907
|  7> C 0.819213917374911 -0.24400629030736243 0.4826411040489919
|  8> C -0.6599715814030969 -0.3720408250222022 0.5870661044909746
|  9> O -1.3081786381822387 0.24776878248154846 -0.5289209172905122
| 10> H 2.5723388520627988 0.39870248849803713 -0.4849181071120456
| 11> H 0.9824411225457079 0.8210033706634031 -1.340596610052283
| 12> H 1.3606442064064117 -0.6988407283481309 1.3111725371716962
| 13> H -0.9924990716338358 0.08623561391323248 1.5323298626773423
| 14> H -0.9238392175752137 -1.4403042550395753 0.6448910070175649
| 15> H -2.2582758557607585 0.13750124772298844 -0.4012421221867428
| 16> *
| 17>
| 18>                          ****END OF INPUT****

CARTESIAN COORDINATES (ANGSTROEM)
---------------------------------
  C      1.487535    0.356507   -0.499444
  C      0.819214   -0.244006    0.482641
  C     -0.659972   -0.372041    0.587066
  O     -1.308179    0.247769   -0.528921
  H      2.572339    0.398702   -0.484918
  H      0.982441    0.821003   -1.340597
  H      1.360644   -0.698841    1.311173
  H     -0.992499    0.086236    1.532330
  H     -0.923839   -1.440304    0.644891
  H     -2.258276    0.137501   -0.401242

 Total Charge           Charge          ....    0
 Multiplicity           Mult            ....    1
 Number of Electrons    NEL             ....   32
 Basis Dimension        Dim             ....  160

ORBITAL ENERGIES
----------------

  NO   OCC          E(Eh)            E(eV)
   0   2.0000     -21.675595      -589.8229
   1   2.0000     -12.100931      -329.2831
   2   2.0000     -12.049989      -327.8969
   3   2.0000     -12.034593      -327.4779
   4   2.0000      -1.676616       -45.6231
   5   2.0000      -1.309249       -35.6265
   6   2.0000      -1.203241       -32.7419
   7   2.0000      -1.063924       -28.9509
   8   2.0000      -1.018288       -27.7090
   9   2.0000      -0.945443       -25.7268
  10   2.0000      -0.941557       -25.6211
  11   2.0000      -0.894705       -24.3462
  12   2.0000      -0.858350       -23.3569
  13   2.0000      -0.812139       -22.0994
  14   2.0000      -0.785780       -21.3822
  15   2.0000      -0.646805       -17.6005
  16   0.0000      -0.189369        -5.1530
  17   0.0000      -0.144856        -3.9417
  18   0.0000      -0.043772        -1.1911
  19   0.0000      -0.005099        -0.1388
  20   0.0000       0.010132         0.2757

MULLIKEN ATOMIC CHARGES
-----------------------
   0 C :   -0.275692
   1 C :   -0.146546
   2 C :    0.012610
   3 O :   -0.445273
   4 H :    0.117956
   5 H :    0.141402
   6 H :    0.111280
   7 H :    0.091820
   8 H :    0.091683
   9 H :    0.300759
Sum of atomic charges:   -0.0000000

LOEWDIN ATOMIC CHARGES
----------------------
   0 C :   -0.204950
   1 C :   -0.214766
   2 C :   -0.329196
   3 O :   -0.046552
   4 H :    0.119001
   5 H :    0.124949
   6 H :    0.140015
   7 H :    0.121045
   8 H :    0.121008
   9 H :    0.169446

  Mayer bond orders larger than 0.100000
B(  0-C ,  1-C ) :   1.9859 B(  0-C ,  4-H ) :   0.9676 B(  0-C ,  5-H ) :   0.9552
B(  1-C ,  2-C ) :   0.9856 B(  1-C ,  6-H ) :   0.9564 B(  2-C ,  3-O ) :   1.0676
B(  2-C ,  7-H ) :   0.9641 B(  2-C ,  8-H ) :   0.9639 B(  3-O ,  9-H ) :   0.9056

FINAL SINGLE POINT ENERGY      -193.124814055238

DIPOLE MOMENT
-------------

Method             : SCF
Type of density    : Electron Density
Multiplicity       :   1
Irrep              :   0
Energy             :  -193.1306887307384557 Eh
Relativity type    :
Basis              : AO
                                X                 Y                 Z
Electronic contribution:     -1.144483845       0.349007734      -0.693497620
Nuclear contribution   :      0.714860680      -0.663161481       1.208955446
                        -----------------------------------------
Total Dipole Moment    :     -0.429623165      -0.314153747       0.515457827
                        -----------------------------------------
Magnitude (a.u.)       :      0.740922001
Magnitude (Debye)      :      1.883274061

Rotational constants in cm-1:             0.575283             0.197182             0.150989
Rotational constants in MHz :         17246.539065          5911.380249          4526.534205

                             ****ORCA TERMINATED NORMALLY****
TOTAL RUN TIME: 0 days 0 hours 0 minutes 29 seconds 166 msec
