                         Program Version 6.0.0  -   RELEASE  -
|  1> ! wb97x-v def2-tzvp def2/J RIJCOSX DEFGRID2 scfconv7 GCP(DFT/TZ) printgap
|  2> %output
|  3>     printlevel normal
|  4> end
|  5> %cpcm
|  6>     smd true
|  7>     smdsolvent "water"
|  8> end
|  9> * xyz 0 1
| 10> C 1.4875348478180428 0.35650749696784284 -0.4994436322693907
| 11> C 0.819213917374911 -0.24400629030736243 0.4826411040489919
| 12> C -0.6599715814030969 -0.3720408250222022 0.5870661044909746
| 13> O -1.3081786381822387 0.24776878248154846 -0.5289209172905122
| 14> H 2.5723388520627988 0.39870248849803713 -0.4849181071120456
| 15> H 0.9824411225457079 0.8210033706634031 -1.340596610052283
| 16> H 1.3606442064064117 -0.6988407283481309 1.3111725371716962
| 17> H -0.9924990716338358 0.08623561391323248 1.5323298626773423
| 18> H -0.9238392175752137 -1.4403042550395753 0.6448910070175649
| 19> H -2.2582758557607585 0.13750124772298844 -0.4012421221867428
| 20> *
| 21>
| 22>                          ****END OF INPUT****

CARTESIAN COORDINATES (ANGSTROEM)
---------------------------------
  C      1.487535    0.356507   -0.499444
  C      0.819214   -0.244006    0.482641
  C     -0.659972   -0.372041    0.587066
  O     -1.308179    0.247769   -0.528921
  H      2.572339    0.398702   -0.484918
  H      0.982441    0.821003   -1.340597
  H      1.360644   -0.698841    1.311173
  H     -0.992499    0.086236    1.532330
  H     -0.923839   -1.440304    0.644891
  H     -2.258276    0.137501   -0.401242

 Total Charge           Charge          ....    0
 Multiplicity           Mult            ....    1
 Number of Electrons    NEL             ....   32
 Basis Dimension        Dim             ....  160

ORBITAL ENERGIES
----------------

  NO   OCC          E(Eh)            E(eV)
   0   2.0000     -21.675849      -589.8299
   1   2.0000     -12.092849      -329.0632
   2   2.0000     -12.050556      -327.9123
   3   2.0000     -12.034847      -327.4848
   4   2.0000      -1.677011       -45.6338
   5   2.0000      -1.309437       -35.6316
   6   2.0000      -1.201261       -32.6880
   7   2.0000      -1.063209       -28.9314
   8   2.0000      -1.018280       -27.7088
   9   2.0000      -0.947255       -25.7761
  10   2.0000      -0.941764       -25.6267
  11   2.0000      -0.894673       -24.3453
  12   2.0000      -0.855956       -23.2917
  13   2.0000      -0.807760       -21.9803
  14   2.0000      -0.785110       -21.3639
  15   2.0000      -0.649229       -17.6664
  16   0.0000      -0.191432        -5.2091
  17   0.0000      -0.138609        -3.7717
  18   0.0000      -0.019668        -0.5352
  19   0.0000       0.003645         0.0992
  20   0.0000       0.022057         0.6002

MULLIKEN ATOMIC CHARGES
-----------------------
   0 C :   -0.385602
   1 C :   -0.155931
   2 C :    0.001882
   3 O :   -0.545061
   4 H :    0.158847
   5 H :    0.156636
   6 H :    0.157458
   7 H :    0.123914
   8 H :    0.123581
   9 H :    0.364275
Sum of atomic charges:   -0.0000000

LOEWDIN ATOMIC CHARGES
----------------------
   0 C :   -0.238531
   1 C :   -0.214787
   2 C :   -0.320718
   3 O :   -0.083492
   4 H :    0.126227
   5 H :    0.122561
   6 H :    0.151440
   7 H :    0.132645
   8 H :    0.132530
   9 H :    0.192124

  Mayer bond orders larger than 0.100000
B(  0-C ,  1-C ) :   1.9324 B(  0-C ,  4-H ) :   0.9671 B(  0-C ,  5-H ) :   0.9622
B(  1-C ,  2-C ) :   0.9902 B(  1-C ,  6-H ) :   0.9541 B(  2-C ,  3-O ) :   1.0317
B(  2-C ,  7-H ) :   0.9641 B(  2-C ,  8-H ) :   0.9639 B(  3-O ,  9-H ) :   0.8666

FINAL SINGLE POINT ENERGY      -193.133084620685

DIPOLE MOMENT
-------------

Method             : SCF
Type of density    : Electron Density
Multiplicity       :   1
Irrep              :   0
Energy             :  -193.1389592961854476 Eh
Relativity type    :
Basis              : AO
                                X                 Y                 Z
Electronic contribution:     -1.293655987       0.178572941      -0.409324613
Nuclear contribution   :      0.714860680      -0.663161481       1.208955446
                        -----------------------------------------
Total Dipole Moment    :     -0.578795307      -0.484588539       0.799630834
                        -----------------------------------------
Magnitude (a.u.)       :      1.099654277
Magnitude (Debye)      :      2.795099043

Rotational constants in cm-1:             0.575283             0.197182             0.150989
Rotational constants in MHz :         17246.539065          5911.380249          4526.534205

                             ****ORCA TERMINATED NORMALLY****
TOTAL RUN TIME: 0 days 0 hours 0 minutes 29 seconds 740 msec
