                         Program Version 6.0.0  -   RELEASE  -
|  1> ! r2scan-3c def2/J RI DEFGRID2 scfconv6 printgap
|  2> %output
|  3>     printlevel normal
|  4> end
|  5> * xyz 0 1
|  6> C 3.8317758861 0.265125674 -2.7773339395
|  7> C 4.2250518501 0.9964157263 -1.5089985556
|  8> O 3.9191253477 0.234076393 -0.3294751457
|  9> P 2.4334278448 -0.024890134 0.1418661888
| 10> S 1.2178986098 1.4939763604 -0.161741572
| 11> O 2.8224798791 -0.3875151818 1.6325356355
| 12> C 1.983908037 -1.0790042052 2.5742198528
| 13> C 1.0314926183 -0.1319559956 3.2780349365
| 14> S 1.8672534518 -1.8715052997 -0.7510971198
| 15> C 0.1289926584 -1.5427795576 -1.1168982224
| 16> S -0.9200740874 -1.5304469351 0.3854346383
| 17> P -2.0900522632 0.1855055902 0.0071231044
| 18> S -2.019936234 0.9701097349 -1.7916119071
| 19> O -1.6598848561 1.0846461112 1.2384002305
| 20> C -1.8458748712 2.5120130766 1.2545783174
| 21> C -3.309843685 2.8966917596 1.2397054222
| 22> O -3.55183028 -0.2446576449 0.4709639182
| 23> C -4.5098645996 -0.8307644257 -0.4246456347
| 24> C -4.0818817099 -2.2007124174 -0.9112142632
| 25> H 2.7466345833 0.2019353386 -2.8504987905
| 26> H 4.2083104166 0.8093896322 -3.6375354479
| 27> H 4.244249012 -0.7405438167 -2.775481382
| 28> H 3.7119220368 1.9619284552 -1.4457657212
| 29> H 5.3037274936 1.1472486912 -1.44940646
| 30> H 1.4342852171 -1.8751058488 2.0603045743
| 31> H 2.691621856 -1.5210496848 3.2780901552
| 32> H 1.5857046631 0.6791626441 3.7428170739
| 33> H 0.3214538504 0.292930677 2.5706906479
| 34> H 0.4812907677 -0.6774520167 4.0379025324
| 35> H -0.1918859948 -2.3589621283 -1.7587553348
| 36> H 0.0203498227 -0.5773434555 -1.61769863
| 37> H -1.3511900687 2.8283714351 2.1742186792
| 38> H -1.315785977 2.935983393 0.3946858625
| 39> H -3.8354363431 2.3979709691 2.0499414599
| 40> H -3.3989821726 3.9723719912 1.3546048886
| 41> H -3.76065777 2.603816748 0.2920298617
| 42> H -5.424526476 -0.880674416 0.1675863549
| 43> H -4.6497749786 -0.1516196707 -1.2718959835
| 44> H -3.8288685138 -2.8400582468 -0.0691598196
| 45> H -4.8925139342 -2.6498991488 -1.475962754
| 46> H -3.2112144098 -2.1070174911 -1.5593322327
| 47> *
| 48>
| 49>                          ****END OF INPUT****

CARTESIAN COORDINATES (ANGSTROEM)
---------------------------------
  C      3.831776    0.265126   -2.777334
  C      4.225052    0.996416   -1.508999
  O      3.919125    0.234076   -0.329475
  P      2.433428   -0.024890    0.141866
  S      1.217899    1.493976   -0.161742
  O      2.822480   -0.387515    1.632536
  C      1.983908   -1.079004    2.574220
  C      1.031493   -0.131956    3.278035
  S      1.867253   -1.871505   -0.751097
  C      0.128993   -1.542780   -1.116898
  S     -0.920074   -1.530447    0.385435
  P     -2.090052    0.185506    0.007123
  S     -2.019936    0.970110   -1.791612
  O     -1.659885    1.084646    1.238400
  C     -1.845875    2.512013    1.254578
  C     -3.309844    2.896692    1.239705
  O     -3.551830   -0.244658    0.470964
  C     -4.509865   -0.830764   -0.424646
  C     -4.081882   -2.200712   -0.911214
  H      2.746635    0.201935   -2.850499
  H      4.208310    0.809390   -3.637535
  H      4.244249   -0.740544   -2.775481
  H      3.711922    1.961928   -1.445766
  H      5.303727    1.147249   -1.449406
  H      1.434285   -1.875106    2.060305
  H      2.691622   -1.521050    3.278090
  H      1.585705    0.679163    3.742817
  H      0.321454    0.292931    2.570691
  H      0.481291   -0.677452    4.037903
  H     -0.191886   -2.358962   -1.758755
  H      0.020350   -0.577343   -1.617699
  H     -1.351190    2.828371    2.174219
  H     -1.315786    2.935983    0.394686
  H     -3.835436    2.397971    2.049941
  H     -3.398982    3.972372    1.354605
  H     -3.760658    2.603817    0.292030
  H     -5.424526   -0.880674    0.167586
  H     -4.649775   -0.151620   -1.271896
  H     -3.828869   -2.840058   -0.069160
  H     -4.892514   -2.649899   -1.475963
  H     -3.211214   -2.107017   -1.559332

 Total Charge           Charge          ....    0
 Multiplicity           Mult            ....    1
 Number of Electrons    NEL             ....  202
 Basis Dimension        Dim             ....  539

ORBITAL ENERGIES
----------------

  NO   OCC          E(Eh)            E(eV)
   0   2.0000     -88.579491     -2410.3705
   1   2.0000     -88.574905     -2410.2457
   2   2.0000     -88.521543     -2408.7936
   3   2.0000     -88.516228     -2408.6490
   4   2.0000     -76.913270     -2092.9165
   5   2.0000     -76.912001     -2092.8820
   6   2.0000     -18.988455      -516.7021
   7   2.0000     -18.987597      -516.6788
   8   2.0000     -18.986218      -516.6413
   9   2.0000     -18.985730      -516.6280
  10   2.0000     -10.107344      -275.0348
  11   2.0000     -10.097386      -274.7638
  12   2.0000     -10.094359      -274.6815
  13   2.0000     -10.094193      -274.6770
  14   2.0000     -10.093601      -274.6608
  15   2.0000     -10.028910      -272.9005
  16   2.0000     -10.025760      -272.8148
  17   2.0000     -10.025401      -272.8050
  18   2.0000     -10.017733      -272.5964
  19   2.0000      -7.873763      -214.2560
  20   2.0000      -7.869413      -214.1376
  21   2.0000      -7.816253      -212.6911
  22   2.0000      -7.810974      -212.5474
  23   2.0000      -6.591715      -179.3697
  24   2.0000      -6.590294      -179.3310
  25   2.0000      -5.820771      -158.3912
  26   2.0000      -5.817345      -158.2980
  27   2.0000      -5.816187      -158.2665
  28   2.0000      -5.813454      -158.1921
  29   2.0000      -5.811022      -158.1260
  30   2.0000      -5.806399      -158.0002
  31   2.0000      -5.763929      -156.8445
  32   2.0000      -5.758690      -156.7019
  33   2.0000      -5.756732      -156.6487
  34   2.0000      -5.756043      -156.6299
  35   2.0000      -5.751162      -156.4971
  36   2.0000      -5.751025      -156.4933
  37   2.0000      -4.736900      -128.8976
  38   2.0000      -4.736528      -128.8875
  39   2.0000      -4.735869      -128.8695
  40   2.0000      -4.735662      -128.8639
  41   2.0000      -4.735574      -128.8615
  42   2.0000      -4.733835      -128.8142
  43   2.0000      -1.049228       -28.5510
  44   2.0000      -1.047299       -28.4984
  45   2.0000      -1.007384       -27.4123
  46   2.0000      -1.006116       -27.3778
  47   2.0000      -0.799207       -21.7475
  48   2.0000      -0.756005       -20.5719
  49   2.0000      -0.747706       -20.3461
  50   2.0000      -0.729474       -19.8500
  51   2.0000      -0.723003       -19.6739
  52   2.0000      -0.712121       -19.3778
  53   2.0000      -0.685887       -18.6639
  54   2.0000      -0.666539       -18.1375
  55   2.0000      -0.634099       -17.2547
  56   2.0000      -0.623924       -16.9778
  57   2.0000      -0.603528       -16.4228
  58   2.0000      -0.599038       -16.3006
  59   2.0000      -0.591668       -16.1001
  60   2.0000      -0.521548       -14.1920
  61   2.0000      -0.513723       -13.9791
  62   2.0000      -0.488842       -13.3021
  63   2.0000      -0.485116       -13.2007
  64   2.0000      -0.469941       -12.7877
  65   2.0000      -0.464072       -12.6280
  66   2.0000      -0.456880       -12.4323
  67   2.0000      -0.452208       -12.3052
  68   2.0000      -0.437364       -11.9013
  69   2.0000      -0.431882       -11.7521
  70   2.0000      -0.428620       -11.6633
  71   2.0000      -0.419651       -11.4193
  72   2.0000      -0.408590       -11.1183
  73   2.0000      -0.405503       -11.0343
  74   2.0000      -0.397626       -10.8200
  75   2.0000      -0.396750       -10.7961
  76   2.0000      -0.380727       -10.3601
  77   2.0000      -0.368822       -10.0361
  78   2.0000      -0.365106        -9.9350
  79   2.0000      -0.361261        -9.8304
  80   2.0000      -0.359114        -9.7720
  81   2.0000      -0.355539        -9.6747
  82   2.0000      -0.352787        -9.5998
  83   2.0000      -0.349590        -9.5128
  84   2.0000      -0.343116        -9.3367
  85   2.0000      -0.325507        -8.8575
  86   2.0000      -0.324683        -8.8351
  87   2.0000      -0.309478        -8.4213
  88   2.0000      -0.307036        -8.3549
  89   2.0000      -0.301504        -8.2043
  90   2.0000      -0.296093        -8.0571
  91   2.0000      -0.285791        -7.7768
  92   2.0000      -0.282236        -7.6800
  93   2.0000      -0.279096        -7.5946
  94   2.0000      -0.271615        -7.3910
  95   2.0000      -0.249238        -6.7821
  96   2.0000      -0.232459        -6.3255
  97   2.0000      -0.229514        -6.2454
  98   2.0000      -0.216400        -5.8886
  99   2.0000      -0.212125        -5.7722
 100   2.0000      -0.203662        -5.5419
 101   0.0000      -0.049235        -1.3398
 102   0.0000      -0.037091        -1.0093
 103   0.0000      -0.014285        -0.3887
 104   0.0000       0.008102         0.2205
 105   0.0000       0.016626         0.4524

MULLIKEN ATOMIC CHARGES
-----------------------
   0 C :   -0.439608
   1 C :   -0.151051
   2 O :   -0.307225
   3 P :    0.666902
   4 S :   -0.417873
   5 O :   -0.282538
   6 C :   -0.137546
   7 C :   -0.436635
   8 S :   -0.143436
   9 C :   -0.211667
  10 S :   -0.143524
  11 P :    0.672250
  12 S :   -0.465468
  13 O :   -0.291852
  14 C :   -0.153355
  15 C :   -0.450300
  16 O :   -0.285851
  17 C :   -0.154374
  18 C :   -0.440963
  19 H :    0.169638
  20 H :    0.147359
  21 H :    0.155089
  22 H :    0.174411
  23 H :    0.148925
  24 H :    0.153083
  25 H :    0.148596
  26 H :    0.148880
  27 H :    0.184087
  28 H :    0.143529
  29 H :    0.190263
  30 H :    0.215575
  31 H :    0.154972
  32 H :    0.175049
  33 H :    0.156425
  34 H :    0.147294
  35 H :    0.169363
  36 H :    0.147931
  37 H :    0.171576
  38 H :    0.158707
  39 H :    0.147664
  40 H :    0.165695
Sum of atomic charges:   -0.0000000

LOEWDIN ATOMIC CHARGES
----------------------
   0 C :   -0.405780
   1 C :    0.020808
   2 O :   -0.651714
   3 P :    0.389594
   4 S :   -0.080187
   5 O :   -0.645299
   6 C :    0.021112
   7 C :   -0.406373
   8 S :    0.141074
   9 C :   -0.418607
  10 S :    0.153298
  11 P :    0.378293
  12 S :   -0.123173
  13 O :   -0.689759
  14 C :    0.014709
  15 C :   -0.400571
  16 O :   -0.668570
  17 C :    0.018338
  18 C :   -0.407087
  19 H :    0.162933
  20 H :    0.158818
  21 H :    0.160452
  22 H :    0.180297
  23 H :    0.179953
  24 H :    0.174711
  25 H :    0.178584
  26 H :    0.159059
  27 H :    0.177605
  28 H :    0.158800
  29 H :    0.178088
  30 H :    0.200552
  31 H :    0.182568
  32 H :    0.181978
  33 H :    0.161273
  34 H :    0.159542
  35 H :    0.165018
  36 H :    0.179412
  37 H :    0.178838
  38 H :    0.161723
  39 H :    0.158242
  40 H :    0.161449

  Mayer bond orders larger than 0.100000
B(  0-C ,  1-C ) :   0.9189 B(  0-C , 19-H ) :   0.9652 B(  0-C , 20-H ) :   0.9603
B(  0-C , 21-H ) :   0.9683 B(  1-C ,  2-O ) :   0.8198 B(  1-C , 22-H ) :   0.9682
B(  1-C , 23-H ) :   0.9602 B(  2-O ,  3-P ) :   1.1174 B(  3-P ,  4-S ) :   1.7434
B(  3-P ,  5-O ) :   1.1496 B(  3-P ,  8-S ) :   1.0591 B(  5-O ,  6-C ) :   0.7971
B(  6-C ,  7-C ) :   0.9438 B(  6-C , 24-H ) :   0.9577 B(  6-C , 25-H ) :   0.9649
B(  7-C , 26-H ) :   0.9698 B(  7-C , 27-H ) :   0.9486 B(  7-C , 28-H ) :   0.9674
B(  8-S ,  9-C ) :   0.9154 B(  9-C , 10-S ) :   0.8802 B(  9-C , 29-H ) :   0.9121
B(  9-C , 30-H ) :   0.9027 B( 10-S , 11-P ) :   1.1076 B( 11-P , 12-S ) :   1.7368
B( 11-P , 13-O ) :   1.1637 B( 11-P , 16-O ) :   1.0536 B( 13-O , 14-C ) :   0.8089
B( 14-C , 15-C ) :   0.9150 B( 14-C , 31-H ) :   0.9600 B( 14-C , 32-H ) :   0.9642
B( 15-C , 33-H ) :   0.9712 B( 15-C , 34-H ) :   0.9603 B( 15-C , 35-H ) :   0.9614
B( 16-O , 17-C ) :   0.8238 B( 17-C , 18-C ) :   0.9179 B( 17-C , 36-H ) :   0.9577
B( 17-C , 37-H ) :   0.9692 B( 18-C , 38-H ) :   0.9663 B( 18-C , 39-H ) :   0.9600
B( 18-C , 40-H ) :   0.9680

Dispersion correction           -0.022340921
FINAL SINGLE POINT ENERGY     -2932.459290854857

DIPOLE MOMENT
-------------

Method             : SCF
Type of density    : Electron Density
Multiplicity       :   1
Irrep              :   0
Energy             : -2932.4837064103644479 Eh
Relativity type    :
Basis              : AO
                                X                 Y                 Z
Electronic contribution:      8.408004524      -3.628309023      -1.834009951
Nuclear contribution   :     -8.836303795       3.131796986       2.053274910
                        -----------------------------------------
Total Dipole Moment    :     -0.428299270      -0.496512037       0.219264960
                        -----------------------------------------
Magnitude (a.u.)       :      0.691405518
Magnitude (Debye)      :      1.757413163

Rotational constants in cm-1:             0.012118             0.005234             0.005081
Rotational constants in MHz :           363.291256           156.902208           152.318598

                             ****ORCA TERMINATED NORMALLY****
TOTAL RUN TIME: 0 days 0 hours 1 minutes 24 seconds 602 msec
