                         Program Version 6.0.0  -   RELEASE  -
|  1> ! r2scan-3c def2/J RI DEFGRID2 scfconv6 printgap
|  2> %output
|  3>     printlevel normal
|  4> end
|  5> %cpcm
|  6>     smd true
|  7>     smdsolvent "water"
|  8> end
|  9> * xyz 0 1
| 10> C 3.8317758861 0.265125674 -2.7773339395
| 11> C 4.2250518501 0.9964157263 -1.5089985556
| 12> O 3.9191253477 0.234076393 -0.3294751457
| 13> P 2.4334278448 -0.024890134 0.1418661888
| 14> S 1.2178986098 1.4939763604 -0.161741572
| 15> O 2.8224798791 -0.3875151818 1.6325356355
| 16> C 1.983908037 -1.0790042052 2.5742198528
| 17> C 1.0314926183 -0.1319559956 3.2780349365
| 18> S 1.8672534518 -1.8715052997 -0.7510971198
| 19> C 0.1289926584 -1.5427795576 -1.1168982224
| 20> S -0.9200740874 -1.5304469351 0.3854346383
| 21> P -2.0900522632 0.1855055902 0.0071231044
| 22> S -2.019936234 0.9701097349 -1.7916119071
| 23> O -1.6598848561 1.0846461112 1.2384002305
| 24> C -1.8458748712 2.5120130766 1.2545783174
| 25> C -3.309843685 2.8966917596 1.2397054222
| 26> O -3.55183028 -0.2446576449 0.4709639182
| 27> C -4.5098645996 -0.8307644257 -0.4246456347
| 28> C -4.0818817099 -2.2007124174 -0.9112142632
| 29> H 2.7466345833 0.2019353386 -2.8504987905
| 30> H 4.2083104166 0.8093896322 -3.6375354479
| 31> H 4.244249012 -0.7405438167 -2.775481382
| 32> H 3.7119220368 1.9619284552 -1.4457657212
| 33> H 5.3037274936 1.1472486912 -1.44940646
| 34> H 1.4342852171 -1.8751058488 2.0603045743
| 35> H 2.691621856 -1.5210496848 3.2780901552
| 36> H 1.5857046631 0.6791626441 3.7428170739
| 37> H 0.3214538504 0.292930677 2.5706906479
| 38> H 0.4812907677 -0.6774520167 4.0379025324
| 39> H -0.1918859948 -2.3589621283 -1.7587553348
| 40> H 0.0203498227 -0.5773434555 -1.61769863
| 41> H -1.3511900687 2.8283714351 2.1742186792
| 42> H -1.315785977 2.935983393 0.3946858625
| 43> H -3.8354363431 2.3979709691 2.0499414599
| 44> H -3.3989821726 3.9723719912 1.3546048886
| 45> H -3.76065777 2.603816748 0.2920298617
| 46> H -5.424526476 -0.880674416 0.1675863549
| 47> H -4.6497749786 -0.1516196707 -1.2718959835
| 48> H -3.8288685138 -2.8400582468 -0.0691598196
| 49> H -4.8925139342 -2.6498991488 -1.475962754
| 50> H -3.2112144098 -2.1070174911 -1.5593322327
| 51> *
| 52>
| 53>                          ****END OF INPUT****

CARTESIAN COORDINATES (ANGSTROEM)
---------------------------------
  C      3.831776    0.265126   -2.777334
  C      4.225052    0.996416   -1.508999
  O      3.919125    0.234076   -0.329475
  P      2.433428   -0.024890    0.141866
  S      1.217899    1.493976   -0.161742
  O      2.822480   -0.387515    1.632536
  C      1.983908   -1.079004    2.574220
  C      1.031493   -0.131956    3.278035
  S      1.867253   -1.871505   -0.751097
  C      0.128993   -1.542780   -1.116898
  S     -0.920074   -1.530447    0.385435
  P     -2.090052    0.185506    0.007123
  S     -2.019936    0.970110   -1.791612
  O     -1.659885    1.084646    1.238400
  C     -1.845875    2.512013    1.254578
  C     -3.309844    2.896692    1.239705
  O     -3.551830   -0.244658    0.470964
  C     -4.509865   -0.830764   -0.424646
  C     -4.081882   -2.200712   -0.911214
  H      2.746635    0.201935   -2.850499
  H      4.208310    0.809390   -3.637535
  H      4.244249   -0.740544   -2.775481
  H      3.711922    1.961928   -1.445766
  H      5.303727    1.147249   -1.449406
  H      1.434285   -1.875106    2.060305
  H      2.691622   -1.521050    3.278090
  H      1.585705    0.679163    3.742817
  H      0.321454    0.292931    2.570691
  H      0.481291   -0.677452    4.037903
  H     -0.191886   -2.358962   -1.758755
  H      0.020350   -0.577343   -1.617699
  H     -1.351190    2.828371    2.174219
  H     -1.315786    2.935983    0.394686
  H     -3.835436    2.397971    2.049941
  H     -3.398982    3.972372    1.354605
  H     -3.760658    2.603817    0.292030
  H     -5.424526   -0.880674    0.167586
  H     -4.649775   -0.151620   -1.271896
  H     -3.828869   -2.840058   -0.069160
  H     -4.892514   -2.649899   -1.475963
  H     -3.211214   -2.107017   -1.559332

 Total Charge           Charge          ....    0
 Multiplicity           Mult            ....    1
 Number of Electrons    NEL             ....  202
 Basis Dimension        Dim             ....  539

ORBITAL ENERGIES
----------------

  NO   OCC          E(Eh)            E(eV)
   0   2.0000     -88.582362     -2410.4486
   1   2.0000     -88.576317     -2410.2841
   2   2.0000     -88.527692     -2408.9610
   3   2.0000     -88.524746     -2408.8808
   4   2.0000     -76.918570     -2093.0607
   5   2.0000     -76.917522     -2093.0322
   6   2.0000     -18.993887      -516.8499
   7   2.0000     -18.993693      -516.8447
   8   2.0000     -18.990809      -516.7662
   9   2.0000     -18.989264      -516.7241
  10   2.0000     -10.104798      -274.9655
  11   2.0000     -10.090352      -274.5724
  12   2.0000     -10.089010      -274.5359
  13   2.0000     -10.088755      -274.5290
  14   2.0000     -10.087874      -274.5050
  15   2.0000     -10.018079      -272.6058
  16   2.0000     -10.018019      -272.6041
  17   2.0000     -10.017456      -272.5888
  18   2.0000     -10.014790      -272.5163
  19   2.0000      -7.876570      -214.3324
  20   2.0000      -7.870816      -214.1758
  21   2.0000      -7.822695      -212.8664
  22   2.0000      -7.819681      -212.7843
  23   2.0000      -6.597031      -179.5143
  24   2.0000      -6.596027      -179.4870
  25   2.0000      -5.823606      -158.4684
  26   2.0000      -5.820172      -158.3749
  27   2.0000      -5.817614      -158.3053
  28   2.0000      -5.814869      -158.2306
  29   2.0000      -5.813800      -158.2016
  30   2.0000      -5.807775      -158.0376
  31   2.0000      -5.770312      -157.0182
  32   2.0000      -5.767336      -156.9372
  33   2.0000      -5.763143      -156.8231
  34   2.0000      -5.762521      -156.8062
  35   2.0000      -5.759871      -156.7341
  36   2.0000      -5.759753      -156.7309
  37   2.0000      -4.742365      -129.0463
  38   2.0000      -4.742340      -129.0456
  39   2.0000      -4.741209      -129.0149
  40   2.0000      -4.740816      -129.0042
  41   2.0000      -4.740570      -128.9975
  42   2.0000      -4.740227      -128.9881
  43   2.0000      -1.056046       -28.7365
  44   2.0000      -1.049998       -28.5719
  45   2.0000      -1.012141       -27.5418
  46   2.0000      -1.009467       -27.4690
  47   2.0000      -0.799537       -21.7565
  48   2.0000      -0.755259       -20.5516
  49   2.0000      -0.744806       -20.2672
  50   2.0000      -0.722112       -19.6497
  51   2.0000      -0.718985       -19.5646
  52   2.0000      -0.711667       -19.3655
  53   2.0000      -0.690135       -18.7795
  54   2.0000      -0.671641       -18.2763
  55   2.0000      -0.633709       -17.2441
  56   2.0000      -0.623656       -16.9706
  57   2.0000      -0.597992       -16.2722
  58   2.0000      -0.597655       -16.2630
  59   2.0000      -0.589723       -16.0472
  60   2.0000      -0.520601       -14.1663
  61   2.0000      -0.511298       -13.9131
  62   2.0000      -0.486742       -13.2449
  63   2.0000      -0.486063       -13.2264
  64   2.0000      -0.471531       -12.8310
  65   2.0000      -0.464294       -12.6341
  66   2.0000      -0.453624       -12.3437
  67   2.0000      -0.450633       -12.2623
  68   2.0000      -0.435432       -11.8487
  69   2.0000      -0.429673       -11.6920
  70   2.0000      -0.425811       -11.5869
  71   2.0000      -0.421114       -11.4591
  72   2.0000      -0.406337       -11.0570
  73   2.0000      -0.402956       -10.9650
  74   2.0000      -0.396176       -10.7805
  75   2.0000      -0.394634       -10.7385
  76   2.0000      -0.381081       -10.3697
  77   2.0000      -0.364106        -9.9078
  78   2.0000      -0.362959        -9.8766
  79   2.0000      -0.355486        -9.6733
  80   2.0000      -0.354098        -9.6355
  81   2.0000      -0.350755        -9.5445
  82   2.0000      -0.349506        -9.5106
  83   2.0000      -0.346448        -9.4273
  84   2.0000      -0.341593        -9.2952
  85   2.0000      -0.326357        -8.8806
  86   2.0000      -0.322693        -8.7809
  87   2.0000      -0.307173        -8.3586
  88   2.0000      -0.304103        -8.2751
  89   2.0000      -0.301695        -8.2095
  90   2.0000      -0.296551        -8.0696
  91   2.0000      -0.286760        -7.8031
  92   2.0000      -0.284078        -7.7302
  93   2.0000      -0.280414        -7.6305
  94   2.0000      -0.275205        -7.4887
  95   2.0000      -0.251155        -6.8343
  96   2.0000      -0.239320        -6.5122
  97   2.0000      -0.235369        -6.4047
  98   2.0000      -0.221486        -6.0269
  99   2.0000      -0.219127        -5.9627
 100   2.0000      -0.212145        -5.7727
 101   0.0000      -0.052837        -1.4378
 102   0.0000      -0.041103        -1.1185
 103   0.0000      -0.016877        -0.4592
 104   0.0000       0.003164         0.0861
 105   0.0000       0.013905         0.3784

MULLIKEN ATOMIC CHARGES
-----------------------
   0 C :   -0.476564
   1 C :   -0.149120
   2 O :   -0.338548
   3 P :    0.687271
   4 S :   -0.459100
   5 O :   -0.316621
   6 C :   -0.125777
   7 C :   -0.486763
   8 S :   -0.146256
   9 C :   -0.207772
  10 S :   -0.145351
  11 P :    0.712987
  12 S :   -0.517689
  13 O :   -0.314977
  14 C :   -0.151426
  15 C :   -0.492578
  16 O :   -0.316403
  17 C :   -0.157216
  18 C :   -0.474523
  19 H :    0.169805
  20 H :    0.172021
  21 H :    0.167358
  22 H :    0.177461
  23 H :    0.174773
  24 H :    0.160941
  25 H :    0.175125
  26 H :    0.163981
  27 H :    0.174069
  28 H :    0.170712
  29 H :    0.232539
  30 H :    0.211677
  31 H :    0.179089
  32 H :    0.175488
  33 H :    0.169638
  34 H :    0.171945
  35 H :    0.170198
  36 H :    0.173632
  37 H :    0.177095
  38 H :    0.166925
  39 H :    0.171612
  40 H :    0.170340
Sum of atomic charges:    0.0000000

LOEWDIN ATOMIC CHARGES
----------------------
   0 C :   -0.408572
   1 C :    0.024582
   2 O :   -0.671216
   3 P :    0.389946
   4 S :   -0.105488
   5 O :   -0.666049
   6 C :    0.025839
   7 C :   -0.411558
   8 S :    0.146358
   9 C :   -0.409915
  10 S :    0.155486
  11 P :    0.383632
  12 S :   -0.153960
  13 O :   -0.702780
  14 C :    0.016656
  15 C :   -0.403632
  16 O :   -0.682580
  17 C :    0.023058
  18 C :   -0.409664
  19 H :    0.160752
  20 H :    0.167807
  21 H :    0.163729
  22 H :    0.181292
  23 H :    0.190690
  24 H :    0.178315
  25 H :    0.189821
  26 H :    0.162133
  27 H :    0.171393
  28 H :    0.168572
  29 H :    0.194843
  30 H :    0.199297
  31 H :    0.191357
  32 H :    0.181543
  33 H :    0.164523
  34 H :    0.168650
  35 H :    0.163015
  36 H :    0.190094
  37 H :    0.180673
  38 H :    0.163564
  39 H :    0.166979
  40 H :    0.160813

  Mayer bond orders larger than 0.100000
B(  0-C ,  1-C ) :   0.9101 B(  0-C , 19-H ) :   0.9651 B(  0-C , 20-H ) :   0.9549
B(  0-C , 21-H ) :   0.9660 B(  1-C ,  2-O ) :   0.8094 B(  1-C , 22-H ) :   0.9645
B(  1-C , 23-H ) :   0.9505 B(  2-O ,  3-P ) :   1.1142 B(  3-P ,  4-S ) :   1.7268
B(  3-P ,  5-O ) :   1.1439 B(  3-P ,  8-S ) :   1.0755 B(  5-O ,  6-C ) :   0.7884
B(  6-C ,  7-C ) :   0.9238 B(  6-C , 24-H ) :   0.9531 B(  6-C , 25-H ) :   0.9552
B(  7-C , 26-H ) :   0.9695 B(  7-C , 27-H ) :   0.9549 B(  7-C , 28-H ) :   0.9618
B(  8-S ,  9-C ) :   0.9097 B(  9-C , 10-S ) :   0.8765 B(  9-C , 29-H ) :   0.8967
B(  9-C , 30-H ) :   0.9059 B( 10-S , 11-P ) :   1.1256 B( 11-P , 12-S ) :   1.6869
B( 11-P , 13-O ) :   1.1673 B( 11-P , 16-O ) :   1.0596 B( 13-O , 14-C ) :   0.7958
B( 14-C , 15-C ) :   0.9080 B( 14-C , 31-H ) :   0.9498 B( 14-C , 32-H ) :   0.9607
B( 15-C , 33-H ) :   0.9697 B( 15-C , 34-H ) :   0.9542 B( 15-C , 35-H ) :   0.9615
B( 16-O , 17-C ) :   0.8115 B( 17-C , 18-C ) :   0.9066 B( 17-C , 36-H ) :   0.9482
B( 17-C , 37-H ) :   0.9671 B( 18-C , 38-H ) :   0.9644 B( 18-C , 39-H ) :   0.9549
B( 18-C , 40-H ) :   0.9662

Dispersion correction           -0.022340921
FINAL SINGLE POINT ENERGY     -2932.466000105230

DIPOLE MOMENT
-------------

Method             : SCF
Type of density    : Electron Density
Multiplicity       :   1
Irrep              :   0
Energy             : -2932.4904156607367440 Eh
Relativity type    :
Basis              : AO
                                X                 Y                 Z
Electronic contribution:      8.220473059      -4.024224323      -1.866088444
Nuclear contribution   :     -8.836303795       3.131796986       2.053274910
                        -----------------------------------------
Total Dipole Moment    :     -0.615830736      -0.892427337       0.187186466
                        -----------------------------------------
Magnitude (a.u.)       :      1.100323961
Magnitude (Debye)      :      2.796801244

Rotational constants in cm-1:             0.012118             0.005234             0.005081
Rotational constants in MHz :           363.291256           156.902208           152.318598

                             ****ORCA TERMINATED NORMALLY****
TOTAL RUN TIME: 0 days 0 hours 1 minutes 55 seconds 721 msec
