                         Program Version 6.0.0  -   RELEASE  -
|  1> ! r2scan-3c def2/J RI DEFGRID2 scfconv6 printgap
|  2> %output
|  3>     printlevel normal
|  4> end
|  5> * xyz 0 1
|  6> C 3.1939864349 2.3749673967 2.2506287871
|  7> C 1.8025116172 1.7966127092 2.1063456125
|  8> O 1.6098054546 1.1914983735 0.8093473717
|  9> P 2.3334023832 -0.154995154 0.3915464419
| 10> S 2.6883119631 -1.4284153421 1.8436219343
| 11> O 3.61637368 0.3893534105 -0.3692428275
| 12> C 4.7471208363 -0.4466162086 -0.6696550807
| 13> C 4.4186058553 -1.4991455242 -1.7087530045
| 14> S 1.0308240147 -0.79503739 -1.1494790759
| 15> C -0.1237968699 -1.6710564099 -0.058517013
| 16> S -1.1538280565 -0.5510918272 0.9120268489
| 17> P -2.4147948814 0.0757931454 -0.6987182087
| 18> S -2.7559054497 -1.3023976304 -2.0459279112
| 19> O -1.7836285942 1.3428030451 -1.3801569032
| 20> C -1.1147915369 2.4730630706 -0.7681896523
| 21> C -1.8465116681 3.0338887954 0.4316727515
| 22> O -3.6754937897 0.6750192824 0.0573559587
| 23> C -4.5660782533 -0.1173753845 0.8673952015
| 24> C -5.6885739335 -0.7113099264 0.0389303205
| 25> H 3.2673023538 2.905730809 3.1946050181
| 26> H 3.9312440651 1.5731085285 2.2377836807
| 27> H 3.4043007371 3.0581162978 1.4319730256
| 28> H 1.0337459993 2.5687899525 2.152949716
| 29> H 1.6135118242 1.0380215624 2.8723605646
| 30> H 5.5025234622 0.2531528298 -1.0294566423
| 31> H 5.0855249253 -0.9175182632 0.2589959474
| 32> H 3.7057674569 -2.2158224162 -1.3022133829
| 33> H 3.9825696004 -1.0371098545 -2.59116048
| 34> H 5.3255790465 -2.0257858438 -1.9879059796
| 35> H 0.4370707038 -2.2834034499 0.6479157341
| 36> H -0.7620544532 -2.2790499319 -0.7013039268
| 37> H -0.1037284988 2.1551680343 -0.5000674426
| 38> H -1.0642338893 3.197641108 -1.5827845643
| 39> H -1.8490430537 2.313085621 1.2474244322
| 40> H -1.3420165868 3.9384679624 0.7583745808
| 41> H -2.8736968272 3.2721560944 0.16817118
| 42> H -3.9924035051 -0.8997851766 1.3717259155
| 43> H -4.9523633924 0.5856478841 1.6080264271
| 44> H -5.2900181045 -1.4036813832 -0.6992795609
| 45> H -6.3719492814 -1.2439888684 0.6923946585
| 46> H -6.2272459313 0.0767028135 -0.4800579435
| 47> *
| 48>
| 49>                          ****END OF INPUT****

CARTESIAN COORDINATES (ANGSTROEM)
---------------------------------
  C      3.193986    2.374967    2.250629
  C      1.802512    1.796613    2.106346
  O      1.609805    1.191498    0.809347
  P      2.333402   -0.154995    0.391546
  S      2.688312   -1.428415    1.843622
  O      3.616374    0.389353   -0.369243
  C      4.747121   -0.446616   -0.669655
  C      4.418606   -1.499146   -1.708753
  S      1.030824   -0.795037   -1.149479
  C     -0.123797   -1.671056   -0.058517
  S     -1.153828   -0.551092    0.912027
  P     -2.414795    0.075793   -0.698718
  S     -2.755905   -1.302398   -2.045928
  O     -1.783629    1.342803   -1.380157
  C     -1.114792    2.473063   -0.768190
  C     -1.846512    3.033889    0.431673
  O     -3.675494    0.675019    0.057356
  C     -4.566078   -0.117375    0.867395
  C     -5.688574   -0.711310    0.038930
  H      3.267302    2.905731    3.194605
  H      3.931244    1.573109    2.237784
  H      3.404301    3.058116    1.431973
  H      1.033746    2.568790    2.152950
  H      1.613512    1.038022    2.872361
  H      5.502523    0.253153   -1.029457
  H      5.085525   -0.917518    0.258996
  H      3.705767   -2.215822   -1.302213
  H      3.982570   -1.037110   -2.591160
  H      5.325579   -2.025786   -1.987906
  H      0.437071   -2.283403    0.647916
  H     -0.762054   -2.279050   -0.701304
  H     -0.103728    2.155168   -0.500067
  H     -1.064234    3.197641   -1.582785
  H     -1.849043    2.313086    1.247424
  H     -1.342017    3.938468    0.758375
  H     -2.873697    3.272156    0.168171
  H     -3.992404   -0.899785    1.371726
  H     -4.952363    0.585648    1.608026
  H     -5.290018   -1.403681   -0.699280
  H     -6.371949   -1.243989    0.692395
  H     -6.227246    0.076703   -0.480058

 Total Charge           Charge          ....    0
 Multiplicity           Mult            ....    1
 Number of Electrons    NEL             ....  202
 Basis Dimension        Dim             ....  539

ORBITAL ENERGIES
----------------

  NO   OCC          E(Eh)            E(eV)
   0   2.0000     -88.576466     -2410.2882
   1   2.0000     -88.574679     -2410.2395
   2   2.0000     -88.526561     -2408.9302
   3   2.0000     -88.514442     -2408.6004
   4   2.0000     -76.917883     -2093.0420
   5   2.0000     -76.913322     -2092.9179
   6   2.0000     -18.998186      -516.9669
   7   2.0000     -18.995151      -516.8843
   8   2.0000     -18.993033      -516.8267
   9   2.0000     -18.988175      -516.6945
  10   2.0000     -10.103068      -274.9184
  11   2.0000     -10.102656      -274.9072
  12   2.0000     -10.101886      -274.8863
  13   2.0000     -10.101374      -274.8724
  14   2.0000     -10.098408      -274.7916
  15   2.0000     -10.034131      -273.0426
  16   2.0000     -10.033868      -273.0354
  17   2.0000     -10.030953      -272.9561
  18   2.0000     -10.023997      -272.7668
  19   2.0000      -7.870564      -214.1689
  20   2.0000      -7.868940      -214.1248
  21   2.0000      -7.821305      -212.8285
  22   2.0000      -7.809411      -212.5049
  23   2.0000      -6.596581      -179.5021
  24   2.0000      -6.591382      -179.3606
  25   2.0000      -5.817418      -158.3000
  26   2.0000      -5.815703      -158.2533
  27   2.0000      -5.814507      -158.2208
  28   2.0000      -5.812710      -158.1719
  29   2.0000      -5.807663      -158.0345
  30   2.0000      -5.806284      -157.9970
  31   2.0000      -5.768850      -156.9784
  32   2.0000      -5.761621      -156.7817
  33   2.0000      -5.761378      -156.7751
  34   2.0000      -5.757103      -156.6587
  35   2.0000      -5.749639      -156.4556
  36   2.0000      -5.749390      -156.4489
  37   2.0000      -4.741987      -129.0360
  38   2.0000      -4.741447      -129.0213
  39   2.0000      -4.740417      -128.9933
  40   2.0000      -4.737023      -128.9010
  41   2.0000      -4.736644      -128.8906
  42   2.0000      -4.734741      -128.8388
  43   2.0000      -1.055455       -28.7204
  44   2.0000      -1.049019       -28.5453
  45   2.0000      -1.016958       -27.6728
  46   2.0000      -1.009264       -27.4635
  47   2.0000      -0.802106       -21.8264
  48   2.0000      -0.760277       -20.6882
  49   2.0000      -0.751676       -20.4541
  50   2.0000      -0.735730       -20.0202
  51   2.0000      -0.734373       -19.9833
  52   2.0000      -0.713563       -19.4170
  53   2.0000      -0.687157       -18.6985
  54   2.0000      -0.669493       -18.2178
  55   2.0000      -0.636614       -17.3231
  56   2.0000      -0.623537       -16.9673
  57   2.0000      -0.610209       -16.6046
  58   2.0000      -0.607041       -16.5184
  59   2.0000      -0.594066       -16.1654
  60   2.0000      -0.527430       -14.3521
  61   2.0000      -0.518182       -14.1004
  62   2.0000      -0.497597       -13.5403
  63   2.0000      -0.492475       -13.4009
  64   2.0000      -0.477986       -13.0067
  65   2.0000      -0.464277       -12.6336
  66   2.0000      -0.461262       -12.5516
  67   2.0000      -0.459900       -12.5145
  68   2.0000      -0.448084       -12.1930
  69   2.0000      -0.435329       -11.8459
  70   2.0000      -0.418922       -11.3994
  71   2.0000      -0.418330       -11.3833
  72   2.0000      -0.414682       -11.2841
  73   2.0000      -0.411082       -11.1861
  74   2.0000      -0.405616       -11.0374
  75   2.0000      -0.390510       -10.6263
  76   2.0000      -0.381078       -10.3697
  77   2.0000      -0.375342       -10.2136
  78   2.0000      -0.369552       -10.0560
  79   2.0000      -0.367974       -10.0131
  80   2.0000      -0.366391        -9.9700
  81   2.0000      -0.364117        -9.9081
  82   2.0000      -0.358734        -9.7617
  83   2.0000      -0.355845        -9.6830
  84   2.0000      -0.346503        -9.4288
  85   2.0000      -0.337687        -9.1889
  86   2.0000      -0.327064        -8.8999
  87   2.0000      -0.313712        -8.5365
  88   2.0000      -0.309431        -8.4200
  89   2.0000      -0.304467        -8.2850
  90   2.0000      -0.303853        -8.2683
  91   2.0000      -0.294390        -8.0108
  92   2.0000      -0.286578        -7.7982
  93   2.0000      -0.282183        -7.6786
  94   2.0000      -0.274690        -7.4747
  95   2.0000      -0.248428        -6.7601
  96   2.0000      -0.232773        -6.3341
  97   2.0000      -0.228924        -6.2293
  98   2.0000      -0.219732        -5.9792
  99   2.0000      -0.212384        -5.7792
 100   2.0000      -0.209803        -5.7090
 101   0.0000      -0.046310        -1.2602
 102   0.0000      -0.026248        -0.7143
 103   0.0000      -0.002776        -0.0755
 104   0.0000      -0.000277        -0.0075
 105   0.0000       0.015627         0.4252

MULLIKEN ATOMIC CHARGES
-----------------------
   0 C :   -0.438768
   1 C :   -0.156704
   2 O :   -0.272161
   3 P :    0.676574
   4 S :   -0.485748
   5 O :   -0.308115
   6 C :   -0.149326
   7 C :   -0.452694
   8 S :   -0.101839
   9 C :   -0.239804
  10 S :   -0.185591
  11 P :    0.679657
  12 S :   -0.464323
  13 O :   -0.251824
  14 C :   -0.142203
  15 C :   -0.456261
  16 O :   -0.280910
  17 C :   -0.157075
  18 C :   -0.435062
  19 H :    0.148060
  20 H :    0.167291
  21 H :    0.155672
  22 H :    0.150504
  23 H :    0.175852
  24 H :    0.149093
  25 H :    0.170668
  26 H :    0.177708
  27 H :    0.158163
  28 H :    0.148823
  29 H :    0.214358
  30 H :    0.220669
  31 H :    0.183555
  32 H :    0.150088
  33 H :    0.161570
  34 H :    0.149153
  35 H :    0.162474
  36 H :    0.154436
  37 H :    0.149173
  38 H :    0.180785
  39 H :    0.143302
  40 H :    0.150777
Sum of atomic charges:    0.0000000

LOEWDIN ATOMIC CHARGES
----------------------
   0 C :   -0.397754
   1 C :    0.017720
   2 O :   -0.697049
   3 P :    0.378640
   4 S :   -0.133802
   5 O :   -0.659878
   6 C :    0.020663
   7 C :   -0.405616
   8 S :    0.179425
   9 C :   -0.426228
  10 S :    0.136749
  11 P :    0.384063
  12 S :   -0.111159
  13 O :   -0.646617
  14 C :    0.027710
  15 C :   -0.404602
  16 O :   -0.670089
  17 C :    0.022148
  18 C :   -0.401068
  19 H :    0.159960
  20 H :    0.165184
  21 H :    0.160964
  22 H :    0.179045
  23 H :    0.182191
  24 H :    0.180017
  25 H :    0.179409
  26 H :    0.166185
  27 H :    0.161343
  28 H :    0.160066
  29 H :    0.191695
  30 H :    0.195331
  31 H :    0.195671
  32 H :    0.181931
  33 H :    0.161809
  34 H :    0.159078
  35 H :    0.165949
  36 H :    0.175827
  37 H :    0.178108
  38 H :    0.170073
  39 H :    0.157416
  40 H :    0.159493

  Mayer bond orders larger than 0.100000
B(  0-C ,  1-C ) :   0.9264 B(  0-C , 19-H ) :   0.9622 B(  0-C , 20-H ) :   0.9586
B(  0-C , 21-H ) :   0.9722 B(  1-C ,  2-O ) :   0.7879 B(  1-C , 22-H ) :   0.9629
B(  1-C , 23-H ) :   0.9605 B(  2-O ,  3-P ) :   1.1293 B(  3-P ,  4-S ) :   1.7429
B(  3-P ,  5-O ) :   1.0717 B(  3-P ,  8-S ) :   1.1042 B(  5-O ,  6-C ) :   0.8109
B(  6-C ,  7-C ) :   0.9245 B(  6-C , 24-H ) :   0.9578 B(  6-C , 25-H ) :   0.9657
B(  7-C , 26-H ) :   0.9611 B(  7-C , 27-H ) :   0.9684 B(  7-C , 28-H ) :   0.9583
B(  8-S ,  9-C ) :   0.9144 B(  9-C , 10-S ) :   0.9084 B(  9-C , 29-H ) :   0.9061
B(  9-C , 30-H ) :   0.8979 B( 10-S , 11-P ) :   0.9920 B( 11-P , 12-S ) :   1.7984
B( 11-P , 13-O ) :   1.1926 B( 11-P , 16-O ) :   1.0561 B( 13-O , 14-C ) :   0.8118
B( 14-C , 15-C ) :   0.8996 B( 14-C , 31-H ) :   0.9521 B( 14-C , 32-H ) :   0.9626
B( 15-C , 33-H ) :   0.9671 B( 15-C , 34-H ) :   0.9592 B( 15-C , 35-H ) :   0.9637
B( 16-O , 17-C ) :   0.7800 B( 17-C , 18-C ) :   0.9597 B( 17-C , 36-H ) :   0.9568
B( 17-C , 37-H ) :   0.9651 B( 18-C , 38-H ) :   0.9527 B( 18-C , 39-H ) :   0.9648
B( 18-C , 40-H ) :   0.9733

Dispersion correction           -0.021657485
FINAL SINGLE POINT ENERGY     -2932.461606024643

DIPOLE MOMENT
-------------

Method             : SCF
Type of density    : Electron Density
Multiplicity       :   1
Irrep              :   0
Energy             : -2932.4865653017686782 Eh
Relativity type    :
Basis              : AO
                                X                 Y                 Z
Electronic contribution:     -1.844031866     -10.761776612      -6.621669031
Nuclear contribution   :      2.383057390      12.090856844       7.562276908
                        -----------------------------------------
Total Dipole Moment    :      0.539025524       1.329080231       0.940607878
                        -----------------------------------------
Magnitude (a.u.)       :      1.715151876
Magnitude (Debye)      :      4.359569607

Rotational constants in cm-1:             0.013663             0.004710             0.004273
Rotational constants in MHz :           409.620400           141.216664           128.098529

                             ****ORCA TERMINATED NORMALLY****
TOTAL RUN TIME: 0 days 0 hours 1 minutes 19 seconds 152 msec
