                         Program Version 6.0.0  -   RELEASE  -
|  1> ! r2scan-3c def2/J RI DEFGRID2 scfconv6 printgap
|  2> %output
|  3>     printlevel normal
|  4> end
|  5> %cpcm
|  6>     smd true
|  7>     smdsolvent "water"
|  8> end
|  9> * xyz 0 1
| 10> C 3.1939864349 2.3749673967 2.2506287871
| 11> C 1.8025116172 1.7966127092 2.1063456125
| 12> O 1.6098054546 1.1914983735 0.8093473717
| 13> P 2.3334023832 -0.154995154 0.3915464419
| 14> S 2.6883119631 -1.4284153421 1.8436219343
| 15> O 3.61637368 0.3893534105 -0.3692428275
| 16> C 4.7471208363 -0.4466162086 -0.6696550807
| 17> C 4.4186058553 -1.4991455242 -1.7087530045
| 18> S 1.0308240147 -0.79503739 -1.1494790759
| 19> C -0.1237968699 -1.6710564099 -0.058517013
| 20> S -1.1538280565 -0.5510918272 0.9120268489
| 21> P -2.4147948814 0.0757931454 -0.6987182087
| 22> S -2.7559054497 -1.3023976304 -2.0459279112
| 23> O -1.7836285942 1.3428030451 -1.3801569032
| 24> C -1.1147915369 2.4730630706 -0.7681896523
| 25> C -1.8465116681 3.0338887954 0.4316727515
| 26> O -3.6754937897 0.6750192824 0.0573559587
| 27> C -4.5660782533 -0.1173753845 0.8673952015
| 28> C -5.6885739335 -0.7113099264 0.0389303205
| 29> H 3.2673023538 2.905730809 3.1946050181
| 30> H 3.9312440651 1.5731085285 2.2377836807
| 31> H 3.4043007371 3.0581162978 1.4319730256
| 32> H 1.0337459993 2.5687899525 2.152949716
| 33> H 1.6135118242 1.0380215624 2.8723605646
| 34> H 5.5025234622 0.2531528298 -1.0294566423
| 35> H 5.0855249253 -0.9175182632 0.2589959474
| 36> H 3.7057674569 -2.2158224162 -1.3022133829
| 37> H 3.9825696004 -1.0371098545 -2.59116048
| 38> H 5.3255790465 -2.0257858438 -1.9879059796
| 39> H 0.4370707038 -2.2834034499 0.6479157341
| 40> H -0.7620544532 -2.2790499319 -0.7013039268
| 41> H -0.1037284988 2.1551680343 -0.5000674426
| 42> H -1.0642338893 3.197641108 -1.5827845643
| 43> H -1.8490430537 2.313085621 1.2474244322
| 44> H -1.3420165868 3.9384679624 0.7583745808
| 45> H -2.8736968272 3.2721560944 0.16817118
| 46> H -3.9924035051 -0.8997851766 1.3717259155
| 47> H -4.9523633924 0.5856478841 1.6080264271
| 48> H -5.2900181045 -1.4036813832 -0.6992795609
| 49> H -6.3719492814 -1.2439888684 0.6923946585
| 50> H -6.2272459313 0.0767028135 -0.4800579435
| 51> *
| 52>
| 53>                          ****END OF INPUT****

CARTESIAN COORDINATES (ANGSTROEM)
---------------------------------
  C      3.193986    2.374967    2.250629
  C      1.802512    1.796613    2.106346
  O      1.609805    1.191498    0.809347
  P      2.333402   -0.154995    0.391546
  S      2.688312   -1.428415    1.843622
  O      3.616374    0.389353   -0.369243
  C      4.747121   -0.446616   -0.669655
  C      4.418606   -1.499146   -1.708753
  S      1.030824   -0.795037   -1.149479
  C     -0.123797   -1.671056   -0.058517
  S     -1.153828   -0.551092    0.912027
  P     -2.414795    0.075793   -0.698718
  S     -2.755905   -1.302398   -2.045928
  O     -1.783629    1.342803   -1.380157
  C     -1.114792    2.473063   -0.768190
  C     -1.846512    3.033889    0.431673
  O     -3.675494    0.675019    0.057356
  C     -4.566078   -0.117375    0.867395
  C     -5.688574   -0.711310    0.038930
  H      3.267302    2.905731    3.194605
  H      3.931244    1.573109    2.237784
  H      3.404301    3.058116    1.431973
  H      1.033746    2.568790    2.152950
  H      1.613512    1.038022    2.872361
  H      5.502523    0.253153   -1.029457
  H      5.085525   -0.917518    0.258996
  H      3.705767   -2.215822   -1.302213
  H      3.982570   -1.037110   -2.591160
  H      5.325579   -2.025786   -1.987906
  H      0.437071   -2.283403    0.647916
  H     -0.762054   -2.279050   -0.701304
  H     -0.103728    2.155168   -0.500067
  H     -1.064234    3.197641   -1.582785
  H     -1.849043    2.313086    1.247424
  H     -1.342017    3.938468    0.758375
  H     -2.873697    3.272156    0.168171
  H     -3.992404   -0.899785    1.371726
  H     -4.952363    0.585648    1.608026
  H     -5.290018   -1.403681   -0.699280
  H     -6.371949   -1.243989    0.692395
  H     -6.227246    0.076703   -0.480058

 Total Charge           Charge          ....    0
 Multiplicity           Mult            ....    1
 Number of Electrons    NEL             ....  202
 Basis Dimension        Dim             ....  539

ORBITAL ENERGIES
----------------

  NO   OCC          E(Eh)            E(eV)
   0   2.0000     -88.579975     -2410.3837
   1   2.0000     -88.578869     -2410.3536
   2   2.0000     -88.530422     -2409.0353
   3   2.0000     -88.527074     -2408.9441
   4   2.0000     -76.921413     -2093.1381
   5   2.0000     -76.919807     -2093.0944
   6   2.0000     -18.997458      -516.9471
   7   2.0000     -18.995991      -516.9072
   8   2.0000     -18.994785      -516.8744
   9   2.0000     -18.992661      -516.8166
  10   2.0000     -10.103147      -274.9206
  11   2.0000     -10.091846      -274.6131
  12   2.0000     -10.090818      -274.5851
  13   2.0000     -10.090521      -274.5770
  14   2.0000     -10.089401      -274.5466
  15   2.0000     -10.020261      -272.6652
  16   2.0000     -10.019058      -272.6324
  17   2.0000     -10.018930      -272.6290
  18   2.0000     -10.016476      -272.5622
  19   2.0000      -7.874204      -214.2680
  20   2.0000      -7.873080      -214.2374
  21   2.0000      -7.825438      -212.9410
  22   2.0000      -7.822415      -212.8587
  23   2.0000      -6.599539      -179.5826
  24   2.0000      -6.598517      -179.5548
  25   2.0000      -5.821015      -158.3979
  26   2.0000      -5.819879      -158.3669
  27   2.0000      -5.818140      -158.3196
  28   2.0000      -5.816871      -158.2851
  29   2.0000      -5.811344      -158.1347
  30   2.0000      -5.810373      -158.1083
  31   2.0000      -5.772938      -157.0896
  32   2.0000      -5.769977      -157.0091
  33   2.0000      -5.765750      -156.8940
  34   2.0000      -5.765510      -156.8875
  35   2.0000      -5.762686      -156.8107
  36   2.0000      -5.762408      -156.8031
  37   2.0000      -4.745143      -129.1219
  38   2.0000      -4.744726      -129.1106
  39   2.0000      -4.743842      -129.0865
  40   2.0000      -4.743382      -129.0740
  41   2.0000      -4.743044      -129.0648
  42   2.0000      -4.742469      -129.0491
  43   2.0000      -1.053634       -28.6708
  44   2.0000      -1.053262       -28.6607
  45   2.0000      -1.014138       -27.5961
  46   2.0000      -1.013162       -27.5695
  47   2.0000      -0.804780       -21.8992
  48   2.0000      -0.756689       -20.5906
  49   2.0000      -0.745179       -20.2774
  50   2.0000      -0.726578       -19.7712
  51   2.0000      -0.724033       -19.7019
  52   2.0000      -0.711731       -19.3672
  53   2.0000      -0.689713       -18.7680
  54   2.0000      -0.674888       -18.3646
  55   2.0000      -0.632168       -17.2022
  56   2.0000      -0.623232       -16.9590
  57   2.0000      -0.601413       -16.3653
  58   2.0000      -0.599713       -16.3190
  59   2.0000      -0.593580       -16.1521
  60   2.0000      -0.523389       -14.2421
  61   2.0000      -0.512854       -13.9555
  62   2.0000      -0.491432       -13.3725
  63   2.0000      -0.489299       -13.3145
  64   2.0000      -0.476426       -12.9642
  65   2.0000      -0.458457       -12.4752
  66   2.0000      -0.455881       -12.4052
  67   2.0000      -0.454760       -12.3747
  68   2.0000      -0.442877       -12.0513
  69   2.0000      -0.430907       -11.7256
  70   2.0000      -0.415604       -11.3091
  71   2.0000      -0.414079       -11.2677
  72   2.0000      -0.409363       -11.1393
  73   2.0000      -0.405313       -11.0291
  74   2.0000      -0.403078       -10.9683
  75   2.0000      -0.389140       -10.5890
  76   2.0000      -0.379335       -10.3222
  77   2.0000      -0.366447        -9.9715
  78   2.0000      -0.366094        -9.9619
  79   2.0000      -0.361646        -9.8409
  80   2.0000      -0.356951        -9.7131
  81   2.0000      -0.353778        -9.6268
  82   2.0000      -0.351174        -9.5559
  83   2.0000      -0.348433        -9.4813
  84   2.0000      -0.342459        -9.3188
  85   2.0000      -0.333828        -9.0839
  86   2.0000      -0.321764        -8.7557
  87   2.0000      -0.306483        -8.3398
  88   2.0000      -0.305234        -8.3058
  89   2.0000      -0.303486        -8.2583
  90   2.0000      -0.299269        -8.1435
  91   2.0000      -0.290712        -7.9107
  92   2.0000      -0.285341        -7.7645
  93   2.0000      -0.280477        -7.6322
  94   2.0000      -0.277653        -7.5553
  95   2.0000      -0.251791        -6.8516
  96   2.0000      -0.238763        -6.4971
  97   2.0000      -0.234516        -6.3815
  98   2.0000      -0.226294        -6.1578
  99   2.0000      -0.222749        -6.0613
 100   2.0000      -0.220971        -6.0129
 101   0.0000      -0.051621        -1.4047
 102   0.0000      -0.032494        -0.8842
 103   0.0000      -0.006478        -0.1763
 104   0.0000      -0.004414        -0.1201
 105   0.0000       0.015055         0.4097

MULLIKEN ATOMIC CHARGES
-----------------------
   0 C :   -0.483308
   1 C :   -0.149846
   2 O :   -0.291824
   3 P :    0.717669
   4 S :   -0.529124
   5 O :   -0.331899
   6 C :   -0.150214
   7 C :   -0.489203
   8 S :   -0.128197
   9 C :   -0.246348
  10 S :   -0.179665
  11 P :    0.687871
  12 S :   -0.520511
  13 O :   -0.288019
  14 C :   -0.140098
  15 C :   -0.478686
  16 O :   -0.300973
  17 C :   -0.140124
  18 C :   -0.480715
  19 H :    0.172348
  20 H :    0.167747
  21 H :    0.170033
  22 H :    0.180360
  23 H :    0.177481
  24 H :    0.176205
  25 H :    0.178058
  26 H :    0.172879
  27 H :    0.170193
  28 H :    0.173307
  29 H :    0.234161
  30 H :    0.232964
  31 H :    0.183470
  32 H :    0.174658
  33 H :    0.166851
  34 H :    0.177083
  35 H :    0.168509
  36 H :    0.163517
  37 H :    0.178294
  38 H :    0.169383
  39 H :    0.169400
  40 H :    0.166311
Sum of atomic charges:    0.0000000

LOEWDIN ATOMIC CHARGES
----------------------
   0 C :   -0.401522
   1 C :    0.023563
   2 O :   -0.701788
   3 P :    0.384749
   4 S :   -0.159600
   5 O :   -0.669957
   6 C :    0.026395
   7 C :   -0.409393
   8 S :    0.163180
   9 C :   -0.422382
  10 S :    0.145238
  11 P :    0.385438
  12 S :   -0.156052
  13 O :   -0.669952
  14 C :    0.033108
  15 C :   -0.402829
  16 O :   -0.677448
  17 C :    0.029584
  18 C :   -0.406167
  19 H :    0.168969
  20 H :    0.162663
  21 H :    0.164416
  22 H :    0.191267
  23 H :    0.182459
  24 H :    0.191470
  25 H :    0.181846
  26 H :    0.161774
  27 H :    0.163785
  28 H :    0.168862
  29 H :    0.197427
  30 H :    0.198465
  31 H :    0.196255
  32 H :    0.192044
  33 H :    0.162858
  34 H :    0.170906
  35 H :    0.166717
  36 H :    0.180031
  37 H :    0.190871
  38 H :    0.162755
  39 H :    0.167447
  40 H :    0.162548

  Mayer bond orders larger than 0.100000
B(  0-C ,  1-C ) :   0.9148 B(  0-C , 19-H ) :   0.9563 B(  0-C , 20-H ) :   0.9585
B(  0-C , 21-H ) :   0.9714 B(  1-C ,  2-O ) :   0.7758 B(  1-C , 22-H ) :   0.9521
B(  1-C , 23-H ) :   0.9575 B(  2-O ,  3-P ) :   1.1445 B(  3-P ,  4-S ) :   1.7057
B(  3-P ,  5-O ) :   1.0807 B(  3-P ,  8-S ) :   1.1047 B(  5-O ,  6-C ) :   0.7997
B(  6-C ,  7-C ) :   0.9100 B(  6-C , 24-H ) :   0.9483 B(  6-C , 25-H ) :   0.9648
B(  7-C , 26-H ) :   0.9628 B(  7-C , 27-H ) :   0.9659 B(  7-C , 28-H ) :   0.9531
B(  8-S ,  9-C ) :   0.9020 B(  9-C , 10-S ) :   0.8984 B(  9-C , 29-H ) :   0.9025
B(  9-C , 30-H ) :   0.8955 B( 10-S , 11-P ) :   1.0104 B( 11-P , 12-S ) :   1.7764
B( 11-P , 13-O ) :   1.1958 B( 11-P , 16-O ) :   1.0669 B( 13-O , 14-C ) :   0.8021
B( 14-C , 15-C ) :   0.9007 B( 14-C , 31-H ) :   0.9454 B( 14-C , 32-H ) :   0.9513
B( 15-C , 33-H ) :   0.9620 B( 15-C , 34-H ) :   0.9503 B( 15-C , 35-H ) :   0.9643
B( 16-O , 17-C ) :   0.7699 B( 17-C , 18-C ) :   0.9435 B( 17-C , 36-H ) :   0.9516
B( 17-C , 37-H ) :   0.9548 B( 18-C , 38-H ) :   0.9585 B( 18-C , 39-H ) :   0.9591
B( 18-C , 40-H ) :   0.9730

Dispersion correction           -0.021657485
FINAL SINGLE POINT ENERGY     -2932.470522899662

DIPOLE MOMENT
-------------

Method             : SCF
Type of density    : Electron Density
Multiplicity       :   1
Irrep              :   0
Energy             : -2932.4954821767873909 Eh
Relativity type    :
Basis              : AO
                                X                 Y                 Z
Electronic contribution:     -1.659812376     -10.285318130      -6.010146654
Nuclear contribution   :      2.383057390      12.090856844       7.562276908
                        -----------------------------------------
Total Dipole Moment    :      0.723245014       1.805538714       1.552130254
                        -----------------------------------------
Magnitude (a.u.)       :      2.488405458
Magnitude (Debye)      :      6.325024017

Rotational constants in cm-1:             0.013663             0.004710             0.004273
Rotational constants in MHz :           409.620400           141.216664           128.098529

                             ****ORCA TERMINATED NORMALLY****
TOTAL RUN TIME: 0 days 0 hours 1 minutes 49 seconds 650 msec
