                         Program Version 6.0.0  -   RELEASE  -
|  1> ! pbe def2-sv(p) def2/J RI DEFGRID1 loosescf d4 GCP(DFT/SV(P)) printgap
|  2> %output
|  3>     printlevel normal
|  4> end
|  5> * xyz 0 1
|  6> C 1.6920052543 -1.3983488853 -2.6508883631
|  7> C 2.4500904305 -0.1060943044 -2.4337291437
|  8> O 2.0405686363 0.5785627583 -1.2254306054
|  9> P 2.1804488931 0.0160636959 0.24240535
| 10> S 2.3158277461 1.4150120064 1.605678858
| 11> O 3.4833711576 -0.8914635466 0.1003042586
| 12> C 4.2863094662 -1.2799329948 1.2286605588
| 13> C 3.5456146596 -2.1910132667 2.185930024
| 14> S 0.6253431077 -1.4053587445 0.5437322628
| 15> C -0.3876707478 -0.5564268719 1.7946038251
| 16> S -2.132005514 -0.4966771814 1.3439924328
| 17> P -1.9380288432 0.6339841243 -0.4488098381
| 18> S -0.6339191334 2.0987246034 -0.3619604786
| 19> O -3.4439275835 0.9918020787 -0.8034421746
| 20> C -4.4142426156 1.5189852841 0.1207986917
| 21> C -3.9500506753 2.7935573281 0.7932101293
| 22> O -1.5581362946 -0.3193021851 -1.6469222618
| 23> C -2.3972282974 -1.3605455221 -2.2143728383
| 24> C -2.2899286538 -2.6616211808 -1.4438745307
| 25> H 0.6221751636 -1.2068900968 -2.6247614592
| 26> H 1.9617758048 -1.8107916648 -3.6180135364
| 27> H 1.9422949266 -2.11753642 -1.8724199706
| 28> H 2.232094135 0.6250522454 -3.2142116745
| 29> H 3.5261307531 -0.2832459276 -2.3770647237
| 30> H 5.1414102528 -1.7822223791 0.7738766096
| 31> H 4.6161394105 -0.3722417507 1.7433232949
| 32> H 4.2391125122 -2.5554592697 2.9368829946
| 33> H 2.7507378663 -1.6364242171 2.6823653861
| 34> H 3.1122829947 -3.0336091348 1.6533365687
| 35> H 0.0037411915 0.4572106681 1.9214556902
| 36> H -0.339658772 -1.1160601495 2.7254448828
| 37> H -5.2920606569 1.6954318148 -0.5034170753
| 38> H -4.6323134795 0.7468830208 0.8635074476
| 39> H -3.6772081023 3.5384195443 0.0491662589
| 40> H -4.7463229625 3.183396711 1.4189314445
| 41> H -3.0759820595 2.5959908507 1.4124808157
| 42> H -3.4256431335 -0.998714166 -2.2489729019
| 43> H -2.0116927536 -1.468032662 -3.2299194528
| 44> H -2.7886767426 -3.4425687391 -2.0091648154
| 45> H -1.246376927 -2.932390443 -1.3031938063
| 46> H -2.7609772633 -2.5757089091 -0.4683298905
| 47> *
| 48>
| 49>                          ****END OF INPUT****

CARTESIAN COORDINATES (ANGSTROEM)
---------------------------------
  C      1.692005   -1.398349   -2.650888
  C      2.450090   -0.106094   -2.433729
  O      2.040569    0.578563   -1.225431
  P      2.180449    0.016064    0.242405
  S      2.315828    1.415012    1.605679
  O      3.483371   -0.891464    0.100304
  C      4.286309   -1.279933    1.228661
  C      3.545615   -2.191013    2.185930
  S      0.625343   -1.405359    0.543732
  C     -0.387671   -0.556427    1.794604
  S     -2.132006   -0.496677    1.343992
  P     -1.938029    0.633984   -0.448810
  S     -0.633919    2.098725   -0.361960
  O     -3.443928    0.991802   -0.803442
  C     -4.414243    1.518985    0.120799
  C     -3.950051    2.793557    0.793210
  O     -1.558136   -0.319302   -1.646922
  C     -2.397228   -1.360546   -2.214373
  C     -2.289929   -2.661621   -1.443875
  H      0.622175   -1.206890   -2.624761
  H      1.961776   -1.810792   -3.618014
  H      1.942295   -2.117536   -1.872420
  H      2.232094    0.625052   -3.214212
  H      3.526131   -0.283246   -2.377065
  H      5.141410   -1.782222    0.773877
  H      4.616139   -0.372242    1.743323
  H      4.239113   -2.555459    2.936883
  H      2.750738   -1.636424    2.682365
  H      3.112283   -3.033609    1.653337
  H      0.003741    0.457211    1.921456
  H     -0.339659   -1.116060    2.725445
  H     -5.292061    1.695432   -0.503417
  H     -4.632313    0.746883    0.863507
  H     -3.677208    3.538420    0.049166
  H     -4.746323    3.183397    1.418931
  H     -3.075982    2.595991    1.412481
  H     -3.425643   -0.998714   -2.248973
  H     -2.011693   -1.468033   -3.229919
  H     -2.788677   -3.442569   -2.009165
  H     -1.246377   -2.932390   -1.303194
  H     -2.760977   -2.575709   -0.468330

 Total Charge           Charge          ....    0
 Multiplicity           Mult            ....    1
 Number of Electrons    NEL             ....  202
 Basis Dimension        Dim             ....  334

ORBITAL ENERGIES
----------------

  NO   OCC          E(Eh)            E(eV)
   0   2.0000     -88.044124     -2395.8024
   1   2.0000     -88.037572     -2395.6241
   2   2.0000     -87.978068     -2394.0049
   3   2.0000     -87.972914     -2393.8647
   4   2.0000     -76.422291     -2079.5562
   5   2.0000     -76.420912     -2079.5187
   6   2.0000     -18.793699      -511.4025
   7   2.0000     -18.788563      -511.2628
   8   2.0000     -18.787152      -511.2244
   9   2.0000     -18.780184      -511.0348
  10   2.0000      -9.959299      -271.0063
  11   2.0000      -9.954916      -270.8870
  12   2.0000      -9.951670      -270.7987
  13   2.0000      -9.949986      -270.7529
  14   2.0000      -9.949331      -270.7351
  15   2.0000      -9.884605      -268.9738
  16   2.0000      -9.883429      -268.9418
  17   2.0000      -9.881762      -268.8964
  18   2.0000      -9.881088      -268.8781
  19   2.0000      -7.689013      -209.2287
  20   2.0000      -7.681863      -209.0341
  21   2.0000      -7.623234      -207.4387
  22   2.0000      -7.617783      -207.2904
  23   2.0000      -6.419211      -174.6756
  24   2.0000      -6.417927      -174.6407
  25   2.0000      -5.716792      -155.5618
  26   2.0000      -5.713359      -155.4684
  27   2.0000      -5.709796      -155.3715
  28   2.0000      -5.706425      -155.2797
  29   2.0000      -5.706282      -155.2758
  30   2.0000      -5.698789      -155.0719
  31   2.0000      -5.652323      -153.8075
  32   2.0000      -5.647000      -153.6627
  33   2.0000      -5.643691      -153.5726
  34   2.0000      -5.643347      -153.5633
  35   2.0000      -5.638314      -153.4263
  36   2.0000      -5.637780      -153.4118
  37   2.0000      -4.642185      -126.3203
  38   2.0000      -4.641272      -126.2954
  39   2.0000      -4.640926      -126.2860
  40   2.0000      -4.639344      -126.2430
  41   2.0000      -4.639070      -126.2355
  42   2.0000      -4.638423      -126.2179
  43   2.0000      -0.986684       -26.8490
  44   2.0000      -0.981327       -26.7033
  45   2.0000      -0.942031       -25.6340
  46   2.0000      -0.935778       -25.4638
  47   2.0000      -0.760449       -20.6929
  48   2.0000      -0.716968       -19.5097
  49   2.0000      -0.708517       -19.2797
  50   2.0000      -0.689763       -18.7694
  51   2.0000      -0.686586       -18.6829
  52   2.0000      -0.676427       -18.4065
  53   2.0000      -0.646894       -17.6029
  54   2.0000      -0.628929       -17.1140
  55   2.0000      -0.593805       -16.1582
  56   2.0000      -0.584960       -15.9176
  57   2.0000      -0.578586       -15.7441
  58   2.0000      -0.574575       -15.6350
  59   2.0000      -0.559483       -15.2243
  60   2.0000      -0.500249       -13.6125
  61   2.0000      -0.490434       -13.3454
  62   2.0000      -0.470712       -12.8087
  63   2.0000      -0.463953       -12.6248
  64   2.0000      -0.448766       -12.2115
  65   2.0000      -0.446999       -12.1635
  66   2.0000      -0.441417       -12.0116
  67   2.0000      -0.438845       -11.9416
  68   2.0000      -0.429387       -11.6842
  69   2.0000      -0.420307       -11.4371
  70   2.0000      -0.410221       -11.1627
  71   2.0000      -0.401216       -10.9176
  72   2.0000      -0.395495       -10.7620
  73   2.0000      -0.385581       -10.4922
  74   2.0000      -0.381030       -10.3684
  75   2.0000      -0.365207        -9.9378
  76   2.0000      -0.355311        -9.6685
  77   2.0000      -0.354479        -9.6459
  78   2.0000      -0.349691        -9.5156
  79   2.0000      -0.348678        -9.4880
  80   2.0000      -0.346296        -9.4232
  81   2.0000      -0.342294        -9.3143
  82   2.0000      -0.338856        -9.2207
  83   2.0000      -0.336354        -9.1526
  84   2.0000      -0.333741        -9.0816
  85   2.0000      -0.320080        -8.7098
  86   2.0000      -0.306660        -8.3446
  87   2.0000      -0.297069        -8.0837
  88   2.0000      -0.293059        -7.9745
  89   2.0000      -0.290346        -7.9007
  90   2.0000      -0.287525        -7.8240
  91   2.0000      -0.275911        -7.5079
  92   2.0000      -0.266098        -7.2409
  93   2.0000      -0.259296        -7.0558
  94   2.0000      -0.252884        -6.8813
  95   2.0000      -0.230791        -6.2802
  96   2.0000      -0.217459        -5.9174
  97   2.0000      -0.207682        -5.6513
  98   2.0000      -0.192674        -5.2429
  99   2.0000      -0.185314        -5.0427
 100   2.0000      -0.179062        -4.8725
 101   0.0000      -0.042061        -1.1445
 102   0.0000      -0.032765        -0.8916
 103   0.0000      -0.007276        -0.1980
 104   0.0000       0.011358         0.3091
 105   0.0000       0.016995         0.4625

MULLIKEN ATOMIC CHARGES
-----------------------
   0 C :   -0.364802
   1 C :    0.016476
   2 O :   -0.349675
   3 P :    0.629331
   4 S :   -0.299186
   5 O :   -0.390566
   6 C :    0.002731
   7 C :   -0.310673
   8 S :   -0.127930
   9 C :   -0.334357
  10 S :   -0.133082
  11 P :    0.599311
  12 S :   -0.279202
  13 O :   -0.382634
  14 C :   -0.014463
  15 C :   -0.306970
  16 O :   -0.353501
  17 C :   -0.008184
  18 C :   -0.312755
  19 H :    0.158738
  20 H :    0.110056
  21 H :    0.120873
  22 H :    0.111223
  23 H :    0.105640
  24 H :    0.100955
  25 H :    0.112124
  26 H :    0.110907
  27 H :    0.119424
  28 H :    0.115552
  29 H :    0.210848
  30 H :    0.177207
  31 H :    0.108435
  32 H :    0.113220
  33 H :    0.127406
  34 H :    0.110048
  35 H :    0.129707
  36 H :    0.110127
  37 H :    0.108281
  38 H :    0.107751
  39 H :    0.128666
  40 H :    0.122943
Sum of atomic charges:    0.0000000

LOEWDIN ATOMIC CHARGES
----------------------
   0 C :   -0.376715
   1 C :   -0.105044
   2 O :   -0.228618
   3 P :    0.578768
   4 S :   -0.296426
   5 O :   -0.252217
   6 C :   -0.117045
   7 C :   -0.370973
   8 S :    0.074814
   9 C :   -0.479713
  10 S :    0.065068
  11 P :    0.557090
  12 S :   -0.286236
  13 O :   -0.246012
  14 C :   -0.115367
  15 C :   -0.368880
  16 O :   -0.233119
  17 C :   -0.111878
  18 C :   -0.370896
  19 H :    0.131696
  20 H :    0.129821
  21 H :    0.115160
  22 H :    0.124117
  23 H :    0.112130
  24 H :    0.116656
  25 H :    0.112034
  26 H :    0.129656
  27 H :    0.119045
  28 H :    0.122097
  29 H :    0.126002
  30 H :    0.133576
  31 H :    0.120659
  32 H :    0.107028
  33 H :    0.131380
  34 H :    0.129501
  35 H :    0.123033
  36 H :    0.111836
  37 H :    0.118215
  38 H :    0.128463
  39 H :    0.124857
  40 H :    0.116437

  Mayer bond orders larger than 0.100000
B(  0-C ,  1-C ) :   1.1705 B(  0-C , 19-H ) :   0.9224 B(  0-C , 20-H ) :   0.9345
B(  0-C , 21-H ) :   0.9355 B(  1-C ,  2-O ) :   0.9064 B(  1-C , 22-H ) :   0.9316
B(  1-C , 23-H ) :   0.9276 B(  2-O ,  3-P ) :   1.1391 B(  3-P ,  4-S ) :   1.6227
B(  3-P ,  5-O ) :   1.0608 B(  3-P ,  8-S ) :   0.9382 B(  4-S ,  8-S ) :   0.1166
B(  5-O ,  6-C ) :   0.9117 B(  6-C ,  7-C ) :   1.1671 B(  6-C , 24-H ) :   0.9345
B(  6-C , 25-H ) :   0.9166 B(  7-C , 26-H ) :   0.9370 B(  7-C , 27-H ) :   0.9359
B(  7-C , 28-H ) :   0.9428 B(  8-S ,  9-C ) :   1.0015 B(  9-C , 10-S ) :   1.0048
B(  9-C , 29-H ) :   0.8426 B(  9-C , 30-H ) :   0.9088 B( 10-S , 11-P ) :   0.9230
B( 10-S , 12-S ) :   0.1090 B( 11-P , 12-S ) :   1.6822 B( 11-P , 13-O ) :   1.0782
B( 11-P , 16-O ) :   1.1173 B( 13-O , 14-C ) :   0.9130 B( 14-C , 15-C ) :   1.1665
B( 14-C , 31-H ) :   0.9333 B( 14-C , 32-H ) :   0.9257 B( 15-C , 33-H ) :   0.9431
B( 15-C , 34-H ) :   0.9349 B( 15-C , 35-H ) :   0.9312 B( 16-O , 17-C ) :   0.8907
B( 17-C , 18-C ) :   1.1717 B( 17-C , 36-H ) :   0.9225 B( 17-C , 37-H ) :   0.9324
B( 18-C , 38-H ) :   0.9370 B( 18-C , 39-H ) :   0.9425 B( 18-C , 40-H ) :   0.9333

Dispersion correction           -0.068945699
FINAL SINGLE POINT ENERGY     -2929.508752307281

DIPOLE MOMENT
-------------

Method             : SCF
Type of density    : Electron Density
Multiplicity       :   1
Irrep              :   0
Energy             : -2929.6264889488470544 Eh
Relativity type    :
Basis              : AO
                                X                 Y                 Z
Electronic contribution:      3.055091537      12.481246922       4.418966447
Nuclear contribution   :     -3.824987482     -14.215800394      -4.920884127
                        -----------------------------------------
Total Dipole Moment    :     -0.769895945      -1.734553471      -0.501917680
                        -----------------------------------------
Magnitude (a.u.)       :      1.962991816
Magnitude (Debye)      :      4.989528672

Rotational constants in cm-1:             0.012624             0.005549             0.005148
Rotational constants in MHz :           378.463596           166.348058           154.344886

                             ****ORCA TERMINATED NORMALLY****
TOTAL RUN TIME: 0 days 0 hours 0 minutes 22 seconds 202 msec
