                         Program Version 6.0.1  -  RELEASE   -
|  1> ! pbe def2-sv(p) def2/J RI DEFGRID1 loosescf d4 GCP(DFT/SV(P)) printgap
|  2> %output
|  3>     printlevel normal
|  4> end
|  5> * xyz 0 1
|  6> C 4.1432014449 -2.7250442182 1.3136782398
|  7> C 4.3721632363 -2.1699809696 -0.0828102321
|  8> O 3.1208284652 -2.0410242969 -0.7881586951
|  9> C 2.4357621224 -0.9286653765 -0.6583386825
| 10> O 2.807324329 0.0474882475 -0.0355687187
| 11> C 1.1034036134 -1.0033293472 -1.3655167467
| 12> C 0.5029056907 0.3898242457 -1.5052810865
| 13> H 0.8902302958 0.9176223825 -2.3775812756
| 14> C 0.7202111346 1.2449484323 -0.2713649304
| 15> O 0.2446173711 0.9503217702 0.809860295
| 16> O 1.3299810681 2.3661346526 -0.5474638401
| 17> C 1.5110956765 3.3212824388 0.519052323
| 18> C 0.275592852 4.194989836 0.6674368989
| 19> S -1.3108928549 0.3401066059 -1.7189162056
| 20> P -2.0069291941 -0.2427247344 0.1891996736
| 21> S -1.2128702335 -1.7360022645 1.1990832787
| 22> O -2.3588714034 1.1175107269 0.9391621341
| 23> C -2.3292885234 1.2214481353 2.3696896256
| 24> O -3.5120441549 -0.6099861771 -0.2398256807
| 25> C -3.8304519245 -1.8372433849 -0.9021100364
| 26> H 3.6331720395 -3.6826760842 1.2572341276
| 27> H 5.0981282506 -2.8540828631 1.8120952259
| 28> H 3.5306208284 -2.037538533 1.8938532953
| 29> H 4.9593657799 -2.8559267603 -0.6931721341
| 30> H 4.8509053718 -1.1876968352 -0.0385889245
| 31> H 0.4675828654 -1.6344155299 -0.7327415578
| 32> H 1.2070706378 -1.4939407081 -2.3315635522
| 33> H 1.7227046913 2.7718194649 1.440162976
| 34> H 2.3817825407 3.9020333389 0.2160290189
| 35> H -0.5881537492 3.5812752374 0.9158928386
| 36> H 0.4380815423 4.9151295006 1.4623053599
| 37> H 0.0760899701 4.7213174916 -0.261818845
| 38> H -1.329653056 0.983257038 2.7344729095
| 39> H -3.0580620483 0.5442919346 2.8137780276
| 40> H -2.5832832238 2.2556239256 2.5881748479
| 41> H -4.9078556699 -1.9489887069 -0.8120621988
| 42> H -3.3183100794 -2.6681408534 -0.4127366408
| 43> H -3.5363940795 -1.7813555919 -1.9497132722
| 44> *
| 45>
| 46>                          ****END OF INPUT****

CARTESIAN COORDINATES (ANGSTROEM)
---------------------------------
  C      4.143201   -2.725044    1.313678
  C      4.372163   -2.169981   -0.082810
  O      3.120828   -2.041024   -0.788159
  C      2.435762   -0.928665   -0.658339
  O      2.807324    0.047488   -0.035569
  C      1.103404   -1.003329   -1.365517
  C      0.502906    0.389824   -1.505281
  H      0.890230    0.917622   -2.377581
  C      0.720211    1.244948   -0.271365
  O      0.244617    0.950322    0.809860
  O      1.329981    2.366135   -0.547464
  C      1.511096    3.321282    0.519052
  C      0.275593    4.194990    0.667437
  S     -1.310893    0.340107   -1.718916
  P     -2.006929   -0.242725    0.189200
  S     -1.212870   -1.736002    1.199083
  O     -2.358871    1.117511    0.939162
  C     -2.329289    1.221448    2.369690
  O     -3.512044   -0.609986   -0.239826
  C     -3.830452   -1.837243   -0.902110
  H      3.633172   -3.682676    1.257234
  H      5.098128   -2.854083    1.812095
  H      3.530621   -2.037539    1.893853
  H      4.959366   -2.855927   -0.693172
  H      4.850905   -1.187697   -0.038589
  H      0.467583   -1.634416   -0.732742
  H      1.207071   -1.493941   -2.331564
  H      1.722705    2.771819    1.440163
  H      2.381783    3.902033    0.216029
  H     -0.588154    3.581275    0.915893
  H      0.438082    4.915130    1.462305
  H      0.076090    4.721317   -0.261819
  H     -1.329653    0.983257    2.734473
  H     -3.058062    0.544292    2.813778
  H     -2.583283    2.255624    2.588175
  H     -4.907856   -1.948989   -0.812062
  H     -3.318310   -2.668141   -0.412737
  H     -3.536394   -1.781356   -1.949713

 Total Charge           Charge          ....    0
 Multiplicity           Mult            ....    1
 Number of Electrons    NEL             ....  174
 Basis Dimension        Dim             ....  316

ORBITAL ENERGIES
----------------

  NO   OCC          E(Eh)            E(eV)
   0   2.0000     -88.039877     -2395.6869
   1   2.0000     -87.972042     -2393.8410
   2   2.0000     -76.419214     -2079.4725
   3   2.0000     -18.808167      -511.7962
   4   2.0000     -18.803375      -511.6658
   5   2.0000     -18.779808      -511.0246
   6   2.0000     -18.776578      -510.9367
   7   2.0000     -18.748030      -510.1598
   8   2.0000     -18.735659      -509.8232
   9   2.0000     -10.016607      -272.5657
  10   2.0000     -10.015934      -272.5474
  11   2.0000      -9.951717      -270.8000
  12   2.0000      -9.946282      -270.6521
  13   2.0000      -9.946043      -270.6456
  14   2.0000      -9.933324      -270.2995
  15   2.0000      -9.932118      -270.2667
  16   2.0000      -9.906582      -269.5718
  17   2.0000      -9.887917      -269.0639
  18   2.0000      -9.884945      -268.9830
  19   2.0000      -7.684834      -209.1150
  20   2.0000      -7.617171      -207.2738
  21   2.0000      -6.415181      -174.5660
  22   2.0000      -5.712834      -155.4541
  23   2.0000      -5.709271      -155.3572
  24   2.0000      -5.701741      -155.1523
  25   2.0000      -5.646295      -153.6435
  26   2.0000      -5.638198      -153.4232
  27   2.0000      -5.636681      -153.3819
  28   2.0000      -4.637553      -126.1942
  29   2.0000      -4.637105      -126.1820
  30   2.0000      -4.636016      -126.1524
  31   2.0000      -1.018726       -27.7210
  32   2.0000      -1.012681       -27.5564
  33   2.0000      -0.971484       -26.4354
  34   2.0000      -0.928943       -25.2778
  35   2.0000      -0.925060       -25.1722
  36   2.0000      -0.915717       -24.9179
  37   2.0000      -0.763140       -20.7661
  38   2.0000      -0.714823       -19.4513
  39   2.0000      -0.703466       -19.1423
  40   2.0000      -0.686415       -18.6783
  41   2.0000      -0.655384       -17.8339
  42   2.0000      -0.623497       -16.9662
  43   2.0000      -0.617340       -16.7987
  44   2.0000      -0.612829       -16.6759
  45   2.0000      -0.598481       -16.2855
  46   2.0000      -0.559873       -15.2349
  47   2.0000      -0.506939       -13.7945
  48   2.0000      -0.503373       -13.6975
  49   2.0000      -0.493931       -13.4406
  50   2.0000      -0.481111       -13.0917
  51   2.0000      -0.460239       -12.5237
  52   2.0000      -0.458083       -12.4651
  53   2.0000      -0.440730       -11.9929
  54   2.0000      -0.433619       -11.7994
  55   2.0000      -0.429287       -11.6815
  56   2.0000      -0.427263       -11.6264
  57   2.0000      -0.418532       -11.3888
  58   2.0000      -0.414602       -11.2819
  59   2.0000      -0.403235       -10.9726
  60   2.0000      -0.399655       -10.8752
  61   2.0000      -0.396279       -10.7833
  62   2.0000      -0.385050       -10.4777
  63   2.0000      -0.381934       -10.3929
  64   2.0000      -0.378263       -10.2931
  65   2.0000      -0.363441        -9.8897
  66   2.0000      -0.356950        -9.7131
  67   2.0000      -0.354837        -9.6556
  68   2.0000      -0.349966        -9.5230
  69   2.0000      -0.337246        -9.1769
  70   2.0000      -0.333418        -9.0728
  71   2.0000      -0.328511        -8.9392
  72   2.0000      -0.323041        -8.7904
  73   2.0000      -0.302815        -8.2400
  74   2.0000      -0.297232        -8.0881
  75   2.0000      -0.294427        -8.0118
  76   2.0000      -0.290171        -7.8959
  77   2.0000      -0.278910        -7.5895
  78   2.0000      -0.271333        -7.3833
  79   2.0000      -0.264975        -7.2103
  80   2.0000      -0.252180        -6.8622
  81   2.0000      -0.245925        -6.6920
  82   2.0000      -0.237139        -6.4529
  83   2.0000      -0.234054        -6.3689
  84   2.0000      -0.221156        -6.0180
  85   2.0000      -0.192759        -5.2452
  86   2.0000      -0.180753        -4.9185
  87   0.0000      -0.047961        -1.3051
  88   0.0000      -0.027525        -0.7490
  89   0.0000      -0.014318        -0.3896
  90   0.0000       0.015626         0.4252
  91   0.0000       0.035488         0.9657

MULLIKEN ATOMIC CHARGES
-----------------------
   0 C :   -0.303967
   1 C :   -0.016849
   2 O :   -0.223714
   3 C :    0.135450
   4 O :   -0.209842
   5 C :   -0.069008
   6 C :   -0.297602
   7 H :    0.129089
   8 C :    0.210392
   9 O :   -0.210991
  10 O :   -0.213156
  11 C :   -0.007141
  12 C :   -0.316551
  13 S :   -0.079166
  14 P :    0.616606
  15 S :   -0.334222
  16 O :   -0.374097
  17 C :   -0.096306
  18 O :   -0.379675
  19 C :   -0.099878
  20 H :    0.119701
  21 H :    0.113480
  22 H :    0.133731
  23 H :    0.105177
  24 H :    0.110685
  25 H :    0.144444
  26 H :    0.117360
  27 H :    0.114321
  28 H :    0.103840
  29 H :    0.137842
  30 H :    0.110857
  31 H :    0.114262
  32 H :    0.137004
  33 H :    0.117725
  34 H :    0.118462
  35 H :    0.120469
  36 H :    0.112708
  37 H :    0.108558
Sum of atomic charges:   -0.0000000

LOEWDIN ATOMIC CHARGES
----------------------
   0 C :   -0.354779
   1 C :   -0.109771
   2 O :   -0.051648
   3 C :    0.047552
   4 O :   -0.155230
   5 C :   -0.265519
   6 C :   -0.256819
   7 H :    0.140355
   8 C :    0.012938
   9 O :   -0.173806
  10 O :   -0.039015
  11 C :   -0.104732
  12 C :   -0.358116
  13 S :    0.119002
  14 P :    0.586182
  15 S :   -0.322047
  16 O :   -0.246438
  17 C :   -0.209221
  18 O :   -0.264477
  19 C :   -0.221363
  20 H :    0.127797
  21 H :    0.130857
  22 H :    0.134172
  23 H :    0.118901
  24 H :    0.120198
  25 H :    0.142151
  26 H :    0.142978
  27 H :    0.123335
  28 H :    0.119079
  29 H :    0.132159
  30 H :    0.129490
  31 H :    0.125689
  32 H :    0.118620
  33 H :    0.111886
  34 H :    0.117450
  35 H :    0.119966
  36 H :    0.105956
  37 H :    0.106264

  Mayer bond orders larger than 0.100000
B(  0-C ,  1-C ) :   1.1757 B(  0-C , 20-H ) :   0.9484 B(  0-C , 21-H ) :   0.9437
B(  0-C , 22-H ) :   0.9450 B(  1-C ,  2-O ) :   0.9088 B(  1-C , 23-H ) :   0.9367
B(  1-C , 24-H ) :   0.9135 B(  2-O ,  3-C ) :   1.2543 B(  3-C ,  4-O ) :   1.9595
B(  3-C ,  5-C ) :   1.0167 B(  4-O ,  8-C ) :   0.1251 B(  5-C ,  6-C ) :   1.0070
B(  5-C , 25-H ) :   0.8308 B(  5-C , 26-H ) :   0.8993 B(  6-C ,  7-H ) :   0.8824
B(  6-C ,  8-C ) :   0.9007 B(  6-C , 13-S ) :   1.0133 B(  8-C ,  9-O ) :   1.9158
B(  8-C , 10-O ) :   1.2722 B(  9-O , 14-P ) :   0.1106 B( 10-O , 11-C ) :   0.9089
B( 11-C , 12-C ) :   1.1713 B( 11-C , 27-H ) :   0.9159 B( 11-C , 28-H ) :   0.9380
B( 12-C , 29-H ) :   0.9385 B( 12-C , 30-H ) :   0.9437 B( 12-C , 31-H ) :   0.9473
B( 13-S , 14-P ) :   0.9633 B( 13-S , 15-S ) :   0.1183 B( 14-P , 15-S ) :   1.5660
B( 14-P , 16-O ) :   1.1108 B( 14-P , 18-O ) :   1.0778 B( 15-S , 25-H ) :   0.1097
B( 16-O , 17-C ) :   0.9152 B( 17-C , 32-H ) :   0.9391 B( 17-C , 33-H ) :   0.9513
B( 17-C , 34-H ) :   0.9550 B( 18-O , 19-C ) :   0.9399 B( 19-C , 35-H ) :   0.9596
B( 19-C , 36-H ) :   0.9279 B( 19-C , 37-H ) :   0.9490

Dispersion correction           -0.052196910
FINAL SINGLE POINT ENERGY     -1979.013601663285

DIPOLE MOMENT
-------------

Method             : SCF
Type of density    : Electron Density
Multiplicity       :   1
Irrep              :   0
Energy             : -1979.1452799844405490 Eh
Relativity type    :
Basis              : AO
                                X                 Y                 Z
Electronic contribution:    -10.351793537      -2.307222681      -7.234630133
Nuclear contribution   :     11.210246944       2.580670185       6.906861240
                        -----------------------------------------
Total Dipole Moment    :      0.858453407       0.273447504      -0.327768893
                        -----------------------------------------
Magnitude (a.u.)       :      0.958722190
Magnitude (Debye)      :      2.436878145

Rotational constants in cm-1:             0.012076             0.007553             0.005929
Rotational constants in MHz :           362.026108           226.443379           177.741966

                             ****ORCA TERMINATED NORMALLY****
TOTAL RUN TIME: 0 days 0 hours 0 minutes 43 seconds 873 msec
