                         Program Version 6.0.1  -  RELEASE   -
|  1> ! pbe def2-sv(p) def2/J RI DEFGRID1 loosescf d4 GCP(DFT/SV(P)) printgap
|  2> %output
|  3>     printlevel normal
|  4> end
|  5> * xyz 0 1
|  6> C 4.8361827416 -3.1356122212 -1.7588563044
|  7> C 4.9484427474 -2.1021617018 -0.6495203078
|  8> O 3.7476141076 -2.0720327877 0.1473820791
|  9> C 2.7597514891 -1.2865872012 -0.2261363138
| 10> O 2.7851234395 -0.5549412016 -1.194739031
| 11> C 1.5824202976 -1.3866803504 0.7213275374
| 12> C 0.4198454103 -0.605805295 0.1400846288
| 13> H 0.0481273095 -1.0512878468 -0.7889694215
| 14> C 0.7354480048 0.8494517411 -0.1323686688
| 15> O 0.1208321649 1.4969855434 -0.9551603844
| 16> O 1.6531494962 1.3320859429 0.6735330003
| 17> C 1.9835446051 2.7316605554 0.5644846239
| 18> C 0.9557360931 3.5958564997 1.276807739
| 19> S -0.9849204036 -0.5286991535 1.3018556051
| 20> P -2.4333773526 0.2150903823 -0.0742399451
| 21> S -2.3150546097 -0.4521558626 -1.9077195689
| 22> O -3.7908771575 -0.175750652 0.6741566861
| 23> C -4.2271710931 -1.5385223991 0.7481418989
| 24> O -2.4781213243 1.7886002924 0.074386878
| 25> C -2.8003686988 2.4160154175 1.3339182155
| 26> H 4.0451899218 -2.8564627601 -2.4517300309
| 27> H 5.7752479045 -3.1852001058 -2.2999966961
| 28> H 4.6114084766 -4.112206809 -1.3394628311
| 29> H 5.1173544068 -1.1046376432 -1.0648052473
| 30> H 5.7368229077 -2.361325604 0.0571142124
| 31> H 1.880296068 -0.9721325832 1.6861908057
| 32> H 1.3160195146 -2.4333463672 0.8664137171
| 33> H 2.9660569685 2.8073089322 1.0299975669
| 34> H 2.0429030362 2.9898127444 -0.4966291878
| 35> H 0.8512894811 3.2787501563 2.3108764166
| 36> H 1.278925829 4.63101664 1.2482205226
| 37> H -0.0056730145 3.5130693855 0.774920111
| 38> H -3.6280964745 -2.0766286829 1.481825196
| 39> H -4.1376183733 -2.0134138216 -0.2299924759
| 40> H -5.2683067237 -1.4956675377 1.0570904823
| 41> H -2.165761487 2.0157097553 2.1254561559
| 42> H -3.8473292948 2.2405529999 1.571928718
| 43> H -2.6108789444 3.4755964398 1.1818612522
| 44> *
| 45>
| 46>                          ****END OF INPUT****

CARTESIAN COORDINATES (ANGSTROEM)
---------------------------------
  C      4.836183   -3.135612   -1.758856
  C      4.948443   -2.102162   -0.649520
  O      3.747614   -2.072033    0.147382
  C      2.759751   -1.286587   -0.226136
  O      2.785123   -0.554941   -1.194739
  C      1.582420   -1.386680    0.721328
  C      0.419845   -0.605805    0.140085
  H      0.048127   -1.051288   -0.788969
  C      0.735448    0.849452   -0.132369
  O      0.120832    1.496986   -0.955160
  O      1.653149    1.332086    0.673533
  C      1.983545    2.731661    0.564485
  C      0.955736    3.595856    1.276808
  S     -0.984920   -0.528699    1.301856
  P     -2.433377    0.215090   -0.074240
  S     -2.315055   -0.452156   -1.907720
  O     -3.790877   -0.175751    0.674157
  C     -4.227171   -1.538522    0.748142
  O     -2.478121    1.788600    0.074387
  C     -2.800369    2.416015    1.333918
  H      4.045190   -2.856463   -2.451730
  H      5.775248   -3.185200   -2.299997
  H      4.611408   -4.112207   -1.339463
  H      5.117354   -1.104638   -1.064805
  H      5.736823   -2.361326    0.057114
  H      1.880296   -0.972133    1.686191
  H      1.316020   -2.433346    0.866414
  H      2.966057    2.807309    1.029998
  H      2.042903    2.989813   -0.496629
  H      0.851289    3.278750    2.310876
  H      1.278926    4.631017    1.248221
  H     -0.005673    3.513069    0.774920
  H     -3.628096   -2.076629    1.481825
  H     -4.137618   -2.013414   -0.229992
  H     -5.268307   -1.495668    1.057090
  H     -2.165761    2.015710    2.125456
  H     -3.847329    2.240553    1.571929
  H     -2.610879    3.475596    1.181861

 Total Charge           Charge          ....    0
 Multiplicity           Mult            ....    1
 Number of Electrons    NEL             ....  174
 Basis Dimension        Dim             ....  316

ORBITAL ENERGIES
----------------

  NO   OCC          E(Eh)            E(eV)
   0   2.0000     -88.041600     -2395.7337
   1   2.0000     -87.974819     -2393.9165
   2   2.0000     -76.420041     -2079.4950
   3   2.0000     -18.809954      -511.8449
   4   2.0000     -18.800401      -511.5849
   5   2.0000     -18.790544      -511.3167
   6   2.0000     -18.788283      -511.2552
   7   2.0000     -18.747480      -510.1449
   8   2.0000     -18.722965      -509.4778
   9   2.0000     -10.018825      -272.6261
  10   2.0000     -10.004582      -272.2385
  11   2.0000      -9.954142      -270.8660
  12   2.0000      -9.946594      -270.6606
  13   2.0000      -9.946354      -270.6541
  14   2.0000      -9.943088      -270.5652
  15   2.0000      -9.937714      -270.4189
  16   2.0000      -9.915203      -269.8064
  17   2.0000      -9.891629      -269.1649
  18   2.0000      -9.885263      -268.9917
  19   2.0000      -7.685940      -209.1451
  20   2.0000      -7.620156      -207.3550
  21   2.0000      -6.417256      -174.6224
  22   2.0000      -5.713462      -155.4712
  23   2.0000      -5.710562      -155.3923
  24   2.0000      -5.703290      -155.1944
  25   2.0000      -5.649356      -153.7268
  26   2.0000      -5.640587      -153.4882
  27   2.0000      -5.640171      -153.4769
  28   2.0000      -4.640126      -126.2642
  29   2.0000      -4.639137      -126.2373
  30   2.0000      -4.637382      -126.1896
  31   2.0000      -1.018595       -27.7174
  32   2.0000      -1.006990       -27.4016
  33   2.0000      -0.984186       -26.7811
  34   2.0000      -0.939120       -25.5548
  35   2.0000      -0.923967       -25.1424
  36   2.0000      -0.905877       -24.6502
  37   2.0000      -0.764728       -20.8093
  38   2.0000      -0.717373       -19.5207
  39   2.0000      -0.702424       -19.1139
  40   2.0000      -0.689912       -18.7735
  41   2.0000      -0.661605       -18.0032
  42   2.0000      -0.635764       -17.3000
  43   2.0000      -0.619130       -16.8474
  44   2.0000      -0.611627       -16.6432
  45   2.0000      -0.598539       -16.2871
  46   2.0000      -0.563683       -15.3386
  47   2.0000      -0.512604       -13.9487
  48   2.0000      -0.505890       -13.7660
  49   2.0000      -0.493505       -13.4289
  50   2.0000      -0.475297       -12.9335
  51   2.0000      -0.472863       -12.8672
  52   2.0000      -0.464040       -12.6272
  53   2.0000      -0.442859       -12.0508
  54   2.0000      -0.432714       -11.7747
  55   2.0000      -0.431146       -11.7321
  56   2.0000      -0.427261       -11.6264
  57   2.0000      -0.423851       -11.5336
  58   2.0000      -0.412442       -11.2231
  59   2.0000      -0.409594       -11.1456
  60   2.0000      -0.401164       -10.9162
  61   2.0000      -0.399015       -10.8578
  62   2.0000      -0.390559       -10.6277
  63   2.0000      -0.385623       -10.4933
  64   2.0000      -0.374722       -10.1967
  65   2.0000      -0.367667       -10.0047
  66   2.0000      -0.358697        -9.7606
  67   2.0000      -0.350651        -9.5417
  68   2.0000      -0.349337        -9.5059
  69   2.0000      -0.336982        -9.1698
  70   2.0000      -0.334121        -9.0919
  71   2.0000      -0.330663        -8.9978
  72   2.0000      -0.324978        -8.8431
  73   2.0000      -0.310611        -8.4522
  74   2.0000      -0.301611        -8.2073
  75   2.0000      -0.299621        -8.1531
  76   2.0000      -0.295259        -8.0344
  77   2.0000      -0.291167        -7.9231
  78   2.0000      -0.269764        -7.3406
  79   2.0000      -0.267548        -7.2803
  80   2.0000      -0.258260        -7.0276
  81   2.0000      -0.249664        -6.7937
  82   2.0000      -0.233542        -6.3550
  83   2.0000      -0.230923        -6.2837
  84   2.0000      -0.216787        -5.8991
  85   2.0000      -0.193979        -5.2784
  86   2.0000      -0.183825        -5.0021
  87   0.0000      -0.045614        -1.2412
  88   0.0000      -0.029051        -0.7905
  89   0.0000      -0.009971        -0.2713
  90   0.0000       0.019519         0.5311
  91   0.0000       0.020983         0.5710

MULLIKEN ATOMIC CHARGES
-----------------------
   0 C :   -0.305430
   1 C :   -0.013598
   2 O :   -0.228906
   3 C :    0.121804
   4 O :   -0.200186
   5 C :   -0.036572
   6 C :   -0.342975
   7 H :    0.156762
   8 C :    0.209186
   9 O :   -0.183615
  10 O :   -0.239244
  11 C :   -0.002124
  12 C :   -0.329461
  13 S :   -0.118481
  14 P :    0.618478
  15 S :   -0.285158
  16 O :   -0.394691
  17 C :   -0.099556
  18 O :   -0.354934
  19 C :   -0.110270
  20 H :    0.131052
  21 H :    0.115916
  22 H :    0.115666
  23 H :    0.112141
  24 H :    0.105144
  25 H :    0.122186
  26 H :    0.119899
  27 H :    0.098359
  28 H :    0.115525
  29 H :    0.110046
  30 H :    0.111718
  31 H :    0.146853
  32 H :    0.113664
  33 H :    0.118604
  34 H :    0.124344
  35 H :    0.113342
  36 H :    0.128203
  37 H :    0.136308
Sum of atomic charges:   -0.0000000

LOEWDIN ATOMIC CHARGES
----------------------
   0 C :   -0.355219
   1 C :   -0.109479
   2 O :   -0.057193
   3 C :    0.042001
   4 O :   -0.154547
   5 C :   -0.255879
   6 C :   -0.266021
   7 H :    0.138428
   8 C :    0.000959
   9 O :   -0.156086
  10 O :   -0.056912
  11 C :   -0.104614
  12 C :   -0.361520
  13 S :    0.088385
  14 P :    0.577824
  15 S :   -0.287585
  16 O :   -0.261273
  17 C :   -0.216546
  18 O :   -0.231723
  19 C :   -0.211135
  20 H :    0.132494
  21 H :    0.132223
  22 H :    0.125653
  23 H :    0.121423
  24 H :    0.118981
  25 H :    0.146532
  26 H :    0.144077
  27 H :    0.116098
  28 H :    0.124821
  29 H :    0.122514
  30 H :    0.130379
  31 H :    0.133082
  32 H :    0.108678
  33 H :    0.111667
  34 H :    0.121972
  35 H :    0.106372
  36 H :    0.116864
  37 H :    0.124308

  Mayer bond orders larger than 0.100000
B(  0-C ,  1-C ) :   1.1748 B(  0-C , 20-H ) :   0.9465 B(  0-C , 21-H ) :   0.9438
B(  0-C , 22-H ) :   0.9488 B(  1-C ,  2-O ) :   0.9098 B(  1-C , 23-H ) :   0.9139
B(  1-C , 24-H ) :   0.9368 B(  2-O ,  3-C ) :   1.2478 B(  3-C ,  4-O ) :   2.0131
B(  3-C ,  5-C ) :   1.0155 B(  5-C ,  6-C ) :   1.0335 B(  5-C , 25-H ) :   0.8703
B(  5-C , 26-H ) :   0.8886 B(  6-C ,  7-H ) :   0.8556 B(  6-C ,  8-C ) :   0.8994
B(  6-C , 13-S ) :   1.0266 B(  8-C ,  9-O ) :   2.0158 B(  8-C , 10-O ) :   1.2287
B( 10-O , 11-C ) :   0.9156 B( 11-C , 12-C ) :   1.1734 B( 11-C , 27-H ) :   0.9388
B( 11-C , 28-H ) :   0.9172 B( 12-C , 29-H ) :   0.9467 B( 12-C , 30-H ) :   0.9421
B( 12-C , 31-H ) :   0.9329 B( 13-S , 14-P ) :   0.9350 B( 13-S , 15-S ) :   0.1153
B( 14-P , 15-S ) :   1.6739 B( 14-P , 16-O ) :   1.0597 B( 14-P , 18-O ) :   1.1222
B( 16-O , 17-C ) :   0.9316 B( 17-C , 32-H ) :   0.9493 B( 17-C , 33-H ) :   0.9318
B( 17-C , 34-H ) :   0.9586 B( 18-O , 19-C ) :   0.9185 B( 19-C , 35-H ) :   0.9364
B( 19-C , 36-H ) :   0.9481 B( 19-C , 37-H ) :   0.9517

Dispersion correction           -0.050863357
FINAL SINGLE POINT ENERGY     -1979.017193628633

DIPOLE MOMENT
-------------

Method             : SCF
Type of density    : Electron Density
Multiplicity       :   1
Irrep              :   0
Energy             : -1979.1490601908462850 Eh
Relativity type    :
Basis              : AO
                                X                 Y                 Z
Electronic contribution:    -14.505865026      -1.409505736      -4.516497142
Nuclear contribution   :     15.439953735       1.072868225       6.380078089
                        -----------------------------------------
Total Dipole Moment    :      0.934088708      -0.336637512       1.863580947
                        -----------------------------------------
Magnitude (a.u.)       :      2.111582458
Magnitude (Debye)      :      5.367216068

Rotational constants in cm-1:             0.014939             0.005890             0.004939
Rotational constants in MHz :           447.849627           176.585589           148.067828

                             ****ORCA TERMINATED NORMALLY****
TOTAL RUN TIME: 0 days 0 hours 0 minutes 43 seconds 115 msec
