                         Program Version 6.0.0  -   RELEASE  -
|  1> ! r2scan-3c def2/J RI DEFGRID2 scfconv6 printgap
|  2> %output
|  3>     printlevel normal
|  4> end
|  5> * xyz 0 1
|  6> C 4.7521049035 -1.3169913367 -1.1549575405
|  7> C 4.7465867656 0.0690471347 -0.5435134968
|  8> O 3.5971526251 0.2860742118 0.293443716
|  9> P 2.1196140257 0.39300486 -0.2912471294
| 10> S 2.0301967198 1.337494338 -2.0120296731
| 11> O 1.3708742299 1.0252964689 0.9527873838
| 12> C 1.492313423 2.4308386628 1.2610476437
| 13> C 0.6819837685 2.6955340492 2.5116554134
| 14> S 1.3842363621 -1.5678709944 -0.2060593534
| 15> C 0.1216223945 -1.5081759443 -1.5273056409
| 16> S -1.5372246925 -1.8678433857 -0.9168635919
| 17> P -1.8761493719 -0.0709395226 0.1711305284
| 18> S -1.3174043341 1.5747516012 -0.7349355116
| 19> O -1.2269518916 -0.2208988239 1.5938369213
| 20> C -1.1571926223 -1.4268264898 2.3979054246
| 21> C -2.5100693175 -2.0594267187 2.6368886384
| 22> O -3.4316511315 -0.1375615626 0.4792301796
| 23> C -4.4110606909 0.0934439847 -0.5520444442
| 24> C -5.7314327588 0.4079798168 0.1215234118
| 25> H 4.6283393581 -2.0718771043 -0.3826403793
| 26> H 3.9372033477 -1.4081035011 -1.8718832195
| 27> H 5.693357987 -1.4769276107 -1.6708169903
| 28> H 4.7515073366 0.8343614743 -1.3262830632
| 29> H 5.5914233782 0.217996334 0.130173369
| 30> H 2.550582454 2.6651013051 1.4048922357
| 31> H 1.1092651567 3.0003832385 0.4071070892
| 32> H 0.7342933258 3.7519122831 2.7538063548
| 33> H -0.3546704519 2.4160272827 2.3388450398
| 34> H 1.0726413348 2.1100486951 3.3386615844
| 35> H 0.3532173173 -2.2863423967 -2.2497078785
| 36> H 0.146341635 -0.5173106054 -1.9896580646
| 37> H -0.4769894238 -2.1267068928 1.9038795564
| 38> H -0.7058149993 -1.0735947072 3.3261943848
| 39> H -2.9166626092 -2.4493276202 1.7061803238
| 40> H -2.3939893541 -2.877613226 3.3410716839
| 41> H -3.2014511094 -1.3272320728 3.0454986467
| 42> H -4.0709954198 0.925648443 -1.1779089531
| 43> H -4.4788551811 -0.8095626615 -1.1643670614
| 44> H -5.633644716 1.2987673331 0.735675127
| 45> H -6.4865358532 0.5785692623 -0.6386763928
| 46> H -6.0347260571 -0.4234153563 0.7507815753
| 47> *
| 48>
| 49>                          ****END OF INPUT****

CARTESIAN COORDINATES (ANGSTROEM)
---------------------------------
  C      4.752105   -1.316991   -1.154958
  C      4.746587    0.069047   -0.543513
  O      3.597153    0.286074    0.293444
  P      2.119614    0.393005   -0.291247
  S      2.030197    1.337494   -2.012030
  O      1.370874    1.025296    0.952787
  C      1.492313    2.430839    1.261048
  C      0.681984    2.695534    2.511655
  S      1.384236   -1.567871   -0.206059
  C      0.121622   -1.508176   -1.527306
  S     -1.537225   -1.867843   -0.916864
  P     -1.876149   -0.070940    0.171131
  S     -1.317404    1.574752   -0.734936
  O     -1.226952   -0.220899    1.593837
  C     -1.157193   -1.426826    2.397905
  C     -2.510069   -2.059427    2.636889
  O     -3.431651   -0.137562    0.479230
  C     -4.411061    0.093444   -0.552044
  C     -5.731433    0.407980    0.121523
  H      4.628339   -2.071877   -0.382640
  H      3.937203   -1.408104   -1.871883
  H      5.693358   -1.476928   -1.670817
  H      4.751507    0.834361   -1.326283
  H      5.591423    0.217996    0.130173
  H      2.550582    2.665101    1.404892
  H      1.109265    3.000383    0.407107
  H      0.734293    3.751912    2.753806
  H     -0.354670    2.416027    2.338845
  H      1.072641    2.110049    3.338662
  H      0.353217   -2.286342   -2.249708
  H      0.146342   -0.517311   -1.989658
  H     -0.476989   -2.126707    1.903880
  H     -0.705815   -1.073595    3.326194
  H     -2.916663   -2.449328    1.706180
  H     -2.393989   -2.877613    3.341072
  H     -3.201451   -1.327232    3.045499
  H     -4.070995    0.925648   -1.177909
  H     -4.478855   -0.809563   -1.164367
  H     -5.633645    1.298767    0.735675
  H     -6.486536    0.578569   -0.638676
  H     -6.034726   -0.423415    0.750782

 Total Charge           Charge          ....    0
 Multiplicity           Mult            ....    1
 Number of Electrons    NEL             ....  202
 Basis Dimension        Dim             ....  539

ORBITAL ENERGIES
----------------

  NO   OCC          E(Eh)            E(eV)
   0   2.0000     -88.577963     -2410.3289
   1   2.0000     -88.575372     -2410.2584
   2   2.0000     -88.512755     -2408.5545
   3   2.0000     -88.510429     -2408.4912
   4   2.0000     -76.911122     -2092.8580
   5   2.0000     -76.907226     -2092.7520
   6   2.0000     -18.990754      -516.7647
   7   2.0000     -18.990072      -516.7461
   8   2.0000     -18.986195      -516.6406
   9   2.0000     -18.977262      -516.3976
  10   2.0000     -10.107742      -275.0457
  11   2.0000     -10.100339      -274.8442
  12   2.0000     -10.097431      -274.7651
  13   2.0000     -10.092951      -274.6432
  14   2.0000     -10.085055      -274.4283
  15   2.0000     -10.032737      -273.0046
  16   2.0000     -10.032022      -272.9852
  17   2.0000     -10.025220      -272.8001
  18   2.0000     -10.018584      -272.6195
  19   2.0000      -7.872423      -214.2195
  20   2.0000      -7.870167      -214.1581
  21   2.0000      -7.807438      -212.4512
  22   2.0000      -7.805266      -212.3921
  23   2.0000      -6.589484      -179.3090
  24   2.0000      -6.585795      -179.2086
  25   2.0000      -5.819283      -158.3507
  26   2.0000      -5.816963      -158.2876
  27   2.0000      -5.816013      -158.2618
  28   2.0000      -5.814019      -158.2075
  29   2.0000      -5.809800      -158.0927
  30   2.0000      -5.807262      -158.0236
  31   2.0000      -5.755088      -156.6039
  32   2.0000      -5.753032      -156.5480
  33   2.0000      -5.747965      -156.4101
  34   2.0000      -5.747207      -156.3894
  35   2.0000      -5.745540      -156.3441
  36   2.0000      -5.745145      -156.3334
  37   2.0000      -4.735207      -128.8515
  38   2.0000      -4.734697      -128.8377
  39   2.0000      -4.732744      -128.7845
  40   2.0000      -4.731205      -128.7426
  41   2.0000      -4.730624      -128.7268
  42   2.0000      -4.729685      -128.7013
  43   2.0000      -1.049111       -28.5478
  44   2.0000      -1.041887       -28.3512
  45   2.0000      -1.009790       -27.4778
  46   2.0000      -1.000288       -27.2192
  47   2.0000      -0.800817       -21.7913
  48   2.0000      -0.757767       -20.6199
  49   2.0000      -0.746991       -20.3267
  50   2.0000      -0.736262       -20.0347
  51   2.0000      -0.724814       -19.7232
  52   2.0000      -0.709389       -19.3035
  53   2.0000      -0.681074       -18.5330
  54   2.0000      -0.660760       -17.9802
  55   2.0000      -0.626188       -17.0394
  56   2.0000      -0.621759       -16.9189
  57   2.0000      -0.601846       -16.3771
  58   2.0000      -0.598578       -16.2881
  59   2.0000      -0.588210       -16.0060
  60   2.0000      -0.527278       -14.3480
  61   2.0000      -0.520097       -14.1525
  62   2.0000      -0.495124       -13.4730
  63   2.0000      -0.485634       -13.2148
  64   2.0000      -0.468841       -12.7578
  65   2.0000      -0.463665       -12.6170
  66   2.0000      -0.453813       -12.3489
  67   2.0000      -0.451933       -12.2977
  68   2.0000      -0.442340       -12.0367
  69   2.0000      -0.436109       -11.8671
  70   2.0000      -0.427621       -11.6362
  71   2.0000      -0.417555       -11.3623
  72   2.0000      -0.405080       -11.0228
  73   2.0000      -0.400795       -10.9062
  74   2.0000      -0.392020       -10.6674
  75   2.0000      -0.382824       -10.4172
  76   2.0000      -0.378228       -10.2921
  77   2.0000      -0.371192       -10.1006
  78   2.0000      -0.365557        -9.9473
  79   2.0000      -0.364558        -9.9201
  80   2.0000      -0.362855        -9.8738
  81   2.0000      -0.358947        -9.7674
  82   2.0000      -0.351129        -9.5547
  83   2.0000      -0.347772        -9.4634
  84   2.0000      -0.338864        -9.2210
  85   2.0000      -0.327145        -8.9021
  86   2.0000      -0.322949        -8.7879
  87   2.0000      -0.313550        -8.5321
  88   2.0000      -0.308927        -8.4063
  89   2.0000      -0.304742        -8.2925
  90   2.0000      -0.294703        -8.0193
  91   2.0000      -0.287589        -7.8257
  92   2.0000      -0.277375        -7.5478
  93   2.0000      -0.274057        -7.4575
  94   2.0000      -0.271105        -7.3771
  95   2.0000      -0.251472        -6.8429
  96   2.0000      -0.232864        -6.3365
  97   2.0000      -0.225014        -6.1229
  98   2.0000      -0.213985        -5.8228
  99   2.0000      -0.204223        -5.5572
 100   2.0000      -0.194537        -5.2936
 101   0.0000      -0.044604        -1.2137
 102   0.0000      -0.031874        -0.8673
 103   0.0000      -0.008349        -0.2272
 104   0.0000       0.016953         0.4613
 105   0.0000       0.019205         0.5226

MULLIKEN ATOMIC CHARGES
-----------------------
   0 C :   -0.447155
   1 C :   -0.156286
   2 O :   -0.311223
   3 P :    0.659722
   4 S :   -0.462211
   5 O :   -0.250837
   6 C :   -0.127550
   7 C :   -0.468462
   8 S :   -0.135401
   9 C :   -0.221471
  10 S :   -0.174330
  11 P :    0.676862
  12 S :   -0.431552
  13 O :   -0.256296
  14 C :   -0.143018
  15 C :   -0.439282
  16 O :   -0.274071
  17 C :   -0.166568
  18 C :   -0.440750
  19 H :    0.153292
  20 H :    0.173180
  21 H :    0.146520
  22 H :    0.174983
  23 H :    0.145736
  24 H :    0.145439
  25 H :    0.175203
  26 H :    0.142464
  27 H :    0.178954
  28 H :    0.145276
  29 H :    0.195181
  30 H :    0.220672
  31 H :    0.167880
  32 H :    0.154248
  33 H :    0.160000
  34 H :    0.149334
  35 H :    0.160782
  36 H :    0.175588
  37 H :    0.148437
  38 H :    0.159490
  39 H :    0.147147
  40 H :    0.150075
Sum of atomic charges:   -0.0000000

LOEWDIN ATOMIC CHARGES
----------------------
   0 C :   -0.407964
   1 C :    0.017167
   2 O :   -0.666212
   3 P :    0.368653
   4 S :   -0.125641
   5 O :   -0.677233
   6 C :    0.017697
   7 C :   -0.389420
   8 S :    0.167787
   9 C :   -0.411492
  10 S :    0.125603
  11 P :    0.378613
  12 S :   -0.072094
  13 O :   -0.648624
  14 C :    0.021887
  15 C :   -0.400704
  16 O :   -0.674548
  17 C :    0.017951
  18 C :   -0.385750
  19 H :    0.159466
  20 H :    0.164102
  21 H :    0.158341
  22 H :    0.180463
  23 H :    0.178180
  24 H :    0.170321
  25 H :    0.183000
  26 H :    0.157777
  27 H :    0.170143
  28 H :    0.156430
  29 H :    0.180247
  30 H :    0.203646
  31 H :    0.178697
  32 H :    0.183607
  33 H :    0.162847
  34 H :    0.159687
  35 H :    0.164100
  36 H :    0.182738
  37 H :    0.170336
  38 H :    0.162110
  39 H :    0.160121
  40 H :    0.157967

  Mayer bond orders larger than 0.100000
B(  0-C ,  1-C ) :   0.9202 B(  0-C , 19-H ) :   0.9680 B(  0-C , 20-H ) :   0.9652
B(  0-C , 21-H ) :   0.9599 B(  1-C ,  2-O ) :   0.8265 B(  1-C , 22-H ) :   0.9670
B(  1-C , 23-H ) :   0.9593 B(  2-O ,  3-P ) :   1.0544 B(  3-P ,  4-S ) :   1.7573
B(  3-P ,  5-O ) :   1.1874 B(  3-P ,  8-S ) :   1.1209 B(  5-O ,  6-C ) :   0.7651
B(  6-C ,  7-C ) :   0.9349 B(  6-C , 24-H ) :   0.9446 B(  6-C , 25-H ) :   0.9493
B(  7-C , 26-H ) :   0.9666 B(  7-C , 27-H ) :   0.9691 B(  7-C , 28-H ) :   0.9736
B(  8-S ,  9-C ) :   0.8902 B(  9-C , 10-S ) :   0.9172 B(  9-C , 29-H ) :   0.9132
B(  9-C , 30-H ) :   0.9038 B( 10-S , 11-P ) :   0.9770 B( 11-P , 12-S ) :   1.8250
B( 11-P , 13-O ) :   1.1606 B( 11-P , 16-O ) :   1.0550 B( 13-O , 14-C ) :   0.7969
B( 14-C , 15-C ) :   0.9178 B( 14-C , 31-H ) :   0.9609 B( 14-C , 32-H ) :   0.9596
B( 15-C , 33-H ) :   0.9622 B( 15-C , 34-H ) :   0.9577 B( 15-C , 35-H ) :   0.9697
B( 16-O , 17-C ) :   0.7820 B( 17-C , 18-C ) :   0.9569 B( 17-C , 36-H ) :   0.9502
B( 17-C , 37-H ) :   0.9436 B( 18-C , 38-H ) :   0.9717 B( 18-C , 39-H ) :   0.9642
B( 18-C , 40-H ) :   0.9719

Dispersion correction           -0.022153906
FINAL SINGLE POINT ENERGY     -2932.458561392452

DIPOLE MOMENT
-------------

Method             : SCF
Type of density    : Electron Density
Multiplicity       :   1
Irrep              :   0
Energy             : -2932.4829198876623195 Eh
Relativity type    :
Basis              : AO
                                X                 Y                 Z
Electronic contribution:      5.766762597       0.161856852     -11.219342649
Nuclear contribution   :     -6.032842294      -1.242829432      12.193444343
                        -----------------------------------------
Total Dipole Moment    :     -0.266079697      -1.080972580       0.974101694
                        -----------------------------------------
Magnitude (a.u.)       :      1.479247861
Magnitude (Debye)      :      3.759949254

Rotational constants in cm-1:             0.013131             0.005188             0.004960
Rotational constants in MHz :           393.643841           155.539069           148.690194

                             ****ORCA TERMINATED NORMALLY****
TOTAL RUN TIME: 0 days 0 hours 1 minutes 21 seconds 931 msec
