                         Program Version 6.0.0  -   RELEASE  -
|  1> ! r2scan-3c def2/J RI DEFGRID2 scfconv6 printgap
|  2> %output
|  3>     printlevel normal
|  4> end
|  5> %cpcm
|  6>     smd true
|  7>     smdsolvent "water"
|  8> end
|  9> * xyz 0 1
| 10> C 4.7521049035 -1.3169913367 -1.1549575405
| 11> C 4.7465867656 0.0690471347 -0.5435134968
| 12> O 3.5971526251 0.2860742118 0.293443716
| 13> P 2.1196140257 0.39300486 -0.2912471294
| 14> S 2.0301967198 1.337494338 -2.0120296731
| 15> O 1.3708742299 1.0252964689 0.9527873838
| 16> C 1.492313423 2.4308386628 1.2610476437
| 17> C 0.6819837685 2.6955340492 2.5116554134
| 18> S 1.3842363621 -1.5678709944 -0.2060593534
| 19> C 0.1216223945 -1.5081759443 -1.5273056409
| 20> S -1.5372246925 -1.8678433857 -0.9168635919
| 21> P -1.8761493719 -0.0709395226 0.1711305284
| 22> S -1.3174043341 1.5747516012 -0.7349355116
| 23> O -1.2269518916 -0.2208988239 1.5938369213
| 24> C -1.1571926223 -1.4268264898 2.3979054246
| 25> C -2.5100693175 -2.0594267187 2.6368886384
| 26> O -3.4316511315 -0.1375615626 0.4792301796
| 27> C -4.4110606909 0.0934439847 -0.5520444442
| 28> C -5.7314327588 0.4079798168 0.1215234118
| 29> H 4.6283393581 -2.0718771043 -0.3826403793
| 30> H 3.9372033477 -1.4081035011 -1.8718832195
| 31> H 5.693357987 -1.4769276107 -1.6708169903
| 32> H 4.7515073366 0.8343614743 -1.3262830632
| 33> H 5.5914233782 0.217996334 0.130173369
| 34> H 2.550582454 2.6651013051 1.4048922357
| 35> H 1.1092651567 3.0003832385 0.4071070892
| 36> H 0.7342933258 3.7519122831 2.7538063548
| 37> H -0.3546704519 2.4160272827 2.3388450398
| 38> H 1.0726413348 2.1100486951 3.3386615844
| 39> H 0.3532173173 -2.2863423967 -2.2497078785
| 40> H 0.146341635 -0.5173106054 -1.9896580646
| 41> H -0.4769894238 -2.1267068928 1.9038795564
| 42> H -0.7058149993 -1.0735947072 3.3261943848
| 43> H -2.9166626092 -2.4493276202 1.7061803238
| 44> H -2.3939893541 -2.877613226 3.3410716839
| 45> H -3.2014511094 -1.3272320728 3.0454986467
| 46> H -4.0709954198 0.925648443 -1.1779089531
| 47> H -4.4788551811 -0.8095626615 -1.1643670614
| 48> H -5.633644716 1.2987673331 0.735675127
| 49> H -6.4865358532 0.5785692623 -0.6386763928
| 50> H -6.0347260571 -0.4234153563 0.7507815753
| 51> *
| 52>
| 53>                          ****END OF INPUT****

CARTESIAN COORDINATES (ANGSTROEM)
---------------------------------
  C      4.752105   -1.316991   -1.154958
  C      4.746587    0.069047   -0.543513
  O      3.597153    0.286074    0.293444
  P      2.119614    0.393005   -0.291247
  S      2.030197    1.337494   -2.012030
  O      1.370874    1.025296    0.952787
  C      1.492313    2.430839    1.261048
  C      0.681984    2.695534    2.511655
  S      1.384236   -1.567871   -0.206059
  C      0.121622   -1.508176   -1.527306
  S     -1.537225   -1.867843   -0.916864
  P     -1.876149   -0.070940    0.171131
  S     -1.317404    1.574752   -0.734936
  O     -1.226952   -0.220899    1.593837
  C     -1.157193   -1.426826    2.397905
  C     -2.510069   -2.059427    2.636889
  O     -3.431651   -0.137562    0.479230
  C     -4.411061    0.093444   -0.552044
  C     -5.731433    0.407980    0.121523
  H      4.628339   -2.071877   -0.382640
  H      3.937203   -1.408104   -1.871883
  H      5.693358   -1.476928   -1.670817
  H      4.751507    0.834361   -1.326283
  H      5.591423    0.217996    0.130173
  H      2.550582    2.665101    1.404892
  H      1.109265    3.000383    0.407107
  H      0.734293    3.751912    2.753806
  H     -0.354670    2.416027    2.338845
  H      1.072641    2.110049    3.338662
  H      0.353217   -2.286342   -2.249708
  H      0.146342   -0.517311   -1.989658
  H     -0.476989   -2.126707    1.903880
  H     -0.705815   -1.073595    3.326194
  H     -2.916663   -2.449328    1.706180
  H     -2.393989   -2.877613    3.341072
  H     -3.201451   -1.327232    3.045499
  H     -4.070995    0.925648   -1.177909
  H     -4.478855   -0.809563   -1.164367
  H     -5.633645    1.298767    0.735675
  H     -6.486536    0.578569   -0.638676
  H     -6.034726   -0.423415    0.750782

 Total Charge           Charge          ....    0
 Multiplicity           Mult            ....    1
 Number of Electrons    NEL             ....  202
 Basis Dimension        Dim             ....  539

ORBITAL ENERGIES
----------------

  NO   OCC          E(Eh)            E(eV)
   0   2.0000     -88.580993     -2410.4114
   1   2.0000     -88.579814     -2410.3793
   2   2.0000     -88.524304     -2408.8688
   3   2.0000     -88.520985     -2408.7785
   4   2.0000     -76.917883     -2093.0420
   5   2.0000     -76.916405     -2093.0018
   6   2.0000     -18.995234      -516.8866
   7   2.0000     -18.993456      -516.8382
   8   2.0000     -18.992378      -516.8089
   9   2.0000     -18.987182      -516.6675
  10   2.0000     -10.106780      -275.0195
  11   2.0000     -10.092314      -274.6258
  12   2.0000     -10.089404      -274.5466
  13   2.0000     -10.087423      -274.4927
  14   2.0000     -10.086373      -274.4642
  15   2.0000     -10.019984      -272.6576
  16   2.0000     -10.019385      -272.6413
  17   2.0000     -10.017510      -272.5903
  18   2.0000     -10.017436      -272.5883
  19   2.0000      -7.875356      -214.2993
  20   2.0000      -7.874532      -214.2769
  21   2.0000      -7.819330      -212.7748
  22   2.0000      -7.816178      -212.6890
  23   2.0000      -6.596303      -179.4945
  24   2.0000      -6.595022      -179.4597
  25   2.0000      -5.822235      -158.4311
  26   2.0000      -5.821358      -158.4072
  27   2.0000      -5.818961      -158.3420
  28   2.0000      -5.818389      -158.3264
  29   2.0000      -5.812713      -158.1720
  30   2.0000      -5.811608      -158.1419
  31   2.0000      -5.766898      -156.9253
  32   2.0000      -5.763830      -156.8418
  33   2.0000      -5.759864      -156.7339
  34   2.0000      -5.759107      -156.7133
  35   2.0000      -5.756515      -156.6427
  36   2.0000      -5.756040      -156.6298
  37   2.0000      -4.741992      -129.0362
  38   2.0000      -4.741467      -129.0219
  39   2.0000      -4.740405      -128.9930
  40   2.0000      -4.739832      -128.9774
  41   2.0000      -4.739681      -128.9733
  42   2.0000      -4.738991      -128.9545
  43   2.0000      -1.052950       -28.6522
  44   2.0000      -1.049381       -28.5551
  45   2.0000      -1.012998       -27.5651
  46   2.0000      -1.007743       -27.4221
  47   2.0000      -0.802848       -21.8466
  48   2.0000      -0.756765       -20.5926
  49   2.0000      -0.745675       -20.2909
  50   2.0000      -0.727419       -19.7941
  51   2.0000      -0.721756       -19.6400
  52   2.0000      -0.710961       -19.3462
  53   2.0000      -0.686554       -18.6821
  54   2.0000      -0.668721       -18.1968
  55   2.0000      -0.627947       -17.0873
  56   2.0000      -0.620186       -16.8761
  57   2.0000      -0.598559       -16.2876
  58   2.0000      -0.593956       -16.1624
  59   2.0000      -0.589115       -16.0306
  60   2.0000      -0.526368       -14.3232
  61   2.0000      -0.521697       -14.1961
  62   2.0000      -0.492821       -13.4103
  63   2.0000      -0.487689       -13.2707
  64   2.0000      -0.469478       -12.7751
  65   2.0000      -0.464957       -12.6521
  66   2.0000      -0.453855       -12.3500
  67   2.0000      -0.445465       -12.1217
  68   2.0000      -0.442383       -12.0379
  69   2.0000      -0.436261       -11.8713
  70   2.0000      -0.425384       -11.5753
  71   2.0000      -0.415703       -11.3118
  72   2.0000      -0.409065       -11.1312
  73   2.0000      -0.399574       -10.8730
  74   2.0000      -0.387327       -10.5397
  75   2.0000      -0.385457       -10.4888
  76   2.0000      -0.377051       -10.2601
  77   2.0000      -0.367021        -9.9872
  78   2.0000      -0.361338        -9.8325
  79   2.0000      -0.358152        -9.7458
  80   2.0000      -0.356151        -9.6914
  81   2.0000      -0.353259        -9.6127
  82   2.0000      -0.348368        -9.4796
  83   2.0000      -0.343855        -9.3568
  84   2.0000      -0.339949        -9.2505
  85   2.0000      -0.326284        -8.8786
  86   2.0000      -0.321831        -8.7575
  87   2.0000      -0.311907        -8.4874
  88   2.0000      -0.310301        -8.4437
  89   2.0000      -0.304100        -8.2750
  90   2.0000      -0.298605        -8.1254
  91   2.0000      -0.288917        -7.8618
  92   2.0000      -0.280552        -7.6342
  93   2.0000      -0.277843        -7.5605
  94   2.0000      -0.274052        -7.4573
  95   2.0000      -0.254988        -6.9386
  96   2.0000      -0.239745        -6.5238
  97   2.0000      -0.236628        -6.4390
  98   2.0000      -0.225244        -6.1292
  99   2.0000      -0.214267        -5.8305
 100   2.0000      -0.206592        -5.6217
 101   0.0000      -0.048987        -1.3330
 102   0.0000      -0.038199        -1.0394
 103   0.0000      -0.012496        -0.3400
 104   0.0000       0.009673         0.2632
 105   0.0000       0.015619         0.4250

MULLIKEN ATOMIC CHARGES
-----------------------
   0 C :   -0.481235
   1 C :   -0.154919
   2 O :   -0.337823
   3 P :    0.696416
   4 S :   -0.521986
   5 O :   -0.278495
   6 C :   -0.128974
   7 C :   -0.507482
   8 S :   -0.130307
   9 C :   -0.219872
  10 S :   -0.168976
  11 P :    0.689658
  12 S :   -0.487401
  13 O :   -0.290833
  14 C :   -0.135670
  15 C :   -0.478851
  16 O :   -0.295545
  17 C :   -0.157995
  18 C :   -0.481393
  19 H :    0.166816
  20 H :    0.171314
  21 H :    0.171333
  22 H :    0.177047
  23 H :    0.172838
  24 H :    0.169568
  25 H :    0.174328
  26 H :    0.169390
  27 H :    0.169444
  28 H :    0.166533
  29 H :    0.237760
  30 H :    0.212952
  31 H :    0.174992
  32 H :    0.179879
  33 H :    0.165660
  34 H :    0.175558
  35 H :    0.170777
  36 H :    0.174281
  37 H :    0.169967
  38 H :    0.166332
  39 H :    0.169443
  40 H :    0.165470
Sum of atomic charges:   -0.0000000

LOEWDIN ATOMIC CHARGES
----------------------
   0 C :   -0.410329
   1 C :    0.022424
   2 O :   -0.677631
   3 P :    0.373840
   4 S :   -0.163361
   5 O :   -0.695828
   6 C :    0.019069
   7 C :   -0.393219
   8 S :    0.174465
   9 C :   -0.404928
  10 S :    0.137080
  11 P :    0.379921
  12 S :   -0.112697
  13 O :   -0.669648
  14 C :    0.027232
  15 C :   -0.401537
  16 O :   -0.684867
  17 C :    0.021983
  18 C :   -0.389186
  19 H :    0.163184
  20 H :    0.161114
  21 H :    0.167467
  22 H :    0.181061
  23 H :    0.189637
  24 H :    0.179549
  25 H :    0.182031
  26 H :    0.167917
  27 H :    0.164427
  28 H :    0.162863
  29 H :    0.197371
  30 H :    0.200422
  31 H :    0.181791
  32 H :    0.193853
  33 H :    0.162923
  34 H :    0.170085
  35 H :    0.166031
  36 H :    0.181761
  37 H :    0.179139
  38 H :    0.163013
  39 H :    0.168826
  40 H :    0.162751

  Mayer bond orders larger than 0.100000
B(  0-C ,  1-C ) :   0.9102 B(  0-C , 19-H ) :   0.9655 B(  0-C , 20-H ) :   0.9649
B(  0-C , 21-H ) :   0.9546 B(  1-C ,  2-O ) :   0.8137 B(  1-C , 22-H ) :   0.9648
B(  1-C , 23-H ) :   0.9495 B(  2-O ,  3-P ) :   1.0636 B(  3-P ,  4-S ) :   1.7012
B(  3-P ,  5-O ) :   1.1860 B(  3-P ,  8-S ) :   1.1473 B(  5-O ,  6-C ) :   0.7572
B(  6-C ,  7-C ) :   0.9270 B(  6-C , 24-H ) :   0.9366 B(  6-C , 25-H ) :   0.9467
B(  7-C , 26-H ) :   0.9608 B(  7-C , 27-H ) :   0.9707 B(  7-C , 28-H ) :   0.9697
B(  8-S ,  9-C ) :   0.8840 B(  9-C , 10-S ) :   0.9094 B(  9-C , 29-H ) :   0.8968
B(  9-C , 30-H ) :   0.9084 B( 10-S , 11-P ) :   1.0051 B( 11-P , 12-S ) :   1.7941
B( 11-P , 13-O ) :   1.1608 B( 11-P , 16-O ) :   1.0622 B( 13-O , 14-C ) :   0.7858
B( 14-C , 15-C ) :   0.9120 B( 14-C , 31-H ) :   0.9532 B( 14-C , 32-H ) :   0.9473
B( 15-C , 33-H ) :   0.9598 B( 15-C , 34-H ) :   0.9509 B( 15-C , 35-H ) :   0.9691
B( 16-O , 17-C ) :   0.7741 B( 17-C , 18-C ) :   0.9547 B( 17-C , 36-H ) :   0.9479
B( 17-C , 37-H ) :   0.9344 B( 18-C , 38-H ) :   0.9696 B( 18-C , 39-H ) :   0.9583
B( 18-C , 40-H ) :   0.9687

Dispersion correction           -0.022153906
FINAL SINGLE POINT ENERGY     -2932.467877034868

DIPOLE MOMENT
-------------

Method             : SCF
Type of density    : Electron Density
Multiplicity       :   1
Irrep              :   0
Energy             : -2932.4922355300782328 Eh
Relativity type    :
Basis              : AO
                                X                 Y                 Z
Electronic contribution:      5.825030429      -0.499419797     -11.008821189
Nuclear contribution   :     -6.032842294      -1.242829432      12.193444343
                        -----------------------------------------
Total Dipole Moment    :     -0.207811866      -1.742249229       1.184623154
                        -----------------------------------------
Magnitude (a.u.)       :      2.117061682
Magnitude (Debye)      :      5.381143149

Rotational constants in cm-1:             0.013131             0.005188             0.004960
Rotational constants in MHz :           393.643841           155.539069           148.690194

                             ****ORCA TERMINATED NORMALLY****
TOTAL RUN TIME: 0 days 0 hours 1 minutes 57 seconds 858 msec
