                         Program Version 6.0.0  -   RELEASE  -
|  1> ! pbe def2-sv(p) def2/J RI DEFGRID1 loosescf d4 GCP(DFT/SV(P)) printgap
|  2> %output
|  3>     printlevel normal
|  4> end
|  5> * xyz 0 1
|  6> C 5.4023940028 0.3631731987 -0.2251521684
|  7> C 4.3184952618 -0.3446848374 -1.0156396773
|  8> O 3.2398491603 -0.7622285634 -0.1622864551
|  9> P 1.9378209319 0.1424065848 0.0621124652
| 10> S 2.275635011 1.915172578 0.8292898125
| 11> O 1.0768490236 -0.8674814203 0.9238882285
| 12> C 1.0356458721 -0.7400970509 2.3579485768
| 13> C 2.3493472234 -1.1530584636 2.9851722463
| 14> S 1.0373777951 0.1361253968 -1.8592031143
| 15> C -0.1657480885 -1.2325381629 -1.7662764825
| 16> S -1.8873155523 -0.6744294358 -1.9362018648
| 17> P -2.2248281595 0.0289570841 0.0371265694
| 18> S -4.0124859366 0.7246800976 0.4206540101
| 19> O -1.0080368228 1.0218370691 0.3330947562
| 20> C -1.2054677904 2.4440137687 0.1995314369
| 21> C -1.4023855799 2.8637730706 -1.2431039241
| 22> O -1.7486609013 -1.1650583476 0.9753039325
| 23> C -2.6876920191 -2.1583327013 1.4324582232
| 24> C -3.1238822269 -3.0934047714 0.321853169
| 25> H 6.2209968762 0.6186263241 -0.8901430541
| 26> H 5.0109958903 1.2749076947 0.2208103544
| 27> H 5.7704933865 -0.2840766917 0.5660438508
| 28> H 4.6935187256 -1.2690417381 -1.4595214068
| 29> H 3.9220373247 0.3030757328 -1.8051840353
| 30> H 0.7897831955 0.2966055131 2.6095187833
| 31> H 0.2141374844 -1.3909061056 2.6579797795
| 32> H 2.257131259 -1.124106032 4.0663352934
| 33> H 2.6187098088 -2.1569490503 2.6680065467
| 34> H 3.1343744546 -0.4634950216 2.6772832816
| 35> H -0.035023836 -1.7561304247 -0.8239763603
| 36> H 0.0154217722 -1.8766084605 -2.6222175611
| 37> H -2.0721074433 2.727747406 0.804344737
| 38> H -0.2990476082 2.8806346859 0.6237436096
| 39> H -1.4960651103 3.9440982922 -1.2866618188
| 40> H -0.5555917657 2.5548238659 -1.8520296912
| 41> H -2.3117077468 2.4129542347 -1.6415842274
| 42> H -2.1491841815 -2.691767854 2.217385732
| 43> H -3.5529037562 -1.6438821469 1.8622391833
| 44> H -3.7598493804 -3.8671987872 0.7401450561
| 45> H -3.6878861646 -2.542952465 -0.4300852316
| 46> H -2.2618583831 -3.5563955764 -0.1516621693
| 47> *
| 48>
| 49>                          ****END OF INPUT****

CARTESIAN COORDINATES (ANGSTROEM)
---------------------------------
  C      5.402394    0.363173   -0.225152
  C      4.318495   -0.344685   -1.015640
  O      3.239849   -0.762229   -0.162286
  P      1.937821    0.142407    0.062112
  S      2.275635    1.915173    0.829290
  O      1.076849   -0.867481    0.923888
  C      1.035646   -0.740097    2.357949
  C      2.349347   -1.153058    2.985172
  S      1.037378    0.136125   -1.859203
  C     -0.165748   -1.232538   -1.766276
  S     -1.887316   -0.674429   -1.936202
  P     -2.224828    0.028957    0.037127
  S     -4.012486    0.724680    0.420654
  O     -1.008037    1.021837    0.333095
  C     -1.205468    2.444014    0.199531
  C     -1.402386    2.863773   -1.243104
  O     -1.748661   -1.165058    0.975304
  C     -2.687692   -2.158333    1.432458
  C     -3.123882   -3.093405    0.321853
  H      6.220997    0.618626   -0.890143
  H      5.010996    1.274908    0.220810
  H      5.770493   -0.284077    0.566044
  H      4.693519   -1.269042   -1.459521
  H      3.922037    0.303076   -1.805184
  H      0.789783    0.296606    2.609519
  H      0.214137   -1.390906    2.657980
  H      2.257131   -1.124106    4.066335
  H      2.618710   -2.156949    2.668007
  H      3.134374   -0.463495    2.677283
  H     -0.035024   -1.756130   -0.823976
  H      0.015422   -1.876608   -2.622218
  H     -2.072107    2.727747    0.804345
  H     -0.299048    2.880635    0.623744
  H     -1.496065    3.944098   -1.286662
  H     -0.555592    2.554824   -1.852030
  H     -2.311708    2.412954   -1.641584
  H     -2.149184   -2.691768    2.217386
  H     -3.552904   -1.643882    1.862239
  H     -3.759849   -3.867199    0.740145
  H     -3.687886   -2.542952   -0.430085
  H     -2.261858   -3.556396   -0.151662

 Total Charge           Charge          ....    0
 Multiplicity           Mult            ....    1
 Number of Electrons    NEL             ....  202
 Basis Dimension        Dim             ....  334

ORBITAL ENERGIES
----------------

  NO   OCC          E(Eh)            E(eV)
   0   2.0000     -88.048040     -2395.9090
   1   2.0000     -88.044473     -2395.8119
   2   2.0000     -87.992002     -2394.3841
   3   2.0000     -87.991732     -2394.3768
   4   2.0000     -76.430302     -2079.7742
   5   2.0000     -76.428888     -2079.7358
   6   2.0000     -18.796141      -511.4690
   7   2.0000     -18.795140      -511.4418
   8   2.0000     -18.789829      -511.2972
   9   2.0000     -18.788625      -511.2645
  10   2.0000      -9.964428      -271.1459
  11   2.0000      -9.957066      -270.9455
  12   2.0000      -9.954515      -270.8761
  13   2.0000      -9.951225      -270.7866
  14   2.0000      -9.936994      -270.3993
  15   2.0000      -9.888878      -269.0901
  16   2.0000      -9.883509      -268.9440
  17   2.0000      -9.881257      -268.8827
  18   2.0000      -9.869620      -268.5660
  19   2.0000      -7.693084      -209.3395
  20   2.0000      -7.689620      -209.2452
  21   2.0000      -7.637125      -207.8167
  22   2.0000      -7.636631      -207.8033
  23   2.0000      -6.427742      -174.9078
  24   2.0000      -6.426441      -174.8724
  25   2.0000      -5.721165      -155.6808
  26   2.0000      -5.718049      -155.5960
  27   2.0000      -5.717396      -155.5783
  28   2.0000      -5.713907      -155.4833
  29   2.0000      -5.710074      -155.3790
  30   2.0000      -5.706177      -155.2730
  31   2.0000      -5.666113      -154.1828
  32   2.0000      -5.665493      -154.1659
  33   2.0000      -5.657621      -153.9517
  34   2.0000      -5.657537      -153.9494
  35   2.0000      -5.657429      -153.9465
  36   2.0000      -5.656460      -153.9201
  37   2.0000      -4.650258      -126.5400
  38   2.0000      -4.649664      -126.5238
  39   2.0000      -4.648800      -126.5003
  40   2.0000      -4.648534      -126.4931
  41   2.0000      -4.648148      -126.4825
  42   2.0000      -4.646777      -126.4452
  43   2.0000      -0.990907       -26.9639
  44   2.0000      -0.986330       -26.8394
  45   2.0000      -0.946281       -25.7496
  46   2.0000      -0.944583       -25.7034
  47   2.0000      -0.764537       -20.8041
  48   2.0000      -0.721391       -19.6300
  49   2.0000      -0.708119       -19.2689
  50   2.0000      -0.686315       -18.6756
  51   2.0000      -0.682734       -18.5781
  52   2.0000      -0.673641       -18.3307
  53   2.0000      -0.660229       -17.9657
  54   2.0000      -0.642845       -17.4927
  55   2.0000      -0.599977       -16.3262
  56   2.0000      -0.595412       -16.2020
  57   2.0000      -0.572936       -15.5904
  58   2.0000      -0.567135       -15.4325
  59   2.0000      -0.561806       -15.2875
  60   2.0000      -0.501804       -13.6548
  61   2.0000      -0.493548       -13.4301
  62   2.0000      -0.478015       -13.0075
  63   2.0000      -0.467761       -12.7284
  64   2.0000      -0.461232       -12.5508
  65   2.0000      -0.451794       -12.2939
  66   2.0000      -0.439702       -11.9649
  67   2.0000      -0.435916       -11.8619
  68   2.0000      -0.421602       -11.4724
  69   2.0000      -0.418402       -11.3853
  70   2.0000      -0.412277       -11.2186
  71   2.0000      -0.401947       -10.9375
  72   2.0000      -0.396902       -10.8003
  73   2.0000      -0.390308       -10.6208
  74   2.0000      -0.388383       -10.5684
  75   2.0000      -0.374013       -10.1774
  76   2.0000      -0.369769       -10.0619
  77   2.0000      -0.356616        -9.7040
  78   2.0000      -0.352434        -9.5902
  79   2.0000      -0.349259        -9.5038
  80   2.0000      -0.346699        -9.4341
  81   2.0000      -0.341166        -9.2836
  82   2.0000      -0.335599        -9.1321
  83   2.0000      -0.332268        -9.0415
  84   2.0000      -0.331153        -9.0111
  85   2.0000      -0.324653        -8.8342
  86   2.0000      -0.315613        -8.5883
  87   2.0000      -0.301863        -8.2141
  88   2.0000      -0.297260        -8.0889
  89   2.0000      -0.294069        -8.0020
  90   2.0000      -0.285631        -7.7724
  91   2.0000      -0.272644        -7.4190
  92   2.0000      -0.270944        -7.3728
  93   2.0000      -0.262298        -7.1375
  94   2.0000      -0.258488        -7.0338
  95   2.0000      -0.232624        -6.3300
  96   2.0000      -0.220487        -5.9998
  97   2.0000      -0.215046        -5.8517
  98   2.0000      -0.211543        -5.7564
  99   2.0000      -0.209760        -5.7078
 100   2.0000      -0.197034        -5.3616
 101   0.0000      -0.047236        -1.2854
 102   0.0000      -0.033921        -0.9230
 103   0.0000      -0.027129        -0.7382
 104   0.0000      -0.008614        -0.2344
 105   0.0000       0.009880         0.2689

MULLIKEN ATOMIC CHARGES
-----------------------
   0 C :   -0.291028
   1 C :   -0.013670
   2 O :   -0.371427
   3 P :    0.628603
   4 S :   -0.321943
   5 O :   -0.374396
   6 C :   -0.011784
   7 C :   -0.298779
   8 S :   -0.085157
   9 C :   -0.364864
  10 S :   -0.073004
  11 P :    0.598674
  12 S :   -0.308984
  13 O :   -0.373403
  14 C :   -0.013437
  15 C :   -0.319737
  16 O :   -0.368075
  17 C :   -0.011741
  18 C :   -0.312654
  19 H :    0.106447
  20 H :    0.128988
  21 H :    0.113032
  22 H :    0.104550
  23 H :    0.098100
  24 H :    0.116399
  25 H :    0.107840
  26 H :    0.111530
  27 H :    0.112622
  28 H :    0.125027
  29 H :    0.213604
  30 H :    0.186666
  31 H :    0.108375
  32 H :    0.119929
  33 H :    0.107977
  34 H :    0.128785
  35 H :    0.116410
  36 H :    0.106165
  37 H :    0.116598
  38 H :    0.114479
  39 H :    0.130016
  40 H :    0.113268
Sum of atomic charges:    0.0000000

LOEWDIN ATOMIC CHARGES
----------------------
   0 C :   -0.364354
   1 C :   -0.119586
   2 O :   -0.254240
   3 P :    0.583071
   4 S :   -0.298461
   5 O :   -0.229837
   6 C :   -0.118722
   7 C :   -0.365240
   8 S :    0.086267
   9 C :   -0.475815
  10 S :    0.088612
  11 P :    0.578355
  12 S :   -0.305975
  13 O :   -0.241173
  14 C :   -0.130095
  15 C :   -0.372546
  16 O :   -0.236612
  17 C :   -0.120750
  18 C :   -0.368005
  19 H :    0.128003
  20 H :    0.123623
  21 H :    0.124941
  22 H :    0.117518
  23 H :    0.102737
  24 H :    0.112651
  25 H :    0.116186
  26 H :    0.130613
  27 H :    0.124977
  28 H :    0.122509
  29 H :    0.135420
  30 H :    0.140126
  31 H :    0.106736
  32 H :    0.111221
  33 H :    0.129576
  34 H :    0.119052
  35 H :    0.115640
  36 H :    0.115170
  37 H :    0.111531
  38 H :    0.131940
  39 H :    0.122498
  40 H :    0.122437

  Mayer bond orders larger than 0.100000
B(  0-C ,  1-C ) :   1.1648 B(  0-C , 19-H ) :   0.9398 B(  0-C , 20-H ) :   0.9311
B(  0-C , 21-H ) :   0.9464 B(  1-C ,  2-O ) :   0.9152 B(  1-C , 22-H ) :   0.9364
B(  1-C , 23-H ) :   0.9145 B(  2-O ,  3-P ) :   1.0811 B(  3-P ,  4-S ) :   1.6207
B(  3-P ,  5-O ) :   1.1175 B(  3-P ,  8-S ) :   0.9618 B(  5-O ,  6-C ) :   0.8875
B(  6-C ,  7-C ) :   1.1618 B(  6-C , 24-H ) :   0.9154 B(  6-C , 25-H ) :   0.9269
B(  7-C , 26-H ) :   0.9394 B(  7-C , 27-H ) :   0.9454 B(  7-C , 28-H ) :   0.9323
B(  8-S ,  9-C ) :   0.9848 B(  9-C , 10-S ) :   0.9873 B(  9-C , 29-H ) :   0.8723
B(  9-C , 30-H ) :   0.9099 B( 10-S , 11-P ) :   0.9693 B( 11-P , 12-S ) :   1.6401
B( 11-P , 13-O ) :   1.0973 B( 11-P , 16-O ) :   1.0791 B( 13-O , 14-C ) :   0.8913
B( 14-C , 15-C ) :   1.1671 B( 14-C , 31-H ) :   0.9172 B( 14-C , 32-H ) :   0.9076
B( 15-C , 33-H ) :   0.9384 B( 15-C , 34-H ) :   0.9348 B( 15-C , 35-H ) :   0.9353
B( 16-O , 17-C ) :   0.9118 B( 17-C , 18-C ) :   1.1639 B( 17-C , 36-H ) :   0.9292
B( 17-C , 37-H ) :   0.9124 B( 18-C , 38-H ) :   0.9378 B( 18-C , 39-H ) :   0.9351
B( 18-C , 40-H ) :   0.9463

Dispersion correction           -0.069053385
FINAL SINGLE POINT ENERGY     -2929.516281912086

DIPOLE MOMENT
-------------

Method             : SCF
Type of density    : Electron Density
Multiplicity       :   1
Irrep              :   0
Energy             : -2929.6375443674505732 Eh
Relativity type    :
Basis              : AO
                                X                 Y                 Z
Electronic contribution:    -11.174041125       5.944788491      -8.129675895
Nuclear contribution   :     12.050027897      -7.379727427       8.225396797
                        -----------------------------------------
Total Dipole Moment    :      0.875986772      -1.434938936       0.095720901
                        -----------------------------------------
Magnitude (a.u.)       :      1.683913616
Magnitude (Debye)      :      4.280168262

Rotational constants in cm-1:             0.012720             0.005501             0.005216
Rotational constants in MHz :           381.330242           164.914443           156.362600

                             ****ORCA TERMINATED NORMALLY****
TOTAL RUN TIME: 0 days 0 hours 0 minutes 22 seconds 363 msec
