                         Program Version 6.0.1  -  RELEASE   -
|  1> ! pbe def2-sv(p) def2/J RI DEFGRID1 loosescf d4 GCP(DFT/SV(P)) printgap
|  2> %output
|  3>     printlevel normal
|  4> end
|  5> * xyz 0 1
|  6> C 3.1425627235 -3.2347477153 0.370517377
|  7> C 2.8887040669 -1.8018847279 0.8096310644
|  8> O 2.6767506364 -0.9380195647 -0.324372639
|  9> C 1.4894043641 -0.89352552 -0.8726881278
| 10> O 0.5324194447 -1.549925226 -0.4942024118
| 11> C 1.4112108518 0.0835500377 -2.0205336554
| 12> C 0.2331523381 1.0312389646 -1.8146253111
| 13> H 0.1469831027 1.71319607 -2.665676239
| 14> C 0.3195020916 1.8705644336 -0.548842359
| 15> O -0.651739309 2.4094530878 -0.0587233623
| 16> O 1.5405535367 1.9559483723 -0.0922298572
| 17> C 1.7662333089 2.7112397137 1.1165826251
| 18> C 3.2597524931 2.9213997706 1.2597266752
| 19> S -1.3924646159 0.1794283775 -1.8043043662
| 20> P -1.6655614113 -0.4559619886 0.2074847048
| 21> S -0.5260269898 -0.0845766496 1.7724876257
| 22> O -3.1523879193 0.1027087428 0.4537832641
| 23> C -3.4568892471 1.480242345 0.6594828529
| 24> O -2.1566901895 -1.9556391092 0.0560137381
| 25> C -1.5185411104 -3.1089721564 0.6048477443
| 26> H 3.9863669768 -3.2720937048 -0.3128558898
| 27> H 3.3600449776 -3.8413798664 1.243190417
| 28> H 2.2632814461 -3.6377838986 -0.1266036827
| 29> H 3.7607370559 -1.3795751827 1.3083534637
| 30> H 2.0147016456 -1.737395179 1.4648014393
| 31> H 1.247875149 -0.4756678341 -2.9431337475
| 32> H 2.3433896444 0.6435014224 -2.0779414317
| 33> H 1.2179131297 3.6549245999 1.0411805323
| 34> H 1.3505068759 2.1333846649 1.9489803864
| 35> H 3.766060498 1.9613167552 1.2831487735
| 36> H 3.639335409 3.5017854925 0.4242637868
| 37> H 3.4560719321 3.4526022193 2.1847481689
| 38> H -4.5026979607 1.505077403 0.9549565509
| 39> H -3.2999702104 2.0463499201 -0.2591012711
| 40> H -2.8244620345 1.8960112216 1.4458608291
| 41> H -2.3197554069 -3.7720915223 0.923389395
| 42> H -0.8935099979 -2.8304556101 1.4549053365
| 43> H -0.9072110908 -3.5771918696 -0.1642834785
| 44> *
| 45>
| 46>                          ****END OF INPUT****

CARTESIAN COORDINATES (ANGSTROEM)
---------------------------------
  C      3.142563   -3.234748    0.370517
  C      2.888704   -1.801885    0.809631
  O      2.676751   -0.938020   -0.324373
  C      1.489404   -0.893526   -0.872688
  O      0.532419   -1.549925   -0.494202
  C      1.411211    0.083550   -2.020534
  C      0.233152    1.031239   -1.814625
  H      0.146983    1.713196   -2.665676
  C      0.319502    1.870564   -0.548842
  O     -0.651739    2.409453   -0.058723
  O      1.540554    1.955948   -0.092230
  C      1.766233    2.711240    1.116583
  C      3.259752    2.921400    1.259727
  S     -1.392465    0.179428   -1.804304
  P     -1.665561   -0.455962    0.207485
  S     -0.526027   -0.084577    1.772488
  O     -3.152388    0.102709    0.453783
  C     -3.456889    1.480242    0.659483
  O     -2.156690   -1.955639    0.056014
  C     -1.518541   -3.108972    0.604848
  H      3.986367   -3.272094   -0.312856
  H      3.360045   -3.841380    1.243190
  H      2.263281   -3.637784   -0.126604
  H      3.760737   -1.379575    1.308353
  H      2.014702   -1.737395    1.464801
  H      1.247875   -0.475668   -2.943134
  H      2.343390    0.643501   -2.077941
  H      1.217913    3.654925    1.041181
  H      1.350507    2.133385    1.948980
  H      3.766060    1.961317    1.283149
  H      3.639335    3.501785    0.424264
  H      3.456072    3.452602    2.184748
  H     -4.502698    1.505077    0.954957
  H     -3.299970    2.046350   -0.259101
  H     -2.824462    1.896011    1.445861
  H     -2.319755   -3.772092    0.923389
  H     -0.893510   -2.830456    1.454905
  H     -0.907211   -3.577192   -0.164283

 Total Charge           Charge          ....    0
 Multiplicity           Mult            ....    1
 Number of Electrons    NEL             ....  174
 Basis Dimension        Dim             ....  316

ORBITAL ENERGIES
----------------

  NO   OCC          E(Eh)            E(eV)
   0   2.0000     -88.028269     -2395.3710
   1   2.0000     -87.971050     -2393.8140
   2   2.0000     -76.415589     -2079.3739
   3   2.0000     -18.813597      -511.9440
   4   2.0000     -18.813212      -511.9335
   5   2.0000     -18.772606      -510.8286
   6   2.0000     -18.762648      -510.5576
   7   2.0000     -18.749627      -510.2033
   8   2.0000     -18.738514      -509.9009
   9   2.0000     -10.020443      -272.6701
  10   2.0000     -10.017755      -272.5970
  11   2.0000      -9.952862      -270.8312
  12   2.0000      -9.951177      -270.7853
  13   2.0000      -9.948619      -270.7157
  14   2.0000      -9.927843      -270.1503
  15   2.0000      -9.916496      -269.8416
  16   2.0000      -9.915736      -269.8209
  17   2.0000      -9.891696      -269.1667
  18   2.0000      -9.891648      -269.1654
  19   2.0000      -7.673321      -208.8017
  20   2.0000      -7.615995      -207.2418
  21   2.0000      -6.410694      -174.4438
  22   2.0000      -5.701747      -155.1524
  23   2.0000      -5.698141      -155.0543
  24   2.0000      -5.689395      -154.8163
  25   2.0000      -5.645146      -153.6122
  26   2.0000      -5.636749      -153.3837
  27   2.0000      -5.635687      -153.3548
  28   2.0000      -4.633196      -126.0757
  29   2.0000      -4.632955      -126.0691
  30   2.0000      -4.631233      -126.0223
  31   2.0000      -1.023183       -27.8422
  32   2.0000      -1.019093       -27.7309
  33   2.0000      -0.964070       -26.2337
  34   2.0000      -0.926546       -25.2126
  35   2.0000      -0.920157       -25.0388
  36   2.0000      -0.916233       -24.9320
  37   2.0000      -0.764977       -20.8161
  38   2.0000      -0.715481       -19.4692
  39   2.0000      -0.709300       -19.3010
  40   2.0000      -0.685633       -18.6570
  41   2.0000      -0.653651       -17.7867
  42   2.0000      -0.619388       -16.8544
  43   2.0000      -0.617754       -16.8099
  44   2.0000      -0.600967       -16.3532
  45   2.0000      -0.599594       -16.3158
  46   2.0000      -0.565893       -15.3987
  47   2.0000      -0.515053       -14.0153
  48   2.0000      -0.506024       -13.7696
  49   2.0000      -0.495221       -13.4756
  50   2.0000      -0.483588       -13.1591
  51   2.0000      -0.459890       -12.5142
  52   2.0000      -0.454421       -12.3654
  53   2.0000      -0.449657       -12.2358
  54   2.0000      -0.438853       -11.9418
  55   2.0000      -0.436068       -11.8660
  56   2.0000      -0.416983       -11.3467
  57   2.0000      -0.410620       -11.1735
  58   2.0000      -0.406417       -11.0592
  59   2.0000      -0.399081       -10.8596
  60   2.0000      -0.396409       -10.7868
  61   2.0000      -0.387153       -10.5350
  62   2.0000      -0.385553       -10.4914
  63   2.0000      -0.378349       -10.2954
  64   2.0000      -0.377598       -10.2750
  65   2.0000      -0.366486        -9.9726
  66   2.0000      -0.363990        -9.9047
  67   2.0000      -0.358615        -9.7584
  68   2.0000      -0.353924        -9.6308
  69   2.0000      -0.344261        -9.3678
  70   2.0000      -0.340625        -9.2689
  71   2.0000      -0.327940        -8.9237
  72   2.0000      -0.322232        -8.7684
  73   2.0000      -0.308105        -8.3840
  74   2.0000      -0.300720        -8.1830
  75   2.0000      -0.294829        -8.0227
  76   2.0000      -0.285238        -7.7617
  77   2.0000      -0.275275        -7.4906
  78   2.0000      -0.269422        -7.3313
  79   2.0000      -0.264859        -7.2072
  80   2.0000      -0.253419        -6.8959
  81   2.0000      -0.244291        -6.6475
  82   2.0000      -0.231257        -6.2928
  83   2.0000      -0.229186        -6.2365
  84   2.0000      -0.195722        -5.3259
  85   2.0000      -0.191455        -5.2098
  86   2.0000      -0.179756        -4.8914
  87   0.0000      -0.047005        -1.2791
  88   0.0000      -0.037092        -1.0093
  89   0.0000      -0.035580        -0.9682
  90   0.0000       0.008559         0.2329
  91   0.0000       0.027746         0.7550

MULLIKEN ATOMIC CHARGES
-----------------------
   0 C :   -0.311389
   1 C :   -0.029979
   2 O :   -0.211002
   3 C :    0.110127
   4 O :   -0.217142
   5 C :    0.017241
   6 C :   -0.342138
   7 H :    0.154882
   8 C :    0.182005
   9 O :   -0.182024
  10 O :   -0.221388
  11 C :   -0.030935
  12 C :   -0.278780
  13 S :   -0.077842
  14 P :    0.640674
  15 S :   -0.350947
  16 O :   -0.374197
  17 C :   -0.092304
  18 O :   -0.372461
  19 C :   -0.087681
  20 H :    0.113076
  21 H :    0.115831
  22 H :    0.128841
  23 H :    0.103229
  24 H :    0.130143
  25 H :    0.118981
  26 H :    0.107724
  27 H :    0.108956
  28 H :    0.124902
  29 H :    0.117473
  30 H :    0.112057
  31 H :    0.113775
  32 H :    0.111256
  33 H :    0.111079
  34 H :    0.113619
  35 H :    0.115581
  36 H :    0.113755
  37 H :    0.115003
Sum of atomic charges:    0.0000000

LOEWDIN ATOMIC CHARGES
----------------------
   0 C :   -0.357181
   1 C :   -0.113569
   2 O :   -0.037098
   3 C :    0.038863
   4 O :   -0.173092
   5 C :   -0.251608
   6 C :   -0.259826
   7 H :    0.153744
   8 C :   -0.005471
   9 O :   -0.158808
  10 O :   -0.041269
  11 C :   -0.107364
  12 C :   -0.350994
  13 S :    0.112817
  14 P :    0.598090
  15 S :   -0.316440
  16 O :   -0.257040
  17 C :   -0.217336
  18 O :   -0.240951
  19 C :   -0.208971
  20 H :    0.124414
  21 H :    0.132473
  22 H :    0.129157
  23 H :    0.117821
  24 H :    0.121682
  25 H :    0.147090
  26 H :    0.138905
  27 H :    0.118920
  28 H :    0.119356
  29 H :    0.126681
  30 H :    0.124845
  31 H :    0.132127
  32 H :    0.114360
  33 H :    0.106095
  34 H :    0.108270
  35 H :    0.115799
  36 H :    0.105285
  37 H :    0.110223

  Mayer bond orders larger than 0.100000
B(  0-C ,  1-C ) :   1.1685 B(  0-C , 20-H ) :   0.9474 B(  0-C , 21-H ) :   0.9439
B(  0-C , 22-H ) :   0.9447 B(  1-C ,  2-O ) :   0.9074 B(  1-C , 23-H ) :   0.9360
B(  1-C , 24-H ) :   0.9077 B(  2-O ,  3-C ) :   1.2750 B(  3-C ,  4-O ) :   1.8982
B(  3-C ,  5-C ) :   1.0116 B(  5-C ,  6-C ) :   1.0212 B(  5-C , 25-H ) :   0.8771
B(  5-C , 26-H ) :   0.8820 B(  6-C ,  7-H ) :   0.8703 B(  6-C ,  8-C ) :   0.8936
B(  6-C , 13-S ) :   1.0444 B(  8-C ,  9-O ) :   2.0401 B(  8-C , 10-O ) :   1.2691
B( 10-O , 11-C ) :   0.8882 B( 11-C , 12-C ) :   1.1533 B( 11-C , 27-H ) :   0.9257
B( 11-C , 28-H ) :   0.9200 B( 12-C , 29-H ) :   0.9473 B( 12-C , 30-H ) :   0.9512
B( 12-C , 31-H ) :   0.9433 B( 13-S , 14-P ) :   0.9189 B( 13-S , 15-S ) :   0.1265
B( 14-P , 15-S ) :   1.5207 B( 14-P , 16-O ) :   1.1006 B( 14-P , 18-O ) :   1.1343
B( 16-O , 17-C ) :   0.9441 B( 17-C , 32-H ) :   0.9571 B( 17-C , 33-H ) :   0.9438
B( 17-C , 34-H ) :   0.9395 B( 18-O , 19-C ) :   0.9319 B( 19-C , 35-H ) :   0.9543
B( 19-C , 36-H ) :   0.9324 B( 19-C , 37-H ) :   0.9522

Dispersion correction           -0.056549372
FINAL SINGLE POINT ENERGY     -1979.003417549058

DIPOLE MOMENT
-------------

Method             : SCF
Type of density    : Electron Density
Multiplicity       :   1
Irrep              :   0
Energy             : -1979.1320350030555346 Eh
Relativity type    :
Basis              : AO
                                X                 Y                 Z
Electronic contribution:    -16.413356087       1.501327317      -6.821401544
Nuclear contribution   :     18.230552165      -1.485847853       6.496180558
                        -----------------------------------------
Total Dipole Moment    :      1.817196078       0.015479464      -0.325220985
                        -----------------------------------------
Magnitude (a.u.)       :      1.846133768
Magnitude (Debye)      :      4.692499120

Rotational constants in cm-1:             0.012136             0.009777             0.007369
Rotational constants in MHz :           363.831995           293.103408           220.927914

                             ****ORCA TERMINATED NORMALLY****
TOTAL RUN TIME: 0 days 0 hours 0 minutes 36 seconds 575 msec
