                         Program Version 6.0.0  -   RELEASE  -
|  1> ! pbe def2-sv(p) def2/J RI DEFGRID1 loosescf d4 GCP(DFT/SV(P)) printgap
|  2> %output
|  3>     printlevel normal
|  4> end
|  5> * xyz 0 1
|  6> C 3.7667707922 -1.1801657982 -2.093834852
|  7> C 2.6483148993 -0.2182453308 -2.4286968976
|  8> O 2.3811735037 0.7228981368 -1.3634663665
|  9> P 2.0761636803 0.3907681945 0.1417325839
| 10> S 1.1531108708 1.8380217111 1.0838784454
| 11> O 3.5561401552 0.1485534386 0.6925509418
| 12> C 3.9122289124 0.2388303944 2.0797965717
| 13> C 3.3099789726 -0.8788434871 2.9081239214
| 14> S 1.1487068683 -1.5238642823 0.2092564681
| 15> C -0.1955471124 -1.1816240906 1.3865140558
| 16> S -1.8581194712 -1.4551106978 0.7241534127
| 17> P -2.0586652179 0.2527785788 -0.5257111642
| 18> S -0.7399886906 0.4885975757 -1.9555585537
| 19> O -2.0720772644 1.5466260284 0.3702185443
| 20> C -3.0184506661 1.8420326946 1.4275900672
| 21> C -2.4665494885 1.4470811887 2.7835135919
| 22> O -3.5789466666 0.1509267681 -0.9754911031
| 23> C -4.221446694 -1.0384484604 -1.4748343204
| 24> C -3.4653643597 -1.6803473232 -2.6184531779
| 25> H 3.4757056273 -1.824203042 -1.2653991675
| 26> H 3.9727950169 -1.7962663186 -2.9635054471
| 27> H 4.6630856441 -0.6312561887 -1.816718067
| 28> H 1.7158258969 -0.7442353383 -2.6526671981
| 29> H 2.9049483809 0.4293118525 -3.2683976546
| 30> H 5.0020195338 0.1889671298 2.0699280551
| 31> H 3.5891564205 1.2145894114 2.4571829401
| 32> H 3.7374624362 -0.8526379342 3.9052618707
| 33> H 2.232525345 -0.7447544455 2.9843156331
| 34> H 3.5181944175 -1.8427971692 2.451277583
| 35> H -0.1011938374 -0.143376881 1.7193658383
| 36> H -0.1014881846 -1.8824110382 2.2121689078
| 37> H -3.1515825431 2.9228768912 1.3586684134
| 38> H -3.962115135 1.338276349 1.2106569186
| 39> H -1.4615597327 1.8483432712 2.899113159
| 40> H -3.1047712512 1.862129312 3.5570559004
| 41> H -2.4375345917 0.365797514 2.892981019
| 42> H -4.33122842 -1.7388816887 -0.6424101368
| 43> H -5.2025031615 -0.6825357257 -1.7945320708
| 44> H -3.3045732579 -0.9612248599 -3.4184268268
| 45> H -2.4934805634 -2.0331681451 -2.2754968555
| 46> H -4.0341581766 -2.5226835865 -2.9985838679
| 47> *
| 48>
| 49>                          ****END OF INPUT****

CARTESIAN COORDINATES (ANGSTROEM)
---------------------------------
  C      3.766771   -1.180166   -2.093835
  C      2.648315   -0.218245   -2.428697
  O      2.381174    0.722898   -1.363466
  P      2.076164    0.390768    0.141733
  S      1.153111    1.838022    1.083878
  O      3.556140    0.148553    0.692551
  C      3.912229    0.238830    2.079797
  C      3.309979   -0.878843    2.908124
  S      1.148707   -1.523864    0.209256
  C     -0.195547   -1.181624    1.386514
  S     -1.858119   -1.455111    0.724153
  P     -2.058665    0.252779   -0.525711
  S     -0.739989    0.488598   -1.955559
  O     -2.072077    1.546626    0.370219
  C     -3.018451    1.842033    1.427590
  C     -2.466549    1.447081    2.783514
  O     -3.578947    0.150927   -0.975491
  C     -4.221447   -1.038448   -1.474834
  C     -3.465364   -1.680347   -2.618453
  H      3.475706   -1.824203   -1.265399
  H      3.972795   -1.796266   -2.963505
  H      4.663086   -0.631256   -1.816718
  H      1.715826   -0.744235   -2.652667
  H      2.904948    0.429312   -3.268398
  H      5.002020    0.188967    2.069928
  H      3.589156    1.214589    2.457183
  H      3.737462   -0.852638    3.905262
  H      2.232525   -0.744754    2.984316
  H      3.518194   -1.842797    2.451278
  H     -0.101194   -0.143377    1.719366
  H     -0.101488   -1.882411    2.212169
  H     -3.151583    2.922877    1.358668
  H     -3.962115    1.338276    1.210657
  H     -1.461560    1.848343    2.899113
  H     -3.104771    1.862129    3.557056
  H     -2.437535    0.365798    2.892981
  H     -4.331228   -1.738882   -0.642410
  H     -5.202503   -0.682536   -1.794532
  H     -3.304573   -0.961225   -3.418427
  H     -2.493481   -2.033168   -2.275497
  H     -4.034158   -2.522684   -2.998584

 Total Charge           Charge          ....    0
 Multiplicity           Mult            ....    1
 Number of Electrons    NEL             ....  202
 Basis Dimension        Dim             ....  334

ORBITAL ENERGIES
----------------

  NO   OCC          E(Eh)            E(eV)
   0   2.0000     -88.044865     -2395.8226
   1   2.0000     -88.039585     -2395.6789
   2   2.0000     -87.978902     -2394.0276
   3   2.0000     -87.972858     -2393.8632
   4   2.0000     -76.421053     -2079.5226
   5   2.0000     -76.420222     -2079.5000
   6   2.0000     -18.789879      -511.2986
   7   2.0000     -18.783021      -511.1120
   8   2.0000     -18.782844      -511.1072
   9   2.0000     -18.778682      -510.9939
  10   2.0000      -9.958799      -270.9927
  11   2.0000      -9.957969      -270.9701
  12   2.0000      -9.951336      -270.7896
  13   2.0000      -9.948652      -270.7166
  14   2.0000      -9.946582      -270.6603
  15   2.0000      -9.884302      -268.9655
  16   2.0000      -9.883782      -268.9514
  17   2.0000      -9.882687      -268.9216
  18   2.0000      -9.882016      -268.9033
  19   2.0000      -7.689826      -209.2508
  20   2.0000      -7.684264      -209.0995
  21   2.0000      -7.624000      -207.4596
  22   2.0000      -7.617817      -207.2913
  23   2.0000      -6.418164      -174.6471
  24   2.0000      -6.417264      -174.6226
  25   2.0000      -5.717409      -155.5786
  26   2.0000      -5.714278      -155.4934
  27   2.0000      -5.712169      -155.4360
  28   2.0000      -5.708843      -155.3455
  29   2.0000      -5.707158      -155.2997
  30   2.0000      -5.701185      -155.1371
  31   2.0000      -5.652912      -153.8236
  32   2.0000      -5.646939      -153.6610
  33   2.0000      -5.644926      -153.6063
  34   2.0000      -5.643771      -153.5748
  35   2.0000      -5.638338      -153.4270
  36   2.0000      -5.637882      -153.4146
  37   2.0000      -4.641145      -126.2920
  38   2.0000      -4.640307      -126.2692
  39   2.0000      -4.639856      -126.2569
  40   2.0000      -4.639028      -126.2344
  41   2.0000      -4.637953      -126.2051
  42   2.0000      -4.637791      -126.2007
  43   2.0000      -0.983661       -26.7668
  44   2.0000      -0.977721       -26.6051
  45   2.0000      -0.939762       -25.5722
  46   2.0000      -0.934942       -25.4411
  47   2.0000      -0.760848       -20.7037
  48   2.0000      -0.716570       -19.4989
  49   2.0000      -0.709026       -19.2936
  50   2.0000      -0.688310       -18.7299
  51   2.0000      -0.685356       -18.6495
  52   2.0000      -0.678033       -18.4502
  53   2.0000      -0.647314       -17.6143
  54   2.0000      -0.631381       -17.1807
  55   2.0000      -0.595517       -16.2048
  56   2.0000      -0.583758       -15.8849
  57   2.0000      -0.574004       -15.6195
  58   2.0000      -0.570337       -15.5197
  59   2.0000      -0.565969       -15.4008
  60   2.0000      -0.500452       -13.6180
  61   2.0000      -0.487159       -13.2563
  62   2.0000      -0.468520       -12.7491
  63   2.0000      -0.464275       -12.6336
  64   2.0000      -0.453667       -12.3449
  65   2.0000      -0.448035       -12.1916
  66   2.0000      -0.437323       -11.9002
  67   2.0000      -0.434069       -11.8116
  68   2.0000      -0.433426       -11.7941
  69   2.0000      -0.419820       -11.4239
  70   2.0000      -0.411114       -11.1870
  71   2.0000      -0.398177       -10.8350
  72   2.0000      -0.393096       -10.6967
  73   2.0000      -0.385243       -10.4830
  74   2.0000      -0.382810       -10.4168
  75   2.0000      -0.366052        -9.9608
  76   2.0000      -0.355716        -9.6795
  77   2.0000      -0.352963        -9.6046
  78   2.0000      -0.351158        -9.5555
  79   2.0000      -0.348019        -9.4701
  80   2.0000      -0.343453        -9.3458
  81   2.0000      -0.343151        -9.3376
  82   2.0000      -0.341618        -9.2959
  83   2.0000      -0.340200        -9.2573
  84   2.0000      -0.333589        -9.0774
  85   2.0000      -0.316592        -8.6149
  86   2.0000      -0.304667        -8.2904
  87   2.0000      -0.294763        -8.0209
  88   2.0000      -0.289061        -7.8658
  89   2.0000      -0.286982        -7.8092
  90   2.0000      -0.284030        -7.7288
  91   2.0000      -0.272222        -7.4075
  92   2.0000      -0.267222        -7.2715
  93   2.0000      -0.258099        -7.0232
  94   2.0000      -0.254941        -6.9373
  95   2.0000      -0.239903        -6.5281
  96   2.0000      -0.215469        -5.8632
  97   2.0000      -0.200716        -5.4618
  98   2.0000      -0.197834        -5.3833
  99   2.0000      -0.182959        -4.9786
 100   2.0000      -0.180983        -4.9248
 101   0.0000      -0.039513        -1.0752
 102   0.0000      -0.029978        -0.8157
 103   0.0000      -0.014599        -0.3973
 104   0.0000       0.001458         0.0397
 105   0.0000       0.022544         0.6135

MULLIKEN ATOMIC CHARGES
-----------------------
   0 C :   -0.316320
   1 C :   -0.007672
   2 O :   -0.351074
   3 P :    0.602951
   4 S :   -0.300935
   5 O :   -0.375455
   6 C :    0.003632
   7 C :   -0.319319
   8 S :   -0.101404
   9 C :   -0.361663
  10 S :   -0.127606
  11 P :    0.602818
  12 S :   -0.300785
  13 O :   -0.342128
  14 C :   -0.003518
  15 C :   -0.313778
  16 O :   -0.381406
  17 C :   -0.014621
  18 C :   -0.309540
  19 H :    0.125226
  20 H :    0.114091
  21 H :    0.123709
  22 H :    0.126592
  23 H :    0.110866
  24 H :    0.101598
  25 H :    0.108902
  26 H :    0.110346
  27 H :    0.118587
  28 H :    0.117884
  29 H :    0.208113
  30 H :    0.184438
  31 H :    0.111932
  32 H :    0.100312
  33 H :    0.139268
  34 H :    0.109285
  35 H :    0.116818
  36 H :    0.113352
  37 H :    0.110509
  38 H :    0.128773
  39 H :    0.127488
  40 H :    0.109732
Sum of atomic charges:    0.0000000

LOEWDIN ATOMIC CHARGES
----------------------
   0 C :   -0.367465
   1 C :   -0.115120
   2 O :   -0.223329
   3 P :    0.575884
   4 S :   -0.293942
   5 O :   -0.251507
   6 C :   -0.119210
   7 C :   -0.369568
   8 S :    0.073554
   9 C :   -0.483939
  10 S :    0.061039
  11 P :    0.561825
  12 S :   -0.298011
  13 O :   -0.224759
  14 C :   -0.109492
  15 C :   -0.368480
  16 O :   -0.246558
  17 C :   -0.115182
  18 C :   -0.371117
  19 H :    0.115610
  20 H :    0.132016
  21 H :    0.129451
  22 H :    0.110054
  23 H :    0.124118
  24 H :    0.117297
  25 H :    0.109109
  26 H :    0.129322
  27 H :    0.117839
  28 H :    0.124043
  29 H :    0.121236
  30 H :    0.136045
  31 H :    0.123711
  32 H :    0.108232
  33 H :    0.130709
  34 H :    0.129340
  35 H :    0.116112
  36 H :    0.107040
  37 H :    0.121916
  38 H :    0.131225
  39 H :    0.121646
  40 H :    0.129305

  Mayer bond orders larger than 0.100000
B(  0-C ,  1-C ) :   1.1661 B(  0-C , 19-H ) :   0.9368 B(  0-C , 20-H ) :   0.9353
B(  0-C , 21-H ) :   0.9416 B(  1-C ,  2-O ) :   0.8976 B(  1-C , 22-H ) :   0.9129
B(  1-C , 23-H ) :   0.9344 B(  2-O ,  3-P ) :   1.1584 B(  3-P ,  4-S ) :   1.6067
B(  3-P ,  5-O ) :   1.0697 B(  3-P ,  8-S ) :   0.9386 B(  4-S ,  8-S ) :   0.1128
B(  4-S , 29-H ) :   0.1196 B(  5-O ,  6-C ) :   0.9254 B(  6-C ,  7-C ) :   1.1619
B(  6-C , 24-H ) :   0.9344 B(  6-C , 25-H ) :   0.9136 B(  7-C , 26-H ) :   0.9378
B(  7-C , 27-H ) :   0.9374 B(  7-C , 28-H ) :   0.9431 B(  8-S ,  9-C ) :   1.0129
B(  9-C , 10-S ) :   0.9911 B(  9-C , 29-H ) :   0.8312 B(  9-C , 30-H ) :   0.9070
B( 10-S , 11-P ) :   0.9351 B( 10-S , 12-S ) :   0.1140 B( 11-P , 12-S ) :   1.6675
B( 11-P , 13-O ) :   1.1424 B( 11-P , 16-O ) :   1.0804 B( 13-O , 14-C ) :   0.8998
B( 14-C , 15-C ) :   1.1710 B( 14-C , 31-H ) :   0.9348 B( 14-C , 32-H ) :   0.9197
B( 15-C , 33-H ) :   0.9338 B( 15-C , 34-H ) :   0.9380 B( 15-C , 35-H ) :   0.9328
B( 16-O , 17-C ) :   0.9142 B( 17-C , 18-C ) :   1.1679 B( 17-C , 36-H ) :   0.9259
B( 17-C , 37-H ) :   0.9334 B( 18-C , 38-H ) :   0.9415 B( 18-C , 39-H ) :   0.9314
B( 18-C , 40-H ) :   0.9339

Dispersion correction           -0.068947310
FINAL SINGLE POINT ENERGY     -2929.506659978456

DIPOLE MOMENT
-------------

Method             : SCF
Type of density    : Electron Density
Multiplicity       :   1
Irrep              :   0
Energy             : -2929.6236939913292190 Eh
Relativity type    :
Basis              : AO
                                X                 Y                 Z
Electronic contribution:     -1.501619013       7.006696305      -5.786458356
Nuclear contribution   :      1.053122110      -8.239367018       6.534821853
                        -----------------------------------------
Total Dipole Moment    :     -0.448496903      -1.232670713       0.748363497
                        -----------------------------------------
Magnitude (a.u.)       :      1.510190214
Magnitude (Debye)      :      3.838598465

Rotational constants in cm-1:             0.012077             0.005802             0.004984
Rotational constants in MHz :           362.074143           173.926182           149.426418

                             ****ORCA TERMINATED NORMALLY****
TOTAL RUN TIME: 0 days 0 hours 0 minutes 21 seconds 742 msec
