                         Program Version 6.0.0  -   RELEASE  -
|  1> ! pbe def2-sv(p) def2/J RI DEFGRID1 loosescf d4 GCP(DFT/SV(P)) printgap
|  2> %output
|  3>     printlevel normal
|  4> end
|  5> * xyz 0 1
|  6> C 4.2059191448 0.3047259498 -2.5183638592
|  7> C 4.0477395164 -1.1253168985 -2.0416382963
|  8> O 3.9322393749 -1.2247780366 -0.612052495
|  9> P 2.8566511784 -0.4717506927 0.271196496
| 10> S 3.2061838041 1.4030378151 0.7541390713
| 11> O 2.9443743045 -1.4808993488 1.4863301823
| 12> C 2.5302587645 -1.134106537 2.8180306282
| 13> C 1.023913969 -1.2051643021 2.9710926028
| 14> S 1.0147533407 -0.8433501008 -0.7456623227
| 15> C 0.2599332921 0.8043111224 -0.6360981173
| 16> S -1.0312090601 0.9357597321 0.622304816
| 17> P -2.7519045172 0.5539649435 -0.5907172085
| 18> S -2.4137641889 0.1633769112 -2.478816369
| 19> O -3.6515958311 1.8377682993 -0.427938392
| 20> C -3.800868423 2.6467933909 0.7635522907
| 21> C -4.1805919628 1.8338567522 1.9816008591
| 22> O -3.6076922277 -0.5515065094 0.1694826829
| 23> C -3.4127042 -1.9609314673 -0.0202621617
| 24> C -2.1734014074 -2.464075391 0.6929403145
| 25> H 4.3945361907 0.3107676979 -3.5871750371
| 26> H 3.2986596885 0.8736457927 -2.3170267327
| 27> H 5.0346843901 0.7854841924 -2.0036156504
| 28> H 4.9346335699 -1.7195621815 -2.2685557794
| 29> H 3.1674774658 -1.5905360096 -2.4949753216
| 30> H 3.0324370893 -1.8687478276 3.4493793133
| 31> H 2.8997665342 -0.1302729183 3.0542561536
| 32> H 0.5480737679 -0.4141941121 2.3925543409
| 33> H 0.6592734842 -2.1684540893 2.6236237569
| 34> H 0.7631818669 -1.0764147286 4.0165131258
| 35> H -0.1811129099 1.0174824652 -1.6101612223
| 36> H 1.0375104238 1.5248759483 -0.371129637
| 37> H -2.8625021297 3.1820631837 0.9307613813
| 38> H -4.5850543334 3.352937203 0.486604787
| 39> H -3.3691677582 1.1586246002 2.2476363083
| 40> H -4.3661397711 2.506750732 2.81310105
| 41> H -5.0753620463 1.2503830294 1.7818670722
| 42> H -4.3193161026 -2.4079174488 0.3908315414
| 43> H -3.3535368048 -2.1659836461 -1.0943329914
| 44> H -2.1814600807 -2.1428102368 1.7313974675
| 45> H -2.1534016101 -3.5483820615 0.6518359486
| 46> H -1.2770716761 -2.0818657398 0.2070704994
| 47> *
| 48>
| 49>                          ****END OF INPUT****

CARTESIAN COORDINATES (ANGSTROEM)
---------------------------------
  C      4.205919    0.304726   -2.518364
  C      4.047740   -1.125317   -2.041638
  O      3.932239   -1.224778   -0.612052
  P      2.856651   -0.471751    0.271196
  S      3.206184    1.403038    0.754139
  O      2.944374   -1.480899    1.486330
  C      2.530259   -1.134107    2.818031
  C      1.023914   -1.205164    2.971093
  S      1.014753   -0.843350   -0.745662
  C      0.259933    0.804311   -0.636098
  S     -1.031209    0.935760    0.622305
  P     -2.751905    0.553965   -0.590717
  S     -2.413764    0.163377   -2.478816
  O     -3.651596    1.837768   -0.427938
  C     -3.800868    2.646793    0.763552
  C     -4.180592    1.833857    1.981601
  O     -3.607692   -0.551507    0.169483
  C     -3.412704   -1.960931   -0.020262
  C     -2.173401   -2.464075    0.692940
  H      4.394536    0.310768   -3.587175
  H      3.298660    0.873646   -2.317027
  H      5.034684    0.785484   -2.003616
  H      4.934634   -1.719562   -2.268556
  H      3.167477   -1.590536   -2.494975
  H      3.032437   -1.868748    3.449379
  H      2.899767   -0.130273    3.054256
  H      0.548074   -0.414194    2.392554
  H      0.659273   -2.168454    2.623624
  H      0.763182   -1.076415    4.016513
  H     -0.181113    1.017482   -1.610161
  H      1.037510    1.524876   -0.371130
  H     -2.862502    3.182063    0.930761
  H     -4.585054    3.352937    0.486605
  H     -3.369168    1.158625    2.247636
  H     -4.366140    2.506751    2.813101
  H     -5.075362    1.250383    1.781867
  H     -4.319316   -2.407917    0.390832
  H     -3.353537   -2.165984   -1.094333
  H     -2.181460   -2.142810    1.731397
  H     -2.153402   -3.548382    0.651836
  H     -1.277072   -2.081866    0.207070

 Total Charge           Charge          ....    0
 Multiplicity           Mult            ....    1
 Number of Electrons    NEL             ....  202
 Basis Dimension        Dim             ....  334

ORBITAL ENERGIES
----------------

  NO   OCC          E(Eh)            E(eV)
   0   2.0000     -88.049465     -2395.9477
   1   2.0000     -88.049009     -2395.9353
   2   2.0000     -87.993550     -2394.4262
   3   2.0000     -87.989808     -2394.3244
   4   2.0000     -76.430049     -2079.7674
   5   2.0000     -76.429742     -2079.7590
   6   2.0000     -18.794213      -511.4165
   7   2.0000     -18.794112      -511.4138
   8   2.0000     -18.792424      -511.3678
   9   2.0000     -18.789565      -511.2900
  10   2.0000      -9.960730      -271.0453
  11   2.0000      -9.956824      -270.9389
  12   2.0000      -9.953103      -270.8377
  13   2.0000      -9.952801      -270.8295
  14   2.0000      -9.951072      -270.7824
  15   2.0000      -9.893257      -269.2092
  16   2.0000      -9.884826      -268.9798
  17   2.0000      -9.883587      -268.9461
  18   2.0000      -9.883474      -268.9430
  19   2.0000      -7.693473      -209.3501
  20   2.0000      -7.693099      -209.3399
  21   2.0000      -7.638367      -207.8505
  22   2.0000      -7.634982      -207.7584
  23   2.0000      -6.427270      -174.8949
  24   2.0000      -6.427251      -174.8944
  25   2.0000      -5.721228      -155.6825
  26   2.0000      -5.720803      -155.6710
  27   2.0000      -5.717940      -155.5930
  28   2.0000      -5.717494      -155.5809
  29   2.0000      -5.710777      -155.3981
  30   2.0000      -5.710507      -155.3908
  31   2.0000      -5.667125      -154.2103
  32   2.0000      -5.663967      -154.1244
  33   2.0000      -5.658989      -153.9889
  34   2.0000      -5.658716      -153.9815
  35   2.0000      -5.655508      -153.8942
  36   2.0000      -5.655137      -153.8841
  37   2.0000      -4.649883      -126.5298
  38   2.0000      -4.649502      -126.5194
  39   2.0000      -4.649283      -126.5134
  40   2.0000      -4.648989      -126.5054
  41   2.0000      -4.647754      -126.4718
  42   2.0000      -4.647732      -126.4712
  43   2.0000      -0.990518       -26.9534
  44   2.0000      -0.989438       -26.9240
  45   2.0000      -0.947976       -25.7957
  46   2.0000      -0.945780       -25.7360
  47   2.0000      -0.763884       -20.7863
  48   2.0000      -0.724009       -19.7013
  49   2.0000      -0.715009       -19.4564
  50   2.0000      -0.693249       -18.8643
  51   2.0000      -0.685028       -18.6406
  52   2.0000      -0.681780       -18.5522
  53   2.0000      -0.654333       -17.8053
  54   2.0000      -0.642011       -17.4700
  55   2.0000      -0.604852       -16.4588
  56   2.0000      -0.599497       -16.3131
  57   2.0000      -0.578811       -15.7503
  58   2.0000      -0.572478       -15.5779
  59   2.0000      -0.562087       -15.2952
  60   2.0000      -0.498748       -13.5716
  61   2.0000      -0.495937       -13.4951
  62   2.0000      -0.475910       -12.9502
  63   2.0000      -0.468901       -12.7594
  64   2.0000      -0.462056       -12.5732
  65   2.0000      -0.451980       -12.2990
  66   2.0000      -0.443120       -12.0579
  67   2.0000      -0.437464       -11.9040
  68   2.0000      -0.429787       -11.6951
  69   2.0000      -0.424608       -11.5542
  70   2.0000      -0.413410       -11.2495
  71   2.0000      -0.407835       -11.0978
  72   2.0000      -0.402420       -10.9504
  73   2.0000      -0.389404       -10.5962
  74   2.0000      -0.379351       -10.3227
  75   2.0000      -0.376294       -10.2395
  76   2.0000      -0.370768       -10.0891
  77   2.0000      -0.359248        -9.7756
  78   2.0000      -0.357424        -9.7260
  79   2.0000      -0.352069        -9.5803
  80   2.0000      -0.348879        -9.4935
  81   2.0000      -0.346612        -9.4318
  82   2.0000      -0.343343        -9.3428
  83   2.0000      -0.341279        -9.2867
  84   2.0000      -0.340035        -9.2528
  85   2.0000      -0.320551        -8.7226
  86   2.0000      -0.311934        -8.4882
  87   2.0000      -0.300803        -8.1853
  88   2.0000      -0.297859        -8.1051
  89   2.0000      -0.295023        -8.0280
  90   2.0000      -0.289410        -7.8753
  91   2.0000      -0.276291        -7.5183
  92   2.0000      -0.272879        -7.4254
  93   2.0000      -0.266295        -7.2463
  94   2.0000      -0.259562        -7.0631
  95   2.0000      -0.232945        -6.3388
  96   2.0000      -0.225299        -6.1307
  97   2.0000      -0.215446        -5.8626
  98   2.0000      -0.209408        -5.6983
  99   2.0000      -0.206672        -5.6238
 100   2.0000      -0.205351        -5.5879
 101   0.0000      -0.046855        -1.2750
 102   0.0000      -0.040695        -1.1074
 103   0.0000      -0.019242        -0.5236
 104   0.0000       0.003934         0.1070
 105   0.0000       0.010468         0.2848

MULLIKEN ATOMIC CHARGES
-----------------------
   0 C :   -0.311276
   1 C :   -0.005988
   2 O :   -0.356300
   3 P :    0.593143
   4 S :   -0.324045
   5 O :   -0.351317
   6 C :   -0.002899
   7 C :   -0.328258
   8 S :   -0.097837
   9 C :   -0.345524
  10 S :   -0.122647
  11 P :    0.599730
  12 S :   -0.306810
  13 O :   -0.358669
  14 C :   -0.003521
  15 C :   -0.317397
  16 O :   -0.371720
  17 C :    0.001054
  18 C :   -0.338570
  19 H :    0.113807
  20 H :    0.121291
  21 H :    0.127411
  22 H :    0.110526
  23 H :    0.114257
  24 H :    0.105818
  25 H :    0.112480
  26 H :    0.133521
  27 H :    0.121785
  28 H :    0.109079
  29 H :    0.194352
  30 H :    0.195037
  31 H :    0.114623
  32 H :    0.114311
  33 H :    0.125271
  34 H :    0.117327
  35 H :    0.126891
  36 H :    0.103860
  37 H :    0.111862
  38 H :    0.117377
  39 H :    0.111209
  40 H :    0.146752
Sum of atomic charges:    0.0000000

LOEWDIN ATOMIC CHARGES
----------------------
   0 C :   -0.367552
   1 C :   -0.116889
   2 O :   -0.232031
   3 P :    0.568494
   4 S :   -0.304410
   5 O :   -0.232813
   6 C :   -0.119652
   7 C :   -0.368696
   8 S :    0.090398
   9 C :   -0.491444
  10 S :    0.085169
  11 P :    0.569053
  12 S :   -0.300968
  13 O :   -0.236153
  14 C :   -0.114045
  15 C :   -0.367004
  16 O :   -0.241967
  17 C :   -0.118141
  18 C :   -0.371918
  19 H :    0.131121
  20 H :    0.119568
  21 H :    0.130480
  22 H :    0.122210
  23 H :    0.108434
  24 H :    0.119034
  25 H :    0.108618
  26 H :    0.110336
  27 H :    0.126480
  28 H :    0.129732
  29 H :    0.126715
  30 H :    0.123534
  31 H :    0.111208
  32 H :    0.124641
  33 H :    0.117218
  34 H :    0.133278
  35 H :    0.130954
  36 H :    0.118083
  37 H :    0.111028
  38 H :    0.124050
  39 H :    0.130668
  40 H :    0.113178

  Mayer bond orders larger than 0.100000
B(  0-C ,  1-C ) :   1.1631 B(  0-C , 19-H ) :   0.9362 B(  0-C , 20-H ) :   0.9368
B(  0-C , 21-H ) :   0.9435 B(  1-C ,  2-O ) :   0.9161 B(  1-C , 22-H ) :   0.9332
B(  1-C , 23-H ) :   0.9225 B(  2-O ,  3-P ) :   1.1358 B(  3-P ,  4-S ) :   1.5936
B(  3-P ,  5-O ) :   1.1321 B(  3-P ,  8-S ) :   0.9368 B(  4-S ,  8-S ) :   0.1226
B(  4-S , 30-H ) :   0.1174 B(  5-O ,  6-C ) :   0.9157 B(  6-C ,  7-C ) :   1.1592
B(  6-C , 24-H ) :   0.9332 B(  6-C , 25-H ) :   0.9105 B(  7-C , 26-H ) :   0.9303
B(  7-C , 27-H ) :   0.9433 B(  7-C , 28-H ) :   0.9386 B(  8-S ,  9-C ) :   1.0112
B(  9-C , 10-S ) :   1.0166 B(  9-C , 29-H ) :   0.8599 B(  9-C , 30-H ) :   0.8468
B( 10-S , 11-P ) :   0.9354 B( 10-S , 12-S ) :   0.1109 B( 11-P , 12-S ) :   1.6338
B( 11-P , 13-O ) :   1.1473 B( 11-P , 16-O ) :   1.0919 B( 13-O , 14-C ) :   0.9027
B( 14-C , 15-C ) :   1.1693 B( 14-C , 31-H ) :   0.9212 B( 14-C , 32-H ) :   0.9332
B( 15-C , 33-H ) :   0.9371 B( 15-C , 34-H ) :   0.9347 B( 15-C , 35-H ) :   0.9422
B( 16-O , 17-C ) :   0.9114 B( 17-C , 18-C ) :   1.1614 B( 17-C , 36-H ) :   0.9337
B( 17-C , 37-H ) :   0.9129 B( 18-C , 38-H ) :   0.9441 B( 18-C , 39-H ) :   0.9378
B( 18-C , 40-H ) :   0.9253

Dispersion correction           -0.064047400
FINAL SINGLE POINT ENERGY     -2929.518793905228

DIPOLE MOMENT
-------------

Method             : SCF
Type of density    : Electron Density
Multiplicity       :   1
Irrep              :   0
Energy             : -2929.6397701558566951 Eh
Relativity type    :
Basis              : AO
                                X                 Y                 Z
Electronic contribution:      3.412091860       4.683607534      -9.770522432
Nuclear contribution   :     -3.831150005      -5.163712924      10.696576264
                        -----------------------------------------
Total Dipole Moment    :     -0.419058146      -0.480105391       0.926053832
                        -----------------------------------------
Magnitude (a.u.)       :      1.124138166
Magnitude (Debye)      :      2.857332142

Rotational constants in cm-1:             0.012294             0.004403             0.004143
Rotational constants in MHz :           368.567659           132.002767           124.215489

                             ****ORCA TERMINATED NORMALLY****
TOTAL RUN TIME: 0 days 0 hours 0 minutes 21 seconds 145 msec
