                         Program Version 6.0.1  -  RELEASE   -
|  1> ! pbe def2-sv(p) def2/J RI DEFGRID1 loosescf d4 GCP(DFT/SV(P)) printgap
|  2> %output
|  3>     printlevel normal
|  4> end
|  5> * xyz 0 1
|  6> C 3.8552217703 -4.0691565652 -1.5501823436
|  7> C 2.9243648854 -3.0328504035 -2.1590754268
|  8> O 2.797760753 -1.8820249775 -1.3004748035
|  9> C 1.9027120694 -1.9148574879 -0.3358162698
| 10> O 1.1600867232 -2.8451146998 -0.1127019397
| 11> C 1.871374971 -0.6095453653 0.4356266674
| 12> C 1.2062856173 0.4683080519 -0.4224877678
| 13> H 1.8415552738 0.6902759816 -1.2868986869
| 14> C 1.0184263893 1.7607443936 0.3576533603
| 15> O 1.8528809714 2.1755558627 1.1245002092
| 16> O -0.1156401083 2.3663291729 0.0629187137
| 17> C -0.3961820757 3.6288945145 0.7009941333
| 18> C 0.2045962112 4.7766800921 -0.0917426682
| 19> S -0.3538802319 -0.1069516145 -1.1715569121
| 20> P -1.696362105 0.0778892642 0.4687597483
| 21> S -1.0048902144 0.2742715446 2.2922155943
| 22> O -2.7197516025 1.2209219862 0.0965636256
| 23> C -3.4223741459 1.2487112211 -1.1628238804
| 24> O -2.6165303377 -1.2180111689 0.2628362959
| 25> C -2.1569329598 -2.5198140945 0.6415103568
| 26> H 3.4327598932 -4.454422316 -0.6249021084
| 27> H 3.9824389057 -4.8903362602 -2.2477102685
| 28> H 4.8239719514 -3.6248671879 -1.3387541527
| 29> H 1.928744288 -3.45419609 -2.3234868667
| 30> H 3.327685572 -2.6328965484 -3.0892436907
| 31> H 2.884168954 -0.2861989088 0.6758019189
| 32> H 1.3096059025 -0.7585967449 1.3597869306
| 33> H -1.4850566728 3.6799532501 0.7315031047
| 34> H 0.0050211048 3.5940662188 1.7179152386
| 35> H 1.289582645 4.7029894628 -0.0916487014
| 36> H -0.1557092467 4.7540100165 -1.1164466261
| 37> H -0.0846382521 5.7147470625 0.3699734546
| 38> H -3.9870672132 2.1771987302 -1.1516829197
| 39> H -4.0880109543 0.390945136 -1.2344528314
| 40> H -2.7078202057 1.2385744597 -1.9857900418
| 41> H -1.2377157732 -2.7777928444 0.1130693972
| 42> H -2.9581884157 -3.2020251216 0.3712171948
| 43> H -1.9726910782 -2.549977851 1.716104369
| 44> *
| 45>
| 46>                          ****END OF INPUT****

CARTESIAN COORDINATES (ANGSTROEM)
---------------------------------
  C      3.855222   -4.069157   -1.550182
  C      2.924365   -3.032850   -2.159075
  O      2.797761   -1.882025   -1.300475
  C      1.902712   -1.914857   -0.335816
  O      1.160087   -2.845115   -0.112702
  C      1.871375   -0.609545    0.435627
  C      1.206286    0.468308   -0.422488
  H      1.841555    0.690276   -1.286899
  C      1.018426    1.760744    0.357653
  O      1.852881    2.175556    1.124500
  O     -0.115640    2.366329    0.062919
  C     -0.396182    3.628895    0.700994
  C      0.204596    4.776680   -0.091743
  S     -0.353880   -0.106952   -1.171557
  P     -1.696362    0.077889    0.468760
  S     -1.004890    0.274272    2.292216
  O     -2.719752    1.220922    0.096564
  C     -3.422374    1.248711   -1.162824
  O     -2.616530   -1.218011    0.262836
  C     -2.156933   -2.519814    0.641510
  H      3.432760   -4.454422   -0.624902
  H      3.982439   -4.890336   -2.247710
  H      4.823972   -3.624867   -1.338754
  H      1.928744   -3.454196   -2.323487
  H      3.327686   -2.632897   -3.089244
  H      2.884169   -0.286199    0.675802
  H      1.309606   -0.758597    1.359787
  H     -1.485057    3.679953    0.731503
  H      0.005021    3.594066    1.717915
  H      1.289583    4.702989   -0.091649
  H     -0.155709    4.754010   -1.116447
  H     -0.084638    5.714747    0.369973
  H     -3.987067    2.177199   -1.151683
  H     -4.088011    0.390945   -1.234453
  H     -2.707820    1.238574   -1.985790
  H     -1.237716   -2.777793    0.113069
  H     -2.958188   -3.202025    0.371217
  H     -1.972691   -2.549978    1.716104

 Total Charge           Charge          ....    0
 Multiplicity           Mult            ....    1
 Number of Electrons    NEL             ....  174
 Basis Dimension        Dim             ....  316

ORBITAL ENERGIES
----------------

  NO   OCC          E(Eh)            E(eV)
   0   2.0000     -88.040314     -2395.6987
   1   2.0000     -87.984065     -2394.1681
   2   2.0000     -76.426351     -2079.6667
   3   2.0000     -18.808611      -511.8083
   4   2.0000     -18.807235      -511.7709
   5   2.0000     -18.795317      -511.4466
   6   2.0000     -18.787623      -511.2372
   7   2.0000     -18.740837      -509.9641
   8   2.0000     -18.739076      -509.9162
   9   2.0000     -10.018122      -272.6069
  10   2.0000     -10.011634      -272.4304
  11   2.0000      -9.953855      -270.8582
  12   2.0000      -9.952019      -270.8082
  13   2.0000      -9.951640      -270.7979
  14   2.0000      -9.944476      -270.6030
  15   2.0000      -9.931936      -270.2617
  16   2.0000      -9.901354      -269.4296
  17   2.0000      -9.890068      -269.1224
  18   2.0000      -9.887049      -269.0403
  19   2.0000      -7.684968      -209.1186
  20   2.0000      -7.629087      -207.5980
  21   2.0000      -6.423232      -174.7850
  22   2.0000      -5.712946      -155.4572
  23   2.0000      -5.709516      -155.3638
  24   2.0000      -5.701795      -155.1537
  25   2.0000      -5.658292      -153.9699
  26   2.0000      -5.649576      -153.7328
  27   2.0000      -5.649045      -153.7183
  28   2.0000      -4.645974      -126.4234
  29   2.0000      -4.645117      -126.4001
  30   2.0000      -4.643597      -126.3587
  31   2.0000      -1.015640       -27.6370
  32   2.0000      -1.014497       -27.6059
  33   2.0000      -0.985703       -26.8223
  34   2.0000      -0.940293       -25.5867
  35   2.0000      -0.920850       -25.0576
  36   2.0000      -0.917886       -24.9769
  37   2.0000      -0.767757       -20.8917
  38   2.0000      -0.714825       -19.4514
  39   2.0000      -0.700603       -19.0644
  40   2.0000      -0.693337       -18.8667
  41   2.0000      -0.657190       -17.8831
  42   2.0000      -0.632228       -17.2038
  43   2.0000      -0.623146       -16.9567
  44   2.0000      -0.617221       -16.7954
  45   2.0000      -0.599318       -16.3083
  46   2.0000      -0.568074       -15.4581
  47   2.0000      -0.515126       -14.0173
  48   2.0000      -0.503392       -13.6980
  49   2.0000      -0.499663       -13.5965
  50   2.0000      -0.481885       -13.1128
  51   2.0000      -0.473214       -12.8768
  52   2.0000      -0.452923       -12.3247
  53   2.0000      -0.443483       -12.0678
  54   2.0000      -0.438073       -11.9206
  55   2.0000      -0.431516       -11.7421
  56   2.0000      -0.422406       -11.4943
  57   2.0000      -0.421454       -11.4683
  58   2.0000      -0.414869       -11.2892
  59   2.0000      -0.406840       -11.0707
  60   2.0000      -0.399299       -10.8655
  61   2.0000      -0.397138       -10.8067
  62   2.0000      -0.393635       -10.7114
  63   2.0000      -0.386665       -10.5217
  64   2.0000      -0.383571       -10.4375
  65   2.0000      -0.366848        -9.9824
  66   2.0000      -0.359495        -9.7824
  67   2.0000      -0.352881        -9.6024
  68   2.0000      -0.345585        -9.4038
  69   2.0000      -0.338835        -9.2202
  70   2.0000      -0.333103        -9.0642
  71   2.0000      -0.330974        -9.0063
  72   2.0000      -0.324684        -8.8351
  73   2.0000      -0.314955        -8.5704
  74   2.0000      -0.304518        -8.2864
  75   2.0000      -0.300733        -8.1834
  76   2.0000      -0.296246        -8.0613
  77   2.0000      -0.293552        -7.9880
  78   2.0000      -0.271853        -7.3975
  79   2.0000      -0.265352        -7.2206
  80   2.0000      -0.262597        -7.1456
  81   2.0000      -0.257956        -7.0193
  82   2.0000      -0.238208        -6.4820
  83   2.0000      -0.224266        -6.1026
  84   2.0000      -0.212145        -5.7728
  85   2.0000      -0.201542        -5.4842
  86   2.0000      -0.200784        -5.4636
  87   0.0000      -0.042372        -1.1530
  88   0.0000      -0.033026        -0.8987
  89   0.0000      -0.018807        -0.5118
  90   0.0000       0.003446         0.0938
  91   0.0000       0.015695         0.4271

MULLIKEN ATOMIC CHARGES
-----------------------
   0 C :   -0.305935
   1 C :   -0.010403
   2 O :   -0.232840
   3 C :    0.125203
   4 O :   -0.194906
   5 C :   -0.045752
   6 C :   -0.336432
   7 H :    0.155681
   8 C :    0.208575
   9 O :   -0.185214
  10 O :   -0.229170
  11 C :   -0.008143
  12 C :   -0.303302
  13 S :   -0.102988
  14 P :    0.618548
  15 S :   -0.305797
  16 O :   -0.365035
  17 C :   -0.109240
  18 O :   -0.390459
  19 C :   -0.125358
  20 H :    0.129187
  21 H :    0.114096
  22 H :    0.115891
  23 H :    0.107902
  24 H :    0.102574
  25 H :    0.118340
  26 H :    0.121414
  27 H :    0.107309
  28 H :    0.116579
  29 H :    0.124275
  30 H :    0.110504
  31 H :    0.114949
  32 H :    0.129445
  33 H :    0.128008
  34 H :    0.122756
  35 H :    0.144755
  36 H :    0.116112
  37 H :    0.118870
Sum of atomic charges:    0.0000000

LOEWDIN ATOMIC CHARGES
----------------------
   0 C :   -0.355952
   1 C :   -0.110847
   2 O :   -0.060271
   3 C :    0.024903
   4 O :   -0.161986
   5 C :   -0.250144
   6 C :   -0.259237
   7 H :    0.151951
   8 C :    0.009560
   9 O :   -0.148514
  10 O :   -0.060405
  11 C :   -0.110238
  12 C :   -0.355782
  13 S :    0.097731
  14 P :    0.579217
  15 S :   -0.290766
  16 O :   -0.238182
  17 C :   -0.210987
  18 O :   -0.261749
  19 C :   -0.223125
  20 H :    0.131541
  21 H :    0.131287
  22 H :    0.125798
  23 H :    0.120173
  24 H :    0.117846
  25 H :    0.145848
  26 H :    0.134378
  27 H :    0.118570
  28 H :    0.123666
  29 H :    0.129207
  30 H :    0.123140
  31 H :    0.131698
  32 H :    0.124849
  33 H :    0.118145
  34 H :    0.109915
  35 H :    0.116487
  36 H :    0.118678
  37 H :    0.113597

  Mayer bond orders larger than 0.100000
B(  0-C ,  1-C ) :   1.1746 B(  0-C , 20-H ) :   0.9460 B(  0-C , 21-H ) :   0.9440
B(  0-C , 22-H ) :   0.9483 B(  1-C ,  2-O ) :   0.9138 B(  1-C , 23-H ) :   0.9141
B(  1-C , 24-H ) :   0.9368 B(  2-O ,  3-C ) :   1.2227 B(  3-C ,  4-O ) :   1.9962
B(  3-C ,  5-C ) :   1.0222 B(  5-C ,  6-C ) :   1.0607 B(  5-C , 25-H ) :   0.8728
B(  5-C , 26-H ) :   0.8774 B(  6-C ,  7-H ) :   0.8576 B(  6-C ,  8-C ) :   0.9204
B(  6-C , 13-S ) :   1.0135 B(  8-C ,  9-O ) :   2.0634 B(  8-C , 10-O ) :   1.2433
B( 10-O , 11-C ) :   0.8983 B( 11-C , 12-C ) :   1.1722 B( 11-C , 27-H ) :   0.9312
B( 11-C , 28-H ) :   0.9141 B( 12-C , 29-H ) :   0.9458 B( 12-C , 30-H ) :   0.9483
B( 12-C , 31-H ) :   0.9454 B( 13-S , 14-P ) :   0.9491 B( 13-S , 15-S ) :   0.1157
B( 14-P , 15-S ) :   1.6207 B( 14-P , 16-O ) :   1.1191 B( 14-P , 18-O ) :   1.0820
B( 16-O , 17-C ) :   0.9176 B( 17-C , 32-H ) :   0.9595 B( 17-C , 33-H ) :   0.9475
B( 17-C , 34-H ) :   0.9369 B( 18-O , 19-C ) :   0.9188 B( 19-C , 35-H ) :   0.9236
B( 19-C , 36-H ) :   0.9563 B( 19-C , 37-H ) :   0.9441

Dispersion correction           -0.053465114
FINAL SINGLE POINT ENERGY     -1979.022423677208

DIPOLE MOMENT
-------------

Method             : SCF
Type of density    : Electron Density
Multiplicity       :   1
Irrep              :   0
Energy             : -1979.1515748672891277 Eh
Relativity type    :
Basis              : AO
                                X                 Y                 Z
Electronic contribution:     -7.467662807       1.688867271       7.496220671
Nuclear contribution   :      7.328833646      -1.661287510      -9.301554188
                        -----------------------------------------
Total Dipole Moment    :     -0.138829161       0.027579761      -1.805333517
                        -----------------------------------------
Magnitude (a.u.)       :      1.810873626
Magnitude (Debye)      :      4.602874960

Rotational constants in cm-1:             0.013402             0.007238             0.005755
Rotational constants in MHz :           401.785261           216.982379           172.520269

                             ****ORCA TERMINATED NORMALLY****
TOTAL RUN TIME: 0 days 0 hours 0 minutes 38 seconds 377 msec
